Membrane in water
40347
    1TMC1    C1    1   0.416   1.074  12.120  0.0790  0.1150  0.4920
    1TMC1    C2    2   0.366   1.179  12.047 -0.6505  0.3563  0.2840
    1TMC1    C3    3   0.438   1.297  12.061  0.3872 -0.0770  0.1037
    1TMC1    C4    4   0.525   1.077  12.202 -0.4333  0.2108  0.1095
    1TMC1    C5    5   0.592   1.198  12.211 -0.4164  0.3082  0.1115
    1TMC1    C6    6   0.544   1.300  12.138 -0.2187 -0.9430 -0.3677
    1TMC1     C    7   0.360   0.947  12.104  0.4606 -0.6664 -0.2206
    1TMC1     O    8   0.240   0.936  12.094 -0.0218  0.4170 -0.0901
    1TMC1     H    9   0.268   1.169  12.003 -0.6148  1.6639 -0.0801
    1TMC1    H1   10   0.545   1.001  12.277  1.2341  2.5232  1.9911
    1TMC1    H2   11   0.598   1.389  12.165 -0.9770 -0.4971 -0.3152
    1TMC1    C7   12   0.717   1.206  12.284  0.4011 -0.3543 -0.2546
    1TMC1    C8   13   0.366   1.427  12.041  0.5224 -0.2090 -0.5648
    1TMC1    O1   14   0.781   1.308  12.311  0.0086  0.2341  0.3827
    1TMC1    O2   15   0.398   1.524  12.107 -0.5413 -0.8403 -0.8341
    1TMC1    O3   16   0.758   1.081  12.312  0.3148 -0.1807 -0.2823
    1TMC1    H3   17   0.720   1.009  12.258 -2.0175 -0.4205  1.6866
    1TMC1    O5   18   0.253   1.411  11.967 -0.4623 -0.3502  0.4005
    1TMC1    H5   19   0.250   1.331  11.909 -3.4253  0.5764 -0.7258
    2MPD2     C   20   0.370   0.424  12.076  0.5103 -0.2084  0.7429
    2MPD2    C1   21   0.277   0.513  12.124  0.0265 -0.4789  0.0488
    2MPD2    C2   22   0.297   0.651  12.126  0.1497 -0.2045  0.2590
    2MPD2    C3   23   0.422   0.705  12.094  0.0293  0.4189  0.8372
    2MPD2    C4   24   0.524   0.619  12.051 -0.2088  0.3320 -0.1775
    2MPD2    C5   25   0.493   0.481  12.043 -0.3928 -0.4874 -0.2147
    2MPD2     H   26   0.214   0.714  12.154 -0.0096 -0.8038  1.1557
    2MPD2    H1   27   0.622   0.660  12.033 -0.4252  2.3969  3.4162
    2MPD2    H2   28   0.358   0.319  12.055  1.1638 -0.4465  1.5709
    2MPD2    H3   29   0.570   0.412  12.012 -1.9864 -1.5969 -1.7046
    2MPD2     N   30   0.455   0.841  12.105 -0.6223 -0.7973 -0.0912
    2MPD2    H5   31   0.555   0.854  12.107 -0.6876 -0.6573  2.3453
    2MPD2    N1   32   0.155   0.462  12.172  0.2847  0.0962  0.3335
    2MPD2    H7   33   0.091   0.536  12.197  0.2300 -0.3007  1.3421
    3TMC1    C1   34   3.469   2.658  10.648 -0.6614  0.2305  0.0083
    3TMC1    C2   35   3.522   2.704  10.765 -0.2397 -0.0056 -0.5387
    3TMC1    C3   36   3.568   2.830  10.771 -0.5708 -0.0591 -1.0194
    3TMC1    C4   37   3.471   2.733  10.534 -0.1527 -0.6129  0.7084
    3TMC1    C5   38   3.522   2.860  10.544 -0.2555 -0.3487 -0.5424
    3TMC1    C6   39   3.582   2.907  10.659  0.8161  0.7512  0.4230
    3TMC1     C   40   3.485   2.516  10.609  0.1351  0.5594  0.1766
    3TMC1     O   41   3.486   2.482  10.493  0.2266 -0.6252  0.7159
    3TMC1     H   42   3.538   2.633  10.846 -2.2637  1.1907  0.8959
    3TMC1    H1   43   3.439   2.689  10.440  1.2479  1.7579 -0.8604
    3TMC1    H2   44   3.622   3.008  10.664  0.5638  0.9298 -1.0862
    3TMC1    C7   45   3.529   2.949  10.438 -0.3579 -0.3071 -0.5921
    3TMC1    C8   46   3.637   2.879  10.890 -0.1020 -0.0302  0.5919
    3TMC1    O1   47   3.447   2.956  10.351  0.3298 -0.4118  0.3204
    3TMC1    O2   48   3.723   2.962  10.892 -0.1857  0.5370  0.0455
    3TMC1    O3   49   3.650   3.010  10.429  0.4380 -0.0825  0.1750
    3TMC1    H3   50   3.717   3.002  10.500  1.5045 -0.6539 -0.8964
    3TMC1    O5   51   3.561   2.854  10.998  0.3281  0.6573  0.0078
    3TMC1    H5   52   3.467   2.842  10.973 -0.0349  1.0404  1.1858
    4MPD2     C   53   3.659   2.048  10.789 -0.0763 -0.1625  0.1733
    4MPD2    C1   54   3.609   2.126  10.889 -0.3303 -0.1622 -0.5399
    4MPD2    C2   55   3.562   2.250  10.860  1.2304 -0.6700 -0.1800
    4MPD2    C3   56   3.554   2.302  10.732  0.2081  0.2401  0.1636
    4MPD2    C4   57   3.603   2.222  10.632 -0.5335 -0.5093  0.2739
    4MPD2    C5   58   3.654   2.099  10.663 -0.6170  0.0959  0.8683
    4MPD2     H   59   3.523   2.309  10.942 -2.0207 -0.1988 -2.0754
    4MPD2    H1   60   3.611   2.262  10.531  0.4131  0.4337  0.7370
    4MPD2    H2   61   3.693   1.948  10.809 -2.0346 -1.2113 -1.6868
    4MPD2    H3   62   3.711   2.036  10.596 -1.0614 -0.5172  1.0692
    4MPD2     N   63   3.510   2.441  10.720 -0.0650 -0.1454  0.0790
    4MPD2    H5   64   3.488   2.481  10.810  0.3017 -0.3567  0.2618
    4MPD2    N1   65   3.595   2.088  11.027  0.3118 -0.1587  0.4828
    4MPD2    H7   66   3.560   2.160  11.089 -0.7714 -0.6281  0.4301
    5TCq1    O1   67   4.291   3.570  12.122 -0.2651 -0.0535 -0.0052
    5TCq1    C1   68   4.326   3.501  12.009  0.9431 -0.1434 -0.3741
    5TCq1    O2   69   4.437   3.486  11.956  0.0665 -0.2067  0.8340
    5TCq1    C2   70   4.205   3.491  11.929  0.0923  0.1578  0.1750
    5TCq1    C3   71   4.083   3.471  11.990 -0.2493  0.7054  1.0725
    5TCq1    C4   72   3.966   3.470  11.915  1.0163  0.1625  0.3231
    5TCq1    C5   73   3.976   3.475  11.777  0.4294  0.0584  0.1239
    5TCq1    C6   74   4.100   3.479  11.726  0.5639  0.1417  0.2850
    5TCq1    C7   75   4.218   3.500  11.793  0.3180  0.0253  0.5151
    5TCq1    C8   76   4.108   3.467  11.581  0.3557 -0.1973 -1.0884
    5TCq1    O4   77   4.191   3.394  11.531  0.3531 -0.0046 -0.0667
    5TCq1    C9   78   3.843   3.439  11.974 -0.5528  0.0228 -0.4932
    5TCq1    O5   79   3.841   3.421  12.099  0.6618  0.5612 -0.3255
    5TCq1    O6   80   3.757   3.400  11.888 -0.4254  0.3606 -0.8783
    5TCq1    H1   81   4.198   3.598  12.131 -1.1064 -2.7568 -0.1189
    5TCq1    H2   82   4.069   3.456  12.096 -1.2684  2.8753  1.2502
    5TCq1    H3   83   3.897   3.446  11.709 -1.6069 -0.2604  2.6357
    5TCq1    H4   84   4.315   3.505  11.746  1.3341  1.8345  2.7655
    6MPD2     C   85   3.831   3.589  11.382  0.2590  0.2520  0.0431
    6MPD2    C1   86   3.954   3.527  11.403 -0.3377  1.0510  0.4123
    6MPD2    C2   87   4.009   3.452  11.293 -0.3087 -0.1340 -0.2769
    6MPD2    C3   88   3.938   3.418  11.178 -0.0326 -0.6758 -1.0733
    6MPD2    C4   89   3.809   3.480  11.166 -0.8335  0.0879 -0.7126
    6MPD2    C5   90   3.759   3.563  11.268 -0.7680 -0.4790 -0.2368
    6MPD2     H   91   4.101   3.394  11.298  0.1709  0.8431  2.3230
    6MPD2    H1   92   3.743   3.470  11.081 -0.9639 -1.0239 -0.4829
    6MPD2    H2   93   3.783   3.651  11.457 -1.0529 -1.0114  0.2463
    6MPD2    H3   94   3.670   3.620  11.242  0.4936  0.8767 -1.6287
    6MPD2     N   95   3.985   3.311  11.093  0.2180 -0.0360 -0.2641
    6MPD2    H5   96   4.070   3.265  11.124  0.9885  0.6254 -1.3804
    6MPD2    N1   97   4.011   3.549  11.528 -0.6472 -0.0048  0.6161
    6MPD2    H7   98   3.964   3.624  11.578 -2.7521  1.0069 -2.9153
    7TCq1    O1   99   1.012   2.358  12.705  0.1465  0.2083  0.6388
    7TCq1    C1  100   1.138   2.374  12.758  0.5947  1.0140  0.5788
    7TCq1    O2  101   1.236   2.410  12.696 -0.4066  0.2109 -0.1990
    7TCq1    C2  102   1.142   2.331  12.894  0.1862  0.2823 -0.1427
    7TCq1    C3  103   1.030   2.314  12.973  0.2721  0.0323 -0.0782
    7TCq1    C4  104   1.040   2.329  13.107  0.4724  0.6466  0.0953
    7TCq1    C5  105   1.165   2.356  13.166  0.9533 -0.3150  0.6637
    7TCq1    C6  106   1.276   2.361  13.089  0.1777  0.9469  0.0325
    7TCq1    C7  107   1.265   2.349  12.953  0.1424  0.1962 -0.0664
    7TCq1    C8  108   1.404   2.348  13.153 -0.1944  0.5128 -0.6693
    7TCq1    O4  109   1.404   2.312  13.270 -0.6000  0.2948  0.0145
    7TCq1    C9  110   0.921   2.323  13.187  0.1520 -0.1721  0.1988
    7TCq1    O5  111   0.817   2.342  13.123 -0.1637 -0.1612  0.7730
    7TCq1    O6  112   0.929   2.279  13.306  0.1361 -0.3097  0.2401
    7TCq1    H1  113   0.953   2.323  12.775 -2.0076  0.0688 -1.2434
    7TCq1    H2  114   0.935   2.291  12.927  1.6224 -0.5048 -2.6167
    7TCq1    H3  115   1.175   2.381  13.271 -1.0230  3.3967 -0.0155
    7TCq1    H4  116   1.345   2.376  12.884 -1.1349  2.4147 -0.6578
    8MPD2     C  117   1.911   2.366  13.123  0.1346 -0.0342  0.3437
    8MPD2    C1  118   1.837   2.306  13.213  0.2596 -0.3479  0.1332
    8MPD2    C2  119   1.702   2.310  13.198 -0.5178  0.0531  0.1557
    8MPD2    C3  120   1.642   2.380  13.096  0.0411 -0.6193  0.3855
    8MPD2    C4  121   1.719   2.431  12.998  0.7227 -0.2203  0.0905
    8MPD2    C5  122   1.859   2.431  13.014  0.1812 -0.0315 -0.2324
    8MPD2     H  123   1.642   2.265  13.277  1.0290  0.6839  1.6847
    8MPD2    H1  124   1.680   2.477  12.908 -3.0696  0.9273  2.3034
    8MPD2    H2  125   2.019   2.368  13.124  0.1255  0.1199  1.6794
    8MPD2    H3  126   1.929   2.465  12.940 -0.3202 -1.4006 -1.3265
    8MPD2     N  127   1.506   2.382  13.071  0.2485  0.0105  0.1578
    8MPD2    H5  128   1.483   2.422  12.981  1.1037 -2.3531 -1.1038
    8MPD2    N1  129   1.909   2.239  13.317  0.3036 -0.6307  0.2396
    8MPD2    H7  130   2.007   2.264  13.304 -0.0896  0.6579 -0.2497
    9TMC1    C1  131   4.517   1.413  11.138  0.4377 -0.3768  0.9797
    9TMC1    C2  132   4.559   1.345  11.020  0.0931  0.1429  0.9609
    9TMC1    C3  133   4.464   1.262  10.966 -0.1542  0.4675  0.8730
    9TMC1    C4  134   4.384   1.403  11.180  0.6918 -0.4598  0.0868
    9TMC1    C5  135   4.294   1.334  11.114 -0.7849 -0.3171  0.6005
    9TMC1    C6  136   4.336   1.260  11.005 -0.6251  0.2542  0.0107
    9TMC1     C  137   4.617   1.490  11.213  0.0654 -0.6565 -1.1019
    9TMC1     O  138   4.722   1.530  11.163 -0.2917  0.4522  0.2625
    9TMC1     H  139   4.661   1.348  10.984 -1.2737 -0.2666 -2.8333
    9TMC1    H1  140   4.357   1.482  11.250 -0.3959  0.3858 -1.2755
    9TMC1    H2  141   4.270   1.199  10.945  1.0846 -0.0516 -1.5693
    9TMC1    C7  142   4.173   1.408  11.078 -0.6057 -0.4943 -0.3766
    9TMC1    C8  143   4.496   1.188  10.847  0.4392 -0.2193 -0.1147
    9TMC1    O1  144   4.126   1.386  10.965  0.5249 -0.2696 -0.0756
    9TMC1    O2  145   4.424   1.097  10.805  0.5813  0.2668 -0.1827
    9TMC1    O3  146   4.108   1.454  11.187  0.1807 -0.0949 -0.2759
    9TMC1    H3  147   4.178   1.473  11.253  0.2236 -0.8044 -0.1239
    9TMC1    O5  148   4.574   1.258  10.766  0.5006  0.2861 -0.9203
    9TMC1    H5  149   4.584   1.351  10.796 -0.6939 -0.5411  2.0801
   10MPD2     C  150   0.065   1.563  11.444  0.5743 -0.7248 -0.1303
   10MPD2    C1  151   4.673   1.519  11.460 -0.2851 -0.8580 -0.2401
   10MPD2    C2  152   4.620   1.514  11.586 -0.5855  0.0106 -0.2132
   10MPD2    C3  153   4.698   1.539  11.698 -0.5778 -0.4918  0.1048
   10MPD2    C4  154   0.091   1.583  11.682 -0.4316  0.2830 -0.4072
   10MPD2    C5  155   0.141   1.589  11.552 -0.2422 -0.0038  0.0277
   10MPD2     H  156   4.514   1.492  11.599 -0.3933  0.4954  2.1810
   10MPD2    H1  157   0.158   1.606  11.764 -3.0213  1.0620  1.4740
   10MPD2    H2  158   0.112   1.578  11.347 -0.5843 -0.4367 -0.6488
   10MPD2    H3  159   0.244   1.621  11.538  0.0332 -1.3835 -1.0648
   10MPD2     N  160   4.655   1.527  11.832  0.0641 -0.0207  0.1157
   10MPD2    H5  161   4.725   1.560  11.899  1.7791  0.6933 -2.0220
   10MPD2    N1  162   4.586   1.485  11.351  0.1136  0.1970 -0.4803
   10MPD2    H7  163   4.503   1.434  11.379  0.3495  0.4417  0.6664
   11TCq1    O1  164   4.228   1.408  14.227 -0.1564  0.2089 -0.2876
   11TCq1    C1  165   4.235   1.294  14.294 -0.4846 -0.0401 -0.4158
   11TCq1    O2  166   4.180   1.270  14.397  0.3430  0.9264 -0.2233
   11TCq1    C2  167   4.346   1.214  14.245  0.1210  0.2662 -0.0755
   11TCq1    C3  168   4.442   1.282  14.168  0.1135 -0.4123 -0.7468
   11TCq1    C4  169   4.556   1.214  14.126 -0.2275 -0.4905 -0.3573
   11TCq1    C5  170   4.572   1.087  14.169 -0.4463  0.6368  0.2389
   11TCq1    C6  171   4.485   1.023  14.256  0.1522  0.0278  0.8808
   11TCq1    C7  172   4.366   1.082  14.291  0.3603 -0.1228 -0.7163
   11TCq1    C8  173   4.502   0.884  14.284  0.0041 -0.3597 -0.0842
   11TCq1    O4  174   4.408   0.839  14.353  0.0243  0.3869 -0.5376
   11TCq1    C9  175   4.648   1.272  14.032  0.1074  0.1582  0.8868
   11TCq1    O5  176   4.622   1.392  13.991 -0.2003  0.4780 -0.2255
   11TCq1    O6  177   0.015   1.211  14.003 -0.4202 -0.0668 -0.4709
   11TCq1    H1  178   4.275   1.404  14.141 -1.2908 -2.8558 -0.7822
   11TCq1    H2  179   4.432   1.389  14.155  1.2889 -0.2850 -0.6380
   11TCq1    H3  180   4.667   1.047  14.135 -1.0623  1.3346 -2.2914
   11TCq1    H4  181   4.299   1.039  14.364 -0.9321  1.5954 -0.8785
   12MPD2     C  182   4.546   0.591  14.287 -0.4508  0.6675  0.0733
   12MPD2    C1  183   4.615   0.671  14.199 -0.2070 -0.4588 -0.6367
   12MPD2    C2  184   4.702   0.618  14.105  0.3259  0.8626  0.6152
   12MPD2    C3  185   4.709   0.480  14.101  0.3364 -0.0176 -0.4413
   12MPD2    C4  186   4.629   0.402  14.181 -0.1546 -0.1796 -0.1697
   12MPD2    C5  187   4.557   0.457  14.280  0.2731 -0.0599 -0.2474
   12MPD2     H  188   0.022   0.685  14.041 -0.0705  1.7207  1.1654
   12MPD2    H1  189   4.629   0.294  14.178 -1.5111 -0.2379  1.6915
   12MPD2    H2  190   4.495   0.625  14.377 -0.1482 -2.8697  1.5910
   12MPD2    H3  191   4.495   0.405  14.352 -1.3929  2.9836  0.5405
   12MPD2     N  192   0.062   0.411  14.020 -0.3961 -0.8132 -0.3996
   12MPD2    H5  193   0.057   0.310  14.030  0.0225 -0.8714 -0.7823
   12MPD2    N1  194   4.597   0.811  14.208  0.0688 -0.1217  0.4220
   12MPD2    H7  195   4.664   0.870  14.160 -1.7752  0.6018 -1.2594
   13TCq1    O1  196   0.353   1.264  11.255 -0.3557 -0.0511  0.4621
   13TCq1    C1  197   0.233   1.208  11.246 -0.1994 -0.9114  0.6246
   13TCq1    O2  198   0.191   1.153  11.148 -0.3960  0.6450 -0.1042
   13TCq1    C2  199   0.144   1.219  11.363  0.5259 -0.1756  0.8215
   13TCq1    C3  200   0.183   1.231  11.489  0.2149 -0.7111  0.6583
   13TCq1    C4  201   0.093   1.209  11.592  0.4934 -0.4802  0.3241
   13TCq1    C5  202   4.705   1.164  11.562 -0.2856  0.0515  0.8034
   13TCq1    C6  203   4.671   1.142  11.433 -0.1360  0.2766 -0.0579
   13TCq1    C7  204   0.017   1.172  11.332 -0.1739  0.0362 -0.1232
   13TCq1    C8  205   4.525   1.124  11.410 -0.5504  0.2179 -0.2195
   13TCq1    O4  206   4.456   1.212  11.460  0.1603  0.4926 -0.8485
   13TCq1    C9  207   0.137   1.229  11.729 -0.0659 -0.4843  0.2713
   13TCq1    O5  208   0.057   1.198  11.826  0.5953 -0.7470 -0.2815
   13TCq1    O6  209   0.257   1.265  11.745  0.2945 -0.0201 -0.1448
   13TCq1    H1  210   0.360   1.309  11.341  1.8072 -2.1908  1.4068
   13TCq1    H2  211   0.273   1.285  11.516  0.5230 -1.4081  1.0028
   13TCq1    H3  212   4.627   1.151  11.636 -4.0698  1.6771 -2.9341
   13TCq1    H4  213   4.714   1.161  11.231 -0.1414  0.2528 -0.1610
   14MPD2     C  214   4.377   0.937  11.138 -0.2327  0.5031 -0.6026
   14MPD2    C1  215   4.373   1.014  11.256 -0.5254  0.0421 -0.2472
   14MPD2    C2  216   4.252   1.067  11.305  0.1129 -1.3125 -0.4748
   14MPD2    C3  217   4.141   1.053  11.225  0.2625 -0.2017  0.4975
   14MPD2    C4  218   4.144   0.978  11.114  0.1730  0.1273 -0.1646
   14MPD2    C5  219   4.260   0.920  11.067  0.8194  0.0757 -0.2375
   14MPD2     H  220   4.239   1.128  11.394  0.1573 -0.4583 -1.0487
   14MPD2    H1  221   4.048   0.972  11.063  0.0227 -1.4273  0.2735
   14MPD2    H2  222   4.468   0.887  11.106 -0.4567 -1.7611  2.2731
   14MPD2    H3  223   4.262   0.866  10.973  0.6595  1.2379 -0.8952
   14MPD2     N  224   4.025   1.108  11.272  0.5060  0.4791 -0.0645
   14MPD2    H5  225   4.032   1.180  11.343  0.1098 -1.7390  2.2226
   14MPD2    N1  226   4.494   1.033  11.309 -0.3722  0.1447  0.4103
   14MPD2    H7  227   4.574   0.987  11.268 -0.8487  2.8703 -3.5457
   15TCq1    O1  228   1.661   3.942   2.858 -0.2302  0.6993 -0.3326
   15TCq1    C1  229   1.699   3.837   2.774 -0.0123 -0.5776 -0.2016
   15TCq1    O2  230   1.629   3.748   2.737  0.3565  0.1926 -0.4859
   15TCq1    C2  231   1.803   3.883   2.688 -0.5925  0.3981  0.2005
   15TCq1    C3  232   1.916   3.941   2.740 -0.1350 -0.4581  0.1497
   15TCq1    C4  233   2.018   3.976   2.659  0.0095  0.2874  1.3095
   15TCq1    C5  234   2.018   3.952   2.523 -0.1983 -0.1884 -0.1444
   15TCq1    C6  235   1.901   3.906   2.465 -0.1605 -0.1136 -0.0099
   15TCq1    C7  236   1.794   3.871   2.549 -0.4372 -0.2625  0.1043
   15TCq1    C8  237   1.898   3.875   2.324  1.1217  0.2648  0.4282
   15TCq1    O4  238   2.002   3.868   2.269  0.0242  0.2227  0.0527
   15TCq1    C9  239   2.143   4.021   2.719  0.4975 -0.4769 -0.8445
   15TCq1    O5  240   2.149   4.023   2.843 -0.2499  0.1652 -0.0037
   15TCq1    O6  241   2.242   4.042   2.644  0.4077  0.0596  0.4014
   15TCq1    H1  242   1.710   4.024   2.833 -0.3272  0.6444 -0.7039
   15TCq1    H2  243   1.925   3.938   2.848  1.9305  1.6838  0.0153
   15TCq1    H3  244   2.102   3.984   2.462 -0.2968 -0.3351 -0.3527
   15TCq1    H4  245   1.709   3.815   2.513 -0.6297  0.6178 -0.7852
   16MPD2     C  246   1.604   3.833   2.112 -0.1855  0.2923  0.8562
   16MPD2    C1  247   1.734   3.809   2.152 -0.8765  0.2848  0.5447
   16MPD2    C2  248   1.820   3.747   2.064 -0.5836  0.3206  0.4933
   16MPD2    C3  249   1.787   3.714   1.938 -0.3816  0.2545  0.2604
   16MPD2    C4  250   1.655   3.738   1.895  0.0270 -0.2806 -0.7846
   16MPD2    C5  251   1.566   3.797   1.980  0.0272 -0.1568  0.0887
   16MPD2     H  252   1.912   3.706   2.106 -0.2106 -0.5822 -1.2051
   16MPD2    H1  253   1.608   3.712   1.801 -2.5574 -0.8548  0.6632
   16MPD2    H2  254   1.536   3.889   2.175 -2.3401 -0.2804 -0.9603
   16MPD2    H3  255   1.465   3.823   1.948  0.4204  1.1276 -0.1223
   16MPD2     N  256   1.883   3.654   1.852  0.1591 -0.3424 -0.4888
   16MPD2    H5  257   1.974   3.642   1.896 -1.5870 -0.6603  3.0755
   16MPD2    N1  258   1.768   3.860   2.278 -0.8488 -0.8257 -0.0458
   16MPD2    H7  259   1.690   3.897   2.331 -2.0218 -1.0024 -1.6564
   17TMC1    C1  260   3.848   0.409  10.209  0.4415 -0.2869  0.1739
   17TMC1    C2  261   3.803   0.427  10.081  0.2691 -0.1798  0.1672
   17TMC1    C3  262   3.711   0.337  10.044  0.3358  0.3007  0.8611
   17TMC1    C4  263   3.822   0.305  10.295  1.0680 -0.3336 -0.2689
   17TMC1    C5  264   3.721   0.221  10.249  0.4195 -0.2539 -0.8583
   17TMC1    C6  265   3.671   0.235  10.125 -0.3144 -0.2146  0.2479
   17TMC1     C  266   3.959   0.498  10.237  0.1152 -0.2752  0.5051
   17TMC1     O  267   3.971   0.592  10.159 -0.8691  0.3166 -0.2451
   17TMC1     H  268   3.829   0.513  10.020  0.2783 -0.1761  0.1763
   17TMC1    H1  269   3.855   0.313  10.398 -1.9354  1.3667  0.5839
   17TMC1    H2  270   3.599   0.163  10.087 -1.5153 -0.0891  2.3057
   17TMC1    C7  271   3.674   0.112  10.327  0.5156 -1.2940  1.1477
   17TMC1    C8  272   3.663   0.340   9.910 -0.0048  0.4279  0.0122
   17TMC1    O1  273   3.556   0.081  10.314  0.1590 -0.0170 -0.5136
   17TMC1    O2  274   3.566   0.285   9.867 -0.0488  0.6371  0.0355
   17TMC1    O3  275   3.775   0.036  10.372  0.3609  0.0604 -0.0451
   17TMC1    H3  276   3.862   0.078  10.355  0.0157  0.9623  0.4151
   17TMC1    O5  277   3.777   0.319   9.846  0.0370 -0.2776 -0.2891
   17TMC1    H5  278   3.858   0.352   9.890  1.1032 -0.7703 -1.8577
   18MPD2     C  279   4.215   0.614  10.343  0.5076  0.2040 -0.4295
   18MPD2    C1  280   4.172   0.485  10.366  0.1672 -0.1155 -0.2778
   18MPD2    C2  281   4.250   0.398  10.445 -0.2131 -0.4559  0.3692
   18MPD2    C3  282   4.379   0.431  10.485 -0.8010  0.7823  0.2975
   18MPD2    C4  283   4.419   0.557  10.461 -0.8532 -0.2385 -0.4352
   18MPD2    C5  284   4.339   0.650  10.399 -0.2210 -0.6611 -0.8033
   18MPD2     H  285   4.209   0.301  10.470  0.4583 -0.8289  0.0432
   18MPD2    H1  286   4.519   0.581  10.495 -1.0905  1.2443 -0.7612
   18MPD2    H2  287   4.163   0.690  10.287  0.8811  0.8185  0.0555
   18MPD2    H3  288   4.382   0.748  10.382  0.7104 -0.6084  1.7514
   18MPD2     N  289   4.468   0.344  10.558  0.5461  0.5095 -0.1820
   18MPD2    H5  290   4.552   0.380  10.602 -0.3490  1.1326  1.0092
   18MPD2    N1  291   4.045   0.434  10.326  0.6945  0.1738  0.3178
   18MPD2    H7  292   4.030   0.337  10.351 -2.0115 -0.2249 -2.9671
   19TMC2    C1  293   1.762   0.979  13.507 -0.8456  0.2007  0.2352
   19TMC2    C2  294   1.732   0.966  13.375 -0.3088 -0.2806 -0.2167
   19TMC2    C3  295   1.604   0.944  13.332 -0.4379 -0.4661 -0.4335
   19TMC2    C4  296   1.668   0.966  13.602 -0.2562 -0.1081 -0.3153
   19TMC2    C5  297   1.539   0.948  13.562 -0.2234 -1.0965  0.0565
   19TMC2    C6  298   1.508   0.933  13.429  0.1125  0.7585 -0.1255
   19TMC2     C  299   1.900   0.944  13.548  0.6440 -0.1471 -0.5139
   19TMC2     O  300   1.984   0.927  13.463 -0.0507 -0.0654  0.2969
   19TMC2     H  301   1.815   0.950  13.307  0.9582  0.5617  1.1331
   19TMC2    H1  302   1.683   1.020  13.695  1.2801 -1.6765  0.3414
   19TMC2    H2  303   1.408   0.899  13.402  1.6033 -2.5683 -1.4466
   19TMC2    C7  304   1.453   0.908  13.670 -0.6085 -0.1977  0.0997
   19TMC2    C8  305   1.581   0.882  13.203 -0.2435 -0.3001 -0.3492
   19TMC2    O1  306   1.503   0.880  13.779 -0.2764  0.4804  0.4109
   19TMC2    O2  307   1.674   0.885  13.125  0.0432  0.2189 -0.3250
   19TMC2    O5  308   1.496   0.779  13.217 -0.2060  0.1667 -0.2118
   19TMC2    H5  309   1.401   0.792  13.237 -0.2789 -0.4350 -0.1676
   20MPD2     C  310   2.110   0.799  13.702  0.3037  0.4158  0.0646
   20MPD2    C1  311   1.986   0.836  13.752  0.4036 -0.0190 -0.6786
   20MPD2    C2  312   1.946   0.788  13.875 -0.1232  0.1658 -0.4395
   20MPD2    C3  313   2.029   0.704  13.948 -0.0678 -0.0469 -0.9276
   20MPD2    C4  314   2.152   0.667  13.899  0.1018 -0.1643  0.3761
   20MPD2    C5  315   2.180   0.702  13.772 -0.1582 -0.3213 -0.1166
   20MPD2     H  316   1.846   0.808  13.911 -0.3647 -2.6354  0.4501
   20MPD2    H1  317   2.225   0.615  13.959  0.3975  0.0231  0.1764
   20MPD2    H2  318   2.138   0.821  13.600  0.2950  0.3471  0.0473
   20MPD2    H3  319   2.259   0.655  13.715  1.1864 -1.2562  2.4965
   20MPD2     N  320   2.001   0.661  14.077  0.0965  0.6338 -0.7125
   20MPD2    H5  321   2.066   0.592  14.115 -0.0565  0.9963  0.1983
   20MPD2    N1  322   1.890   0.913  13.682  0.0077 -0.3784 -0.0178
   20MPD2    H7  323   1.798   0.911  13.725  0.2865  1.1004  0.6394
   21TMC2    C1  324   4.293   1.108  14.808 -0.4489 -0.8083 -0.2253
   21TMC2    C2  325   4.256   1.062  14.936 -0.0479 -0.0612 -0.5780
   21TMC2    C3  326   4.131   1.011  14.950  0.0823  0.7895  0.5946
   21TMC2    C4  327   4.218   1.093  14.699  0.6568  0.5235 -0.5410
   21TMC2    C5  328   4.090   1.049  14.721 -0.7218 -0.3706 -0.1602
   21TMC2    C6  329   4.049   1.012  14.843  0.1173 -0.2266  0.8017
   21TMC2     C  330   4.435   1.109  14.786  0.1220 -1.0689 -0.7362
   21TMC2     O  331   4.501   1.048  14.868  0.2652  0.4411  0.1307
   21TMC2     H  332   4.322   1.071  15.021 -0.8735 -0.6155  0.1306
   21TMC2    H1  333   4.237   1.145  14.606 -1.0450 -0.8566 -1.6669
   21TMC2    H2  334   3.950   0.971  14.857 -0.5402  1.9095  2.3193
   21TMC2    C7  335   4.000   1.025  14.613 -0.7027 -0.0771 -0.5311
   21TMC2    C8  336   4.098   0.980  15.092 -0.5306 -0.1235  0.8857
   21TMC2    O1  337   4.035   0.957  14.516  0.1652  0.4274 -0.0152
   21TMC2    O2  338   4.155   1.040  15.187 -0.1758  0.7018  0.2863
   21TMC2    O5  339   3.996   0.889  15.095 -0.4886  0.4612 -0.5227
   21TMC2    H5  340   3.971   0.856  15.006  2.5768 -0.7731 -0.9023
   22MPD2     C  341   0.072   1.067  14.441  0.2583 -0.3930  0.0072
   22MPD2    C1  342   0.036   0.994  14.556 -0.5236  0.7631  0.4381
   22MPD2    C2  343   4.670   1.036  14.631  0.3638  0.0047  0.1891
   22MPD2    C3  344   4.591   1.145  14.601  0.4591  0.4096 -0.1395
   22MPD2    C4  345   4.629   1.220  14.495  0.5459 -0.4123 -0.1525
   22MPD2    C5  346   4.737   1.183  14.421 -0.0820  0.5513 -0.4557
   22MPD2     H  347   4.659   0.974  14.719 -1.0393  1.1635  0.8175
   22MPD2    H1  348   4.564   1.302  14.465  1.1040 -0.2401 -0.8938
   22MPD2    H2  349   0.152   1.051  14.370  1.3775 -0.3834  1.2792
   22MPD2    H3  350   0.029   1.241  14.335 -0.4099  2.0117  0.4106
   22MPD2     N  351   4.472   1.162  14.659 -0.6798  0.0879  0.8724
   22MPD2    H5  352   4.415   1.237  14.622 -0.9056 -0.2711  0.5048
   22MPD2    N1  353   0.088   0.866  14.583  0.3860 -0.0382 -0.6664
   22MPD2    H7  354   0.058   0.824  14.671 -0.7346  2.1959  0.0230
   23TMC2    C1  355   0.254   2.506  14.988 -0.1202  0.0019  0.2066
   23TMC2    C2  356   0.219   2.626  14.940 -0.0947 -0.7537 -0.6752
   23TMC2    C3  357   0.088   2.637  14.899 -0.5316 -0.1136  0.3090
   23TMC2    C4  358   0.164   2.405  15.008  0.1578  0.5751  0.2899
   23TMC2    C5  359   0.033   2.419  14.967 -0.3523 -0.0790  0.8454
   23TMC2    C6  360   4.729   2.539  14.914  0.2750 -0.0677 -0.0005
   23TMC2     C  361   0.391   2.476  14.992  0.2031 -0.7366  0.0533
   23TMC2     O  362   0.436   2.390  15.064 -0.0884  0.1329 -0.5623
   23TMC2     H  363   0.287   2.709  14.953 -0.1927 -0.6155 -1.0731
   23TMC2    H1  364   0.187   2.314  15.063 -0.1131 -0.4911 -1.3445
   23TMC2    H2  365   4.627   2.562  14.888 -0.3385 -2.5023  0.1890
   23TMC2    C7  366   4.668   2.325  15.004 -0.6092 -0.4028 -0.2305
   23TMC2    C8  367   0.039   2.766  14.840 -0.4359  0.2208  0.2979
   23TMC2    O1  368   4.679   2.263  15.111  0.0663 -0.1446 -0.1987
   23TMC2    O2  369   4.655   2.790  14.849  0.4310  0.0645 -0.0789
   23TMC2    O5  370   0.144   2.845  14.855  0.5983  0.2119 -0.7316
   23TMC2    H5  371   0.232   2.808  14.837  0.2891 -2.5824  3.4588
   24MPD2     C  372   0.812   2.435  14.708  0.0461 -0.0915  0.1423
   24MPD2    C1  373   0.775   2.375  14.822 -0.2475  0.2118  0.4501
   24MPD2    C2  374   0.657   2.409  14.887 -0.2131 -0.1880  0.1465
   24MPD2    C3  375   0.574   2.505  14.830  0.0754  0.3751  0.3430
   24MPD2    C4  376   0.616   2.567  14.712 -0.4152 -0.8974  0.2673
   24MPD2    C5  377   0.732   2.527  14.647 -0.1826  0.7451  0.0687
   24MPD2     H  378   0.631   2.357  14.978  1.9841 -1.3649  0.1115
   24MPD2    H1  379   0.565   2.653  14.670  0.5299 -1.5909 -2.3322
   24MPD2    H2  380   0.907   2.410  14.662 -0.0923  0.0747 -0.2304
   24MPD2    H3  381   0.779   2.590  14.573  0.6906 -1.0365 -0.9135
   24MPD2     N  382   0.450   2.535  14.879  0.4062  0.2820  0.3534
   24MPD2    H5  383   0.405   2.609  14.825 -0.5912  0.1298  0.9878
   24MPD2    N1  384   0.851   2.273  14.881  0.2729  0.2911 -0.0708
   24MPD2    H7  385   0.809   2.232  14.964 -0.5003  1.0282 -0.1043
   25TMC2    C1  386   4.403   0.012  11.953  0.1369  0.1143 -0.1134
   25TMC2    C2  387   4.467   0.128  11.957 -0.2227  0.2402 -0.1633
   25TMC2    C3  388   4.393   0.240  11.988  0.0175  0.1360 -0.0190
   25TMC2    C4  389   4.271   0.003  11.961 -0.9983 -0.2339  0.3029
   25TMC2    C5  390   4.202   0.114  12.003  0.0520 -0.1639 -0.2387
   25TMC2    C6  391   4.260   0.235  12.012 -0.2259  0.2290  0.2085
   25TMC2     C  392   4.477   4.625  11.911  0.2785 -0.3587  0.3129
   25TMC2     O  393   4.577   4.591  11.972  0.1244  0.1557 -0.3376
   25TMC2     H  394   4.575   0.121  11.949 -0.2922 -0.2973 -0.6598
   25TMC2    H1  395   4.235   4.639  11.978 -1.9826 -0.2113 -1.6440
   25TMC2    H2  396   4.208   0.328  12.029  0.9031  0.8507  0.2261
   25TMC2    C7  397   4.088   0.086  12.095 -0.4359 -0.4050  0.2797
   25TMC2    C8  398   4.447   0.371  11.952 -0.6620  0.1364  0.4709
   25TMC2    O1  399   4.063   4.706  12.108  0.5024  0.7213  0.4457
   25TMC2    O2  400   4.405   0.472  12.013 -0.8314 -0.0384  0.4693
   25TMC2    O5  401   4.573   0.354  11.917  0.6440 -0.5361  0.0738
   25TMC2    H5  402   4.577   0.291  11.842  0.1582 -0.5161  0.0348
   26MPD2     C  403   4.506   4.178  11.659  0.4766  0.1726  0.3029
   26MPD2    C1  404   4.389   4.244  11.612  0.3975 -0.3767  0.0588
   26MPD2    C2  405   4.362   4.368  11.666  0.3262 -0.0338 -0.4711
   26MPD2    C3  406   4.439   4.422  11.770 -0.4446 -0.6463 -0.1774
   26MPD2    C4  407   4.541   4.343  11.822  0.6167  0.6084  0.5088
   26MPD2    C5  408   4.571   4.227  11.767  0.4776  0.2053 -0.6651
   26MPD2     H  409   4.275   4.427  11.641  0.4938  0.2847 -0.3123
   26MPD2    H1  410   4.607   4.379  11.900  2.7179 -0.5011 -0.7758
   26MPD2    H2  411   4.530   4.079  11.622 -4.5504 -2.0512  2.9030
   26MPD2    H3  412   4.656   4.175  11.809 -0.2910 -0.8791 -0.4551
   26MPD2     N  413   4.400   4.553  11.820 -0.8882 -0.4853  0.4104
   26MPD2    H5  414   4.311   4.591  11.790 -1.0830 -0.3230  1.1846
   26MPD2    N1  415   4.297   4.175  11.538  0.0773 -0.0126 -0.1859
   26MPD2    H7  416   4.326   4.081  11.512  1.5485 -0.0039  1.3945
   27TMC2    C1  417   3.018   1.787  12.474  0.2920  0.2236  0.1011
   27TMC2    C2  418   2.938   1.829  12.377  0.2033  0.8377 -0.2648
   27TMC2    C3  419   2.959   1.955  12.335 -0.3243  0.3764  0.1767
   27TMC2    C4  420   3.112   1.870  12.537 -0.2153 -0.4220 -0.3489
   27TMC2    C5  421   3.101   2.002  12.508 -0.4163  0.0883  0.0077
   27TMC2    C6  422   3.040   2.040  12.397  0.9244 -0.3020  0.3130
   27TMC2     C  423   2.978   1.672  12.557 -0.6139  0.2198  0.5882
   27TMC2     O  424   3.055   1.635  12.647 -0.4270  0.0453 -0.0520
   27TMC2     H  425   2.859   1.772  12.329  0.6697 -0.2046  0.2125
   27TMC2    H1  426   3.159   1.836  12.628  1.3680  0.0582 -0.9837
   27TMC2    H2  427   3.034   2.143  12.362  2.0659 -0.4702 -0.3896
   27TMC2    C7  428   3.057   2.072  12.623 -0.2705  0.3901  0.3220
   27TMC2    C8  429   2.872   2.027  12.247  0.1430 -0.3178  0.0001
   27TMC2    O1  430   3.106   2.032  12.728 -0.0924  0.0623 -0.8141
   27TMC2    O2  431   2.750   2.022  12.250 -0.6506  0.2168 -0.3479
   27TMC2    O5  432   2.935   2.101  12.152  0.6177 -0.0784  0.2755
   27TMC2    H5  433   3.033   2.100  12.154  0.6460  1.1672 -0.0754
   28MPD2     C  434   2.622   1.505  12.872  0.2380 -0.1604  0.2151
   28MPD2    C1  435   2.568   1.612  12.797  0.1148  0.2512  0.4856
   28MPD2    C2  436   2.644   1.652  12.692 -0.4291 -0.0907  0.1095
   28MPD2    C3  437   2.769   1.596  12.664 -1.0974  0.1304 -0.2864
   28MPD2    C4  438   2.819   1.490  12.738 -0.5029  0.5124 -0.1433
   28MPD2    C5  439   2.743   1.442  12.847  0.2812  0.1015  0.7508
   28MPD2     H  440   2.622   1.748  12.645  0.1262 -0.3719 -0.7233
   28MPD2    H1  441   2.913   1.444  12.711 -0.1688  0.8330  0.5041
   28MPD2    H2  442   2.562   1.460  12.950  0.5826  1.1700  1.2291
   28MPD2    H3  443   2.777   1.359  12.907  0.3401 -0.6329 -0.3154
   28MPD2     N  444   2.844   1.648  12.556 -0.1712 -0.8882  0.1949
   28MPD2    H5  445   2.785   1.696  12.488 -0.8802 -1.1587  0.6246
   28MPD2    N1  446   2.452   1.675  12.837  0.1628  0.2163 -0.3870
   28MPD2    H7  447   2.408   1.638  12.920  1.9479  1.2046  0.9730
   29TMC2    C1  448   2.575   4.334  14.421  0.6953 -0.3741 -0.5335
   29TMC2    C2  449   2.481   4.390  14.505  0.7689 -0.3372  0.6395
   29TMC2    C3  450   2.521   4.510  14.560 -0.3302  0.8701  0.1945
   29TMC2    C4  451   2.704   4.377  14.409  0.5333  0.2163 -0.0088
   29TMC2    C5  452   2.737   4.496  14.474  0.0699  0.3799  0.1028
   29TMC2    C6  453   2.643   4.569  14.540 -1.0155  0.8555 -0.8245
   29TMC2     C  454   2.549   4.200  14.396 -0.4740  0.3770 -0.0861
   29TMC2     O  455   2.644   4.125  14.390  0.4853 -0.1558 -0.1907
   29TMC2     H  456   2.388   4.338  14.527  0.8250 -0.8972 -0.4673
   29TMC2    H1  457   2.773   4.327  14.343  0.4026  1.7772 -1.3274
   29TMC2    H2  458   2.672   4.655  14.598 -0.4128 -0.4819  0.8449
   29TMC2    C7  459   2.842   4.570  14.419 -0.2506  0.7618  0.0792
   29TMC2    C8  460   2.420   4.569  14.650  0.3451  0.2801  0.0054
   29TMC2    O1  461   2.901   4.532  14.318  0.1990 -0.2952  0.0078
   29TMC2    O2  462   2.400   4.691  14.666 -0.4674 -0.0084 -0.0281
   29TMC2    O5  463   2.430   4.485  14.758  0.1395 -0.0365 -0.0634
   29TMC2    H5  464   2.473   4.398  14.744 -0.1726  0.3607 -3.5018
   30MPD2     C  465   2.240   3.825  14.227 -0.0990 -0.6189  0.1061
   30MPD2    C1  466   2.364   3.816  14.290 -0.5946  0.7444 -0.1226
   30MPD2    C2  467   2.430   3.935  14.324  0.4893 -0.1959  0.5501
   30MPD2    C3  468   2.363   4.058  14.314  0.2597 -0.3953  0.3913
   30MPD2    C4  469   2.238   4.064  14.265 -0.6364  0.0309  0.3064
   30MPD2    C5  470   2.177   3.951  14.222 -0.4865 -0.0264 -0.3125
   30MPD2     H  471   2.524   3.925  14.377 -0.4566 -1.7532  1.9242
   30MPD2    H1  472   2.184   4.157  14.274  0.3038  0.8487 -2.6373
   30MPD2    H2  473   2.189   3.740  14.182  1.5467 -1.2876 -0.5094
   30MPD2    H3  474   2.079   3.967  14.178 -0.6297  1.8426  0.6692
   30MPD2     N  475   2.421   4.182  14.347 -0.2577 -0.1857 -0.1504
   30MPD2    H5  476   2.379   4.271  14.321 -0.4811 -0.2040  0.1559
   30MPD2    N1  477   2.425   3.687  14.304  0.3784  0.2012  0.6351
   30MPD2    H7  478   2.526   3.682  14.311  0.4210  1.4360  0.9383
   31TMC2    C1  479   0.403   2.846  15.343 -0.1852 -0.2743 -0.9151
   31TMC2    C2  480   0.291   2.912  15.398  0.0564 -0.3362  0.3495
   31TMC2    C3  481   0.269   2.899  15.528  0.2005 -0.0407  0.1670
   31TMC2    C4  482   0.491   2.775  15.420 -0.3062 -0.5702  0.5295
   31TMC2    C5  483   0.466   2.774  15.553  0.4579 -0.0946  0.2107
   31TMC2    C6  484   0.349   2.831  15.607  0.6313  0.0674  0.0000
   31TMC2     C  485   0.422   2.869  15.199 -0.2868 -0.2344  0.1503
   31TMC2     O  486   0.349   2.957  15.153 -0.1531 -0.3242 -0.2798
   31TMC2     H  487   0.211   2.952  15.337 -0.0280 -1.4548 -0.2809
   31TMC2    H1  488   0.589   2.740  15.390  0.4502 -0.4402  2.7753
   31TMC2    H2  489   0.331   2.826  15.714  2.2789  1.4967  0.3365
   31TMC2    C7  490   0.556   2.699  15.643 -0.2586 -0.7271 -0.4784
   31TMC2    C8  491   0.155   2.956  15.582 -0.0785 -0.3037  0.0068
   31TMC2    O1  492   0.611   2.602  15.596  0.1887  0.0704 -0.8129
   31TMC2    O2  493   0.112   2.927  15.692  0.1283  0.0864 -0.3223
   31TMC2    O5  494   0.129   3.075  15.523 -0.5392  0.8063  0.3471
   31TMC2    H5  495   0.183   3.107  15.447 -1.4065  1.5986  0.0626
   32MPD2     C  496   0.724   2.908  14.791 -0.0432  0.2486 -0.1324
   32MPD2    C1  497   0.608   2.966  14.825  0.2505  0.3067 -0.1279
   32MPD2    C2  498   0.531   2.922  14.932  0.2317  0.2953  0.4491
   32MPD2    C3  499   0.583   2.825  15.015 -0.2333 -0.4767 -0.1004
   32MPD2    C4  500   0.697   2.761  14.979 -0.0254 -0.2510  0.1495
   32MPD2    C5  501   0.769   2.801  14.870 -0.3815  0.2889  0.5212
   32MPD2     H  502   0.441   2.975  14.960  1.5003  2.3253  0.7123
   32MPD2    H1  503   0.744   2.684  15.039  2.1786  1.0176  0.0430
   32MPD2    H2  504   0.786   2.940  14.709 -2.5054  0.3931 -1.9109
   32MPD2    H3  505   0.871   2.766  14.860 -0.2914  0.6415  0.2300
   32MPD2     N  506   0.521   2.797  15.140 -0.2829  0.0531  0.0169
   32MPD2    H5  507   0.564   2.723  15.194  1.2269 -0.4045 -1.8277
   32MPD2    N1  508   0.567   3.068  14.729 -0.1195  0.1533 -0.1277
   32MPD2    H7  509   0.637   3.098  14.661 -1.9768  3.7011 -0.4151
   33TMC2    C1  510   0.270   0.876  10.274  0.7504  1.1238  0.2704
   33TMC2    C2  511   0.207   0.864  10.155 -0.0604 -0.3099 -0.1215
   33TMC2    C3  512   0.215   0.961  10.059 -0.5834 -0.6626  0.2313
   33TMC2    C4  513   0.335   0.994  10.305  0.5287  0.6334  0.0096
   33TMC2    C5  514   0.324   1.097  10.213  0.7204  0.1863  0.0213
   33TMC2    C6  515   0.278   1.077  10.081 -0.0232 -0.8565  0.4659
   33TMC2     C  516   0.260   0.773  10.375  0.3286  0.9826  0.1297
   33TMC2     O  517   0.188   0.674  10.351 -0.0710  0.1941  0.5709
   33TMC2     H  518   0.141   0.780  10.138 -1.6432  0.8608  0.1829
   33TMC2    H1  519   0.408   1.011  10.383  0.1532  0.5639  0.3749
   33TMC2    H2  520   0.290   1.149  10.001  0.3742  0.3883  1.6486
   33TMC2    C7  521   0.394   1.223  10.230 -0.6904 -0.6407  0.1491
   33TMC2    C8  522   0.109   0.978   9.965  0.6529  0.0890 -0.0704
   33TMC2    O1  523   0.413   1.290  10.131 -0.8809  0.4587  0.3142
   33TMC2    O2  524   0.030   1.071   9.971 -0.0003  0.3088 -0.0286
   33TMC2    O5  525   0.095   0.857   9.906  0.2783 -0.1436  0.1286
   33TMC2    H5  526   0.177   0.805   9.916  1.8868  2.4585  0.4036
   34MPD2     C  527   0.408   0.507  10.798 -0.0541  0.0793  0.3666
   34MPD2    C1  528   0.311   0.483  10.702 -0.0344 -0.0008 -0.1778
   34MPD2    C2  529   0.287   0.572  10.594  0.5138  0.3076 -0.6452
   34MPD2    C3  530   0.346   0.697  10.599 -0.2247  1.0939  0.5505
   34MPD2    C4  531   0.426   0.728  10.709  0.5893  0.1238  0.3080
   34MPD2    C5  532   0.458   0.633  10.800 -0.1041  0.2280 -0.8117
   34MPD2     H  533   0.206   0.555  10.525 -0.6408  0.9443  0.5436
   34MPD2    H1  534   0.465   0.827  10.725 -1.6387  1.0451 -0.0009
   34MPD2    H2  535   0.434   0.431  10.871 -1.0452  0.2157  0.8565
   34MPD2    H3  536   0.504   0.671  10.891  0.3849 -0.7576 -0.6430
   34MPD2     N  537   0.331   0.792  10.496 -0.2194  0.3760 -1.0048
   34MPD2    H5  538   0.375   0.882  10.509 -0.2742  0.3160 -0.4270
   34MPD2    N1  539   0.239   0.361  10.711 -0.4999 -0.1358  0.0586
   34MPD2    H7  540   0.248   0.303  10.794  0.1238 -2.5212 -1.6712
   35TMC2    C1  541   1.174   2.172  11.703  0.3258  0.4796  0.2927
   35TMC2    C2  542   1.139   2.294  11.754  0.2444  0.1776 -0.3030
   35TMC2    C3  543   1.053   2.298  11.861 -0.2556  0.5519  0.1311
   35TMC2    C4  544   1.139   2.066  11.785 -0.0526  0.1486  1.3238
   35TMC2    C5  545   1.050   2.076  11.882 -0.5772  0.7752  1.0398
   35TMC2    C6  546   1.000   2.189  11.927 -0.4576  0.3069  0.5308
   35TMC2     C  547   1.312   2.164  11.646 -0.1836  0.6226 -0.6027
   35TMC2     O  548   1.343   2.252  11.564 -0.1367  0.5861  0.3007
   35TMC2     H  549   1.180   2.385  11.711 -1.1663  1.1690  0.4579
   35TMC2    H1  550   1.177   1.970  11.752 -2.4109  0.0359 -1.0402
   35TMC2    H2  551   0.924   2.197  12.004 -0.4553 -0.7009  0.6340
   35TMC2    C7  552   1.037   1.960  11.968  0.7442 -0.5226 -0.1618
   35TMC2    C8  553   1.018   2.431  11.915  0.0939  0.6668  0.4960
   35TMC2    O1  554   1.123   1.873  11.956  0.3893  0.0735  0.4259
   35TMC2    O2  555   1.009   2.524  11.839 -0.0262  0.2778  0.1727
   35TMC2    O5  556   0.960   2.407  12.036 -0.2699 -1.1280 -0.3527
   35TMC2    H5  557   1.011   2.334  12.078 -0.8785 -0.1919  2.0259
   36MPD2     C  558   1.753   1.892  11.595 -0.9074 -0.8642 -0.2157
   36MPD2    C1  559   1.687   1.848  11.709  0.1889  0.0988 -0.2350
   36MPD2    C2  560   1.566   1.907  11.741  0.5963  1.0200 -0.3494
   36MPD2    C3  561   1.516   2.015  11.665 -0.4489  0.5223  0.0527
   36MPD2    C4  562   1.585   2.060  11.554  0.0973  0.0847  0.2293
   36MPD2    C5  563   1.697   1.988  11.514 -0.4484 -0.3892 -0.9562
   36MPD2     H  564   1.502   1.875  11.822  1.2057 -0.5940 -0.5019
   36MPD2    H1  565   1.549   2.139  11.488 -3.4820 -1.0067  0.8633
   36MPD2    H2  566   1.854   1.860  11.573 -0.1580  1.6337 -0.3198
   36MPD2    H3  567   1.760   2.019  11.431 -3.4431  2.9853 -1.9719
   36MPD2     N  568   1.389   2.068  11.704 -0.1489 -0.2320 -0.0893
   36MPD2    H5  569   1.350   2.030  11.789  1.0369 -0.8302  0.2001
   36MPD2    N1  570   1.742   1.744  11.784  0.5422  0.1860 -0.4965
   36MPD2    H7  571   1.820   1.688  11.753 -0.4641 -1.1537 -0.6356
   37TMC2    C1  572   3.198   2.504  11.812  0.3930  0.6593 -0.7587
   37TMC2    C2  573   3.098   2.552  11.730  0.2133  0.1637  0.1038
   37TMC2    C3  574   3.133   2.580  11.600 -0.3978  0.4605 -0.2064
   37TMC2    C4  575   3.322   2.466  11.762  0.3101  0.4069 -0.4934
   37TMC2    C5  576   3.349   2.510  11.637 -0.3538  0.3251  0.1493
   37TMC2    C6  577   3.254   2.555  11.549  0.8593 -1.1800  0.3841
   37TMC2     C  578   3.169   2.486  11.954 -0.6237 -0.2036 -0.4966
   37TMC2     O  579   3.048   2.492  11.986 -0.1508  0.9232  0.0635
   37TMC2     H  580   3.006   2.569  11.784 -0.8399  3.3200 -2.6407
   37TMC2    H1  581   3.397   2.418  11.824 -2.0579 -2.7789 -0.0640
   37TMC2    H2  582   3.273   2.579  11.445  0.7732  0.0669  0.6605
   37TMC2    C7  583   3.492   2.528  11.611  0.3216  0.0274  0.3538
   37TMC2    C8  584   3.065   2.691  11.536  0.2628 -0.2134  0.0264
   37TMC2    O1  585   3.581   2.485  11.684 -0.3575 -0.1855  0.0138
   37TMC2    O2  586   3.088   2.700  11.419 -0.0356 -0.4054 -0.2010
   37TMC2    O5  587   3.080   2.788  11.627  0.9467 -0.4651  0.5888
   37TMC2    H5  588   3.081   2.768  11.723 -0.8283 -0.8707  0.5207
   38MPD2     C  589   3.264   2.321  12.424  0.0364  0.0105 -0.1877
   38MPD2    C1  590   3.378   2.307  12.352  0.3508 -0.6448 -0.5323
   38MPD2    C2  591   3.382   2.355  12.223  0.0188 -0.1990 -0.2986
   38MPD2    C3  592   3.277   2.415  12.166 -0.5007  0.7810 -0.0083
   38MPD2    C4  593   3.164   2.429  12.239 -0.0979 -0.0014 -0.2110
   38MPD2    C5  594   3.152   2.374  12.370  0.4568 -0.1987  0.2683
   38MPD2     H  595   3.474   2.350  12.165 -0.1255 -0.2473 -0.5235
   38MPD2    H1  596   3.085   2.497  12.209 -1.7353 -1.6383  0.3948
   38MPD2    H2  597   3.253   2.282  12.525  0.6371  0.9168  0.2326
   38MPD2    H3  598   3.065   2.393  12.433  2.1520 -1.6778  3.0616
   38MPD2     N  599   3.276   2.446  12.027  0.3884  0.6732 -0.4193
   38MPD2    H5  600   3.366   2.453  11.979  0.9281 -2.3659  0.1272
   38MPD2    N1  601   3.492   2.240  12.404  0.2547 -0.0673  0.3317
   38MPD2    H7  602   3.580   2.250  12.356 -0.3153 -2.1243 -1.1143
   39TMC2    C1  603   2.303   3.196   2.286 -0.0664 -0.4130 -0.1303
   39TMC2    C2  604   2.354   3.243   2.403  0.4271  0.5858 -0.1034
   39TMC2    C3  605   2.491   3.234   2.404  0.5856 -0.3725  0.4109
   39TMC2    C4  606   2.379   3.158   2.179  0.1670  0.5233  0.1752
   39TMC2    C5  607   2.516   3.144   2.186 -0.5018 -0.1531 -0.6742
   39TMC2    C6  608   2.570   3.179   2.307 -0.2513 -0.5135 -0.1681
   39TMC2     C  609   2.171   3.228   2.245 -0.0591 -0.4399  0.8132
   39TMC2     O  610   2.138   3.214   2.128 -0.1679 -0.3231  0.0063
   39TMC2     H  611   2.298   3.265   2.494 -0.3408  0.5904 -0.5830
   39TMC2    H1  612   2.337   3.136   2.082  1.9603  0.3990 -0.5686
   39TMC2    H2  613   2.676   3.188   2.327  0.4260 -4.0615 -2.0367
   39TMC2    C7  614   2.586   3.082   2.074  0.4848 -0.6600  0.4648
   39TMC2    C8  615   2.547   3.240   2.533 -0.2887 -0.1302  0.1963
   39TMC2    O1  616   2.524   3.004   2.006 -1.0764 -0.0155 -0.0211
   39TMC2    O2  617   2.613   3.144   2.575 -0.4087 -0.4924  0.0371
   39TMC2    O5  618   2.484   3.334   2.615  0.1374  0.1342  0.5611
   39TMC2    H5  619   2.449   3.408   2.562 -0.9042 -1.5406 -1.1133
   40MPD2     C  620   1.936   3.436   2.428  0.4342 -0.7374 -0.0942
   40MPD2    C1  621   1.985   3.361   2.325  0.1299 -0.6532 -0.5316
   40MPD2    C2  622   1.902   3.337   2.220 -0.2095 -0.6306 -0.0716
   40MPD2    C3  623   1.770   3.381   2.221  0.0624 -0.5887  0.2194
   40MPD2    C4  624   1.728   3.456   2.328  0.3823  0.0308 -0.7485
   40MPD2    C5  625   1.807   3.483   2.430  0.0229  0.1219 -0.0449
   40MPD2     H  626   1.930   3.282   2.131  0.0324  1.4960 -1.3067
   40MPD2    H1  627   1.626   3.493   2.327  0.5031  0.3634 -0.8113
   40MPD2    H2  628   1.988   3.443   2.523 -1.0807  1.9944  0.5438
   40MPD2    H3  629   1.775   3.544   2.514 -0.4715 -1.2890  0.7930
   40MPD2     N  630   1.679   3.363   2.111 -0.4257 -0.7015 -0.3780
   40MPD2    H5  631   1.581   3.384   2.125 -1.0331 -3.2699 -0.8026
   40MPD2    N1  632   2.109   3.301   2.343 -0.5923 -0.3162  0.3891
   40MPD2    H7  633   2.161   3.318   2.429 -0.0138  0.5775 -0.1401
   41TMC2    C1  634   1.246   1.913  14.308 -1.3881 -0.1601  0.2898
   41TMC2    C2  635   1.274   2.045  14.297 -0.5608  0.3575  0.5663
   41TMC2    C3  636   1.255   2.102  14.173  0.7342  0.2601  0.4762
   41TMC2    C4  637   1.204   1.839  14.207  0.2759  0.5573 -0.3796
   41TMC2    C5  638   1.192   1.894  14.084  0.1525 -0.2495 -0.3809
   41TMC2    C6  639   1.199   2.032  14.065  0.1002  0.3287 -0.6772
   41TMC2     C  640   1.242   1.845  14.442  0.4144  0.2406 -0.5140
   41TMC2     O  641   1.198   1.730  14.447  0.1345  0.3277 -0.3495
   41TMC2     H  642   1.323   2.090  14.383  1.9020  2.3446 -1.8843
   41TMC2    H1  643   1.182   1.736  14.231  2.3343  0.6089  1.6730
   41TMC2    H2  644   1.176   2.081  13.971  1.6261 -0.8833 -1.6828
   41TMC2    C7  645   1.147   1.801  13.983 -0.4348  0.3844 -0.0906
   41TMC2    C8  646   1.269   2.249  14.159  0.2702  0.8676  0.4193
   41TMC2    O1  647   1.097   1.689  14.003 -0.6814 -0.0780 -0.4503
   41TMC2    O2  648   1.271   2.305  14.051  0.0518  0.0977  0.0031
   41TMC2    O5  649   1.193   2.302  14.257  0.1175  0.4164  0.4246
   41TMC2    H5  650   1.141   2.233  14.303  1.0090 -0.2621  0.4143
   42MPD2     C  651   1.312   1.735  14.714 -0.7354  0.2155 -0.4129
   42MPD2    C1  652   1.313   1.874  14.683  0.6292  0.5812  0.1733
   42MPD2    C2  653   1.328   1.961  14.793 -0.5252  0.8206  0.7596
   42MPD2    C3  654   1.354   1.918  14.918 -0.1503  0.0660 -0.1214
   42MPD2    C4  655   1.365   1.784  14.945  0.4736  0.3280 -0.1586
   42MPD2    C5  656   1.340   1.693  14.846  0.6445  0.7999  0.3666
   42MPD2     H  657   1.327   2.067  14.768  0.3578  0.8941  1.0257
   42MPD2    H1  658   1.402   1.752  15.041  1.3327 -1.9236 -1.2402
   42MPD2    H2  659   1.316   1.653  14.643 -2.5863 -0.8073  0.6795
   42MPD2    H3  660   1.353   1.586  14.859 -0.6186  0.5046 -0.8808
   42MPD2     N  661   1.371   2.014  15.028 -0.1222  0.1139 -0.8190
   42MPD2    H5  662   1.378   1.972  15.120 -1.3850 -1.3612 -1.3971
   42MPD2    N1  663   1.290   1.925  14.549 -0.1657 -0.1577 -0.0195
   42MPD2    H7  664   1.299   2.024  14.527 -2.3751 -0.3204 -1.5972
   43TMC2    C1  665   2.543   3.981   1.138 -0.3412  0.5642  0.5743
   43TMC2    C2  666   2.487   3.861   1.150  0.0722  0.3742 -0.1688
   43TMC2    C3  667   2.400   3.851   1.254  0.1239 -0.7579 -0.3206
   43TMC2    C4  668   2.518   4.089   1.219  0.3026  0.6367 -0.8503
   43TMC2    C5  669   2.434   4.066   1.330  0.0112  0.2283  0.1551
   43TMC2    C6  670   2.377   3.941   1.350 -0.0903  0.1255  0.6009
   43TMC2     C  671   2.631   3.999   1.023  0.3759 -0.6078 -0.2465
   43TMC2     O  672   2.663   4.114   0.993  0.4520 -0.1759 -0.2316
   43TMC2     H  673   2.479   3.787   1.071 -1.0066 -0.4253  0.6811
   43TMC2    H1  674   2.575   4.181   1.225  1.7220 -0.3934  1.4383
   43TMC2    H2  675   2.310   3.921   1.433  2.3291 -1.1020  2.2273
   43TMC2    C7  676   2.455   4.150   1.451  0.3789  0.1325  0.1030
   43TMC2    C8  677   2.347   3.713   1.260  0.2742  0.4329  0.5390
   43TMC2    O1  678   2.430   4.088   1.553  0.1231  0.0525 -0.1008
   43TMC2    O2  679   2.423   3.617   1.255  0.2334  0.4913  0.1245
   43TMC2    O5  680   2.242   3.729   1.176 -0.2298  0.1875 -0.1210
   43TMC2    H5  681   2.191   3.807   1.206  0.7476  0.7556  0.0783
   44MPD2     C  682   2.907   3.821   0.632  0.3823 -0.1584 -0.3248
   44MPD2    C1  683   2.836   3.936   0.646 -0.4911  0.3060  0.2842
   44MPD2    C2  684   2.772   3.967   0.770  0.0030 -0.2062 -0.5704
   44MPD2    C3  685   2.770   3.871   0.869 -0.2023 -0.0313  0.3517
   44MPD2    C4  686   2.837   3.753   0.850 -0.3821  0.6680  0.8774
   44MPD2    C5  687   2.910   3.728   0.736 -0.2158 -0.3458 -0.7961
   44MPD2     H  688   2.722   4.064   0.776 -0.7674 -0.6088 -0.4564
   44MPD2    H1  689   2.831   3.672   0.922 -0.3527  0.5583  0.7569
   44MPD2    H2  690   2.977   3.795   0.553 -0.8018 -3.3828 -0.2959
   44MPD2    H3  691   2.965   3.637   0.715 -2.8776 -2.1966  0.2228
   44MPD2     N  692   2.693   3.888   0.988 -0.2500 -0.2580 -0.9609
   44MPD2    H5  693   2.687   3.810   1.053  2.2728 -1.4525 -2.1650
   44MPD2    N1  694   2.821   4.029   0.541  0.1220  0.4216  0.0227
   44MPD2    H7  695   2.769   4.114   0.561 -0.9995 -0.6182  1.4727
   45TMC2    C1  696   2.863   2.729   9.912 -0.2229  0.7819  0.4511
   45TMC2    C2  697   2.793   2.787   9.810 -0.0947 -0.3672  0.2924
   45TMC2    C3  698   2.824   2.922   9.796 -0.7412  0.5351 -0.1802
   45TMC2    C4  699   2.949   2.802   9.991  0.0022 -0.4297  0.1739
   45TMC2    C5  700   2.979   2.926   9.958 -0.1311  0.1684 -0.4370
   45TMC2    C6  701   2.920   2.991   9.851  0.3250 -0.4582 -0.0076
   45TMC2     C  702   2.861   2.586   9.929  0.4103 -0.9810  0.0336
   45TMC2     O  703   2.923   2.534  10.021  0.2207 -0.1402  0.1423
   45TMC2     H  704   2.721   2.743   9.741  0.2240  0.0652 -0.3228
   45TMC2    H1  705   2.991   2.753  10.078 -0.4809  0.1960  0.7674
   45TMC2    H2  706   2.945   3.094   9.828 -1.4952  0.2607  1.2963
   45TMC2    C7  707   3.090   2.986  10.029 -0.1402  0.2426 -0.3490
   45TMC2    C8  708   2.752   2.999   9.693 -0.4445  0.1410 -0.7418
   45TMC2    O1  709   3.110   2.940  10.139 -0.1920  0.2628 -0.5755
   45TMC2    O2  710   2.798   3.106   9.666  0.2760  0.0950  0.0992
   45TMC2    O5  711   2.625   2.952   9.671 -0.1002  0.0873  0.4639
   45TMC2    H5  712   2.611   2.863   9.708 -0.4711 -0.2421 -0.4674
   46MPD2     C  713   2.843   2.299   9.885  0.0155  0.4970  0.0746
   46MPD2    C1  714   2.746   2.391   9.849 -0.2181 -0.5604 -0.0195
   46MPD2    C2  715   2.625   2.353   9.801 -0.2056  0.6276 -0.0959
   46MPD2    C3  716   2.588   2.221   9.793  0.2492  0.1367  0.1185
   46MPD2    C4  717   2.687   2.127   9.812  0.2066  0.5734 -0.5666
   46MPD2    C5  718   2.811   2.168   9.863 -0.0589 -0.2205  0.6397
   46MPD2     H  719   2.554   2.425   9.761 -0.6854  1.5127  2.3654
   46MPD2    H1  720   2.672   2.020   9.821  0.4289  0.6233  0.3673
   46MPD2    H2  721   2.936   2.316   9.938 -1.1411  0.6044  2.0629
   46MPD2    H3  722   2.887   2.096   9.890 -0.7012 -0.9552  0.4703
   46MPD2     N  723   2.457   2.191   9.760 -0.6242 -0.5993 -0.4085
   46MPD2    H5  724   2.390   2.266   9.744 -0.0836 -0.1067 -0.3413
   46MPD2    N1  725   2.753   2.527   9.866  0.2618  0.2737  0.2607
   46MPD2    H7  726   2.673   2.581   9.835 -0.0858 -0.9172 -0.8974
   47TMC2    C1  727   1.039   2.324   9.550 -0.1436  0.2689  0.0975
   47TMC2    C2  728   0.979   2.322   9.432  0.0682 -0.0336  0.4749
   47TMC2    C3  729   0.870   2.240   9.413 -0.4574 -0.5023 -0.3053
   47TMC2    C4  730   0.983   2.278   9.666  0.2902 -0.7673  0.2508
   47TMC2    C5  731   0.862   2.215   9.649 -0.5870  0.4548  0.0253
   47TMC2    C6  732   0.807   2.200   9.524 -0.3440  0.4197 -0.7221
   47TMC2     C  733   1.182   2.333   9.541 -0.1317 -0.6403  0.5764
   47TMC2     O  734   1.236   2.408   9.459  0.3686  0.4890 -0.2663
   47TMC2     H  735   1.040   2.360   9.350  1.8874 -1.7743  1.0194
   47TMC2    H1  736   1.040   2.281   9.758 -1.1483 -0.4880  1.1326
   47TMC2    H2  737   0.711   2.152   9.515 -0.2423 -0.0866  0.9849
   47TMC2    C7  738   0.784   2.171   9.769 -0.2596 -0.3166 -0.2749
   47TMC2    C8  739   0.780   2.262   9.299  0.4794 -0.1066  0.5625
   47TMC2    O1  740   0.814   2.221   9.873  1.1029 -0.1893 -0.1177
   47TMC2    O2  741   0.674   2.206   9.280  0.0841  0.3109 -0.2670
   47TMC2    O5  742   0.810   2.384   9.244 -0.8212  0.3721 -0.1131
   47TMC2    H5  743   0.901   2.406   9.275 -0.7082  0.3720 -0.4423
   48MPD2     C  744   1.483   2.314   9.555 -0.0483  0.2729 -0.2762
   48MPD2    C1  745   1.396   2.217   9.593 -0.4210  0.1771  0.1238
   48MPD2    C2  746   1.444   2.088   9.602 -0.1934 -0.3898 -0.5214
   48MPD2    C3  747   1.582   2.057   9.584 -0.1264 -0.5101 -0.0388
   48MPD2    C4  748   1.670   2.158   9.567  0.8008  0.2779 -0.5126
   48MPD2    C5  749   1.617   2.282   9.548  0.4256  0.0572  0.0052
   48MPD2     H  750   1.374   2.014   9.642 -0.6244  0.6152  0.6095
   48MPD2    H1  751   1.776   2.148   9.549  0.7859  1.2497 -1.1800
   48MPD2    H2  752   1.453   2.417   9.537 -1.5001 -0.2613 -0.8751
   48MPD2    H3  753   1.683   2.359   9.510  0.6382 -1.8910 -3.5733
   48MPD2     N  754   1.620   1.921   9.606  0.5832 -0.3147  0.0875
   48MPD2    H5  755   1.540   1.860   9.611  0.8096 -0.7249 -1.2018
   48MPD2    N1  756   1.255   2.231   9.606 -0.1056  0.7078 -1.1193
   48MPD2    H7  757   1.207   2.146   9.631  1.3903  0.4311  0.7539
   49TMC2    C1  758   4.543   0.773  10.754  0.3959  0.5504  0.2194
   49TMC2    C2  759   4.617   0.691  10.834 -0.3184  0.4709  0.0531
   49TMC2    C3  760   0.018   0.712  10.834 -0.6650 -0.3254  0.1045
   49TMC2    C4  761   4.601   0.874  10.677  0.2355 -0.2123  0.0523
   49TMC2    C5  762   4.735   0.889  10.690  0.2600 -0.5158  0.0885
   49TMC2    C6  763   0.077   0.808  10.768 -0.4212 -0.0069  0.4847
   49TMC2     C  764   4.396   0.753  10.741 -0.9300 -0.0465  0.1109
   49TMC2     O  765   4.342   0.658  10.795  0.9892  0.6461 -0.4019
   49TMC2     H  766   4.563   0.620  10.896  1.8196 -0.2563  1.1067
   49TMC2    H1  767   4.547   0.924  10.598  1.1500 -0.2225 -0.5827
   49TMC2    H2  768   0.184   0.820  10.765 -0.3648 -0.3318  1.2469
   49TMC2    C7  769   0.062   1.013  10.641  0.9614  0.5040  0.6908
   49TMC2    C8  770   0.087   0.631  10.931 -0.2655 -0.0307 -0.0045
   49TMC2    O1  771   0.149   1.058  10.718 -0.2894  0.1958 -0.1107
   49TMC2    O2  772   0.066   0.513  10.947 -0.0264  0.8628  0.2637
   49TMC2    O5  773   0.159   0.709  11.015 -0.0592 -0.1816  1.0124
   49TMC2    H5  774   0.181   0.797  10.977  0.8504 -1.0205 -0.4037
   50MPD2     C  775   4.106   0.763  10.655 -0.3163  0.2765  0.5511
   50MPD2    C1  776   4.191   0.868  10.689  0.7627 -0.5855  0.1932
   50MPD2    C2  777   4.132   0.994  10.704 -0.3103 -0.1463 -0.2466
   50MPD2    C3  778   3.988   1.009  10.716  0.1547  0.1419 -0.7684
   50MPD2    C4  779   3.909   0.894  10.705 -0.1797 -0.7931  0.4997
   50MPD2    C5  780   3.969   0.772  10.671 -0.1307  0.7925 -0.1509
   50MPD2     H  781   4.198   1.079  10.717 -0.9217 -0.4325  4.6802
   50MPD2    H1  782   3.801   0.894  10.706 -0.1783 -0.2216 -0.1718
   50MPD2    H2  783   4.152   0.672  10.619 -3.2276 -1.8117  2.1357
   50MPD2    H3  784   3.909   0.686  10.644  0.2778  0.9693 -1.6195
   50MPD2     N  785   3.916   1.128  10.730 -0.0482  0.1638 -0.2883
   50MPD2    H5  786   3.816   1.134  10.749 -0.5241 -2.8646 -1.7639
   50MPD2    N1  787   4.328   0.858  10.689 -0.4744  0.1811 -0.0837
   50MPD2    H7  788   4.382   0.943  10.698  0.5475 -0.3362 -1.2565
   51TMC2    C1  789   4.172   3.594   0.588  0.1017 -0.2154  0.3045
   51TMC2    C2  790   4.077   3.648   0.511  0.4432 -0.8749  0.4632
   51TMC2    C3  791   4.127   3.728   0.414  0.7489  0.0555  0.3607
   51TMC2    C4  792   4.309   3.611   0.575 -0.0351  0.7304 -0.4390
   51TMC2    C5  793   4.347   3.684   0.464 -0.5909  0.5854 -0.1533
   51TMC2    C6  794   4.255   3.752   0.384  0.1655  0.1050  0.1889
   51TMC2     C  795   4.137   3.516   0.709 -0.0078 -0.0553  0.2708
   51TMC2     O  796   4.222   3.454   0.770  0.4815 -0.3566  0.3405
   51TMC2     H  797   3.972   3.623   0.506 -0.3041  2.0346  1.4593
   51TMC2    H1  798   4.379   3.581   0.653 -1.9763  1.6189  1.6436
   51TMC2    H2  799   4.275   3.829   0.311 -1.1568 -0.5772 -0.8989
   51TMC2    C7  800   4.486   3.697   0.448 -0.3687 -0.0065  0.2080
   51TMC2    C8  801   4.029   3.807   0.340 -0.1430 -0.4805  0.1886
   51TMC2    O1  802   4.555   3.653   0.537  0.2147 -0.0359  0.4335
   51TMC2    O2  803   4.052   3.844   0.228  0.2865 -0.5435 -0.0764
   51TMC2    O5  804   3.948   3.870   0.427  0.2489 -0.0906 -0.0778
   51TMC2    H5  805   3.926   3.817   0.506 -2.1942  1.5929  0.3740
   52MPD2     C  806   3.825   3.357   1.080  0.5983  0.0963 -0.8839
   52MPD2    C1  807   3.948   3.308   1.033  0.0746 -0.2975 -0.5287
   52MPD2    C2  808   4.001   3.351   0.915  0.4454 -0.6193  0.0623
   52MPD2    C3  809   3.942   3.465   0.850  0.0795 -0.4948  0.5921
   52MPD2    C4  810   3.813   3.514   0.895  0.2152 -0.5821  0.2974
   52MPD2    C5  811   3.758   3.450   1.006  0.4282 -0.0742  0.2290
   52MPD2     H  812   4.092   3.310   0.872  0.8696  2.2162 -1.7684
   52MPD2    H1  813   3.783   3.610   0.854 -0.3298 -0.9039 -0.0620
   52MPD2    H2  814   3.776   3.310   1.165  1.6137  1.5611  0.5060
   52MPD2    H3  815   3.664   3.487   1.045  0.6338 -0.3465  0.9816
   52MPD2     N  816   4.005   3.535   0.747 -0.0408  1.0194  0.4527
   52MPD2    H5  817   3.948   3.601   0.696 -0.7798  0.9212  1.1639
   52MPD2    N1  818   4.014   3.197   1.087 -0.0216  0.2932  0.2129
   52MPD2    H7  819   4.095   3.170   1.033 -0.3240 -0.8925  0.3452
   53TMC2    C1  820   4.212   2.540  11.583 -0.5254 -0.0982  1.3515
   53TMC2    C2  821   4.345   2.555  11.563 -1.2157  1.4911  0.1600
   53TMC2    C3  822   4.430   2.536  11.672 -0.2893 -0.7863 -0.0533
   53TMC2    C4  823   4.162   2.494  11.703  0.3800  0.2043 -0.3167
   53TMC2    C5  824   4.251   2.461  11.801 -0.1699  0.1067  0.5388
   53TMC2    C6  825   4.382   2.491  11.791 -0.0825 -0.5548  0.0639
   53TMC2     C  826   4.124   2.582  11.477  0.6364  0.2860  0.3032
   53TMC2     O  827   4.174   2.628  11.378  0.3990 -0.4783  0.0847
   53TMC2     H  828   4.390   2.586  11.469 -1.1203 -0.4451 -0.4492
   53TMC2    H1  829   4.062   2.451  11.710  0.2138  0.2092 -2.6982
   53TMC2    H2  830   4.447   2.482  11.878  0.1697  0.6242  0.0040
   53TMC2    C7  831   4.196   2.421  11.935  0.2127  0.3979  0.1208
   53TMC2    C8  832   4.575   2.535  11.659 -0.0388 -0.1546 -0.1848
   53TMC2    O1  833   4.079   2.428  11.963  0.4780 -0.6913 -0.4927
   53TMC2    O2  834   4.648   2.492  11.749  0.1243 -0.1600  0.2725
   53TMC2    O5  835   4.625   2.618  11.566 -0.1826 -0.4057 -0.3480
   53TMC2    H5  836   4.574   2.655  11.490  0.1491 -1.6241 -1.1625
   54MPD2     C  837   3.881   2.669  11.311  0.6388  0.0454 -0.3527
   54MPD2    C1  838   3.879   2.610  11.429 -0.6024 -0.5386 -0.1284
   54MPD2    C2  839   3.759   2.584  11.476  0.4105  0.4452  0.9823
   54MPD2    C3  840   3.637   2.629  11.429  0.0665  0.5708  0.6610
   54MPD2    C4  841   3.638   2.677  11.302  0.2029 -0.6432  0.3891
   54MPD2    C5  842   3.757   2.701  11.243  0.0706  0.5554  0.8426
   54MPD2     H  843   3.752   2.538  11.573 -1.9710 -2.0866 -0.3644
   54MPD2    H1  844   3.544   2.694  11.250 -0.3744 -0.4218  1.5228
   54MPD2    H2  845   3.970   2.682  11.250  0.8607  2.4860  0.4867
   54MPD2    H3  846   3.773   2.735  11.141 -0.6440 -1.7747 -0.0432
   54MPD2     N  847   3.513   2.596  11.489  0.0859 -0.0973  0.3578
   54MPD2    H5  848   3.430   2.632  11.444  0.1751  0.5828  0.7350
   54MPD2    N1  849   3.992   2.564  11.507  0.4290  0.3254  0.6025
   54MPD2    H7  850   3.959   2.541  11.601 -2.5555  2.6744  0.1388
   55TMC2    C1  851   1.153   0.293   0.983 -0.6138 -0.0107  0.1093
   55TMC2    C2  852   1.254   0.381   1.003 -0.0209  0.2373 -0.0703
   55TMC2    C3  853   1.367   0.335   1.058  0.1778 -0.8076 -0.0230
   55TMC2    C4  854   1.170   0.161   1.025 -0.3872  0.1633 -0.5560
   55TMC2    C5  855   1.294   0.109   1.060 -0.9457 -0.2993  0.4492
   55TMC2    C6  856   1.386   0.199   1.093  0.2837  0.2140  0.4362
   55TMC2     C  857   1.049   0.322   0.884 -0.6077 -0.2161  0.1717
   55TMC2     O  858   0.965   0.238   0.853  0.6759  0.0474  0.2540
   55TMC2     H  859   1.247   0.487   0.982 -0.7566  0.3395  0.6892
   55TMC2    H1  860   1.085   0.095   1.009  0.2072 -0.8814  0.6163
   55TMC2    H2  861   1.464   0.157   1.155  1.0218  0.2347 -0.4637
   55TMC2    C7  862   1.312   4.708   1.101 -0.1825 -0.4011  0.2669
   55TMC2    C8  863   1.453   0.439   1.110  0.4777 -0.3047 -0.6352
   55TMC2    O1  864   1.411   4.678   1.169 -0.4170  0.9473  0.0874
   55TMC2    O2  865   1.408   0.549   1.138  0.1159  0.6750  0.4492
   55TMC2    O5  866   1.580   0.408   1.089  0.6542  0.2642 -0.1596
   55TMC2    H5  867   1.594   0.316   1.058  0.7132  0.1336  0.2585
   56MPD2     C  868   1.094   0.546   0.597 -0.4399 -0.5693 -0.2764
   56MPD2    C1  869   1.022   0.472   0.684  0.2268  0.4775 -0.3989
   56MPD2    C2  870   0.890   0.448   0.653 -0.0923 -0.7651 -0.5864
   56MPD2    C3  871   0.821   0.499   0.545 -0.0347 -0.1058 -0.4826
   56MPD2    C4  872   0.891   0.579   0.461  0.7731  0.0129  1.0688
   56MPD2    C5  873   1.026   0.592   0.487 -0.2536 -0.5256  0.1505
   56MPD2     H  874   0.833   0.381   0.718  0.0684 -0.1030  0.2366
   56MPD2    H1  875   0.849   0.637   0.379  0.3510 -0.0338  1.2538
   56MPD2    H2  876   1.201   0.566   0.603 -0.4753 -0.1033 -1.2176
   56MPD2    H3  877   1.077   0.665   0.424 -2.6333 -1.6646 -3.0663
   56MPD2     N  878   0.695   0.447   0.528 -0.1977 -0.2171 -0.2744
   56MPD2    H5  879   0.655   0.372   0.585  0.5545 -0.7492 -0.4458
   56MPD2    N1  880   1.096   0.424   0.800 -0.0215  0.2632  0.1324
   56MPD2    H7  881   1.189   0.461   0.817 -0.3268  0.3357  1.6040
   57TMC2    C1  882   4.648   0.916  13.791 -0.0422  0.1591 -0.3392
   57TMC2    C2  883   0.021   0.996  13.785 -0.1654 -0.0299  0.4135
   57TMC2    C3  884   0.149   0.938  13.792 -0.1003 -0.2462  0.4090
   57TMC2    C4  885   4.657   0.785  13.763 -0.4041  1.0414 -0.3632
   57TMC2    C5  886   0.050   0.735  13.729  0.0300  0.1964 -0.2813
   57TMC2    C6  887   0.159   0.806  13.758 -0.2817 -0.0840  0.0754
   57TMC2     C  888   4.522   0.976  13.822  0.2958 -0.3632  0.1195
   57TMC2     O  889   4.505   1.092  13.782  0.5440  0.9537 -0.0606
   57TMC2     H  890   0.013   1.101  13.811 -0.2957  0.4059 -1.4024
   57TMC2    H1  891   4.566   0.735  13.731  0.0467 -1.7126  2.5987
   57TMC2    H2  892   0.259   0.766  13.755 -0.6833 -1.0847 -0.1727
   57TMC2    C7  893   0.065   0.616  13.656  0.4323 -0.4398  0.4291
   57TMC2    C8  894   0.268   1.002  13.839 -0.0522 -0.0660 -0.1110
   57TMC2    O1  895   0.182   0.595  13.622 -0.0576  0.3616 -0.0421
   57TMC2    O2  896   0.375   0.948  13.825  0.0399 -0.0559  0.5356
   57TMC2    O5  897   0.248   1.125  13.897  0.2187  0.4909 -0.2458
   57TMC2    H5  898   0.159   1.152  13.929 -0.7926 -2.7940 -0.3107
   58MPD2     C  899   4.073   0.984  14.075 -0.3092 -0.2029 -0.0621
   58MPD2    C1  900   4.125   1.080  13.986  0.0910  0.0128  0.0028
   58MPD2    C2  901   4.250   1.047  13.929 -0.4152  0.2365 -0.0007
   58MPD2    C3  902   4.319   0.928  13.953 -0.6736 -0.9727  0.2837
   58MPD2    C4  903   4.258   0.834  14.036  0.0233  0.3012  0.0248
   58MPD2    C5  904   4.139   0.868  14.105 -0.5404  0.2817 -0.2495
   58MPD2     H  905   4.287   1.117  13.855 -0.9692  0.7056  0.1637
   58MPD2    H1  906   4.304   0.743  14.074 -0.1540  0.1282 -0.1779
   58MPD2    H2  907   3.982   1.003  14.130  0.5423  2.8667  0.2614
   58MPD2    H3  908   4.097   0.807  14.184 -1.6306  0.4753 -0.6904
   58MPD2     N  909   4.449   0.894  13.905  0.3870  0.2866 -0.2956
   58MPD2    H5  910   4.482   0.802  13.932 -2.7087 -1.1206 -1.3518
   58MPD2    N1  911   4.069   1.205  13.950 -0.9224 -0.6900  0.5703
   58MPD2    H7  912   4.126   1.258  13.885 -0.1474 -0.2868  1.5745
   59TMC2    C1  913   1.938   1.299  13.195 -0.0490  0.2287  0.3565
   59TMC2    C2  914   2.058   1.366  13.170 -0.1620  0.1894 -0.0472
   59TMC2    C3  915   2.091   1.370  13.033 -0.2185  0.7548  0.5819
   59TMC2    C4  916   1.867   1.233  13.099 -0.3575 -0.0800  1.0049
   59TMC2    C5  917   1.915   1.235  12.971  0.2593 -1.2489  0.0059
   59TMC2    C6  918   2.023   1.309  12.931 -0.2673  0.8864  0.6123
   59TMC2     C  919   1.893   1.291  13.330  0.4848  0.2745 -0.4290
   59TMC2     O  920   1.770   1.284  13.346 -1.1572  0.4436 -0.1161
   59TMC2     H  921   2.117   1.423  13.241 -2.0643 -0.2666  1.8997
   59TMC2    H1  922   1.782   1.175  13.132 -1.1875  1.4014  1.4732
   59TMC2    H2  923   2.060   1.303  12.829 -0.0394  1.4235  0.6596
   59TMC2    C7  924   1.809   1.202  12.868  0.3349 -0.3814 -0.4697
   59TMC2    C8  925   2.214   1.428  13.001  0.2879  0.6183  0.3934
   59TMC2    O1  926   1.719   1.124  12.898  0.6289 -0.4204  0.5356
   59TMC2    O2  927   2.230   1.493  12.895 -0.2497 -0.8057  0.4026
   59TMC2    O5  928   2.293   1.453  13.113 -0.1801 -0.2300 -0.6515
   59TMC2    H5  929   2.283   1.380  13.178 -0.3816  1.7484  1.4841
   60MPD2     C  930   1.903   1.294  13.645 -0.4236 -0.0727 -0.4474
   60MPD2    C1  931   2.012   1.290  13.563 -0.3780 -0.7023 -0.4810
   60MPD2    C2  932   2.138   1.301  13.618  0.0431  0.2424 -0.0921
   60MPD2    C3  933   2.157   1.310  13.750  0.4564 -0.1007  0.0625
   60MPD2    C4  934   2.045   1.323  13.828 -0.8807 -0.3710  0.4556
   60MPD2    C5  935   1.919   1.319  13.775 -0.1523  0.6889 -0.6847
   60MPD2     H  936   2.221   1.308  13.549  0.1034 -0.3789 -0.0744
   60MPD2    H1  937   2.057   1.349  13.933  2.0753  0.6201 -0.1372
   60MPD2    H2  938   1.800   1.293  13.611 -0.0060 -1.4933 -1.6599
   60MPD2    H3  939   1.829   1.330  13.835  0.3788 -0.4692  0.3415
   60MPD2     N  940   2.282   1.326  13.806 -0.0364 -0.0182  0.4343
   60MPD2    H5  941   2.294   1.350  13.904 -0.7161 -3.7635  1.4215
   60MPD2    N1  942   2.005   1.293  13.419 -0.2454 -0.8448 -0.7989
   60MPD2    H7  943   2.097   1.305  13.376 -0.1852 -1.2743 -0.7863
   61TMC2    C1  944   1.714   2.445  15.505 -0.0698  0.4017  0.3284
   61TMC2    C2  945   1.800   2.376  15.588 -0.0345 -0.1748  0.2638
   61TMC2    C3  946   1.841   2.431  15.705 -0.1393 -0.0516  0.0406
   61TMC2    C4  947   1.667   2.573  15.538 -0.1180  0.0883 -0.7146
   61TMC2    C5  948   1.730   2.627  15.654 -0.0935  0.3497 -0.2570
   61TMC2    C6  949   1.800   2.558  15.752  0.4216 -0.1814 -0.2994
   61TMC2     C  950   1.707   2.387  15.371  0.1959  0.2853  0.1629
   61TMC2     O  951   1.687   2.268  15.357  0.2770  0.0140  0.1036
   61TMC2     H  952   1.835   2.275  15.571 -1.8807 -0.2073 -3.2551
   61TMC2    H1  953   1.595   2.626  15.477 -1.4526  0.4449  1.1855
   61TMC2    H2  954   1.840   2.608  15.839  0.4052  0.6822 -0.7921
   61TMC2    C7  955   1.687   2.763  15.695 -0.2495  0.1479 -0.5917
   61TMC2    C8  956   1.910   2.339  15.795  0.2973 -0.1230  0.3983
   61TMC2    O1  957   1.677   2.785  15.811 -0.2484  0.2763  0.5138
   61TMC2    O2  958   1.893   2.219  15.803 -0.3502 -0.0821  0.8837
   61TMC2    O5  959   1.977   2.414  15.886  0.7160 -0.3748 -0.7194
   61TMC2    H5  960   2.001   2.505  15.858 -0.8136  0.7301  1.5701
   62MPD2     C  961   1.688   2.356  15.075 -0.0563 -0.3272 -0.1407
   62MPD2    C1  962   1.756   2.459  15.140 -0.2389 -0.2580 -0.5780
   62MPD2    C2  963   1.832   2.545  15.066  0.2579 -0.5098 -0.2428
   62MPD2    C3  964   1.844   2.530  14.929  0.7749  0.9169 -0.1455
   62MPD2    C4  965   1.780   2.426  14.869  1.2953  0.5951 -0.5855
   62MPD2    C5  966   1.699   2.341  14.940 -0.4935  0.3699 -0.5309
   62MPD2     H  967   1.867   2.635  15.115  0.2369 -1.4017  1.4126
   62MPD2    H1  968   1.795   2.407  14.764  0.4569 -1.8157 -0.2628
   62MPD2    H2  969   1.624   2.282  15.119 -1.3454  1.2505  0.6327
   62MPD2    H3  970   1.646   2.262  14.888 -0.0319  0.3822 -1.0262
   62MPD2     N  971   1.907   2.628  14.847  0.6465 -0.4367 -0.8302
   62MPD2    H5  972   1.883   2.639  14.749 -0.1093  1.6486 -0.4066
   62MPD2    N1  973   1.752   2.479  15.282  0.4412  0.0422 -0.1181
   62MPD2    H7  974   1.804   2.555  15.323  1.2456 -1.2841  1.3315
   63TMC2    C1  975   0.765   2.777  11.227  0.6378 -0.7440  0.5276
   63TMC2    C2  976   0.846   2.851  11.311 -0.6361 -0.0039 -0.2407
   63TMC2    C3  977   0.913   2.950  11.250 -0.5647 -0.5213  0.3844
   63TMC2    C4  978   0.737   2.799  11.095  0.1340 -0.3179 -0.7577
   63TMC2    C5  979   0.796   2.912  11.049  0.2557 -0.2487  0.3683
   63TMC2    C6  980   0.886   2.987  11.120 -0.0583 -0.3781  0.2100
   63TMC2     C  981   0.678   2.679  11.291 -0.5897 -0.6347  0.2368
   63TMC2     O  982   0.622   2.720  11.392 -0.0117  0.0227 -0.3351
   63TMC2     H  983   0.855   2.822  11.415  1.9764  1.5856 -0.0347
   63TMC2    H1  984   0.667   2.736  11.041 -1.5797 -2.2667  3.7085
   63TMC2    H2  985   0.921   3.081  11.081 -1.9586  0.0596 -0.4276
   63TMC2    C7  986   0.758   2.945  10.917 -0.0196  0.0306  0.1647
   63TMC2    C8  987   1.052   2.965  11.281  0.1185 -0.0843  0.2950
   63TMC2    O1  988   0.765   3.062  10.879  0.3225  0.2070  0.0408
   63TMC2    O2  989   1.132   2.993  11.195  0.0420  0.0883 -0.4285
   63TMC2    O5  990   1.060   3.007  11.410 -0.3820 -0.0323 -0.0762
   63TMC2    H5  991   0.995   2.975  11.477  0.3155  0.4058  0.7987
   64MPD2     C  992   0.400   2.248  11.297 -0.6308 -0.2335 -0.4230
   64MPD2    C1  993   0.481   2.242  11.188  0.3295  0.3138 -0.4472
   64MPD2    C2  994   0.567   2.344  11.161  0.0219  0.2561 -0.4030
   64MPD2    C3  995   0.577   2.455  11.247 -0.7738  0.3483 -0.0542
   64MPD2    C4  996   0.497   2.462  11.357 -0.3329 -0.0472  0.4572
   64MPD2    C5  997   0.406   2.360  11.384  0.7087  0.3918  0.4547
   64MPD2     H  998   0.630   2.340  11.074  2.6818 -0.7514  1.5636
   64MPD2    H1  999   0.502   2.532  11.440  0.3899  0.8692 -0.3578
   64MPD2    H2 1000   0.334   2.166  11.323 -1.0518  0.1744 -0.1925
   64MPD2    H3 1001   0.349   2.354  11.476 -0.0825  1.1585  0.0068
   64MPD2     N 1002   0.665   2.563  11.211  0.1877 -0.6737 -0.4158
   64MPD2    H5 1003   0.723   2.559  11.128  0.6359 -1.4965 -0.0558
   64MPD2    N1 1004   0.488   2.124  11.101 -0.0602  0.4243  0.4864
   64MPD2    H7 1005   0.567   2.122  11.037 -0.5877  0.4194 -0.1645
   65TMC2    C1 1006   2.795   2.606  15.641  0.4938  0.4439 -0.2780
   65TMC2    C2 1007   2.820   2.575  15.516 -0.5777  0.1189 -0.3007
   65TMC2    C3 1008   2.821   2.672  15.417 -0.5950 -0.0929  0.1505
   65TMC2    C4 1009   2.766   2.731  15.685  0.3865  0.0462 -0.0472
   65TMC2    C5 1010   2.756   2.819  15.583  0.5232 -0.1254  0.3662
   65TMC2    C6 1011   2.787   2.800  15.453 -0.1877  0.3243  0.1382
   65TMC2     C 1012   2.779   2.493  15.731  0.0893 -0.0766  0.2876
   65TMC2     O 1013   2.771   2.509  15.854  0.3240 -0.3389 -0.2259
   65TMC2     H 1014   2.852   2.472  15.503  0.8066  0.1753  2.7040
   65TMC2    H1 1015   2.744   2.753  15.789  2.1253 -0.8653  0.5159
   65TMC2    H2 1016   2.764   2.876  15.380 -0.6198 -1.6580 -1.7955
   65TMC2    C7 1017   2.706   2.956  15.615 -0.1281 -0.2816 -0.2457
   65TMC2    C8 1018   2.854   2.627  15.281 -0.3595 -0.1021  0.5981
   65TMC2    O1 1019   2.776   3.047  15.580  0.0935 -0.7111 -0.3415
   65TMC2    O2 1020   2.856   2.509  15.253 -0.2982  0.6322 -0.2087
   65TMC2    O5 1021   2.907   2.730  15.216 -0.6471 -0.3098  0.3587
   65TMC2    H5 1022   2.934   2.800  15.280 -1.1156 -0.2345  0.4675
   66MPD2     C 1023   2.746   2.235  15.885  0.2393  0.0985 -0.1481
   66MPD2    C1 1024   2.702   2.255  15.752 -0.6162  0.3586  1.0386
   66MPD2    C2 1025   2.651   2.148  15.685 -0.9061  0.1169 -0.6379
   66MPD2    C3 1026   2.629   2.026  15.750 -0.5894 -0.1929 -0.6315
   66MPD2    C4 1027   2.662   2.014  15.878 -0.2591 -0.1697 -0.0010
   66MPD2    C5 1028   2.724   2.118  15.946  0.0405 -0.0135 -0.3807
   66MPD2     H 1029   2.631   2.165  15.580  0.5965  2.0130 -0.6162
   66MPD2    H1 1030   2.620   1.928  15.930  0.9692 -0.5294  0.3867
   66MPD2    H2 1031   2.800   2.303  15.949 -1.1224 -0.5210  1.6623
   66MPD2    H3 1032   2.747   2.113  16.051  1.1867 -0.6007 -0.6556
   66MPD2     N 1033   2.542   1.921  15.703  0.2778  0.0311 -0.0749
   66MPD2    H5 1034   2.512   1.847  15.765 -0.6756  0.5726  0.1232
   66MPD2    N1 1035   2.727   2.376  15.677 -0.7404 -0.7504  0.0492
   66MPD2    H7 1036   2.682   2.372  15.585 -1.6033 -1.9493  0.5226
   67TMC2    C1 1037   2.681   1.383  14.302 -0.1625  0.6436  0.4299
   67TMC2    C2 1038   2.607   1.498  14.334  0.0264  0.0958 -0.0641
   67TMC2    C3 1039   2.633   1.560  14.455  0.6683 -0.3881 -0.0504
   67TMC2    C4 1040   2.782   1.341  14.382 -0.4753  0.0398  0.6668
   67TMC2    C5 1041   2.818   1.415  14.491  0.2934 -0.0843 -0.7489
   67TMC2    C6 1042   2.740   1.519  14.531  0.1286  0.9691  0.0669
   67TMC2     C 1043   2.639   1.298  14.198 -0.2497 -0.2151  0.0393
   67TMC2     O 1044   2.724   1.224  14.146  0.4776 -0.1712  0.4334
   67TMC2     H 1045   2.539   1.535  14.258 -0.9423 -1.3036  0.1164
   67TMC2    H1 1046   2.838   1.255  14.348 -0.8300  0.3030 -0.5753
   67TMC2    H2 1047   2.734   1.560  14.631 -0.8227 -0.7706  0.7298
   67TMC2    C7 1048   2.916   1.353  14.582 -0.0502  0.8674 -0.3923
   67TMC2    C8 1049   2.553   1.671  14.502  0.3032 -0.4050  0.0029
   67TMC2    O1 1050   2.971   1.246  14.548 -0.2835  0.1194  0.2525
   67TMC2    O2 1051   2.563   1.725  14.613 -0.7188  0.7762  0.0416
   67TMC2    O5 1052   2.485   1.730  14.394  0.0740 -0.1308  0.2643
   67TMC2    H5 1053   2.526   1.711  14.307 -0.7684 -2.0873  0.3111
   68MPD2     C 1054   2.481   1.094  14.060 -0.1783  0.0832  0.3932
   68MPD2    C1 1055   2.424   1.195  14.124  0.6449  0.4094 -0.0490
   68MPD2    C2 1056   2.288   1.192  14.139  0.2347  0.2339 -0.4076
   68MPD2    C3 1057   2.207   1.093  14.079 -0.2508  0.6367  0.0544
   68MPD2    C4 1058   2.267   0.996  14.002 -0.1891 -0.4100  0.0864
   68MPD2    C5 1059   2.408   1.000  13.998  0.6489  0.3984  0.1158
   68MPD2     H 1060   2.252   1.263  14.214 -0.7171  0.5103 -1.1230
   68MPD2    H1 1061   2.209   0.920  13.951 -0.7097  0.8332 -1.1666
   68MPD2    H2 1062   2.586   1.079  14.036 -0.2854  0.1861 -0.1494
   68MPD2    H3 1063   2.455   0.922  13.939 -0.4152  0.1595 -0.4185
   68MPD2     N 1064   2.064   1.097  14.091 -0.0251  0.2123 -0.0168
   68MPD2    H5 1065   2.001   1.058  14.020 -2.4152  1.9029  1.1701
   68MPD2    N1 1066   2.503   1.298  14.187 -0.1833  0.1705 -0.2196
   68MPD2    H7 1067   2.457   1.382  14.222 -2.3848 -1.5754  1.0662
   69TMC2    C1 1068   4.344   2.673  12.758 -0.2906  0.0030  0.1227
   69TMC2    C2 1069   4.423   2.577  12.811 -1.9155  0.1852  0.1577
   69TMC2    C3 1070   4.505   2.501  12.728 -0.1870  0.0336  0.3479
   69TMC2    C4 1071   4.336   2.697  12.623 -0.1534  0.0845  0.2160
   69TMC2    C5 1072   4.410   2.616  12.546  0.4874  0.2838  0.6413
   69TMC2    C6 1073   4.503   2.522  12.591 -0.2105  0.7744 -0.1578
   69TMC2     C 1074   4.240   2.732  12.844 -0.2549  0.0133 -0.5630
   69TMC2     O 1075   4.190   2.835  12.798  0.8368 -0.3271 -0.1977
   69TMC2     H 1076   4.444   2.556  12.915  0.8967  2.4856  0.0532
   69TMC2    H1 1077   4.254   2.759  12.589  0.0537  0.4054  0.3121
   69TMC2    H2 1078   4.559   2.462  12.522  1.2537  0.4600  1.3096
   69TMC2    C7 1079   4.425   2.644  12.403 -0.2006 -0.4757  0.1422
   69TMC2    C8 1080   4.578   2.380  12.777 -0.0550  0.4463  0.6447
   69TMC2    O1 1081   4.534   2.625  12.346  0.5214  0.6894  0.2716
   69TMC2    O2 1082   4.671   2.328  12.718 -0.1324 -0.8095 -0.0547
   69TMC2    O5 1083   4.507   2.320  12.872 -0.4952  0.0053  0.2156
   69TMC2    H5 1084   4.415   2.351  12.884 -0.4473  1.1531 -2.2420
   70MPD2     C 1085   3.991   2.753  13.013 -0.1478  0.2555 -0.0495
   70MPD2    C1 1086   4.072   2.646  13.010  0.6184  1.2196 -0.3845
   70MPD2    C2 1087   4.037   2.532  13.084  0.4371 -0.1687 -0.7598
   70MPD2    C3 1088   3.923   2.533  13.151  0.9602 -0.6385  0.5475
   70MPD2    C4 1089   3.840   2.643  13.145  0.0428  0.2705 -0.5960
   70MPD2    C5 1090   3.875   2.756  13.083  0.4407  0.4519 -0.3563
   70MPD2     H 1091   4.098   2.442  13.080  0.0875 -0.4891  1.0288
   70MPD2    H1 1092   3.746   2.649  13.198  1.0749 -0.1938  1.3016
   70MPD2    H2 1093   4.028   2.848  12.974 -1.2842  0.2331 -1.1731
   70MPD2    H3 1094   3.812   2.844  13.074 -1.1487 -0.5180  1.3237
   70MPD2     N 1095   3.876   2.416  13.215  0.1976  0.1584 -0.2761
   70MPD2    H5 1096   3.942   2.338  13.222  1.3146  0.9261 -2.3029
   70MPD2    N1 1097   4.182   2.636  12.929 -0.2204  0.2463 -0.1694
   70MPD2    H7 1098   4.221   2.542  12.925  0.8107  0.7102 -1.1707
   71TMC2    C1 1099   3.269   2.686   1.175 -0.0842  0.6717 -0.2968
   71TMC2    C2 1100   3.372   2.644   1.096 -0.4515 -0.0516  0.3597
   71TMC2    C3 1101   3.409   2.513   1.096  0.1724  0.2784  0.4220
   71TMC2    C4 1102   3.207   2.592   1.253  0.6790  0.5746 -0.1156
   71TMC2    C5 1103   3.254   2.463   1.256 -0.2107 -0.0411  0.6645
   71TMC2    C6 1104   3.365   2.417   1.185 -0.6576  0.3683 -0.6955
   71TMC2     C 1105   3.186   2.799   1.138 -1.0300  0.2030  0.2385
   71TMC2     O 1106   3.197   2.826   1.018  0.0408  0.0464  0.6038
   71TMC2     H 1107   3.435   2.721   1.053  0.2460  0.2549  1.9305
   71TMC2    H1 1108   3.110   2.621   1.290  0.1746  0.1174 -1.0680
   71TMC2    H2 1109   3.411   2.319   1.187 -0.2068  0.5851 -0.5042
   71TMC2    C7 1110   3.160   2.357   1.243  0.6691 -0.0563 -0.1340
   71TMC2    C8 1111   3.526   2.482   1.029  0.0415 -0.5409  0.0603
   71TMC2    O1 1112   3.165   2.287   1.146  0.3099 -0.1279  0.2983
   71TMC2    O2 1113   3.527   2.479   0.905  0.3031  0.2310 -0.0217
   71TMC2    O5 1114   3.611   2.460   1.130 -1.0418 -0.3185 -0.5284
   71TMC2    H5 1115   3.577   2.485   1.219  0.4787  0.5727 -0.1993
   72MPD2     C 1116   2.752   3.067   1.249  0.1496  0.5258 -0.7084
   72MPD2    C1 1117   2.779   2.981   1.146 -0.0109  0.3740  0.2862
   72MPD2    C2 1118   2.909   2.924   1.134  0.3522 -0.2293  0.3417
   72MPD2    C3 1119   2.997   2.934   1.240  1.0691  0.0325  0.5459
   72MPD2    C4 1120   2.964   3.007   1.349  0.4900  0.0596  0.8041
   72MPD2    C5 1121   2.843   3.069   1.349 -0.1514 -0.1029  0.2408
   72MPD2     H 1122   2.942   2.867   1.048  2.4559  2.8731 -0.9487
   72MPD2    H1 1123   3.029   3.008   1.436 -0.3170 -0.3003  1.4133
   72MPD2    H2 1124   2.662   3.126   1.258 -0.2282 -0.1535 -0.0516
   72MPD2    H3 1125   2.815   3.119   1.441 -3.4138 -1.6139  0.0420
   72MPD2     N 1126   3.123   2.859   1.244  0.6247  0.0013  0.0476
   72MPD2    H5 1127   3.175   2.848   1.331 -0.9042  1.0018  1.0815
   72MPD2    N1 1128   2.683   2.959   1.043  0.3848 -0.4984  0.1338
   72MPD2    H7 1129   2.725   2.916   0.962  0.2909 -0.2089 -0.0664
   73TMC2    C1 1130   1.105   4.695  14.118  0.3881  0.4414 -0.2202
   73TMC2    C2 1131   1.081   4.618  14.003 -0.2530  0.6634 -0.4094
   73TMC2    C3 1132   1.141   4.494  13.994 -0.0169 -0.7832 -0.2829
   73TMC2    C4 1133   1.184   4.652  14.218 -0.7750  0.0709 -0.1319
   73TMC2    C5 1134   1.253   4.534  14.190 -0.2459 -0.1610  0.6069
   73TMC2    C6 1135   1.220   4.443  14.097 -0.2830 -0.0207  1.0584
   73TMC2     C 1136   1.129   0.108  14.102 -0.6684  0.5301  0.2023
   73TMC2     O 1137   1.231   0.146  14.154 -0.3852  0.4067  0.6833
   73TMC2     H 1138   1.042   4.668  13.915  1.6168  0.4852 -1.3314
   73TMC2    H1 1139   1.201   4.720  14.301 -2.1702 -2.6905  2.4314
   73TMC2    H2 1140   1.276   4.351  14.085 -0.4731  0.0376 -0.2973
   73TMC2    C7 1141   1.394   4.546  14.205  0.0558  0.1846  0.1494
   73TMC2    C8 1142   1.127   4.437  13.863  0.5588 -0.2111 -0.0016
   73TMC2    O1 1143   1.463   4.450  14.214 -0.2767 -0.2301 -0.6924
   73TMC2    O2 1144   1.056   4.479  13.773 -0.4562 -0.5409  0.1733
   73TMC2    O5 1145   1.174   4.306  13.874  0.5053  0.3470 -0.1880
   73TMC2    H5 1146   1.221   4.277  13.955 -1.4772 -1.1731  0.4179
   74MPD2     C 1147   1.095   0.521  13.816 -0.1364 -0.4013  0.2412
   74MPD2    C1 1148   1.195   0.485  13.898  0.4785  0.6668 -0.1138
   74MPD2    C2 1149   1.163   0.365  13.963 -0.5205 -0.0484  0.0324
   74MPD2    C3 1150   1.047   0.290  13.956  0.1819  0.4849 -0.2684
   74MPD2    C4 1151   0.941   0.338  13.880  0.3409  0.0541  0.3568
   74MPD2    C5 1152   0.973   0.445  13.807 -0.1666  0.4548  0.4557
   74MPD2     H 1153   1.238   0.340  14.037  0.3686 -2.4013 -1.6736
   74MPD2    H1 1154   0.845   0.290  13.873  1.6447 -2.8198  1.9819
   74MPD2    H2 1155   1.103   0.599  13.741 -0.4738 -0.0555  0.5639
   74MPD2    H3 1156   0.897   0.478  13.737 -0.2835 -0.5824  0.0952
   74MPD2     N 1157   1.038   0.164  14.016 -0.6417  0.0631 -0.1483
   74MPD2    H5 1158   0.953   0.111  13.999 -1.1482  0.9652 -0.4108
   74MPD2    N1 1159   1.317   0.555  13.900 -0.2564  0.4092 -0.3712
   74MPD2    H7 1160   1.316   0.631  13.833  2.4068 -1.6515 -2.7963
   75TMC2    C1 1161   1.857   1.145  14.194  0.0899 -0.0400  0.2990
   75TMC2    C2 1162   1.799   1.145  14.311 -0.3869 -0.0039 -0.0040
   75TMC2    C3 1163   1.668   1.128  14.321 -0.0947  0.0985  0.2669
   75TMC2    C4 1164   1.789   1.113  14.079 -0.1063 -0.7105  0.6168
   75TMC2    C5 1165   1.653   1.086  14.088  0.0142  0.4231  0.2257
   75TMC2    C6 1166   1.591   1.096  14.210  0.1868 -0.9333 -0.6199
   75TMC2     C 1167   2.006   1.160  14.198 -0.0439 -0.0554  0.7269
   75TMC2     O 1168   2.063   1.179  14.300  0.5482 -0.1780 -0.3470
   75TMC2     H 1169   1.846   1.155  14.409 -0.1323 -0.9190 -0.0315
   75TMC2    H1 1170   1.833   1.120  13.980 -0.7013  1.2807  0.4772
   75TMC2    H2 1171   1.490   1.062  14.230 -0.2926  0.4116 -0.7123
   75TMC2    C7 1172   1.581   1.137  13.975 -0.3004  0.3551  0.1216
   75TMC2    C8 1173   1.630   1.070  14.448  0.0501 -0.5062 -0.5646
   75TMC2    O1 1174   1.637   1.164  13.873 -0.2597 -0.2971 -1.1052
   75TMC2    O2 1175   1.548   0.978  14.457  0.1767  0.8818 -0.0511
   75TMC2    O5 1176   1.632   1.174  14.530  0.1703  0.1474  0.2068
   75TMC2    H5 1177   1.691   1.247  14.501  0.9014 -1.2112 -1.7355
   76TMC2    C1 1178   0.580   2.320  12.240  0.0759  0.1754 -0.4781
   76TMC2    C2 1179   0.489   2.265  12.333 -0.1287 -0.0546 -0.2071
   76TMC2    C3 1180   0.535   2.190  12.435  0.8063  0.1277 -0.0357
   76TMC2    C4 1181   0.714   2.293  12.252 -0.1553  0.6659 -0.7395
   76TMC2    C5 1182   0.758   2.218  12.360 -0.2321  0.4956 -0.4557
   76TMC2    C6 1183   0.666   2.166  12.444 -0.4275 -0.4072 -0.6825
   76TMC2     C 1184   0.532   2.420  12.142  0.5356  0.2393  0.6605
   76TMC2     O 1185   0.421   2.469  12.167  0.1593 -0.3808  0.1323
   76TMC2     H 1186   0.385   2.294  12.322  0.4794  2.6046  1.1532
   76TMC2    H1 1187   0.784   2.344  12.187  1.9451 -1.1230  0.1282
   76TMC2    H2 1188   0.705   2.108  12.527 -0.5286 -3.5225 -2.7969
   76TMC2    C7 1189   0.900   2.187  12.369 -0.1718  0.0106  0.4088
   76TMC2    C8 1190   0.464   2.214  12.557 -0.0666 -0.3204  0.6143
   76TMC2    O1 1191   0.966   2.226  12.272  0.3101 -0.5923  0.1165
   76TMC2    O2 1192   0.489   2.306  12.635  0.1695  0.3394  0.6767
   76TMC2    O5 1193   0.334   2.179  12.526  0.0788  0.2113 -0.0487
   76TMC2    H5 1194   0.330   2.112  12.455  2.5580 -0.9149  0.8663
   77MPD2     C 1195   0.528   2.673  11.689 -0.0318 -0.4011 -0.0228
   77MPD2    C1 1196   0.439   2.673  11.798  0.2134  0.6507  0.1109
   77MPD2    C2 1197   0.470   2.598  11.911  0.1956  0.4108  0.0659
   77MPD2    C3 1198   0.571   2.503  11.913 -0.4265  0.7655 -0.3477
   77MPD2    C4 1199   0.654   2.498  11.806 -0.1062 -0.1552 -0.1420
   77MPD2    C5 1200   0.641   2.587  11.700  0.8067  1.1829 -0.9096
   77MPD2     H 1201   0.402   2.613  11.994  0.2274 -0.5415  0.2630
   77MPD2    H1 1202   0.744   2.438  11.809 -0.1562 -0.3391 -2.3259
   77MPD2    H2 1203   0.520   2.735  11.601  2.7767 -0.9337 -0.6630
   77MPD2    H3 1204   0.715   2.593  11.620  0.7779 -0.7774 -1.0651
   77MPD2     N 1205   0.600   2.416  12.023 -0.2583  0.1788  0.1035
   77MPD2    H5 1206   0.673   2.346  12.015 -1.9286 -1.5008 -0.4145
   77MPD2    N1 1207   0.318   2.746  11.798  0.2462 -0.1728 -0.3794
   77MPD2    H7 1208   0.242   2.720  11.859 -1.6070 -0.4059 -2.7664
   78TMC2    C1 1209   2.112   2.291   2.229  0.0396  0.0202  0.9219
   78TMC2    C2 1210   1.988   2.238   2.206 -0.8355 -0.2177  0.3468
   78TMC2    C3 1211   1.970   2.172   2.089  0.4412 -0.9549  0.3948
   78TMC2    C4 1212   2.218   2.287   2.135  0.5529  0.0382 -0.2561
   78TMC2    C5 1213   2.193   2.213   2.021  0.1950 -0.1880 -0.9971
   78TMC2    C6 1214   2.064   2.163   1.995 -0.3574 -0.0246 -0.4741
   78TMC2     C 1215   2.126   2.363   2.353  0.1766  0.3093 -0.2404
   78TMC2     O 1216   2.241   2.375   2.396  0.0070  0.2643  0.7172
   78TMC2     H 1217   1.911   2.227   2.282 -3.0190  2.2680 -1.4545
   78TMC2    H1 1218   2.314   2.329   2.164 -0.0649  0.6420  0.8841
   78TMC2    H2 1219   2.043   2.101   1.908  0.0886  0.8294 -1.1908
   78TMC2    C7 1220   2.302   2.202   1.924 -1.0459 -0.5121 -0.8827
   78TMC2    C8 1221   1.844   2.107   2.060  0.0017  0.0229 -0.0592
   78TMC2    O1 1222   2.404   2.265   1.949  0.0323  0.2499 -0.4377
   78TMC2    O2 1223   1.830   2.017   1.976 -0.1440  0.5514 -0.1079
   78TMC2    O5 1224   1.746   2.193   2.096  0.2255 -0.2631 -0.2118
   78TMC2    H5 1225   1.767   2.283   2.126  0.3230 -0.6356  0.8381
   79MPD1     C 1226   1.851   2.632   2.687 -0.2686  0.0060  0.4108
   79MPD1    C1 1227   1.972   2.580   2.698  0.0963  0.3935  0.3313
   79MPD1    C2 1228   2.035   2.512   2.596  0.0353  0.5261  0.2985
   79MPD1    C3 1229   1.964   2.504   2.478  0.2808 -0.0808  0.2173
   79MPD1    C4 1230   1.845   2.576   2.459 -0.2079  0.0546 -0.1891
   79MPD1    C5 1231   1.779   2.633   2.567 -0.8687 -0.1521  0.3188
   79MPD1     H 1232   2.135   2.475   2.612  0.0148  1.5106  2.7511
   79MPD1    H1 1233   1.785   2.553   2.372 -0.8269 -2.3324  0.8476
   79MPD1    H2 1234   1.810   2.693   2.765 -2.3060 -0.4559 -0.3031
   79MPD1    H3 1235   1.682   2.680   2.558  0.1192  1.7250 -0.5183
   79MPD1     N 1236   2.012   2.435   2.364  0.1063 -0.2114  0.8330
   79MPD1    H5 1237   1.939   2.420   2.294 -0.6316  1.0085  1.3427
   79MPD1    N1 1238   2.027   2.587   2.825  0.3661  0.2416 -0.3999
   79MPD1    H6 1239   2.128   2.593   2.813  0.3369  1.5360 -0.0312
   79MPD1    H7 1240   2.017   2.670   2.883  0.7545 -0.1152  0.1857
   80TMC2    C1 1241   4.145   1.585  11.860 -0.1092 -0.1230  0.1002
   80TMC2    C2 1242   4.177   1.576  11.730  0.0411 -0.9459  0.4517
   80TMC2    C3 1243   4.108   1.488  11.659 -0.2253  0.0158  0.5361
   80TMC2    C4 1244   4.066   1.491  11.921 -0.8307  0.2647  0.7302
   80TMC2    C5 1245   4.004   1.397  11.841  0.7220  0.0213  0.0201
   80TMC2    C6 1246   4.020   1.405  11.708 -0.3860 -0.4603  0.4861
   80TMC2     C 1247   4.214   1.682  11.937 -0.0166 -0.4366  0.0355
   80TMC2     O 1248   4.319   1.718  11.885 -0.2122 -0.0203  0.0227
   80TMC2     H 1249   4.253   1.636  11.682  1.6601 -2.3365  1.2960
   80TMC2    H1 1250   4.054   1.496  12.029  1.4615  0.5912  0.9577
   80TMC2    H2 1251   3.949   1.362  11.638  0.2428 -0.4897 -0.1376
   80TMC2    C7 1252   3.907   1.304  11.894 -0.4103  0.3208 -0.1285
   80TMC2    C8 1253   4.155   1.466  11.518  0.5382 -0.4845  0.3654
   80TMC2    O1 1254   3.823   1.257  11.818 -0.5552 -0.1711 -0.0705
   80TMC2    O2 1255   4.157   1.359  11.463 -0.1934 -0.4915  0.0723
   80TMC2    O5 1256   4.220   1.576  11.470 -0.0030  0.0706 -0.4565
   80TMC2    H5 1257   4.207   1.666  11.507  0.4732 -0.2958  0.6054
   81MPD2     C 1258   4.330   1.818  12.169 -0.7367  0.5467 -0.4097
   81MPD2    C1 1259   4.196   1.818  12.138 -0.7604  0.2960  1.0629
   81MPD2    C2 1260   4.111   1.884  12.222  0.1100  0.3241  0.0826
   81MPD2    C3 1261   4.157   1.964  12.327  0.0845 -0.4284  0.1725
   81MPD2    C4 1262   4.290   1.962  12.351 -0.0220  0.4606 -0.6599
   81MPD2    C5 1263   4.375   1.890  12.272 -0.1400 -0.0412 -0.3925
   81MPD2     H 1264   4.006   1.882  12.197  0.1860  0.3248 -0.2321
   81MPD2    H1 1265   4.328   2.017  12.437 -2.3069 -0.0916  0.6999
   81MPD2    H2 1266   4.398   1.758  12.111 -0.8454 -0.4573  0.5193
   81MPD2    H3 1267   4.478   1.904  12.303 -0.4057  0.7189  0.1442
   81MPD2     N 1268   4.075   2.047  12.408  0.1392  0.1252  0.4970
   81MPD2    H5 1269   4.112   2.080  12.497  1.1670 -0.1717  0.1854
   81MPD2    N1 1270   4.142   1.736  12.038  0.4069  0.1069  0.4879
   81MPD2    H7 1271   4.041   1.723  12.042  0.1100  1.2269 -3.9818
   82TMC2    C1 1272   2.628   0.717  10.783 -0.0407 -0.7564  0.6550
   82TMC2    C2 1273   2.767   0.733  10.754  0.4335  0.5053 -0.2474
   82TMC2    C3 1274   2.858   0.728  10.859 -0.1804  0.1438  0.9621
   82TMC2    C4 1275   2.591   0.703  10.910 -0.5755  0.3273 -0.0470
   82TMC2    C5 1276   2.684   0.697  11.015  0.8286  0.3487 -0.5419
   82TMC2    C6 1277   2.818   0.716  10.989 -0.0506 -0.2430  0.0623
   82TMC2     C 1278   2.529   0.775  10.690 -0.4258 -0.0802 -0.6809
   82TMC2     O 1279   2.412   0.758  10.712 -0.1196 -0.0817  0.3972
   82TMC2     H 1280   2.812   0.729  10.656 -0.6989  0.4025 -0.7731
   82TMC2    H1 1281   2.488   0.699  10.943  0.1548 -1.9949  1.9845
   82TMC2    H2 1282   2.894   0.712  11.066 -0.9075  1.8458  1.0278
   82TMC2    C7 1283   2.634   0.719  11.153  0.0051 -0.2832  0.0455
   82TMC2    C8 1284   2.998   0.730  10.838  0.6299  0.1637 -0.0836
   82TMC2    O1 1285   2.514   0.725  11.167  0.3391  0.3099  0.1433
   82TMC2    O2 1286   3.072   0.710  10.928  0.8676  0.1460  0.7373
   82TMC2    O5 1287   3.018   0.836  10.758 -0.3245 -0.0236 -0.7158
   82TMC2    H5 1288   2.929   0.865  10.726  0.0854  0.3158 -1.5472
   83MPD2     C 1289   2.379   1.131  10.364  0.5192  0.2496 -0.7257
   83MPD2    C1 1290   2.332   1.098  10.487 -0.3402  0.5926 -0.6380
   83MPD2    C2 1291   2.388   0.992  10.557  0.0214  0.5642 -0.0997
   83MPD2    C3 1292   2.508   0.933  10.510 -0.6943 -0.3906 -0.5902
   83MPD2    C4 1293   2.554   0.970  10.389 -1.1362  0.0774  0.0920
   83MPD2    C5 1294   2.497   1.070  10.309 -0.4305 -0.9138  0.1862
   83MPD2     H 1295   2.355   0.972  10.658  0.9224  1.6176  0.4068
   83MPD2    H1 1296   2.652   0.940  10.355 -0.9610  0.6828  0.0523
   83MPD2    H2 1297   2.329   1.213  10.313 -0.4607 -0.6456 -1.2048
   83MPD2    H3 1298   2.546   1.100  10.218 -1.7981  0.2167 -0.1783
   83MPD2     N 1299   2.579   0.843  10.585  0.6364 -0.4258  0.3094
   83MPD2    H5 1300   2.676   0.821  10.565  0.8597  1.6961 -0.8011
   83MPD2    N1 1301   2.221   1.176  10.538  0.0603  0.3069 -0.0088
   83MPD2    H7 1302   2.196   1.256  10.480 -0.1948  1.4367  1.6588
   84TMC2    C1 1303   3.778   1.454  10.938  0.3831 -0.2118  0.2055
   84TMC2    C2 1304   3.790   1.581  10.891 -0.0304 -0.5089  0.0471
   84TMC2    C3 1305   3.869   1.583  10.775  0.2479  0.2053 -0.6945
   84TMC2    C4 1306   3.836   1.338  10.888  0.0492  0.1766  0.0639
   84TMC2    C5 1307   3.918   1.355  10.781  0.3487 -0.5714 -0.1378
   84TMC2    C6 1308   3.931   1.477  10.719  0.2092  0.2190  0.3560
   84TMC2     C 1309   3.673   1.432  11.039 -0.3405 -0.3514  0.0200
   84TMC2     O 1310   3.653   1.526  11.117 -0.2819  0.8394 -0.0695
   84TMC2     H 1311   3.734   1.663  10.934  1.0457  1.0967 -1.6607
   84TMC2    H1 1312   3.822   1.241  10.933  0.6198  0.8808  1.7706
   84TMC2    H2 1313   3.976   1.485  10.621  0.3533 -1.2020  0.2994
   84TMC2    C7 1314   3.982   1.244  10.717 -0.2074 -0.0284  0.5242
   84TMC2    C8 1315   3.876   1.695  10.682  0.3839  0.5251  0.0535
   84TMC2    O1 1316   4.069   1.277  10.635 -0.4203 -0.2776 -0.0260
   84TMC2    O2 1317   3.783   1.774  10.672 -0.0988 -0.2594 -0.1358
   84TMC2    O5 1318   4.009   1.717  10.655 -0.0284  0.2540 -0.1035
   84TMC2    H5 1319   4.072   1.658  10.702  1.8717  1.8157 -0.6736
   85TMC2    C1 1320   0.097   3.368  15.815 -0.1267  0.0568  0.4531
   85TMC2    C2 1321   4.721   3.439  15.847 -0.0481  0.5049  0.4110
   85TMC2    C3 1322   4.726   3.570  15.819 -0.1369  0.6293 -0.8500
   85TMC2    C4 1323   0.210   3.427  15.766 -0.5193  0.3199 -0.3736
   85TMC2    C5 1324   0.215   3.563  15.759 -0.7238 -0.6604 -0.4269
   85TMC2    C6 1325   0.102   3.639  15.781  0.3945 -0.1811  0.6010
   85TMC2     C 1326   0.135   3.270  15.916  0.2493  0.1608  0.5372
   85TMC2     O 1327   0.231   3.287  15.990  0.5568  0.1700  0.9052
   85TMC2     H 1328   4.643   3.385  15.901 -0.4263  1.5057  0.8816
   85TMC2    H1 1329   0.289   3.360  15.733  0.9312  0.6789  2.4014
   85TMC2    H2 1330   0.089   3.747  15.782  0.1768 -0.1979 -0.1688
   85TMC2    C7 1331   0.325   3.634  15.706  0.7141 -0.9854  0.6048
   85TMC2    C8 1332   4.619   3.653  15.879  0.1101 -0.1858  0.7398
   85TMC2    O1 1333   0.404   3.555  15.653  0.2457  0.1953 -0.3938
   85TMC2    O2 1334   4.632   3.696  15.992 -0.0670 -0.1540  0.1539
   85TMC2    O5 1335   4.508   3.589  15.835 -0.3341 -0.3839 -0.9675
   85TMC2    H5 1336   4.515   3.552  15.744 -0.0857 -1.0040 -0.6944
   86MPD2     C 1337   0.029   2.862  16.209  0.6509 -0.0354  0.2141
   86MPD2    C1 1338   4.688   2.865  16.094  0.0922 -0.3169 -0.2892
   86MPD2    C2 1339   4.707   2.956  15.995  0.2226 -0.6944 -0.3671
   86MPD2    C3 1340   0.048   3.066  16.023  0.4490 -0.0355 -1.0345
   86MPD2    C4 1341   0.116   3.071  16.144 -0.2819  0.4416  0.3079
   86MPD2    C5 1342   0.110   2.970  16.238 -0.5537 -0.6058 -0.8133
   86MPD2     H 1343   4.658   2.939  15.899  2.3718 -0.2156 -1.5421
   86MPD2    H1 1344   0.180   3.155  16.165  0.1771 -0.2460  1.6729
   86MPD2    H2 1345   0.020   2.783  16.283  1.4071  1.2705  1.6882
   86MPD2    H3 1346   0.172   2.973  16.327  1.1565  0.2619 -2.0213
   86MPD2     N 1347   0.050   3.168  15.922  0.0273 -0.6672  0.1951
   86MPD2    H5 1348   4.715   3.167  15.849 -0.2110  2.4672  0.3936
   86MPD2    N1 1349   4.602   2.755  16.064  0.0968 -0.8386  0.0684
   86MPD2    H7 1350   4.539   2.778  15.988  0.4360 -2.3593 -0.6796
   87TMC2    C1 1351   2.216   1.316   1.481  0.1181 -0.6714  0.0785
   87TMC2    C2 1352   2.279   1.267   1.591 -0.4314  0.2388 -0.0037
   87TMC2    C3 1353   2.252   1.340   1.709  0.7181 -0.0886 -0.0920
   87TMC2    C4 1354   2.160   1.442   1.478 -0.1106 -0.7544  0.2366
   87TMC2    C5 1355   2.153   1.520   1.590 -0.5526 -0.0649  0.3114
   87TMC2    C6 1356   2.192   1.465   1.708 -0.0082  0.5579  0.0946
   87TMC2     C 1357   2.251   1.257   1.356  0.2338 -0.5459  0.0807
   87TMC2     O 1358   2.259   1.135   1.351  0.0817 -0.5126  0.5760
   87TMC2     H 1359   2.321   1.168   1.593  0.2702  0.5169 -1.0215
   87TMC2    H1 1360   2.115   1.482   1.388  2.0761  1.4697  0.1482
   87TMC2    H2 1361   2.166   1.520   1.798  0.5348  0.7707  0.1232
   87TMC2    C7 1362   2.105   1.660   1.601  0.3179 -0.9451  0.2512
   87TMC2    C8 1363   2.263   1.262   1.840  0.3999  0.2399  1.0191
   87TMC2    O1 1364   2.053   1.689   1.706 -0.3847  0.7502 -0.8537
   87TMC2    O2 1365   2.255   1.142   1.836 -0.3520 -0.4557 -0.5036
   87TMC2    O5 1366   2.277   1.346   1.944  0.1349 -0.2074  0.1390
   87TMC2    H5 1367   2.299   1.439   1.920  1.2108  0.2083  2.7337
   88MPD2     C 1368   1.962   1.913   1.572 -0.5674 -0.1750  1.0735
   88MPD2    C1 1369   2.024   1.844   1.467 -0.0804  0.2723  0.6911
   88MPD2    C2 1370   2.017   1.894   1.341 -0.3043 -1.3218  0.2388
   88MPD2    C3 1371   1.955   2.018   1.316 -0.3079  0.0302 -0.2383
   88MPD2    C4 1372   1.890   2.082   1.414 -0.5346 -0.3799  0.0186
   88MPD2    C5 1373   1.892   2.032   1.541  0.6137  0.5699  0.0069
   88MPD2     H 1374   2.065   1.834   1.265  2.8108  2.2440 -0.6274
   88MPD2    H1 1375   1.836   2.174   1.396  0.0461  0.1267  0.8519
   88MPD2    H2 1376   1.981   1.886   1.675  0.4705 -2.8162  0.1939
   88MPD2    H3 1377   1.831   2.083   1.615 -1.4853  0.5911 -1.7432
   88MPD2     N 1378   1.946   2.080   1.186  0.4128  0.6860 -0.3479
   88MPD2    H5 1379   1.898   2.169   1.174  0.7848  0.6528 -2.0285
   88MPD2    N1 1380   2.107   1.732   1.483  0.5110 -0.2626  0.5727
   88MPD2    H7 1381   2.157   1.688   1.406  0.4638  2.9543 -1.2761
   89TMC2    C1 1382   3.290   3.271   1.674  0.7359 -0.0042  0.7463
   89TMC2    C2 1383   3.418   3.249   1.639  0.5769 -0.2948  0.5157
   89TMC2    C3 1384   3.479   3.347   1.575  0.7166  0.2082  0.7246
   89TMC2    C4 1385   3.223   3.395   1.669 -0.1950 -0.2254  0.4147
   89TMC2    C5 1386   3.295   3.490   1.590 -0.6477  0.1433  0.3967
   89TMC2    C6 1387   3.424   3.465   1.547  0.2966  0.3449 -0.4463
   89TMC2     C 1388   3.212   3.159   1.715  0.1703 -0.3302  0.2341
   89TMC2     O 1389   3.228   3.057   1.651 -0.6460 -0.1984 -0.2559
   89TMC2     H 1390   3.464   3.151   1.642 -2.3943 -1.7335 -1.3515
   89TMC2    H1 1391   3.117   3.404   1.692 -0.2452  0.6573 -0.1774
   89TMC2    H2 1392   3.482   3.545   1.503 -0.1883  1.3293  0.6893
   89TMC2    C7 1393   3.249   3.622   1.575  0.0734 -0.2902 -0.0560
   89TMC2    C8 1394   3.564   3.311   1.464  0.1264 -0.0655  0.2806
   89TMC2    O1 1395   3.180   3.660   1.665  0.5052 -0.2979 -0.6097
   89TMC2    O2 1396   3.564   3.371   1.357  0.2970 -0.4118 -0.1883
   89TMC2    O5 1397   3.629   3.189   1.482  0.6271  0.1542  0.4311
   89TMC2    H5 1398   3.644   3.164   1.576  1.3313  0.0141  0.2824
   90MPD2     C 1399   2.786   2.963   1.898  0.0952 -0.2738  0.6601
   90MPD2    C1 1400   2.800   3.081   1.963 -0.6273 -0.4526 -0.2970
   90MPD2    C2 1401   2.910   3.153   1.931  0.0014  0.3664 -0.0573
   90MPD2    C3 1402   3.003   3.108   1.837  0.7263 -0.4816  0.0245
   90MPD2    C4 1403   2.979   2.988   1.766  1.2383 -0.2170 -0.3982
   90MPD2    C5 1404   2.873   2.917   1.803  0.6814 -0.4563 -1.0080
   90MPD2     H 1405   2.939   3.246   1.980 -1.3470  0.5421  0.4216
   90MPD2    H1 1406   3.039   2.938   1.691  1.5511  0.0401 -0.3216
   90MPD2    H2 1407   2.705   2.894   1.922 -0.0907 -0.2660  0.0506
   90MPD2    H3 1408   2.849   2.819   1.764 -2.0019  0.6215 -2.0691
   90MPD2     N 1409   3.116   3.187   1.807 -0.5915 -0.0615  0.2025
   90MPD2    H5 1410   3.128   3.269   1.865 -1.5762  0.7203 -0.7111
   90MPD2    N1 1411   2.717   3.121   2.065 -0.2193  0.0561  0.1563
   90MPD2    H7 1412   2.745   3.200   2.123  1.6149 -0.9576  0.6459
   91TMC2    C1 1413   0.310   3.887  16.913  0.2971  0.2925 -0.2591
   91TMC2    C2 1414   0.395   3.776  16.911 -0.2571  0.2424  0.4870
   91TMC2    C3 1415   0.355   3.681  16.996  0.1127  0.1137  0.3059
   91TMC2    C4 1416   0.202   3.900  16.999  0.5311  0.3818 -0.0157
   91TMC2    C5 1417   0.171   3.795  17.075 -0.3650 -0.3260  0.1624
   91TMC2    C6 1418   0.249   3.684  17.079  0.9114 -0.6450  0.2213
   91TMC2     C 1419   0.340   4.005  16.829  1.1576  0.4428  0.0859
   91TMC2     O 1420   0.246   4.085  16.805 -0.3179  0.2014 -0.3201
   91TMC2     H 1421   0.479   3.763  16.844 -1.8199 -1.5243 -1.1273
   91TMC2    H1 1422   0.142   3.990  16.998  0.6988  0.4746 -1.7708
   91TMC2    H2 1423   0.230   3.598  17.143  0.9528 -1.5853 -1.0439
   91TMC2    C7 1424   0.029   3.753  17.064 -0.1477 -0.0431 -0.1088
   91TMC2    C8 1425   0.453   3.579  17.015  0.6122  0.2056 -0.2664
   91TMC2    O1 1426   0.011   3.643  17.114  0.3928  0.3631  0.1946
   91TMC2    O2 1427   0.551   3.567  16.946  0.4239  1.0316 -0.3313
   91TMC2    O5 1428   0.460   3.552  17.150 -0.3020 -1.0976 -0.1352
   91TMC2    H5 1429   0.396   3.600  17.206  1.2009  0.2942  0.3720
   92MPD2     C 1430   0.429   4.186  16.606  0.7406  0.1147  0.2474
   92MPD2    C1 1431   0.510   4.097  16.680  1.2251 -0.0449 -0.5298
   92MPD2    C2 1432   0.637   4.077  16.642  0.4290  0.0683  0.5721
   92MPD2    C3 1433   0.687   4.134  16.523  0.0893 -0.4215 -0.1119
   92MPD2    C4 1434   0.603   4.210  16.448  0.2940 -0.9790 -0.1118
   92MPD2    C5 1435   0.476   4.239  16.492 -0.2408 -1.0812 -0.0331
   92MPD2     H 1436   0.702   4.005  16.691  0.7223 -0.0329  0.0305
   92MPD2    H1 1437   0.633   4.258  16.356 -1.2901 -1.0199 -0.6602
   92MPD2    H2 1438   0.324   4.202  16.628  0.3329  1.3971 -2.6593
   92MPD2    H3 1439   0.419   4.295  16.419  1.1492 -1.7803 -1.6723
   92MPD2     N 1440   0.812   4.100  16.472  0.4845 -0.3477  0.0377
   92MPD2    H5 1441   0.863   4.030  16.525  0.8563 -2.2289 -2.8636
   92MPD2    N1 1442   0.466   4.021  16.785  0.3818  0.7596 -0.1742
   92MPD2    H7 1443   0.531   3.971  16.843  0.9763 -1.9679 -3.1549
   93TMC2    C1 1444   1.927   4.102  13.930  0.8055 -0.2871 -0.0113
   93TMC2    C2 1445   1.886   4.172  14.042  0.5429 -0.9558 -0.2779
   93TMC2    C3 1446   1.948   4.293  14.070 -0.0414 -0.2902  0.2863
   93TMC2    C4 1447   2.033   4.143  13.852 -0.7615 -0.3502  0.4979
   93TMC2    C5 1448   2.103   4.259  13.900 -0.3299 -0.2112 -0.3323
   93TMC2    C6 1449   2.062   4.335  14.002 -0.1213  0.8767 -0.2996
   93TMC2     C 1450   1.840   4.008  13.876 -0.2723  0.6103 -0.3099
   93TMC2     O 1451   1.893   3.944  13.785  0.7718 -0.1265 -0.0733
   93TMC2     H 1452   1.795   4.150  14.096  0.0361 -2.9768 -1.9450
   93TMC2    H1 1453   2.063   4.086  13.765 -1.7135 -1.2572  0.7580
   93TMC2    H2 1454   2.118   4.419  14.043  1.9369 -0.3391 -0.6486
   93TMC2    C7 1455   2.226   4.299  13.823 -0.1770 -0.6809  0.4132
   93TMC2    C8 1456   1.935   4.358  14.197  0.1541 -0.0354  1.0024
   93TMC2    O1 1457   2.295   4.214  13.767  0.0654 -0.0935  0.0449
   93TMC2    O2 1458   2.017   4.411  14.265 -0.3396 -0.2073  0.4060
   93TMC2    O5 1459   1.802   4.365  14.221  0.3625 -0.1533  0.3926
   93TMC2    H5 1460   1.746   4.314  14.158 -0.9707  3.1515 -1.1101
   94MPD2     C 1461   1.616   3.860  13.767 -0.4128 -0.0565  0.3607
   94MPD2    C1 1462   1.601   3.958  13.865 -0.1181  0.2870  0.5199
   94MPD2    C2 1463   1.472   4.001  13.904  0.3733  0.7959  0.6920
   94MPD2    C3 1464   1.362   3.921  13.854 -0.2529  0.0399  0.0831
   94MPD2    C4 1465   1.383   3.819  13.766 -0.1218 -0.3162  0.1165
   94MPD2    C5 1466   1.505   3.802  13.711 -0.4883  0.5189 -0.9051
   94MPD2     H 1467   1.459   4.081  13.976  0.4065  0.3238  1.2266
   94MPD2    H1 1468   1.300   3.757  13.733  1.4677 -0.4505 -3.5218
   94MPD2    H2 1469   1.712   3.827  13.728 -0.0103 -0.8872  2.0519
   94MPD2    H3 1470   1.516   3.736  13.625 -2.7847 -0.1943 -0.6466
   94MPD2     N 1471   1.226   3.941  13.895  0.3692 -0.7032 -0.1605
   94MPD2    H5 1472   1.158   3.881  13.849 -1.5770  2.4557 -1.3931
   94MPD2    N1 1473   1.710   4.032  13.912  0.5288  0.5095  0.3462
   94MPD2    H7 1474   1.689   4.111  13.972 -2.1427  1.1253 -1.3858
   95TMC2    C1 1475   1.708   1.639  16.243  0.1048  0.9731  0.4976
   95TMC2    C2 1476   1.705   1.524  16.313  0.8271 -0.1254  0.0725
   95TMC2    C3 1477   1.657   1.532  16.441  0.3785  0.3252 -0.4362
   95TMC2    C4 1478   1.685   1.760  16.298 -0.2625 -0.0203  0.0154
   95TMC2    C5 1479   1.644   1.767  16.430  0.0941 -0.3164  0.1636
   95TMC2    C6 1480   1.633   1.652  16.506  0.7071 -0.4574 -0.3444
   95TMC2     C 1481   1.772   1.626  16.115 -0.3876  0.0925 -0.4830
   95TMC2     O 1482   1.793   1.731  16.056 -0.0995  0.0121 -0.4613
   95TMC2     H 1483   1.722   1.421  16.283 -0.0533 -0.4451  0.6603
   95TMC2    H1 1484   1.709   1.846  16.236 -0.9619  0.6017  0.6061
   95TMC2    H2 1485   1.593   1.649  16.607 -1.0192  3.0370 -0.9029
   95TMC2    C7 1486   1.614   1.894  16.488  0.2973  0.5183 -0.6832
   95TMC2    C8 1487   1.624   1.410  16.513  0.0899  0.1476  0.0505
   95TMC2    O1 1488   1.591   1.874  16.607  0.0640  0.1861  0.3098
   95TMC2    O2 1489   1.673   1.304  16.487 -0.9509  0.3046  0.0420
   95TMC2    O5 1490   1.491   1.439  16.551  0.1513 -0.2155  0.1266
   95TMC2    H5 1491   1.466   1.530  16.526  1.6830  0.4360  1.0168
   96MPD2     C 1492   1.884   1.409  15.661  0.3579 -0.4019  0.5837
   96MPD2    C1 1493   1.949   1.519  15.725 -0.4058  0.2009  1.1522
   96MPD2    C2 1494   1.914   1.553  15.853  0.3768  0.2343 -0.1127
   96MPD2    C3 1495   1.821   1.467  15.930 -0.4173  0.2202 -0.6507
   96MPD2    C4 1496   1.764   1.361  15.870  0.5441 -0.3755  0.3885
   96MPD2    C5 1497   1.798   1.341  15.736 -0.2920  0.1113 -0.4753
   96MPD2     H 1498   1.958   1.634  15.910 -0.6898  0.7843 -0.0675
   96MPD2    H1 1499   1.681   1.305  15.911 -1.0617  0.8214 -1.2431
   96MPD2    H2 1500   1.899   1.378  15.558  1.6859  1.7728  0.1076
   96MPD2    H3 1501   1.746   1.265  15.678  0.1344 -0.6504  0.1507
   96MPD2     N 1502   1.774   1.503  16.059  0.2482  0.4752  0.3504
   96MPD2    H5 1503   1.717   1.428  16.096  2.5110 -0.8748  1.0924
   96MPD2    N1 1504   2.038   1.589  15.643  0.8698  0.0677  0.0357
   96MPD2    H7 1505   2.048   1.554  15.548 -0.5452  1.2950 -0.5709
   97TMC2    C1 1506   3.935   3.536  17.743 -0.0179  0.0809 -0.1269
   97TMC2    C2 1507   3.825   3.508  17.668  0.7088 -0.1221  0.4460
   97TMC2    C3 1508   3.796   3.592  17.570  0.3126 -0.2053  0.2399
   97TMC2    C4 1509   4.007   3.654  17.730  0.8381  0.2519  0.1276
   97TMC2    C5 1510   3.974   3.735  17.626  0.0775  0.4115 -0.2422
   97TMC2    C6 1511   3.869   3.708  17.544 -0.1098 -0.3832  0.1944
   97TMC2     C 1512   3.955   3.452   0.112 -0.1497  0.3186  0.0341
   97TMC2     O 1513   3.873   3.364   0.135  0.0458  0.5153  0.4930
   97TMC2     H 1514   3.752   3.433  17.696 -0.6146  0.7776 -0.5341
   97TMC2    H1 1515   4.096   3.679   0.040  1.1410 -2.4567  0.8612
   97TMC2    H2 1516   3.860   3.756  17.447  0.8418 -0.4078  0.0941
   97TMC2    C7 1517   4.037   3.865  17.602  0.5082 -0.6189  0.0224
   97TMC2    C8 1518   3.684   3.554  17.483 -0.6648  0.4900  0.1226
   97TMC2    O1 1519   4.156   3.868  17.627  0.1846 -0.4480 -0.0829
   97TMC2    O2 1520   3.652   3.434  17.469  0.2045 -0.0173  0.4136
   97TMC2    O5 1521   3.611   3.660  17.441 -0.3104  0.3720  0.2040
   97TMC2    H5 1522   3.632   3.741  17.493 -0.2970 -0.9779  2.2925
   98MPD2     C 1523   4.209   3.251   0.498 -0.2568  0.0578  0.2260
   98MPD2    C1 1524   4.072   3.260   0.484  0.4086 -0.0649 -0.5668
   98MPD2    C2 1525   4.031   3.326   0.369  0.5590 -0.5914 -0.1151
   98MPD2    C3 1526   4.119   3.385   0.283  0.0730  0.5296 -0.9694
   98MPD2    C4 1527   4.253   3.386   0.309 -0.3234 -0.3398 -0.8034
   98MPD2    C5 1528   4.298   3.308   0.406 -0.0609 -0.3652 -0.0089
   98MPD2     H 1529   3.924   3.333   0.350  0.6132  1.2002  0.2150
   98MPD2    H1 1530   4.319   3.434   0.238  0.2602 -0.6023 -0.4376
   98MPD2    H2 1531   4.243   3.193   0.583 -2.2397  0.1012  1.0448
   98MPD2    H3 1532   4.405   3.300   0.418 -0.2288 -1.2866  0.9430
   98MPD2     N 1533   4.078   3.469   0.173 -0.1414 -0.0923 -0.3084
   98MPD2    H5 1534   4.140   3.539   0.135  0.1673  0.3769  1.0471
   98MPD2    N1 1535   3.986   3.206   0.582  0.1594 -0.3025 -0.4797
   98MPD2    H7 1536   4.041   3.168   0.659 -1.5051 -0.1383  0.8089
   99TMC2    C1 1537   2.643   0.236   1.529  0.0412  0.0013  0.3052
   99TMC2    C2 1538   2.710   0.238   1.415  0.3300 -0.9835  0.0199
   99TMC2    C3 1539   2.690   0.350   1.339  0.5711  0.1210 -0.8508
   99TMC2    C4 1540   2.564   0.340   1.577 -0.2100  0.0111  0.1851
   99TMC2    C5 1541   2.545   0.447   1.493 -0.5322 -0.0676 -0.0233
   99TMC2    C6 1542   2.609   0.460   1.370 -0.2739 -0.2357 -1.0175
   99TMC2     C 1543   2.625   0.113   1.607  0.0483 -0.0983  0.3466
   99TMC2     O 1544   2.615   0.132   1.727  0.6565  0.7176 -0.2341
   99TMC2     H 1545   2.760   0.153   1.371  3.2442  0.3499  0.7642
   99TMC2    H1 1546   2.519   0.321   1.674 -0.6178  0.9174  0.1726
   99TMC2    H2 1547   2.586   0.551   1.315 -0.2258 -0.5397 -1.5449
   99TMC2    C7 1548   2.444   0.548   1.515  0.3572  0.4255  0.4948
   99TMC2    C8 1549   2.777   0.360   1.232  0.0722  0.2783 -0.3484
   99TMC2    O1 1550   2.445   0.652   1.452 -0.4336 -0.1063 -0.0728
   99TMC2    O2 1551   2.823   0.265   1.167 -0.0751 -0.4552  0.4851
   99TMC2    O5 1552   2.808   0.483   1.190 -0.0984  0.4036 -0.1580
   99TMC2    H5 1553   2.801   0.550   1.262 -0.7288 -0.3386  0.4734
  100MPD2     C 1554   2.593   4.572   1.702  0.1991  0.2589 -0.3581
  100MPD2    C1 1555   2.587   4.607   1.574  0.4423 -0.1874  0.5411
  100MPD2    C2 1556   2.546   4.506   1.483  0.3160 -0.2484  0.0294
  100MPD2    C3 1557   2.524   4.377   1.525 -0.3673 -0.3697 -0.4936
  100MPD2    C4 1558   2.542   4.342   1.659 -0.1072  0.8046 -0.2802
  100MPD2    C5 1559   2.564   4.445   1.745 -0.3012  0.0845  0.0642
  100MPD2     H 1560   2.514   4.537   1.384  1.5621 -0.1203 -0.3295
  100MPD2    H1 1561   2.539   4.243   1.704 -1.1122  0.3566 -1.3283
  100MPD2    H2 1562   2.639   4.636   1.778 -0.3499  0.1100  0.0983
  100MPD2    H3 1563   2.572   4.418   1.849  0.4707 -1.5604 -0.4178
  100MPD2     N 1564   2.497   4.283   1.424 -0.0148  0.6999  0.1297
  100MPD2    H5 1565   2.495   4.325   1.332 -3.3105  0.8312  0.2603
  100MPD2    N1 1566   2.611   4.737   1.526 -0.5858 -0.4574 -0.6947
  100MPD2    H7 1567   2.598   0.006   1.425 -4.2960 -0.1149 -0.1908
  101TMC2    C1 1568   2.984   2.015  13.236  0.5041 -0.2232 -0.4875
  101TMC2    C2 1569   2.876   2.090  13.250  0.0529 -0.3654 -0.3569
  101TMC2    C3 1570   2.875   2.213  13.196  0.2419 -0.5253 -0.0788
  101TMC2    C4 1571   3.099   2.060  13.178 -0.2751 -0.1565  0.1991
  101TMC2    C5 1572   3.089   2.183  13.117  0.0553 -0.2338 -0.3740
  101TMC2    C6 1573   2.978   2.268  13.129 -0.0364  0.1430  0.4578
  101TMC2     C 1574   2.973   1.890  13.310  0.0744  1.1192 -0.9499
  101TMC2     O 1575   2.867   1.861  13.359  0.1443 -0.4370  0.3557
  101TMC2     H 1576   2.787   2.055  13.302  0.6019  1.1065  1.5812
  101TMC2    H1 1577   3.194   2.010  13.180 -0.4016 -0.4283 -0.6797
  101TMC2    H2 1578   2.985   2.371  13.097  0.0250  0.3854  1.2394
  101TMC2    C7 1579   3.198   2.231  13.029 -0.0386 -0.4638 -0.3053
  101TMC2    C8 1580   2.748   2.274  13.207  0.1386 -0.2006  0.3581
  101TMC2    O1 1581   3.316   2.199  13.058 -0.0407 -0.2387 -0.0684
  101TMC2    O2 1582   2.690   2.252  13.312  0.1960 -0.4420  0.4019
  101TMC2    O5 1583   2.758   2.384  13.135  0.2089 -0.1388 -0.4854
  101TMC2    H5 1584   2.802   2.376  13.048  2.4524 -0.9868  0.7357
  102MPD2     C 1585   3.214   1.618  13.365  0.9041 -0.1691  0.4259
  102MPD2    C1 1586   3.104   1.699  13.381 -0.6785 -0.3062  0.1941
  102MPD2    C2 1587   3.017   1.660  13.485 -0.0574  0.0926 -0.2735
  102MPD2    C3 1588   3.022   1.539  13.552 -0.2297 -0.6414  0.4286
  102MPD2    C4 1589   3.132   1.459  13.529 -0.1446 -0.0073  0.1803
  102MPD2    C5 1590   3.225   1.501  13.445 -0.1246 -0.3571 -0.1694
  102MPD2     H 1591   2.928   1.718  13.507 -0.6228 -0.5285 -0.9026
  102MPD2    H1 1592   3.131   1.366  13.584  2.3474 -0.4282 -0.5273
  102MPD2    H2 1593   3.276   1.640  13.279 -1.0143  0.4493 -0.8080
  102MPD2    H3 1594   3.309   1.435  13.427  0.6949  0.5262  0.4132
  102MPD2     N 1595   2.914   1.506  13.640 -0.2987 -0.3981 -0.3769
  102MPD2    H5 1596   2.845   1.576  13.667  0.4196  0.0366  0.3412
  102MPD2    N1 1597   3.088   1.813  13.304  0.2826 -0.6059  0.1792
  102MPD2    H7 1598   3.158   1.839  13.235  0.1539 -0.1185  0.2333
  103TMC2    C1 1599   1.321   1.942  13.002 -0.0497 -0.1061 -0.1784
  103TMC2    C2 1600   1.451   1.952  12.981  0.5216 -0.2554 -0.0502
  103TMC2    C3 1601   1.537   1.977  13.080  0.2296  0.6180  0.2808
  103TMC2    C4 1602   1.274   1.959  13.130  0.2315  0.2843  0.9872
  103TMC2    C5 1603   1.362   1.974  13.232 -0.2388 -0.7669  0.5820
  103TMC2    C6 1604   1.494   1.985  13.207 -0.3687  0.9797  0.1975
  103TMC2     C 1605   1.221   1.963  12.897  0.1199  0.1229 -0.5591
  103TMC2     O 1606   1.108   2.003  12.923  0.1770 -0.4073  0.2056
  103TMC2     H 1607   1.480   1.944  12.877 -2.5889  3.0749 -1.1735
  103TMC2    H1 1608   1.169   1.975  13.152 -0.2202 -0.8284 -0.3535
  103TMC2    H2 1609   1.563   1.977  13.290 -0.1702  0.2375 -0.0427
  103TMC2    C7 1610   1.315   1.960  13.369 -0.1379 -0.0078 -0.1533
  103TMC2    C8 1611   1.672   1.942  13.046 -0.5923  0.3180 -0.1422
  103TMC2    O1 1612   1.375   2.015  13.459 -0.1674  0.2698  0.2517
  103TMC2    O2 1613   1.714   1.889  12.947 -0.2873  0.4443 -0.7201
  103TMC2    O5 1614   1.750   2.000  13.138 -0.2376 -0.0883 -0.1483
  103TMC2    H5 1615   1.695   2.055  13.197  1.0314  1.1519 -0.1061
  104MPD2     C 1616   1.306   1.952  12.538 -0.3529 -0.3908  0.3795
  104MPD2    C1 1617   1.224   1.978  12.646 -0.1383  0.0432  0.2379
  104MPD2    C2 1618   1.106   2.042  12.626  1.1326 -0.2517 -0.6172
  104MPD2    C3 1619   1.067   2.069  12.496  0.4148 -0.5762  0.0555
  104MPD2    C4 1620   1.151   2.043  12.390  0.1764 -0.0802 -0.2647
  104MPD2    C5 1621   1.265   1.976  12.412 -0.1784  0.0804 -0.2852
  104MPD2     H 1622   1.042   2.079  12.706  0.4861 -0.2374 -1.1393
  104MPD2    H1 1623   1.132   2.063  12.285 -2.0153  0.6721  0.2720
  104MPD2    H2 1624   1.386   1.880  12.552 -0.6362 -0.6465  0.6888
  104MPD2    H3 1625   1.324   1.945  12.327 -0.7846 -0.4984 -0.4952
  104MPD2     N 1626   0.939   2.118  12.480 -0.9517 -0.4323  0.4927
  104MPD2    H5 1627   0.872   2.114  12.556 -0.8806  1.3724  0.6506
  104MPD2    N1 1628   1.280   1.947  12.773  0.0973  0.5260  0.1985
  104MPD2    H7 1629   1.375   1.911  12.768  0.0611  0.6106 -1.2238
  105TMC2    C1 1630   2.305   0.662   0.630  0.5848 -0.2082  0.1263
  105TMC2    C2 1631   2.182   0.623   0.673  0.0345 -0.4150 -0.0322
  105TMC2    C3 1632   2.127   0.709   0.761 -0.2128  0.3086 -0.3708
  105TMC2    C4 1633   2.362   0.785   0.654 -0.4711  0.1587  0.1960
  105TMC2    C5 1634   2.296   0.864   0.741 -0.5708 -0.5277 -0.1539
  105TMC2    C6 1635   2.181   0.822   0.805  0.4166  0.3538 -0.2337
  105TMC2     C 1636   2.349   0.573   0.526  0.0285  0.6894  0.3295
  105TMC2     O 1637   2.294   0.466   0.526 -0.8360  0.4785  0.6071
  105TMC2     H 1638   2.131   0.528   0.662  2.9152 -1.9678  0.2164
  105TMC2    H1 1639   2.452   0.820   0.605 -1.0355 -1.3428 -1.9133
  105TMC2    H2 1640   2.131   0.867   0.890  1.1246 -1.1926  0.9980
  105TMC2    C7 1641   2.357   0.993   0.767  0.2681  0.0441 -0.8844
  105TMC2    C8 1642   1.990   0.688   0.785 -0.3360 -0.0902  0.0528
  105TMC2    O1 1643   2.457   1.024   0.699  0.1783  0.0469 -0.1472
  105TMC2    O2 1644   1.942   0.715   0.895 -0.4736 -0.3810 -0.5793
  105TMC2    O5 1645   1.930   0.734   0.669 -0.3334 -0.0269 -0.3159
  105TMC2    H5 1646   1.991   0.742   0.592  1.0585  1.1930  0.9216
  106MPD2     C 1647   2.607   0.462   0.093 -0.0962  0.5658 -0.4043
  106MPD2    C1 1648   2.569   0.591   0.088  0.4243 -0.2044 -0.1538
  106MPD2    C2 1649   2.515   0.644   0.202  0.3871 -0.1080 -0.3294
  106MPD2    C3 1650   2.477   0.571   0.312 -0.0015 -0.4723 -0.1764
  106MPD2    C4 1651   2.497   0.434   0.309 -0.4648  0.1593 -0.0107
  106MPD2    C5 1652   2.567   0.387   0.202  0.1227  0.2145 -0.0076
  106MPD2     H 1653   2.483   0.747   0.196  1.1755  0.2526  1.8576
  106MPD2    H1 1654   2.460   0.366   0.384  2.8159  1.3783  2.7000
  106MPD2    H2 1655   2.630   0.398   0.009 -1.6993 -0.4995 -0.0231
  106MPD2    H3 1656   2.570   0.280   0.182 -0.8201  0.5033 -1.6631
  106MPD2     N 1657   2.417   0.631   0.422 -0.5593  0.0312 -0.8401
  106MPD2    H5 1658   2.414   0.733   0.422  2.4598  0.1323  0.9210
  106MPD2    N1 1659   2.589   0.676  17.723  0.0469  0.3449  0.2309
  106MPD2    H7 1660   2.559   0.770   0.002  0.2364  0.2757  0.7230
  107TMC2    C1 1661   3.119   1.406  11.826  0.2415  0.9751  0.2858
  107TMC2    C2 1662   3.227   1.481  11.869 -0.4337  0.6226  0.0370
  107TMC2    C3 1663   3.348   1.488  11.803 -0.0353 -0.1962  0.4980
  107TMC2    C4 1664   3.114   1.368  11.699  1.6933  0.5269  0.2230
  107TMC2    C5 1665   3.235   1.379  11.626  0.3800  0.6177 -0.2326
  107TMC2    C6 1666   3.359   1.431  11.681  0.3491  0.4074 -0.0195
  107TMC2     C 1667   2.990   1.433  11.891  0.3829 -0.4574  0.2524
  107TMC2     O 1668   2.999   1.444  12.013  0.2747  0.5224 -0.1157
  107TMC2     H 1669   3.214   1.527  11.966  1.8537 -2.7022  1.9071
  107TMC2    H1 1670   3.039   1.306  11.652  0.8802  0.9542  0.9576
  107TMC2    H2 1671   3.451   1.437  11.623 -0.9176 -2.9516 -2.3843
  107TMC2    C7 1672   3.245   1.280  11.519  0.5343  0.6780 -0.1728
  107TMC2    C8 1673   3.459   1.519  11.892 -0.1691 -0.7427 -0.1378
  107TMC2    O1 1674   3.168   1.182  11.524 -0.6164  0.1518 -0.5656
  107TMC2    O2 1675   3.468   1.481  12.011  0.4230  0.4646  0.4742
  107TMC2    O5 1676   3.558   1.560  11.810  0.6055  0.4075 -0.3396
  107TMC2    H5 1677   3.524   1.601  11.728 -0.2924  0.9277  0.3036
  108MPD2     C 1678   2.661   1.480  11.766  0.0545  0.4355 -0.7548
  108MPD2    C1 1679   2.754   1.456  11.868 -0.9295  0.0071 -0.0771
  108MPD2    C2 1680   2.718   1.445  11.994  0.2600 -0.1721  0.2365
  108MPD2    C3 1681   2.581   1.462  12.028  0.4325  0.5580  0.0465
  108MPD2    C4 1682   2.492   1.507  11.932  0.2734 -0.2293  0.4460
  108MPD2    C5 1683   2.530   1.513  11.800 -0.0437 -0.2803  0.8374
  108MPD2     H 1684   2.789   1.402  12.064  2.4093  0.7585 -1.3733
  108MPD2    H1 1685   2.392   1.538  11.960 -0.1720 -0.9441 -0.3407
  108MPD2    H2 1686   2.694   1.510  11.667 -0.0822  0.1617 -0.8817
  108MPD2    H3 1687   2.457   1.545  11.726  1.0725  1.0755  0.3293
  108MPD2     N 1688   2.534   1.452  12.162 -0.2667  0.0516 -0.3592
  108MPD2    H5 1689   2.434   1.464  12.169 -0.2054  0.3981 -0.1052
  108MPD2    N1 1690   2.877   1.429  11.812  0.4401 -0.0595 -0.4613
  108MPD2    H7 1691   2.894   1.447  11.714 -1.0108  0.6763 -0.5850
  109TMC2    C1 1692   3.749   2.827   1.915 -0.2197 -0.3692 -0.2524
  109TMC2    C2 1693   3.847   2.763   1.987  0.4499 -0.1520  1.7527
  109TMC2    C3 1694   3.950   2.712   1.912 -0.3971 -0.3756  0.0560
  109TMC2    C4 1695   3.753   2.839   1.786  0.0047 -0.1591  0.1366
  109TMC2    C5 1696   3.855   2.782   1.715  0.1775 -0.3601  0.0958
  109TMC2    C6 1697   3.959   2.718   1.776  0.1279  0.6225 -0.2248
  109TMC2     C 1698   3.612   2.833   1.965 -0.6940 -0.4009 -0.8465
  109TMC2     O 1699   3.596   2.860   2.082 -0.2762  0.1262  0.0420
  109TMC2     H 1700   3.830   2.749   2.094 -1.2492 -0.1281  1.4811
  109TMC2    H1 1701   3.672   2.886   1.732 -0.5254 -0.6272  0.5204
  109TMC2    H2 1702   4.045   2.679   1.723  1.0325  1.1995  0.8056
  109TMC2    C7 1703   3.836   2.777   1.570  0.9644  0.0615  0.1635
  109TMC2    C8 1704   4.017   2.601   1.970 -0.2941  0.5990 -0.1615
  109TMC2    O1 1705   3.744   2.846   1.525 -0.5696 -0.1116  0.1928
  109TMC2    O2 1706   4.057   2.506   1.910  0.4392 -0.1242  0.0675
  109TMC2    O5 1707   4.033   2.614   2.103  0.0846 -0.3115 -0.2392
  109TMC2    H5 1708   4.025   2.709   2.126 -0.5697 -0.6357  0.8989
  110MPD2     C 1709   3.144   2.632   1.940  0.1738 -0.0851 -0.1323
  110MPD2    C1 1710   3.226   2.572   1.848  0.3238  0.0930 -0.0091
  110MPD2    C2 1711   3.350   2.626   1.817  0.2220  0.4455  0.3177
  110MPD2    C3 1712   3.399   2.726   1.904 -0.1014 -0.0683  0.2639
  110MPD2    C4 1713   3.318   2.782   1.998 -0.5909  0.4773  0.1055
  110MPD2    C5 1714   3.190   2.737   2.005 -0.2979 -0.1647  0.2306
  110MPD2     H 1715   3.422   2.583   1.748  0.3275  1.6470 -0.3287
  110MPD2    H1 1716   3.344   2.860   2.069 -1.9864 -0.0360  1.1788
  110MPD2    H2 1717   3.041   2.599   1.956  0.0419  0.7180  0.6644
  110MPD2    H3 1718   3.125   2.783   2.079 -0.3660  1.7981 -1.0577
  110MPD2     N 1719   3.535   2.759   1.880  0.6939 -0.9604 -0.4961
  110MPD2    H5 1720   3.589   2.702   1.815  0.1573  1.2702 -2.8817
  110MPD2    N1 1721   3.174   2.455   1.795  0.2293 -0.9419  0.2362
  110MPD2    H7 1722   3.081   2.435   1.830  0.3599  0.1080  1.1682
  111TMC2    C1 1723   3.032   2.777  12.101  0.6794  0.1589  0.1536
  111TMC2    C2 1724   2.953   2.766  12.214  0.0267  0.7612  0.3054
  111TMC2    C3 1725   3.013   2.729  12.326 -0.8929 -0.2511 -0.3564
  111TMC2    C4 1726   3.170   2.776  12.107  0.2630 -0.4622  0.1435
  111TMC2    C5 1727   3.226   2.750  12.231 -0.2780  0.4029  0.1398
  111TMC2    C6 1728   3.149   2.726  12.340 -0.0275  0.3012 -0.0549
  111TMC2     C 1729   2.971   2.799  11.975  0.0560 -0.8020  0.5880
  111TMC2     O 1730   3.050   2.816  11.879  0.3263 -0.0018  0.5762
  111TMC2     H 1731   2.849   2.796  12.218 -0.1419  0.2174  0.0917
  111TMC2    H1 1732   3.230   2.800  12.019 -0.4218  0.3639 -0.1057
  111TMC2    H2 1733   3.190   2.715  12.440  0.2543 -1.3443 -0.3442
  111TMC2    C7 1734   3.368   2.736  12.249 -0.3115  0.2459  0.7776
  111TMC2    C8 1735   2.935   2.746  12.442  0.9788  0.3715  0.1076
  111TMC2    O1 1736   3.396   2.676  12.356 -0.7359 -0.4941 -0.0619
  111TMC2    O2 1737   2.991   2.753  12.552  0.1255 -0.3967  0.3830
  111TMC2    O5 1738   2.830   2.657  12.430 -0.1099 -0.0409  0.0246
  111TMC2    H5 1739   2.799   2.632  12.340 -0.5581  0.0836  0.1476
  112MPD2     C 1740   2.602   2.726  11.640  0.1418  0.0857 -0.4094
  112MPD2    C1 1741   2.717   2.797  11.627 -0.4125 -0.0065  0.2377
  112MPD2    C2 1742   2.788   2.823  11.740 -1.0574 -0.5203 -0.8371
  112MPD2    C3 1743   2.753   2.760  11.859  1.0635 -0.2364  0.4771
  112MPD2    C4 1744   2.637   2.688  11.875 -0.1369  0.2499 -0.1386
  112MPD2    C5 1745   2.564   2.670  11.758 -0.5803 -0.2285  0.4178
  112MPD2     H 1746   2.872   2.892  11.734  0.4325 -2.3316 -1.0951
  112MPD2    H1 1747   2.597   2.657  11.971  0.0548 -2.2648 -0.8770
  112MPD2    H2 1748   2.536   2.700  11.559 -0.7598 -1.3673  0.8054
  112MPD2    H3 1749   2.465   2.628  11.765 -0.7091  0.3784  2.1220
  112MPD2     N 1750   2.838   2.770  11.969  0.1309  0.4969  0.3444
  112MPD2    H5 1751   2.815   2.718  12.053  0.1769 -0.4634 -0.2265
  112MPD2    N1 1752   2.764   2.859  11.510 -0.1018  0.1555 -0.7524
  112MPD2    H7 1753   2.850   2.912  11.526  0.0473 -0.4257  0.3891
  113TMC2    C1 1754   1.213   0.526   1.423 -0.0034  0.8881 -0.4693
  113TMC2    C2 1755   1.167   0.660   1.430  0.7045 -0.2933 -0.6929
  113TMC2    C3 1756   1.045   0.682   1.376 -0.0967 -0.0292 -0.4355
  113TMC2    C4 1757   1.132   0.422   1.362  0.6971  0.3171  0.3814
  113TMC2    C5 1758   1.004   0.459   1.333  0.0620 -0.1201 -0.1528
  113TMC2    C6 1759   0.958   0.586   1.336 -0.0580 -0.2213 -0.0613
  113TMC2     C 1760   1.354   0.505   1.448 -0.0188 -0.4408  0.3124
  113TMC2     O 1761   1.426   0.602   1.466  0.3095  0.5247  0.5527
  113TMC2     H 1762   1.230   0.740   1.467 -1.0298  0.9454 -0.4091
  113TMC2    H1 1763   1.174   0.332   1.319  1.9001  0.7002  0.7683
  113TMC2    H2 1764   0.867   0.614   1.285 -0.2788 -1.2021 -0.1991
  113TMC2    C7 1765   0.930   0.355   1.265  0.2775  0.2992  0.7592
  113TMC2    C8 1766   0.993   0.822   1.378  0.4785  0.8596 -0.0813
  113TMC2    O1 1767   0.834   0.392   1.202  0.1302  0.7775  0.0126
  113TMC2    O2 1768   1.059   0.925   1.384 -0.1198 -0.3324 -0.1915
  113TMC2    O5 1769   0.868   0.812   1.435 -0.5825 -0.0726  0.0125
  113TMC2    H5 1770   0.852   0.721   1.467 -1.8031  0.2320  0.2525
  114MPD2     C 1771   1.775   0.208   1.471  0.5695  0.3085 -0.3130
  114MPD2    C1 1772   1.756   0.334   1.417 -0.1217  0.6971 -0.0007
  114MPD2    C2 1773   1.626   0.384   1.411  1.0604  0.1922  0.3599
  114MPD2    C3 1774   1.516   0.323   1.460 -1.0754  0.0979 -1.0246
  114MPD2    C4 1775   1.535   0.198   1.511  0.2074 -0.1967 -0.6117
  114MPD2    C5 1776   1.659   0.140   1.511  0.3845 -0.0393  0.2363
  114MPD2     H 1777   1.611   0.480   1.363 -1.8038  0.4021  1.6801
  114MPD2    H1 1778   1.455   0.132   1.542  2.3547 -1.8423  1.4027
  114MPD2    H2 1779   1.871   0.159   1.480  0.3538  0.2609  1.7909
  114MPD2    H3 1780   1.669   0.036   1.542  0.3051  0.0324  0.5068
  114MPD2     N 1781   1.382   0.370   1.465  0.1391 -0.3215 -0.1378
  114MPD2    H5 1782   1.309   0.302   1.482 -1.2822  1.6894  1.6859
  114MPD2    N1 1783   1.856   0.424   1.379  0.2632 -0.0625  0.7565
  114MPD2    H7 1784   1.829   0.519   1.353  2.3922 -0.6017 -3.4032
  115TMC2    C1 1785   2.524   3.569   0.294  0.4375  0.2933 -0.3537
  115TMC2    C2 1786   2.528   3.610   0.426  0.3066 -0.8320  0.3026
  115TMC2    C3 1787   2.530   3.741   0.452  0.5506  0.6719  0.9744
  115TMC2    C4 1788   2.542   3.659   0.187  0.4118 -0.4309  0.2297
  115TMC2    C5 1789   2.543   3.790   0.219  0.3294 -0.1537 -0.2474
  115TMC2    C6 1790   2.529   3.835   0.352 -0.0754  0.0474  1.1212
  115TMC2     C 1791   2.536   3.430   0.264 -0.3875  0.7185  0.3240
  115TMC2     O 1792   2.502   3.392   0.150 -0.3296 -0.2001 -0.7362
  115TMC2     H 1793   2.528   3.543   0.512  0.3646 -0.5081  0.5540
  115TMC2    H1 1794   2.557   3.621   0.087  0.8682  0.0841  0.1074
  115TMC2    H2 1795   2.533   3.937   0.388 -0.0195 -0.2433  1.9365
  115TMC2    C7 1796   2.553   3.890   0.112 -0.0324  0.1791 -0.4438
  115TMC2    C8 1797   2.484   3.780   0.580  0.1651  0.2106 -0.0221
  115TMC2    O1 1798   2.592   3.853   0.002  0.2841 -0.6490  0.2075
  115TMC2    O2 1799   2.439   3.888   0.610 -0.7661  0.0323  0.2626
  115TMC2    O5 1800   2.547   3.704   0.672  0.2271 -0.0524 -0.1290
  115TMC2    H5 1801   2.596   3.631   0.628  0.4315 -0.0492  0.0958
  116MPD2     C 1802   2.673   2.929   0.360  0.3485 -0.3792  0.6522
  116MPD2    C1 1803   2.575   2.984   0.278 -0.2903  0.3902  0.4427
  116MPD2    C2 1804   2.559   3.119   0.264  0.4739  0.1580 -0.1139
  116MPD2    C3 1805   2.631   3.208   0.343  0.0190 -0.1990 -0.6660
  116MPD2    C4 1806   2.719   3.151   0.435 -0.4299 -0.2933  0.3931
  116MPD2    C5 1807   2.739   3.018   0.441  0.1820  0.1248 -0.4115
  116MPD2     H 1808   2.505   3.162   0.181  0.0372  0.7977  0.5006
  116MPD2    H1 1809   2.769   3.209   0.511  1.6157 -3.0322  1.1444
  116MPD2    H2 1810   2.688   2.824   0.384 -0.6451 -1.3617 -3.0213
  116MPD2    H3 1811   2.816   2.989   0.511 -1.8596 -2.4369  0.7469
  116MPD2     N 1812   2.609   3.349   0.350 -0.0370 -0.2827  0.0939
  116MPD2    H5 1813   2.655   3.385   0.433 -1.7123 -2.4527  1.9785
  116MPD2    N1 1814   2.490   2.893   0.203 -0.0636 -0.0000 -0.2032
  116MPD2    H7 1815   2.489   2.794   0.223  1.3940 -0.0311 -0.3021
  117TMC2    C1 1816   1.125   0.638  14.425 -0.0127 -0.5542 -0.1001
  117TMC2    C2 1817   1.159   0.709  14.530  0.1955 -0.1291 -0.4491
  117TMC2    C3 1818   1.243   0.817  14.503  0.3766 -0.1471  0.1062
  117TMC2    C4 1819   1.137   0.683  14.299 -0.1729 -0.0687 -0.2892
  117TMC2    C5 1820   1.207   0.798  14.276 -0.1302 -0.1242 -0.4281
  117TMC2    C6 1821   1.276   0.859  14.379 -0.4615 -0.2880  0.6835
  117TMC2     C 1822   1.071   0.506  14.440 -0.1013 -0.4741 -0.1127
  117TMC2     O 1823   1.111   0.438  14.532 -0.0870  0.0989 -0.1806
  117TMC2     H 1824   1.148   0.672  14.631 -0.1774 -0.0450 -0.4600
  117TMC2    H1 1825   1.093   0.638  14.211 -2.6463 -1.5745  1.7301
  117TMC2    H2 1826   1.342   0.940  14.351 -0.8256  0.2458  1.3733
  117TMC2    C7 1827   1.217   0.853  14.137  0.6911 -0.3779  0.0906
  117TMC2    C8 1828   1.282   0.903  14.613  0.0017 -0.3196 -0.4630
  117TMC2    O1 1829   1.313   0.926  14.123 -0.3942 -0.2600 -0.1543
  117TMC2    O2 1830   1.287   1.026  14.602  0.2339  0.5241 -0.4262
  117TMC2    O5 1831   1.326   0.829  14.721 -0.1832  0.5246 -0.1827
  117TMC2    H5 1832   1.322   0.731  14.716  0.3426  0.5409 -0.9330
  118MPD2     C 1833   0.982   0.847  13.858  0.3308 -0.3045 -0.3569
  118MPD2    C1 1834   1.102   0.860  13.924  0.3959 -0.1425 -0.4154
  118MPD2    C2 1835   1.217   0.884  13.840  0.2768  0.9306  0.3129
  118MPD2    C3 1836   1.209   0.893  13.707 -0.3744 -1.0974 -0.5616
  118MPD2    C4 1837   1.089   0.872  13.640 -0.5629  0.1603  0.7196
  118MPD2    C5 1838   0.981   0.857  13.720 -0.5508 -0.5947 -0.4799
  118MPD2     H 1839   1.314   0.886  13.889 -0.3408  2.0236  1.4722
  118MPD2    H1 1840   1.069   0.872  13.533  0.4934  0.6719  0.5246
  118MPD2    H2 1841   0.884   0.829  13.901  0.6874 -0.4990  0.3802
  118MPD2    H3 1842   0.887   0.837  13.669  0.2151 -2.1075 -1.2719
  118MPD2     N 1843   1.323   0.907  13.632 -0.4518 -0.3904  0.5495
  118MPD2    H5 1844   1.308   0.911  13.531 -1.6179 -0.5037  0.7155
  118MPD2    N1 1845   1.107   0.836  14.063 -0.2236 -0.3430  0.0964
  118MPD2    H7 1846   1.024   0.797  14.106  0.3779 -1.4589  0.2615
  119TMC2    C1 1847   3.701   0.785  13.230  0.0232  0.8674 -0.1628
  119TMC2    C2 1848   3.719   0.762  13.091 -0.1781  0.4416 -0.6190
  119TMC2    C3 1849   3.625   0.698  13.024 -0.0384  0.1277 -0.2868
  119TMC2    C4 1850   3.591   0.727  13.290  0.4963 -0.6299 -0.3261
  119TMC2    C5 1851   3.498   0.659  13.219  0.1478 -0.0823  0.5336
  119TMC2    C6 1852   3.516   0.647  13.086  0.2755  0.1009  0.3972
  119TMC2     C 1853   3.766   0.903  13.291  0.2642  0.2242 -0.5670
  119TMC2     O 1854   3.704   0.972  13.373  0.5858 -0.1909  0.5228
  119TMC2     H 1855   3.801   0.811  13.039 -0.5624  0.4051 -1.2606
  119TMC2    H1 1856   3.580   0.750  13.395 -0.7187  0.9433 -0.7970
  119TMC2    H2 1857   3.448   0.591  13.022 -1.2162  0.0155  2.0577
  119TMC2    C7 1858   3.366   0.657  13.276 -0.4858  0.0631  0.3232
  119TMC2    C8 1859   3.630   0.676  12.885  0.3501 -0.0702 -0.5458
  119TMC2    O1 1860   3.283   0.679  13.187 -0.1162 -0.1642  0.3263
  119TMC2    O2 1861   3.577   0.585  12.826  0.4723  0.0131  0.2275
  119TMC2    O5 1862   3.660   0.800  12.839 -0.2213  0.3393  0.2365
  119TMC2    H5 1863   3.635   0.868  12.905 -0.4769  0.1571  0.3289
  120MPD2     C 1864   4.182   1.170  13.432  0.3312  0.4851  0.9956
  120MPD2    C1 1865   4.052   1.197  13.453 -0.0906  0.3581 -0.2119
  120MPD2    C2 1866   3.962   1.116  13.383  0.6260 -0.2804 -0.7177
  120MPD2    C3 1867   3.997   1.003  13.308 -0.3149 -0.6703 -0.9470
  120MPD2    C4 1868   4.136   0.983  13.299 -0.1849 -0.5513  0.6822
  120MPD2    C5 1869   4.223   1.064  13.358  0.5704 -0.6721 -0.2457
  120MPD2     H 1870   3.857   1.134  13.401  0.7030  0.5099 -1.0276
  120MPD2    H1 1871   4.169   0.903  13.234  1.4966  0.0742  0.7768
  120MPD2    H2 1872   4.260   1.228  13.481  1.6597  0.2863 -0.8939
  120MPD2    H3 1873   4.329   1.047  13.342  0.7195 -0.0671  0.0729
  120MPD2     N 1874   3.902   0.911  13.250 -0.0708  0.5958 -0.2133
  120MPD2    H5 1875   3.935   0.837  13.189 -1.5562 -0.0580 -0.2231
  120MPD2    N1 1876   4.008   1.297  13.548 -0.4804 -0.6032 -0.3686
  120MPD2    H7 1877   4.086   1.339  13.598 -0.3104  0.7343 -1.7787
  121TMC2    C1 1878   0.496   2.945  14.367  0.5767 -0.2110  1.0414
  121TMC2    C2 1879   0.470   2.867  14.475 -0.0533  0.7209 -0.3992
  121TMC2    C3 1880   0.361   2.780  14.461 -0.8057  0.4828  0.0470
  121TMC2    C4 1881   0.414   2.956  14.255  0.2292 -0.0893  0.5250
  121TMC2    C5 1882   0.301   2.881  14.253  0.0391 -0.1644  0.2535
  121TMC2    C6 1883   0.272   2.794  14.357 -0.2889 -0.6576  0.4625
  121TMC2     C 1884   0.618   3.027  14.376  0.0145  0.0182  0.6687
  121TMC2     O 1885   0.676   3.040  14.487  0.1134  0.0062  0.2932
  121TMC2     H 1886   0.531   2.873  14.564  0.1085  2.5565 -0.6423
  121TMC2    H1 1887   0.441   3.035  14.187  0.4183 -0.8872 -0.3166
  121TMC2    H2 1888   0.171   2.754  14.359 -0.0904 -1.1940 -0.1239
  121TMC2    C7 1889   0.216   2.901  14.134 -0.6883  0.3128  0.1929
  121TMC2    C8 1890   0.316   2.717  14.581 -0.8879  0.0448 -0.1831
  121TMC2    O1 1891   0.274   2.940  14.034  0.2317  0.1811  0.3957
  121TMC2    O2 1892   0.352   2.752  14.693 -0.2060  0.1080  0.1264
  121TMC2    O5 1893   0.220   2.618  14.557 -0.3761  0.1994  0.1397
  121TMC2    H5 1894   0.232   2.576  14.470  1.3392  0.7696  0.0856
  122MPD2     C 1895   0.836   3.208  14.334 -0.4381 -0.7322  0.0369
  122MPD2    C1 1896   0.772   3.147  14.231  0.2679  0.6084  0.4191
  122MPD2    C2 1897   0.804   3.162  14.096  0.3077 -0.1867  0.5038
  122MPD2    C3 1898   0.916   3.239  14.067 -0.1060  0.5256 -0.2454
  122MPD2    C4 1899   0.986   3.298  14.173 -0.2466 -0.6347  0.2426
  122MPD2    C5 1900   0.950   3.285  14.308 -0.1472  0.2802  0.0453
  122MPD2     H 1901   0.746   3.117  14.016 -1.4241  1.8675  0.6211
  122MPD2    H1 1902   1.055   3.376  14.142  1.9301 -2.0883  1.4389
  122MPD2    H2 1903   0.816   3.201  14.440  2.0902  0.6834  0.6163
  122MPD2    H3 1904   0.999   3.341  14.387  2.1538 -1.8805  0.1380
  122MPD2     N 1905   0.960   3.272  13.936  0.2416 -0.5132  0.0685
  122MPD2    H5 1906   1.034   3.341  13.935 -1.1811  1.0329  1.4106
  122MPD2    N1 1907   0.664   3.055  14.250  0.4577 -0.6054  0.9205
  122MPD2    H7 1908   0.625   3.018  14.163 -1.7064 -1.0468  2.0562
  123TMC2    C1 1909   3.353   1.685  10.945  0.4570  0.0625  0.4702
  123TMC2    C2 1910   3.300   1.807  10.979  0.3667  0.0369  1.0154
  123TMC2    C3 1911   3.315   1.913  10.899 -0.3521 -0.1487 -0.8341
  123TMC2    C4 1912   3.424   1.673  10.827 -0.1192  0.0257 -0.0370
  123TMC2    C5 1913   3.431   1.782  10.745  0.0426 -0.0368 -0.1167
  123TMC2    C6 1914   3.374   1.903  10.777  0.2235 -0.0910 -0.1967
  123TMC2     C 1915   3.315   1.563  11.020  0.6118  0.1521  0.2509
  123TMC2     O 1916   3.286   1.585  11.139  0.2100 -0.3529  0.1020
  123TMC2     H 1917   3.252   1.820  11.075 -0.9752 -0.6711  0.4466
  123TMC2    H1 1918   3.486   1.590  10.797 -0.0496  0.1852 -0.3418
  123TMC2    H2 1919   3.389   1.996  10.723 -0.5111 -0.5574 -1.1889
  123TMC2    C7 1920   3.452   1.741  10.609  0.1899 -0.4084 -0.9443
  123TMC2    C8 1921   3.271   2.043  10.951  0.2928  0.3688  0.0120
  123TMC2    O1 1922   3.468   1.624  10.584  0.3358  0.0758  0.3962
  123TMC2    O2 1923   3.265   2.080  11.067 -0.1613  0.1254 -0.2712
  123TMC2    O5 1924   3.224   2.107  10.847 -0.2399 -0.1087 -0.5388
  123TMC2    H5 1925   3.218   2.046  10.770  0.1410 -1.4395  0.5052
  124MPD2     C 1926   3.164   1.075  10.958 -0.8845 -0.0266 -0.3596
  124MPD2    C1 1927   3.233   1.112  10.844  0.0311 -0.1647 -0.5181
  124MPD2    C2 1928   3.274   1.242  10.843  0.3497  0.1255 -0.2087
  124MPD2    C3 1929   3.262   1.334  10.948 -0.1785  0.2792  0.2248
  124MPD2    C4 1930   3.196   1.290  11.060 -0.2335 -0.8036  0.3437
  124MPD2    C5 1931   3.141   1.161  11.061  1.2282  0.2683  0.8404
  124MPD2     H 1932   3.334   1.273  10.758 -1.0491  1.6177 -0.6619
  124MPD2    H1 1933   3.187   1.350  11.149 -0.1072  2.1128 -1.6001
  124MPD2    H2 1934   3.112   0.979  10.961 -0.5935 -0.1579  0.3902
  124MPD2    H3 1935   3.088   1.122  11.147  1.7765 -1.9211  0.1712
  124MPD2     N 1936   3.316   1.460  10.935  0.1250 -0.3374 -0.1082
  124MPD2    H5 1937   3.377   1.468  10.854  0.7141 -0.6278  0.3071
  124MPD2    N1 1938   3.247   1.021  10.734 -0.3235  0.2981  0.0307
  124MPD2    H7 1939   3.201   0.931  10.734  1.8954 -0.8393 -0.2266
  125TMC2    C1 1940   0.147   2.215  10.465 -0.9679  0.7686 -0.1144
  125TMC2    C2 1941   0.255   2.265  10.536 -0.1124 -0.0818 -0.2390
  125TMC2    C3 1942   0.377   2.221  10.505  0.2268 -0.5717 -0.1501
  125TMC2    C4 1943   0.161   2.143  10.350  1.1408 -0.0625  0.4782
  125TMC2    C5 1944   0.290   2.096  10.326  0.7568  0.5816 -0.6943
  125TMC2    C6 1945   0.401   2.137  10.397  0.0461  0.1455  0.1810
  125TMC2     C 1946   0.006   2.247  10.476  0.4336 -0.5161  0.4220
  125TMC2     O 1947   4.684   2.257  10.371 -0.2133 -0.2732  0.3184
  125TMC2     H 1948   0.237   2.311  10.632  1.0746 -0.7419  0.2940
  125TMC2    H1 1949   0.084   2.098  10.288  1.5908 -0.4050  0.1666
  125TMC2    H2 1950   0.497   2.089  10.386 -0.1918 -0.3934  0.4869
  125TMC2    C7 1951   0.312   2.027  10.202 -0.1837 -0.7103 -0.3689
  125TMC2    C8 1952   0.490   2.230  10.588 -1.0524  0.2359 -0.8671
  125TMC2    O1 1953   0.213   1.969  10.153 -0.5266  0.2020  0.6477
  125TMC2    O2 1954   0.574   2.142  10.575 -0.2266  0.2337 -0.3891
  125TMC2    O5 1955   0.513   2.363  10.610 -0.2074  0.2467  0.5568
  125TMC2    H5 1956   0.431   2.415  10.620  0.9241  1.9106  1.2344
  126MPD1     C 1957   4.327   2.334  10.744 -0.0283  0.7979 -0.5208
  126MPD1    C1 1958   4.433   2.318  10.835  0.3921  0.4289  0.1737
  126MPD1    C2 1959   4.557   2.295  10.785  0.2887 -0.2218 -0.5106
  126MPD1    C3 1960   4.575   2.289  10.650 -0.5792 -0.1463 -0.2659
  126MPD1    C4 1961   4.476   2.314  10.567 -0.8453  0.3460  0.1513
  126MPD1    C5 1962   4.351   2.338  10.616 -0.6707 -0.5188 -0.1211
  126MPD1     H 1963   4.642   2.279  10.851 -0.4128 -0.2097  0.3821
  126MPD1    H1 1964   4.483   2.312  10.459  0.9840 -2.6684  0.3114
  126MPD1    H2 1965   4.221   2.347  10.764  0.0763 -0.0326  0.5321
  126MPD1    H3 1966   4.273   2.339  10.541 -0.6968  0.3015 -0.0852
  126MPD1     N 1967   4.704   2.265  10.607  0.3257  0.1026  0.4806
  126MPD1    H5 1968   0.037   2.237  10.675 -1.1210 -0.7184  1.6239
  126MPD1    N1 1969   4.402   2.306  10.973  0.3372 -0.2266 -0.2676
  126MPD1    H6 1970   4.478   2.326  11.038 -0.0558 -0.0396  0.1314
  126MPD1    H7 1971   4.318   2.346  11.014  0.4465 -1.4484  1.1596
  127TMC2    C1 1972   0.944   1.852  10.061 -0.2573  0.0489 -0.0600
  127TMC2    C2 1973   0.937   1.988  10.043  0.6600  0.3362  0.4913
  127TMC2    C3 1974   0.873   2.060  10.143  0.0579 -0.3154  0.2303
  127TMC2    C4 1975   0.875   1.788  10.156  0.1096  0.4122 -0.3211
  127TMC2    C5 1976   0.800   1.863  10.243 -0.0099  0.6137  0.6195
  127TMC2    C6 1977   0.800   1.999  10.237 -0.4473 -0.0055  0.7266
  127TMC2     C 1978   1.048   1.784   9.992  0.9107 -0.7299 -0.2658
  127TMC2     O 1979   1.132   1.857   9.941  0.0209 -0.1078 -0.1010
  127TMC2     H 1980   1.000   2.042   9.974  0.3464 -2.4660 -1.9581
  127TMC2    H1 1981   0.891   1.683  10.177 -1.8757  0.5590  1.9198
  127TMC2    H2 1982   0.750   2.057  10.313  0.9158 -0.5581  2.0452
  127TMC2    C7 1983   0.714   1.797  10.338  0.7408  0.1546 -0.1199
  127TMC2    C8 1984   0.888   2.193  10.163 -0.6735  0.0815 -0.0449
  127TMC2    O1 1985   0.680   1.867  10.431 -0.0154  0.2533  0.2504
  127TMC2    O2 1986   0.791   2.268  10.191  0.3219  0.0231  0.1313
  127TMC2    O5 1987   1.014   2.229  10.194  0.2345 -0.8687  0.7758
  127TMC2    H5 1988   1.073   2.151  10.187  0.3581 -0.9136  2.3155
  128MPD2     C 1989   1.034   1.442   9.873 -0.3882  0.2191 -0.4638
  128MPD2    C1 1990   1.097   1.560   9.890 -0.5872 -0.6038  0.8238
  128MPD2    C2 1991   1.224   1.581   9.849 -0.3260  0.2797 -0.9539
  128MPD2    C3 1992   1.298   1.487   9.782  0.3379 -1.1534 -0.0497
  128MPD2    C4 1993   1.235   1.371   9.756 -0.1775  0.6154  0.6564
  128MPD2    C5 1994   1.105   1.347   9.801  0.1328  1.3270 -0.2985
  128MPD2     H 1995   1.274   1.677   9.858 -0.8532  0.4217  0.4542
  128MPD2    H1 1996   1.284   1.293   9.700 -0.4235  0.1335  1.1200
  128MPD2    H2 1997   0.930   1.436   9.904  0.2491  0.3850  1.6928
  128MPD2    H3 1998   1.058   1.252   9.783 -0.8817  1.5225  1.3396
  128MPD2     N 1999   1.427   1.522   9.742  0.4709 -0.0534  0.2600
  128MPD2    H5 2000   1.453   1.612   9.782 -2.8729  0.6779  0.8156
  128MPD2    N1 2001   1.022   1.649   9.969  0.8408  0.8532  0.4166
  128MPD2    H7 2002   0.940   1.610  10.014  1.1899 -1.8236 -1.2503
  129TMC2    C1 2003   4.453   2.238   2.030  0.1466  0.7190  0.4506
  129TMC2    C2 2004   4.505   2.178   2.137 -0.2790  0.0466 -0.1192
  129TMC2    C3 2005   4.513   2.039   2.152 -0.3256  0.0458  0.6644
  129TMC2    C4 2006   4.395   2.164   1.929 -0.0432 -0.7114 -0.4498
  129TMC2    C5 2007   4.389   2.028   1.957 -0.1860 -0.1116 -0.5085
  129TMC2    C6 2008   4.454   1.962   2.061 -0.4384 -0.1730 -0.4012
  129TMC2     C 2009   4.458   2.382   2.032 -0.1899  0.4051 -0.9452
  129TMC2     O 2010   4.516   2.444   2.122  0.3433  0.3556  0.5079
  129TMC2     H 2011   4.551   2.237   2.215  2.2447  0.3635 -1.8202
  129TMC2    H1 2012   4.330   2.212   1.857  1.1653 -0.2297 -1.2271
  129TMC2    H2 2013   4.442   1.855   2.072 -1.1238  0.0223  0.6679
  129TMC2    C7 2014   4.313   1.958   1.848  1.2091  0.0137 -0.3918
  129TMC2    C8 2015   4.544   1.997   2.285  0.2231  0.0442 -0.0261
  129TMC2    O1 2016   4.242   2.025   1.763  0.4030 -0.2072 -0.4268
  129TMC2    O2 2017   4.580   2.075   2.368  0.0354 -0.2365  0.4005
  129TMC2    O5 2018   4.496   1.877   2.307  0.0309  0.3514 -0.2477
  129TMC2    H5 2019   4.452   1.823   2.238  1.1611 -0.7028 -0.1545
  130MPD2     C 2020   4.388   2.673   1.980  0.1221 -0.0552 -0.2770
  130MPD2    C1 2021   4.398   2.577   1.884  0.0705  0.1978  0.5958
  130MPD2    C2 2022   4.373   2.617   1.753 -0.0399  0.1252 -0.0429
  130MPD2    C3 2023   4.322   2.739   1.719  0.1933 -0.6797 -0.2709
  130MPD2    C4 2024   4.319   2.836   1.814 -0.1469  0.2917  0.1863
  130MPD2    C5 2025   4.357   2.803   1.942  0.1428 -0.9588 -0.1364
  130MPD2     H 2026   4.349   2.535   1.686  0.0935 -0.5722  0.7516
  130MPD2    H1 2027   4.280   2.937   1.811 -1.8553 -0.3899 -0.4427
  130MPD2    H2 2028   4.405   2.651   2.085  1.5461  1.2849 -0.2294
  130MPD2    H3 2029   4.351   2.881   2.017  1.5848 -0.8673 -0.1319
  130MPD2     N 2030   4.269   2.765   1.587 -0.2863  0.1609  0.3088
  130MPD2    H5 2031   4.286   2.696   1.515 -0.7087 -0.2577  0.6111
  130MPD2    N1 2032   4.417   2.437   1.912 -0.0727 -0.8526  0.2191
  130MPD2    H7 2033   4.390   2.377   1.835 -1.8460  1.1573 -0.7455
  131TMC2    C1 2034   3.208   1.856  10.224 -0.2191  0.1152  0.0043
  131TMC2    C2 2035   3.162   1.903  10.345  0.5886  0.3777 -0.1958
  131TMC2    C3 2036   3.166   2.037  10.369 -0.7158  0.6281  0.0556
  131TMC2    C4 2037   3.236   1.944  10.119 -0.2365  0.3761  0.4543
  131TMC2    C5 2038   3.217   2.079  10.136 -0.0506  0.0683  0.2433
  131TMC2    C6 2039   3.192   2.124  10.266 -0.3631 -0.1194 -0.5074
  131TMC2     C 2040   3.226   1.709  10.208 -0.8663  0.6895  0.0505
  131TMC2     O 2041   3.204   1.646  10.312 -0.3122 -0.2171  0.2426
  131TMC2     H 2042   3.167   1.838  10.432  0.8867  0.7075  0.0368
  131TMC2    H1 2043   3.295   1.911  10.034 -0.2895  1.9108 -0.1832
  131TMC2    H2 2044   3.165   2.228  10.282  0.8487  0.5410 -2.7304
  131TMC2    C7 2045   3.190   2.168  10.027  0.5216  0.2694 -0.7967
  131TMC2    C8 2046   3.205   2.066  10.503 -0.1258 -0.0729  0.3373
  131TMC2    O1 2047   3.127   2.123   9.934  0.0219 -0.0440  0.0261
  131TMC2    O2 2048   3.191   1.986  10.595  0.0266  0.0520 -0.2668
  131TMC2    O5 2049   3.311   2.142  10.482 -0.3160 -0.2779 -0.0681
  131TMC2    H5 2050   3.319   2.183  10.393  1.3527 -0.2926  0.0813
  132MPD2     C 2051   3.282   1.530   9.896  0.1534  1.2999  1.0054
  132MPD2    C1 2052   3.268   1.545  10.034 -0.3887  0.4055  0.0511
  132MPD2    C2 2053   3.284   1.434  10.120  0.6488  0.2279  0.3140
  132MPD2    C3 2054   3.296   1.307  10.068  0.4591  0.4447  0.6374
  132MPD2    C4 2055   3.311   1.289   9.932 -0.1314  0.3727 -0.7295
  132MPD2    C5 2056   3.300   1.401   9.849 -0.6834  0.0101  0.7295
  132MPD2     H 2057   3.278   1.446  10.228 -1.9566 -0.9134  0.2878
  132MPD2    H1 2058   3.312   1.185   9.902  1.4347  0.1855 -0.0738
  132MPD2    H2 2059   3.267   1.614   9.829  2.1154 -0.5270 -1.6981
  132MPD2    H3 2060   3.304   1.386   9.742 -0.5805  0.5092  0.6622
  132MPD2     N 2061   3.296   1.199  10.159 -0.3338  0.5419  0.0585
  132MPD2    H5 2062   3.305   1.227  10.257 -1.2292 -2.6535  1.0588
  132MPD2    N1 2063   3.252   1.677  10.076 -0.5995 -0.0019 -0.4092
  132MPD2    H7 2064   3.252   1.759  10.016  1.9711 -0.0204 -0.4385
  133TMC2    C1 2065   1.591   1.292  10.024 -0.2439  0.4309 -0.5819
  133TMC2    C2 2066   1.614   1.156  10.050 -0.8611 -0.2600 -0.5478
  133TMC2    C3 2067   1.502   1.088  10.090 -0.4433 -0.2948  0.2103
  133TMC2    C4 2068   1.466   1.347  10.041  0.0544 -0.6777  0.6342
  133TMC2    C5 2069   1.359   1.271  10.075  0.1490  0.0832 -0.3966
  133TMC2    C6 2070   1.377   1.140  10.108 -0.2809 -0.3894 -0.4089
  133TMC2     C 2071   1.704   1.372   9.993  0.0762 -0.0022  0.0145
  133TMC2     O 2072   1.689   1.491  10.004 -0.0020 -0.2751 -0.1462
  133TMC2     H 2073   1.717   1.122  10.052 -0.5292  0.9392  2.4115
  133TMC2    H1 2074   1.455   1.445   9.996  1.0791 -0.7967  0.1163
  133TMC2    H2 2075   1.300   1.088  10.164 -0.4626 -0.0706 -0.3584
  133TMC2    C7 2076   1.256   1.338  10.161  0.5769  0.7934 -0.3397
  133TMC2    C8 2077   1.523   0.964  10.164  1.1883 -0.1027  0.5482
  133TMC2    O1 2078   1.178   1.264  10.222  0.0148  0.2522 -0.7239
  133TMC2    O2 2079   1.478   0.941  10.274 -0.4903  0.4561 -0.2233
  133TMC2    O5 2080   1.605   0.891  10.088 -0.1815  0.1000  0.1592
  133TMC2    H5 2081   1.619   0.920   9.995  1.5910 -1.7880 -0.1707
  134MPD2     C 2082   2.012   1.286   9.813 -0.7247  0.0055 -0.2691
  134MPD2    C1 2083   1.922   1.364   9.882 -0.3344 -0.5556 -0.1245
  134MPD2    C2 2084   1.945   1.505   9.883 -0.4720  0.0719  0.2553
  134MPD2    C3 2085   2.061   1.565   9.826  0.2924 -0.3354 -0.3398
  134MPD2    C4 2086   2.151   1.479   9.772 -0.1921 -0.0074 -0.6120
  134MPD2    C5 2087   2.128   1.345   9.768  0.4667  0.4454 -0.1388
  134MPD2     H 2088   1.875   1.571   9.932 -0.0413  0.5693  0.1931
  134MPD2    H1 2089   2.240   1.512   9.719 -1.7091  1.7268 -2.0734
  134MPD2    H2 2090   2.007   1.180   9.792 -1.0681 -0.4970  2.2805
  134MPD2    H3 2091   2.203   1.280   9.724  1.0164  1.3385 -0.5069
  134MPD2     N 2092   2.085   1.705   9.814 -0.1088 -0.2680  0.0654
  134MPD2    H5 2093   2.169   1.727   9.760  0.4383  1.8948  1.7782
  134MPD2    N1 2094   1.809   1.299   9.938  0.2929 -0.3576 -0.1106
  134MPD2    H7 2095   1.807   1.198   9.928 -3.0045 -0.3429  0.4414
  135TMC2    C1 2096   0.036   3.735  10.516  0.4623 -0.7161  0.3402
  135TMC2    C2 2097   4.681   3.771  10.611  0.8258  0.3775 -0.0855
  135TMC2    C3 2098   4.680   3.706  10.722  0.2376 -0.1783 -0.1285
  135TMC2    C4 2099   0.105   3.622  10.525 -0.1390  0.2507 -0.3143
  135TMC2    C5 2100   0.076   3.537  10.627 -0.0418  0.1038  0.1975
  135TMC2    C6 2101   0.000   3.579  10.735  0.5757  0.3993  0.0556
  135TMC2     C 2102   0.036   3.803  10.390 -0.4107  0.3998  0.1482
  135TMC2     O 2103   4.690   3.890  10.384  0.1910 -0.3900  0.5214
  135TMC2     H 2104   4.627   3.865  10.602 -0.3023 -0.2165  0.4743
  135TMC2    H1 2105   0.172   3.591  10.446  0.9623  1.0173  0.3124
  135TMC2    H2 2106   4.735   3.519  10.825  1.2219  2.3198  1.3459
  135TMC2    C7 2107   0.146   3.417  10.631  0.6925  0.1241 -0.0015
  135TMC2    C8 2108   4.588   3.755  10.815 -0.0370  0.1506 -0.0608
  135TMC2    O1 2109   0.263   3.427  10.599 -0.4501 -0.2071 -0.7452
  135TMC2    O2 2110   4.543   3.868  10.804  0.2929 -0.1808 -0.4068
  135TMC2    O5 2111   4.594   3.695  10.937  0.2544  0.3083 -0.7873
  135TMC2    H5 2112   4.677   3.649  10.959 -1.0047 -2.4747 -1.9122
  136MPD2     C 2113   0.057   3.887  10.097  0.3295  0.4114  0.5073
  136MPD2    C1 2114   0.120   3.775  10.153 -0.1852 -0.1905  0.1949
  136MPD2    C2 2115   0.189   3.696  10.068  0.4762  0.0241 -0.0947
  136MPD2    C3 2116   0.187   3.718   9.927  0.4462 -0.2927  0.0702
  136MPD2    C4 2117   0.128   3.828   9.878  0.6173  0.4980  0.1500
  136MPD2    C5 2118   0.064   3.916   9.961 -0.3916  0.6138  0.6305
  136MPD2     H 2119   0.248   3.611  10.102  3.0642  1.2503 -1.5101
  136MPD2    H1 2120   0.132   3.850   9.771  3.3868  1.8092  0.5237
  136MPD2    H2 2121   0.011   3.966  10.155 -0.6830 -1.0193  1.6477
  136MPD2    H3 2122   0.024   4.009   9.923  1.9219  0.7400 -1.5429
  136MPD2     N 2123   0.252   3.637   9.830  0.0279 -0.3402 -0.1494
  136MPD2    H5 2124   0.254   3.667   9.733  0.9322 -0.4686 -0.1665
  136MPD2    N1 2125   0.113   3.745  10.293 -0.3329 -1.2571 -0.4480
  136MPD2    H7 2126   0.166   3.661  10.317  0.9512 -0.0206  1.0024
  137TMC2    C1 2127   4.126   3.238   9.004  0.0148 -0.0806  0.0451
  137TMC2    C2 2128   4.154   3.345   8.922 -0.0504 -0.6586 -0.0432
  137TMC2    C3 2129   4.067   3.443   8.913 -0.4048  0.3213 -0.1145
  137TMC2    C4 2130   4.017   3.239   9.085  0.5631 -0.2460 -0.0664
  137TMC2    C5 2131   3.927   3.343   9.073  0.9155 -0.2174 -0.6035
  137TMC2    C6 2132   3.953   3.442   8.986  0.6602  0.0004 -0.1219
  137TMC2     C 2133   4.231   3.141   9.047 -0.5754  0.6711  0.2725
  137TMC2     O 2134   4.243   3.118   9.164  0.0244  0.0963 -0.5533
  137TMC2     H 2135   4.244   3.337   8.862  0.7341 -0.1651  1.0698
  137TMC2    H1 2136   3.988   3.151   9.141  3.0329 -0.9835  0.0394
  137TMC2    H2 2137   3.878   3.520   8.974 -0.0524 -0.5547  0.6879
  137TMC2    C7 2138   3.796   3.336   9.137  0.3065  0.3954  0.5307
  137TMC2    C8 2139   4.098   3.554   8.821  0.5343  0.4055 -0.6155
  137TMC2    O1 2140   3.706   3.387   9.071  0.7271  0.0537  0.0110
  137TMC2    O2 2141   4.161   3.523   8.722 -0.3667 -0.1456  0.2145
  137TMC2    O5 2142   4.103   3.662   8.899 -0.2629 -0.3318 -0.3401
  137TMC2    H5 2143   4.056   3.658   8.985 -0.3879  1.4017 -0.3217
  138MPD2     C 2144   4.452   2.964   8.835 -0.1822 -0.2085 -0.0640
  138MPD2    C1 2145   4.403   3.000   8.953  0.8311 -0.0043 -0.4426
  138MPD2    C2 2146   4.464   2.956   9.070 -0.1882 -0.8255  0.6133
  138MPD2    C3 2147   4.577   2.883   9.060 -0.0532  0.3406 -0.1198
  138MPD2    C4 2148   4.625   2.832   8.938  0.0613 -0.0756  0.3731
  138MPD2    C5 2149   4.557   2.875   8.825  0.7923 -0.3862 -0.0414
  138MPD2     H 2150   4.426   2.975   9.170 -1.7011 -0.1854 -0.0822
  138MPD2    H1 2151   4.709   2.764   8.931  0.3650  0.1264  1.9028
  138MPD2    H2 2152   4.404   2.995   8.744  3.8891 -1.8692 -2.7612
  138MPD2    H3 2153   4.589   2.852   8.724  2.0755 -1.5347  0.6355
  138MPD2     N 2154   4.636   2.851   9.185  0.1611 -0.0379  0.3279
  138MPD2    H5 2155   4.598   2.903   9.263  0.9832  0.4848  0.3763
  138MPD2    N1 2156   4.295   3.086   8.940 -0.7410  0.7621 -0.5096
  138MPD2    H7 2157   4.260   3.108   8.847 -2.0348  1.5678  0.1719
  139TMC2    C1 2158   0.480   0.807  13.512 -0.2904  0.0140  0.5150
  139TMC2    C2 2159   0.361   0.797  13.447 -0.3428  0.0501  0.0763
  139TMC2    C3 2160   0.290   0.910  13.400 -0.6300 -0.1048  0.5220
  139TMC2    C4 2161   0.531   0.931  13.531 -0.0495 -0.3954 -0.0991
  139TMC2    C5 2162   0.456   1.047  13.502  0.5376  0.1541  0.5196
  139TMC2    C6 2163   0.333   1.038  13.441  0.4168  0.6989 -0.6111
  139TMC2     C 2164   0.549   0.689  13.573 -0.5895 -0.3200 -0.3146
  139TMC2     O 2165   0.665   0.707  13.605 -0.4741 -0.2221  0.2342
  139TMC2     H 2166   0.317   0.699  13.432 -0.0420 -0.3013  1.5026
  139TMC2    H1 2167   0.628   0.933  13.580 -1.0941 -0.4691  1.9364
  139TMC2    H2 2168   0.278   1.130  13.429 -0.0314  0.4578 -0.3969
  139TMC2    C7 2169   0.467   1.166  13.589  0.1078 -0.4595 -0.2892
  139TMC2    C8 2170   0.177   0.901  13.318 -0.8303 -0.4100 -0.2948
  139TMC2    O1 2171   0.363   1.230  13.611 -0.6668 -0.3835 -0.0697
  139TMC2    O2 2172   0.101   0.805  13.323  0.3261 -0.2687  1.0723
  139TMC2    O5 2173   0.165   1.006  13.241 -0.5404 -0.0427 -0.0960
  139TMC2    H5 2174   0.227   1.082  13.243 -0.6768  0.1025 -1.7248
  140MPD2     C 2175   0.412   0.348  13.601 -0.1596 -0.0154  0.4434
  140MPD2    C1 2176   0.507   0.444  13.618  0.1645  0.5132  0.4090
  140MPD2    C2 2177   0.637   0.401  13.621 -0.2066  0.2889 -0.0977
  140MPD2    C3 2178   0.667   0.262  13.624 -0.3152 -0.0054  0.2992
  140MPD2    C4 2179   0.568   0.164  13.598 -0.4624 -0.2221  0.4714
  140MPD2    C5 2180   0.440   0.214  13.587  0.5492  0.3163 -0.4607
  140MPD2     H 2181   0.718   0.470  13.642  1.2807 -1.1682 -1.1037
  140MPD2    H1 2182   0.584   0.057  13.600 -1.2458 -0.3139  2.6975
  140MPD2    H2 2183   0.307   0.374  13.591  0.1660  0.8946 -0.5584
  140MPD2    H3 2184   0.352   0.151  13.576 -0.4050  1.6413 -0.4210
  140MPD2     N 2185   0.806   0.223  13.627  0.0501  0.5946  0.0037
  140MPD2    H5 2186   0.872   0.290  13.589  0.9955 -1.0766 -1.3254
  140MPD2    N1 2187   0.470   0.583  13.604 -0.8450  0.5950  0.0973
  140MPD2    H7 2188   0.370   0.604  13.600 -0.6434  1.9608  1.9760
  141TMC2    C1 2189   1.363   2.204  15.159 -0.0762 -0.1589 -0.4634
  141TMC2    C2 2190   1.394   2.121  15.263  0.3022 -0.2422 -0.0975
  141TMC2    C3 2191   1.403   2.189  15.385  0.3623 -0.1084  0.3431
  141TMC2    C4 2192   1.338   2.339  15.168  0.1922 -0.3806 -0.0463
  141TMC2    C5 2193   1.337   2.393  15.295 -0.6539 -0.0962 -0.1952
  141TMC2    C6 2194   1.372   2.319  15.407 -0.9303  0.0959  0.6950
  141TMC2     C 2195   1.363   2.148  15.022 -0.7158 -0.4222 -0.0152
  141TMC2     O 2196   1.359   2.217  14.919  0.4107  0.1663 -0.2244
  141TMC2     H 2197   1.435   2.021  15.251  1.8596  0.2692  1.0408
  141TMC2    H1 2198   1.302   2.404  15.089 -1.4225 -1.4009 -0.1374
  141TMC2    H2 2199   1.405   2.362  15.501 -0.6366 -0.1215  0.6942
  141TMC2    C7 2200   1.357   2.535  15.309 -0.5195 -0.4445 -0.5148
  141TMC2    C8 2201   1.456   2.109  15.493  0.1753  0.6600  0.4614
  141TMC2    O1 2202   1.336   2.595  15.412  0.1029  0.2519 -0.2786
  141TMC2    O2 2203   1.517   2.003  15.478  0.6076  0.2415 -0.5927
  141TMC2    O5 2204   1.422   2.155  15.613  0.0137  0.3947  0.6986
  141TMC2    H5 2205   1.374   2.241  15.604  1.6429  1.0635 -1.5356
  142TMC2    C1 2206   3.637   1.168  10.021 -0.0711  0.0274  0.3196
  142TMC2    C2 2207   3.640   1.190   9.882  0.4220 -0.0680 -0.3697
  142TMC2    C3 2208   3.628   1.315   9.837  0.0941  0.0673  0.1267
  142TMC2    C4 2209   3.631   1.267  10.107  0.7747  0.3628 -0.1924
  142TMC2    C5 2210   3.628   1.396  10.056  0.5390  0.1015  0.4669
  142TMC2    C6 2211   3.628   1.419   9.920  0.1259 -0.5694 -0.6626
  142TMC2     C 2212   3.611   1.029  10.058 -1.2182 -0.2274 -0.3842
  142TMC2     O 2213   3.575   0.951   9.969 -0.3033  0.4611  0.0829
  142TMC2     H 2214   3.633   1.104   9.817  0.8446 -0.7218  0.4458
  142TMC2    H1 2215   3.613   1.254  10.213  0.9614 -1.9319 -0.4364
  142TMC2    H2 2216   3.594   1.517   9.889 -0.3084 -0.0588  1.3943
  142TMC2    C7 2217   3.612   1.506  10.157 -0.1380 -0.5700 -0.4784
  142TMC2    C8 2218   3.608   1.339   9.705  0.5260  0.7593 -0.7842
  142TMC2    O1 2219   3.609   1.475  10.279  0.3274 -0.4293 -0.2187
  142TMC2    O2 2220   3.518   1.293   9.631 -0.4710 -0.2725  0.1657
  142TMC2    O5 2221   3.684   1.444   9.668  0.5080 -0.0419  0.0572
  142TMC2    H5 2222   3.758   1.455   9.731  1.3374 -0.2417 -0.8832
  143MPD2     C 2223   3.551   0.671  10.411 -0.6474 -0.7124 -0.0334
  143MPD2    C1 2224   3.506   0.677  10.284 -0.4507  0.2096 -0.0477
  143MPD2    C2 2225   3.528   0.791  10.209  0.2589 -0.1100 -0.1955
  143MPD2    C3 2226   3.605   0.895  10.261 -0.1799  0.3171  0.6672
  143MPD2    C4 2227   3.650   0.890  10.393 -0.1011  0.6582  0.8246
  143MPD2    C5 2228   3.624   0.778  10.465 -0.0322  0.4079  0.9317
  143MPD2     H 2229   3.488   0.806  10.109 -0.3543 -0.6421 -0.0248
  143MPD2    H1 2230   3.699   0.968  10.449 -0.7625  0.4695  1.6669
  143MPD2    H2 2231   3.539   0.579  10.468  0.7780 -1.4678 -0.9631
  143MPD2    H3 2232   3.667   0.771  10.564  0.5265 -0.3296  0.6390
  143MPD2     N 2233   3.640   1.011  10.189  0.2195 -0.2060 -0.3825
  143MPD2    H5 2234   3.691   1.089  10.229  2.6890 -0.9522 -2.0612
  143MPD2    N1 2235   3.439   0.558  10.233 -0.1958  0.2468 -0.6036
  143MPD2    H7 2236   3.429   0.484  10.302  1.2363 -0.6356 -1.3502
  144TMC2    C1 2237   1.736   3.883   1.452  0.0630 -0.5143 -0.8218
  144TMC2    C2 2238   1.867   3.873   1.477 -0.0783  0.3635  0.0051
  144TMC2    C3 2239   1.915   3.929   1.595  1.0506 -0.4154 -0.2074
  144TMC2    C4 2240   1.649   3.933   1.543 -0.3130  0.3104  0.8762
  144TMC2    C5 2241   1.697   3.971   1.662 -0.3111  0.1103 -0.6432
  144TMC2    C6 2242   1.829   3.968   1.691 -0.1042 -0.1498 -0.1870
  144TMC2     C 2243   1.704   3.883   1.315  0.2922  0.3597 -0.6243
  144TMC2     O 2244   1.741   3.792   1.238 -0.3726 -0.1875  0.1094
  144TMC2     H 2245   1.936   3.830   1.406 -0.4813 -3.0276  1.6801
  144TMC2    H1 2246   1.541   3.940   1.540 -0.4442 -1.0095  2.5927
  144TMC2    H2 2247   1.868   3.999   1.787  1.4896  0.2519 -0.9700
  144TMC2    C7 2248   1.603   4.029   1.756 -0.3534  0.4536 -0.0167
  144TMC2    C8 2249   2.055   3.912   1.620  0.2873 -0.2155 -0.9127
  144TMC2    O1 2250   1.485   4.001   1.749  0.2368  0.1443 -0.1710
  144TMC2    O2 2251   2.119   3.830   1.548  0.3958  0.1796 -0.1917
  144TMC2    O5 2252   2.103   4.026   1.684  0.2365 -0.2027 -0.1810
  144TMC2    H5 2253   2.031   4.090   1.703 -0.4700 -1.1790  0.3897
  145MPD2     C 2254   1.486   4.151   0.931 -0.0474  0.3314  0.0637
  145MPD2    C1 2255   1.519   4.016   0.944 -0.7300  0.3330 -0.2407
  145MPD2    C2 2256   1.564   3.967   1.069  0.1721 -0.6302 -0.5664
  145MPD2    C3 2257   1.580   4.053   1.181 -0.8422 -0.4378 -0.3702
  145MPD2    C4 2258   1.546   4.185   1.167 -0.2150  0.1084  0.5844
  145MPD2    C5 2259   1.498   4.229   1.047  0.7024 -0.0671  0.2619
  145MPD2     H 2260   1.576   3.860   1.085  1.3330 -0.4055  0.0294
  145MPD2    H1 2261   1.556   4.260   1.245 -0.2585 -0.6966  1.3691
  145MPD2    H2 2262   1.447   4.194   0.839 -1.4751  0.9401  0.9494
  145MPD2    H3 2263   1.479   4.336   1.037  0.5717 -0.0153  1.0813
  145MPD2     N 2264   1.629   4.000   1.303 -0.4534  0.9872 -0.3122
  145MPD2    H5 2265   1.637   4.059   1.385  1.0371  2.2714 -1.3889
  145MPD2    N1 2266   1.515   3.921   0.843 -0.6862  0.2775  0.0632
  145MPD2    H7 2267   1.531   3.825   0.871 -0.3189  0.3175 -0.0007
  146TMC2    C1 2268   2.499   3.238  12.150  0.1844 -0.2831  0.0740
  146TMC2    C2 2269   2.408   3.208  12.054  0.3856 -0.8111  0.7817
  146TMC2    C3 2270   2.448   3.132  11.952 -0.6951 -0.0174 -0.3538
  146TMC2    C4 2271   2.632   3.212  12.144  0.3437 -0.1304 -0.4316
  146TMC2    C5 2272   2.665   3.123  12.047 -0.1850 -0.3963 -0.1787
  146TMC2    C6 2273   2.574   3.078  11.953 -0.1992 -0.1262  0.0286
  146TMC2     C 2274   2.449   3.293  12.281 -0.4846 -0.1480  0.8167
  146TMC2     O 2275   2.343   3.347  12.284  0.5857 -1.1198 -0.2136
  146TMC2     H 2276   2.305   3.235  12.074  1.1216  2.5355  0.0495
  146TMC2    H1 2277   2.693   3.257  12.222 -1.8448  0.9164  0.7080
  146TMC2    H2 2278   2.609   3.053  11.854  1.5747 -0.5703  0.7796
  146TMC2    C7 2279   2.804   3.122  12.013  0.0870  0.0554  0.1099
  146TMC2    C8 2280   2.344   3.100  11.851 -0.1169  0.1777  0.2844
  146TMC2    O1 2281   2.836   3.115  11.897  0.3565 -0.1367 -0.3263
  146TMC2    O2 2282   2.343   2.986  11.807 -0.0782 -0.2241 -0.0081
  146TMC2    O5 2283   2.261   3.202  11.834 -0.0474  0.4260  0.2175
  146TMC2    H5 2284   2.286   3.286  11.877  2.0529  0.0899 -0.3467
  147MPD2     C 2285   3.280   3.124  12.176 -0.2464 -0.2106 -0.8831
  147MPD2    C1 2286   3.200   3.123  12.288 -0.5035  0.0370  0.4513
  147MPD2    C2 2287   3.065   3.131  12.275  0.3086 -0.3779  0.1623
  147MPD2    C3 2288   3.014   3.138  12.145 -0.4540  0.4290 -0.7623
  147MPD2    C4 2289   3.094   3.138  12.031 -0.2563 -0.0867 -0.7539
  147MPD2    C5 2290   3.232   3.130  12.051  0.2174 -1.1998 -0.6525
  147MPD2     H 2291   2.997   3.129  12.359 -1.1955  2.0536 -1.0125
  147MPD2    H1 2292   3.058   3.148  11.929  0.0176  1.5796 -0.6806
  147MPD2    H2 2293   3.387   3.119  12.190  0.2689  1.9029 -4.0551
  147MPD2    H3 2294   3.294   3.117  11.964  2.6084  1.6951  0.6270
  147MPD2     N 2295   2.871   3.136  12.128 -0.5829 -0.0145  0.0750
  147MPD2    H5 2296   2.821   3.127  12.216 -0.7321 -0.0753 -0.0145
  147MPD2    N1 2297   3.270   3.104  12.414 -0.1928 -0.3777  0.6989
  147MPD2    H7 2298   3.369   3.087  12.403  0.2822  2.2722  0.8723
  148TMC2    C1 2299   2.768   2.215  10.683 -0.4235  0.0571  0.2490
  148TMC2    C2 2300   2.796   2.264  10.806 -0.1744  0.1461 -0.0812
  148TMC2    C3 2301   2.848   2.177  10.900  0.6312  0.5274 -0.3864
  148TMC2    C4 2302   2.811   2.091  10.652  0.9321 -0.3160  0.4635
  148TMC2    C5 2303   2.872   2.007  10.742 -0.2209 -0.2340  0.7320
  148TMC2    C6 2304   2.895   2.058  10.867 -0.4638  0.1928 -0.6406
  148TMC2     C 2305   2.673   2.291  10.606 -0.0590 -0.1488 -0.1432
  148TMC2     O 2306   2.683   2.410  10.613  0.6562  0.4396  0.2925
  148TMC2     H 2307   2.763   2.363  10.834  0.7028  0.4175  0.0007
  148TMC2    H1 2308   2.797   2.063  10.548  0.4638 -0.5263  0.5857
  148TMC2    H2 2309   2.966   2.017  10.939 -0.4790 -0.4613 -1.0001
  148TMC2    C7 2310   2.912   1.875  10.691  0.0509  0.2884 -0.5900
  148TMC2    C8 2311   2.832   2.195  11.039 -0.1762  0.7676  0.6474
  148TMC2    O1 2312   2.878   1.844  10.577 -0.0450 -0.2064  0.1145
  148TMC2    O2 2313   2.920   2.160  11.119 -0.0254 -0.1895 -0.1272
  148TMC2    O5 2314   2.731   2.283  11.061  0.0199  0.1794  0.3654
  148TMC2    H5 2315   2.659   2.274  10.996  1.1829 -0.3091 -0.8545
  149MPD2     C 2316   2.428   2.380  10.466 -0.1853 -0.1359 -0.1679
  149MPD2    C1 2317   2.464   2.249  10.485  0.1705  0.4383  0.6434
  149MPD2    C2 2318   2.379   2.149  10.435  0.0693 -0.3376  0.5701
  149MPD2    C3 2319   2.259   2.183  10.373  0.5195 -0.7300 -0.1121
  149MPD2    C4 2320   2.223   2.318  10.359  0.3338 -0.8476  0.1856
  149MPD2    C5 2321   2.306   2.408  10.415  0.1308  0.7211  0.6806
  149MPD2     H 2322   2.409   2.046  10.450  0.9128  0.0900  1.7985
  149MPD2    H1 2323   2.131   2.354  10.315  2.4019  2.0381 -1.8436
  149MPD2    H2 2324   2.491   2.462  10.499  0.0393  0.2958 -1.6421
  149MPD2    H3 2325   2.270   2.511  10.409  1.2227  0.9667 -1.4734
  149MPD2     N 2326   2.162   2.090  10.321  0.8019 -0.8699  0.2517
  149MPD2    H5 2327   2.084   2.119  10.262  1.2889 -0.9778 -0.4534
  149MPD2    N1 2328   2.575   2.207  10.556 -0.0768 -0.3872  0.2809
  149MPD2    H7 2329   2.591   2.106  10.556  0.5510 -0.2821 -1.8000
  150TMC2    C1 2330   0.680   1.417  12.626  0.7295  0.9482  0.3693
  150TMC2    C2 2331   0.618   1.541  12.630 -0.2339  0.0109  0.7833
  150TMC2    C3 2332   0.688   1.656  12.631  0.0384  0.8765 -0.4882
  150TMC2    C4 2333   0.814   1.413  12.657 -0.0847 -0.0141  0.0603
  150TMC2    C5 2334   0.879   1.534  12.667  0.1394  0.0435 -0.6325
  150TMC2    C6 2335   0.815   1.650  12.648  0.2562  0.1788  0.1186
  150TMC2     C 2336   0.607   1.296  12.611 -0.1630 -0.4796 -0.4356
  150TMC2     O 2337   0.648   1.188  12.656 -0.2926 -0.2188 -0.4504
  150TMC2     H 2338   0.510   1.548  12.627 -0.2182  0.6903  1.6304
  150TMC2    H1 2339   0.868   1.319  12.661  2.1988  1.1852 -2.4614
  150TMC2    H2 2340   0.883   1.733  12.633  0.4068  0.0771  0.2385
  150TMC2    C7 2341   1.010   1.544  12.739  0.4058  0.0504 -0.0379
  150TMC2    C8 2342   0.615   1.784  12.629 -0.3679  0.3764  0.0222
  150TMC2    O1 2343   1.052   1.659  12.762 -0.9559  0.4457 -0.2276
  150TMC2    O2 2344   0.508   1.789  12.565 -0.0818  0.1704  0.3877
  150TMC2    O5 2345   0.694   1.887  12.650  0.2181  0.0765 -0.0961
  150TMC2    H5 2346   0.770   1.869  12.708 -1.6225  0.8232  2.5788
  151MPD2     C 2347   0.196   1.033  12.429 -0.2268  0.0295  0.4431
  151MPD2    C1 2348   0.181   1.169  12.397  0.5474 -0.0319  0.1657
  151MPD2    C2 2349   0.279   1.258  12.434 -0.2187 -0.2172  0.3547
  151MPD2    C3 2350   0.390   1.208  12.505  0.3728 -0.1274  0.2332
  151MPD2    C4 2351   0.402   1.074  12.545 -0.6600 -0.3883 -0.1467
  151MPD2    C5 2352   0.301   0.985  12.500 -0.8243  0.2259 -0.2993
  151MPD2     H 2353   0.288   1.362  12.403 -3.2293  0.1045  0.5373
  151MPD2    H1 2354   0.483   1.036  12.607  1.6825  1.9248 -1.8154
  151MPD2    H2 2355   0.123   0.962  12.394 -3.6800  1.1945  5.3089
  151MPD2    H3 2356   0.300   0.885  12.541 -1.3396  1.3762  2.5146
  151MPD2     N 2357   0.485   1.310  12.549  0.0646 -0.8374 -0.0019
  151MPD2    H5 2358   0.473   1.405  12.514 -0.0205 -0.2416  1.6327
  151MPD2    N1 2359   0.079   1.203  12.310  0.4357 -0.1691  0.8334
  151MPD2    H7 2360   0.022   1.132  12.266  0.5823 -0.7104  1.5354
  152TMC2    C1 2361   0.167   1.073  12.838  0.0847 -0.3208  0.3987
  152TMC2    C2 2362   0.243   0.963  12.862 -0.2963 -0.3602  0.8325
  152TMC2    C3 2363   0.375   0.983  12.892 -0.5442 -0.7226 -0.0487
  152TMC2    C4 2364   0.209   1.202  12.857  0.1807  0.2685 -0.0779
  152TMC2    C5 2365   0.344   1.221  12.879  0.1218 -0.9419  0.0592
  152TMC2    C6 2366   0.433   1.111  12.904  0.3249  0.4789 -0.6121
  152TMC2     C 2367   0.025   1.061  12.846  0.1121  0.6058  0.2055
  152TMC2     O 2368   4.698   1.150  12.789  0.3969  0.4287  0.1366
  152TMC2     H 2369   0.200   0.863  12.856  1.2495 -0.9460 -0.5218
  152TMC2    H1 2370   0.141   1.287  12.860 -2.8610 -2.1777 -0.3021
  152TMC2    H2 2371   0.540   1.116  12.921  0.4867  0.3186 -1.5984
  152TMC2    C7 2372   0.396   1.357  12.901 -0.2856  0.2195 -0.4264
  152TMC2    C8 2373   0.437   0.868  12.951  0.6273  0.4604 -0.2645
  152TMC2    O1 2374   0.319   1.447  12.868  0.6588  0.0222  0.3167
  152TMC2    O2 2375   0.394   0.756  12.920 -0.0422 -0.5802  0.4962
  152TMC2    O5 2376   0.474   0.911  13.080 -0.4074 -0.1437  0.5534
  152TMC2    H5 2377   0.528   0.993  13.078  0.5435 -0.8238 -1.8036
  153MPD2     C 2378   4.601   0.840  13.078  0.1187  0.1531 -0.5769
  153MPD2    C1 2379   4.604   0.933  12.977 -0.7936  0.8814  0.4820
  153MPD2    C2 2380   4.493   0.972  12.914 -0.2465 -0.6368 -0.0827
  153MPD2    C3 2381   4.370   0.917  12.948 -0.3552 -0.3852 -0.0016
  153MPD2    C4 2382   4.366   0.819  13.050 -0.7950 -0.2330 -0.0144
  153MPD2    C5 2383   4.481   0.783  13.109  0.0447  0.0055  0.0265
  153MPD2     H 2384   4.497   1.056  12.846 -1.5801  0.7379  1.5497
  153MPD2    H1 2385   4.281   0.764  13.090 -1.7491  1.7606  0.6600
  153MPD2    H2 2386   4.684   0.807  13.141  1.0395  2.0987 -0.7612
  153MPD2    H3 2387   4.481   0.716  13.194  2.7974 -0.4271 -0.2998
  153MPD2     N 2388   4.254   0.958  12.880  0.4987  0.4769  0.0509
  153MPD2    H5 2389   4.268   1.040  12.823 -0.8313  0.4308 -0.3285
  153MPD2    N1 2390   4.727   0.974  12.949  0.6938  0.3205 -0.1249
  153MPD2    H7 2391   0.064   0.925  12.998  1.0612 -0.4217 -1.4009
  154TMC2    C1 2392   1.886   0.181   0.620 -0.4285 -0.3208 -0.2999
  154TMC2    C2 2393   1.866   0.064   0.546  0.2779 -0.2577 -0.6378
  154TMC2    C3 2394   1.894   4.688   0.616 -0.2653  0.1570 -0.1668
  154TMC2    C4 2395   1.922   0.191   0.745  0.2468  0.3940 -0.4982
  154TMC2    C5 2396   1.965   0.073   0.802 -0.4497 -0.4204 -0.1972
  154TMC2    C6 2397   1.953   4.683   0.740 -0.5068  0.4093 -0.3253
  154TMC2     C 2398   1.845   0.312   0.554 -0.0728 -0.4656  0.0427
  154TMC2     O 2399   1.797   0.391   0.637 -0.0452 -0.0531 -0.0290
  154TMC2     H 2400   1.818   0.054   0.449  0.8313  1.5953 -1.0903
  154TMC2    H1 2401   1.936   0.285   0.796  0.3036  0.0942  0.0365
  154TMC2    H2 2402   1.954   4.590   0.796 -0.5419  1.3934  1.3154
  154TMC2    C7 2403   2.006   0.081   0.941  0.2569 -0.1703 -0.3510
  154TMC2    C8 2404   1.896   4.563   0.543 -0.4943 -0.2448 -0.1675
  154TMC2    O1 2405   1.952   0.170   1.009  0.2700  0.5450  0.0147
  154TMC2    O2 2406   1.799   4.532   0.474 -0.3618 -0.3157 -0.3057
  154TMC2    O5 2407   1.980   4.478   0.606 -0.2194 -0.1559  0.1549
  154TMC2    H5 2408   2.061   4.524   0.636 -0.3199 -0.5583  1.0601
  155MPD2     C 2409   1.810   0.403   0.197 -0.3754 -0.3654  0.4222
  155MPD2    C1 2410   1.813   0.420   0.331  0.8474  0.0515  0.5858
  155MPD2    C2 2411   1.787   0.546   0.382 -0.9298  0.1826 -0.0562
  155MPD2    C3 2412   1.752   0.653   0.290 -0.3705  0.0928  0.7231
  155MPD2    C4 2413   1.759   0.635   0.155  0.5022  0.7513 -0.1023
  155MPD2    C5 2414   1.797   0.510   0.111 -0.5653 -0.3043 -0.0150
  155MPD2     H 2415   1.779   0.565   0.489 -3.4925 -0.8733 -0.0511
  155MPD2    H1 2416   1.727   0.702   0.076  1.1745  0.1356 -0.9052
  155MPD2    H2 2417   1.830   0.306   0.154 -0.8428 -1.5011  2.8279
  155MPD2    H3 2418   1.801   0.497   0.004  2.6817  1.1902 -0.0828
  155MPD2     N 2419   1.737   0.779   0.347  0.4740 -0.1956 -0.0023
  155MPD2    H5 2420   1.741   0.782   0.448  2.1458  3.0896 -0.1850
  155MPD2    N1 2421   1.844   0.307   0.414 -0.3770  0.1018  0.0667
  155MPD2    H7 2422   1.876   0.222   0.369 -0.1071  0.7941 -1.0704
  156TMC2    C1 2423   4.542   3.442  11.473 -0.1924 -1.3459 -0.0257
  156TMC2    C2 2424   4.461   3.390  11.374 -0.3107 -0.1273  0.1738
  156TMC2    C3 2425   4.431   3.468  11.268 -0.0250  0.3380  0.7801
  156TMC2    C4 2426   4.596   3.559  11.459 -0.5895  0.0413 -0.7196
  156TMC2    C5 2427   4.575   3.639  11.350  0.0652 -0.2368  0.5521
  156TMC2    C6 2428   4.493   3.590  11.251 -0.8626  0.3336  0.8291
  156TMC2     C 2429   4.566   3.366  11.594 -0.5854  0.5816  0.3688
  156TMC2     O 2430   4.673   3.382  11.648  0.4769 -0.2398  0.2758
  156TMC2     H 2431   4.404   3.301  11.398  0.5573 -0.9234 -0.7018
  156TMC2    H1 2432   4.657   3.595  11.542 -0.3297 -0.8881 -0.5094
  156TMC2    H2 2433   4.468   3.647  11.162  0.8846  0.3848  0.3718
  156TMC2    C7 2434   4.626   3.782  11.347 -0.5274  0.0651 -0.5816
  156TMC2    C8 2435   4.367   3.404  11.155  0.3387  0.1339  0.6247
  156TMC2    O1 2436   4.671   3.828  11.453 -0.1006  0.2452 -0.1087
  156TMC2    O2 2437   4.302   3.302  11.172 -0.1791 -0.5284  0.4477
  156TMC2    O5 2438   4.464   3.412  11.060  0.1501  0.7150 -0.1068
  156TMC2    H5 2439   4.548   3.455  11.089 -0.1108  0.3335  1.1794
  157MPD2     C 2440   4.317   3.194  11.797  0.6757  0.2879 -0.7239
  157MPD2    C1 2441   4.443   3.229  11.762  0.2700  0.0727  0.1346
  157MPD2    C2 2442   4.548   3.205  11.853  0.2565  0.0137  0.3503
  157MPD2    C3 2443   4.518   3.144  11.971  0.4788  0.3915  0.6517
  157MPD2    C4 2444   4.386   3.114  12.007  0.1850 -0.5023  0.1054
  157MPD2    C5 2445   4.289   3.132  11.915  0.2981  0.2524 -0.0427
  157MPD2     H 2446   4.648   3.236  11.825  0.1985 -2.7050 -2.7500
  157MPD2    H1 2447   4.353   3.078  12.104  0.2250  2.2146  1.1209
  157MPD2    H2 2448   4.233   3.226  11.735 -0.4591 -0.4178  0.4595
  157MPD2    H3 2449   4.187   3.108  11.944 -0.0726  4.0144  1.6964
  157MPD2     N 2450   4.629   3.125  12.060  0.7102 -0.2743  0.3835
  157MPD2    H5 2451   4.721   3.146  12.023  0.7777 -1.3201 -0.0363
  157MPD2    N1 2452   4.455   3.293  11.637 -0.4971  0.5603  0.0850
  157MPD2    H7 2453   4.366   3.312  11.592 -0.5086 -1.2034 -0.6363
  158TMC2    C1 2454   4.504   2.278  13.572 -0.0566 -0.2812  0.3821
  158TMC2    C2 2455   4.395   2.307  13.493 -0.5045 -0.4393 -0.1550
  158TMC2    C3 2456   4.278   2.255  13.536 -0.3499  0.1784  0.2056
  158TMC2    C4 2457   4.495   2.200  13.689 -0.0664 -0.2102 -0.3316
  158TMC2    C5 2458   4.375   2.133  13.710  0.1569  0.9665  0.0136
  158TMC2    C6 2459   4.266   2.166  13.636  0.1871  0.2763  0.1748
  158TMC2     C 2460   4.628   2.338  13.525  0.3280  0.4960 -0.2761
  158TMC2     O 2461   4.623   2.406  13.425 -0.6399  0.3469  0.3602
  158TMC2     H 2462   4.388   2.383  13.415  1.0109  2.4345  2.5197
  158TMC2    H1 2463   4.572   2.188  13.764 -1.2395 -1.7509  0.6169
  158TMC2    H2 2464   4.174   2.108  13.645  1.0168 -0.9176  1.1201
  158TMC2    C7 2465   4.335   2.068  13.833  0.1780  0.3152 -0.5945
  158TMC2    C8 2466   4.154   2.288  13.480 -1.1319  0.9124  0.7751
  158TMC2    O1 2467   4.232   2.102  13.895  0.2928  0.1093 -0.0741
  158TMC2    O2 2468   4.044   2.260  13.534 -0.2897 -0.3260 -0.4108
  158TMC2    O5 2469   4.162   2.322  13.347  0.6213  0.2741  0.4196
  158TMC2    H5 2470   4.251   2.322  13.307 -0.0273  0.9821 -1.0102
  159MPD2     C 2471   0.390   2.454  13.558 -0.1046  0.2735 -0.0058
  159MPD2    C1 2472   0.347   2.411  13.681 -0.1065 -0.1052 -0.0219
  159MPD2    C2 2473   0.216   2.370  13.701 -0.4524 -0.1082  0.8458
  159MPD2    C3 2474   0.125   2.375  13.601  0.2299 -0.3609 -0.4012
  159MPD2    C4 2475   0.171   2.423  13.477  0.7886 -0.1675 -0.6159
  159MPD2    C5 2476   0.297   2.462  13.457  0.0360 -0.0159  0.0567
  159MPD2     H 2477   0.185   2.339  13.800  0.4316 -0.5279  0.9923
  159MPD2    H1 2478   0.112   2.428  13.387  1.7447 -0.9460 -1.2918
  159MPD2    H2 2479   0.489   2.496  13.547 -0.3803  0.7378 -0.7046
  159MPD2    H3 2480   0.330   2.504  13.363  0.0918  0.5996  0.3568
  159MPD2     N 2481   4.729   2.338  13.616 -0.2424  0.3800  0.0016
  159MPD2    H5 2482   4.707   2.287  13.701 -1.8015 -0.3124 -0.8233
  159MPD2    N1 2483   0.428   2.405  13.800 -0.1007 -0.1991 -0.1829
  159MPD2    H7 2484   0.390   2.369  13.887  3.5263  2.0306  2.3202
  160TMC2    C1 2485   0.030   4.234   1.141  0.0029 -0.4578  0.9501
  160TMC2    C2 2486   4.639   4.258   1.191 -0.1991 -0.1764  0.0342
  160TMC2    C3 2487   4.605   4.235   1.321  0.1084 -0.0331 -0.1333
  160TMC2    C4 2488   0.128   4.198   1.227 -0.1316  0.1670  1.0747
  160TMC2    C5 2489   0.094   4.196   1.359  0.1703 -0.6348  0.0427
  160TMC2    C6 2490   4.703   4.209   1.406  0.5678  0.0807  0.0340
  160TMC2     C 2491   0.067   4.295   1.017  0.3412  0.2374  0.5933
  160TMC2     O 2492   0.150   4.234   0.951 -0.5090 -0.6225 -0.0472
  160TMC2     H 2493   4.572   4.300   1.118  0.7113  1.9420  0.4031
  160TMC2    H1 2494   0.233   4.199   1.203 -0.9811 -0.8141 -2.8107
  160TMC2    H2 2495   4.680   4.201   1.512 -0.6496  3.1437  0.0212
  160TMC2    C7 2496   0.204   4.201   1.456 -0.7953 -0.0056  0.8026
  160TMC2    C8 2497   4.477   4.297   1.370  0.1787 -0.4419  0.2311
  160TMC2    O1 2498   0.190   4.153   1.568 -0.1636  0.2419  0.1219
  160TMC2    O2 2499   4.486   4.383   1.458  0.4001  0.6617  0.3727
  160TMC2    O5 2500   4.386   4.272   1.282  0.4320 -0.1679 -0.0515
  160TMC2    H5 2501   4.401   4.190   1.229  0.1101 -0.7533  0.7639
  161MPD2     C 2502   0.054   4.385   0.730 -1.1739  0.0009 -0.6144
  161MPD2    C1 2503   4.723   4.446   0.839 -0.2678  0.0735 -0.2971
  161MPD2    C2 2504   4.644   4.559   0.813  0.2604 -0.1051  0.2160
  161MPD2    C3 2505   4.635   4.611   0.687 -0.5607 -0.0071 -0.0150
  161MPD2    C4 2506   4.703   4.550   0.577  0.6538  0.1367  0.5235
  161MPD2    C5 2507   0.051   4.439   0.605  0.1995  0.4430 -0.3010
  161MPD2     H 2508   4.587   4.603   0.894 -0.6973  0.8771 -0.9825
  161MPD2    H1 2509   4.690   4.582   0.474 -0.4838 -0.2550  0.5467
  161MPD2    H2 2510   0.104   4.290   0.741 -1.2508  0.4606  3.8505
  161MPD2    H3 2511   0.098   4.386   0.523  2.8068  2.5487 -0.1618
  161MPD2     N 2512   4.554   4.720   0.655 -0.4902 -0.3109  0.2506
  161MPD2    H5 2513   4.538   0.003   0.556  0.7432 -0.1771  0.0832
  161MPD2    N1 2514   4.724   4.398   0.975 -0.2552 -0.0465  0.5953
  161MPD2    H7 2515   4.652   4.431   1.037 -1.5442 -0.3994 -0.7150
  162TMC2    C1 2516   3.609   2.424   0.510  0.0389 -0.6494  0.1016
  162TMC2    C2 2517   3.662   2.535   0.455  0.8243 -0.3435  0.6005
  162TMC2    C3 2518   3.777   2.518   0.385  0.6485  0.0635  0.7048
  162TMC2    C4 2519   3.673   2.301   0.517 -0.2302 -0.1269 -0.8926
  162TMC2    C5 2520   3.802   2.301   0.459  0.6760  0.1937  0.2534
  162TMC2    C6 2521   3.843   2.406   0.381 -0.2176 -0.4006 -0.4099
  162TMC2     C 2522   3.469   2.413   0.481  0.0003  0.2442  0.6757
  162TMC2     O 2523   3.408   2.517   0.470  0.2421 -0.0285  0.1571
  162TMC2     H 2524   3.602   2.623   0.432  2.4643  0.7875  0.6870
  162TMC2    H1 2525   3.620   2.214   0.554 -2.0775  0.0586 -3.1341
  162TMC2    H2 2526   3.934   2.403   0.322  1.1475  2.2870  1.5651
  162TMC2    C7 2527   3.878   2.170   0.451 -0.4574 -0.4695  0.3731
  162TMC2    C8 2528   3.831   2.624   0.306 -0.4053  0.5545  0.6575
  162TMC2    O1 2529   3.961   2.151   0.368  0.5972 -0.1187  0.4860
  162TMC2    O2 2530   3.878   2.593   0.197 -0.0816 -0.1994  0.2337
  162TMC2    O5 2531   3.834   2.737   0.368 -0.0458  0.3067  0.2881
  162TMC2    H5 2532   3.812   2.721   0.462  2.2934 -0.7953  0.6257
  163MPD2     C 2533   3.060   2.170   0.283 -0.3798  0.2380  0.4675
  163MPD2    C1 2534   3.173   2.088   0.284  0.2221 -0.1622 -0.3115
  163MPD2    C2 2535   3.292   2.119   0.342 -0.2508  0.0790 -0.3610
  163MPD2    C3 2536   3.306   2.248   0.386 -0.0117  0.4065 -0.6808
  163MPD2    C4 2537   3.199   2.330   0.394  0.1548  0.1861  0.6197
  163MPD2    C5 2538   3.076   2.294   0.343  0.6044 -0.0805 -0.9354
  163MPD2     H 2539   3.377   2.054   0.326 -0.4307 -0.1598 -0.3522
  163MPD2    H1 2540   3.188   2.433   0.427  0.4510  0.2819  0.4184
  163MPD2    H2 2541   2.966   2.140   0.236  0.8487 -0.5554 -1.4843
  163MPD2    H3 2542   2.993   2.361   0.359  1.2291  0.5957 -0.5091
  163MPD2     N 2543   3.433   2.290   0.433 -0.1918 -0.2329  0.6499
  163MPD2    H5 2544   3.502   2.216   0.430  0.4297  0.2714  2.9078
  163MPD2    N1 2545   3.163   1.971   0.206  0.3584 -0.2178 -0.1422
  163MPD2    H7 2546   3.079   1.960   0.150  1.2449 -1.0921 -1.2758
  164TMC2    C1 2547   3.548   1.944  11.212 -0.6661 -0.5964  0.1873
  164TMC2    C2 2548   3.547   1.820  11.273  0.8172  0.0350 -0.0618
  164TMC2    C3 2549   3.506   1.823  11.406 -0.2347  0.3477  0.2010
  164TMC2    C4 2550   3.509   2.062  11.278 -0.5511 -0.3035  0.0111
  164TMC2    C5 2551   3.460   2.059  11.409 -0.2524  0.4327  0.4645
  164TMC2    C6 2552   3.457   1.934  11.473 -0.4697  0.0566  0.1771
  164TMC2     C 2553   3.613   1.960  11.079 -0.3124  0.8313 -0.1937
  164TMC2     O 2554   3.648   1.857  11.019 -0.0174  0.1454 -0.6645
  164TMC2     H 2555   3.587   1.733  11.223 -1.3404 -1.3151  0.5387
  164TMC2    H1 2556   3.508   2.158  11.228  1.0204 -0.2582  0.0753
  164TMC2    H2 2557   3.401   1.924  11.565 -1.9708 -4.3751 -1.2198
  164TMC2    C7 2558   3.341   2.130  11.423  0.3296 -0.2390  0.0978
  164TMC2    C8 2559   3.468   1.698  11.479  0.3373 -0.3762 -0.5404
  164TMC2    O1 2560   3.284   2.173  11.328 -0.0642  0.3942 -0.3480
  164TMC2    O2 2561   3.477   1.687  11.600  0.0810 -0.3388  0.1845
  164TMC2    O5 2562   3.421   1.611  11.390 -0.3344 -0.8403  0.5871
  164TMC2    H5 2563   3.409   1.656  11.303  1.0747  1.3623  1.5230
  165TMC2    C1 2564   0.396   3.758   0.604 -0.3512  0.4744 -0.0920
  165TMC2    C2 2565   0.512   3.757   0.523  0.0027 -0.3522 -0.8568
  165TMC2    C3 2566   0.632   3.791   0.576 -0.0607 -0.3767 -0.6598
  165TMC2    C4 2567   0.414   3.769   0.743 -0.5798 -0.4455 -0.5559
  165TMC2    C5 2568   0.538   3.773   0.793  0.3257 -0.6056  0.0848
  165TMC2    C6 2569   0.648   3.797   0.711  0.1854  0.7177 -0.0557
  165TMC2     C 2570   0.260   3.766   0.539  0.2905  0.5697 -0.3768
  165TMC2     O 2571   0.157   3.762   0.609  0.0790  0.8683  0.1886
  165TMC2     H 2572   0.502   3.729   0.419 -0.2617 -0.7076 -0.7317
  165TMC2    H1 2573   0.340   3.750   0.819  0.1422 -1.2043 -0.0454
  165TMC2    H2 2574   0.746   3.775   0.752  0.0500  2.1884  1.0602
  165TMC2    C7 2575   0.562   3.801   0.940 -0.1482 -0.3558 -0.3236
  165TMC2    C8 2576   0.753   3.773   0.494 -0.3587  0.5700  0.8060
  165TMC2    O1 2577   0.676   3.799   0.987 -0.5412 -0.0044 -0.0197
  165TMC2    O2 2578   0.867   3.784   0.544 -0.1837  0.4535 -0.1476
  165TMC2    O5 2579   0.727   3.831   0.380 -0.5141  0.2953 -0.0320
  165TMC2    H5 2580   0.634   3.848   0.356 -0.7368  1.6998  1.8316
  166MPD2     C 2581   4.669   3.846   0.159  0.0380  0.7432  0.3044
  166MPD2    C1 2582   4.648   3.787   0.283  0.2450 -0.5740  0.0826
  166MPD2    C2 2583   0.025   3.770   0.362 -0.4669 -0.5704 -0.1194
  166MPD2    C3 2584   0.147   3.812   0.319 -0.2328 -0.7514 -0.8662
  166MPD2    C4 2585   0.166   3.856   0.189 -0.2292  0.8318 -0.3780
  166MPD2    C5 2586   0.058   3.882   0.111  0.0171  0.3375 -0.2088
  166MPD2     H 2587   0.006   3.728   0.460 -0.5396 -1.1473 -0.3800
  166MPD2    H1 2588   0.265   3.883   0.154  0.1628 -1.3460 -0.9310
  166MPD2    H2 2589   4.584   3.866   0.095  0.9679 -0.9734 -1.4604
  166MPD2    H3 2590   0.071   3.919   0.010  1.1188  0.5808  0.0234
  166MPD2     N 2591   0.264   3.800   0.403  0.2277  0.8533 -0.2127
  166MPD2    H5 2592   0.353   3.831   0.367 -0.4736  0.7706 -2.0257
  166MPD2    N1 2593   4.513   3.762   0.325 -0.2529  0.2987  0.6030
  166MPD2    H7 2594   4.432   3.781   0.266  0.4821 -1.1408 -0.8507
  167TMC2    C1 2595   2.620   1.808  13.176  0.5325 -0.0395 -0.1599
  167TMC2    C2 2596   2.533   1.796  13.277 -0.0191  0.7413 -1.0112
  167TMC2    C3 2597   2.543   1.688  13.361  0.5286  0.4252 -0.2984
  167TMC2    C4 2598   2.703   1.712  13.144  0.1113 -0.5224 -1.0902
  167TMC2    C5 2599   2.723   1.620  13.242  0.0165 -0.3476  0.0820
  167TMC2    C6 2600   2.642   1.598  13.347 -0.4010 -0.2174  0.4798
  167TMC2     C 2601   2.607   1.921  13.084  0.2888  0.0515  0.5113
  167TMC2     O 2602   2.500   1.985  13.090 -0.0678 -0.3180  0.1298
  167TMC2     H 2603   2.461   1.876  13.296  0.3679  1.1297 -1.1852
  167TMC2    H1 2604   2.761   1.715  13.053  0.5858 -0.0285 -0.7713
  167TMC2    H2 2605   2.641   1.509  13.410 -1.6273  0.7994  1.8820
  167TMC2    C7 2606   2.823   1.512  13.221  0.3051  0.1554 -0.5669
  167TMC2    C8 2607   2.454   1.661  13.467  0.1204  0.8155 -0.4604
  167TMC2    O1 2608   2.811   1.405  13.281  0.4594 -0.0021 -0.0415
  167TMC2    O2 2609   2.494   1.612  13.571  0.4196 -0.1462 -0.2821
  167TMC2    O5 2610   2.340   1.726  13.446 -0.4259 -0.2661 -0.1654
  167TMC2    H5 2611   2.318   1.739  13.351 -0.5772  3.2899  0.3542
  168MPD2     C 2612   2.603   2.097  12.844 -1.0535 -0.4505 -0.4297
  168MPD2    C1 2613   2.716   2.035  12.892  0.1017  0.4805 -1.0888
  168MPD2    C2 2614   2.829   2.053  12.816  0.2322  0.4229 -0.0236
  168MPD2    C3 2615   2.827   2.131  12.697 -0.2147 -0.6272 -0.1738
  168MPD2    C4 2616   2.711   2.177  12.654  0.1382 -0.1870  0.3334
  168MPD2    C5 2617   2.594   2.165  12.727 -0.5673  0.8544 -0.6623
  168MPD2     H 2618   2.910   1.986  12.842 -0.6119 -1.4176 -2.2038
  168MPD2    H1 2619   2.704   2.210  12.551 -0.5670 -1.3723 -0.0008
  168MPD2    H2 2620   2.508   2.082  12.894 -1.1661  0.6999 -0.2997
  168MPD2    H3 2621   2.500   2.193  12.682 -2.8458 -2.0065  2.2674
  168MPD2     N 2622   2.933   2.139  12.604  0.1588  0.3270  0.3886
  168MPD2    H5 2623   2.910   2.172  12.511 -0.0380 -2.3590 -0.5188
  168MPD2    N1 2624   2.715   1.944  13.000  0.1319  0.3757 -0.5023
  168MPD2    H7 2625   2.802   1.896  13.018 -0.2199  0.7328  2.2554
  169MPD1     C 2626   4.566   4.732  10.277 -0.4492 -0.9309 -0.4608
  169MPD1    C1 2627   4.569   0.109  10.203  0.2801 -0.5382 -0.5283
  169MPD1    C2 2628   4.687   0.188  10.192  0.6273 -0.4567 -0.0119
  169MPD1    C3 2629   0.067   0.143  10.254  0.7517 -0.6133  0.4736
  169MPD1    C4 2630   0.051   0.035  10.339  0.5341 -0.5734 -0.2615
  169MPD1    C5 2631   4.676   4.694  10.345 -0.3411  0.4316  0.8066
  169MPD1     H 2632   4.688   0.286  10.145 -2.6742 -1.0269 -1.2581
  169MPD1    H1 2633   0.135   4.729  10.392  1.6784  3.0347  0.8172
  169MPD1    H2 2634   4.479   4.669  10.293 -2.3065  1.7890  0.0593
  169MPD1    H3 2635   4.670   4.597  10.394 -2.9286 -0.1487 -0.6927
  169MPD1     N 2636   0.194   0.209  10.244  0.4311 -0.2764 -0.0733
  169MPD1    H5 2637   0.187   0.297  10.194  1.4019  1.0737  2.1409
  169MPD1    N1 2638   4.457   0.153  10.123  0.3587  0.6584 -0.0438
  169MPD1    H6 2639   4.433   0.252  10.125 -1.5708  0.2406 -1.8520
  169MPD1    H7 2640   4.375   0.105  10.160  2.0758 -1.3029  1.1767
  170MPD1     C 2641   3.055   3.754  13.536  0.8302 -0.1195  0.0401
  170MPD1    C1 2642   3.092   3.713  13.663 -0.3497 -1.2796 -0.1633
  170MPD1    C2 2643   3.187   3.796  13.721 -0.6718 -0.1617 -0.4623
  170MPD1    C3 2644   3.246   3.894  13.651 -0.4240  0.4803 -0.5893
  170MPD1    C4 2645   3.205   3.932  13.527  0.1451 -0.1631 -0.2014
  170MPD1    C5 2646   3.124   3.851  13.465  0.1277 -0.2286 -0.1174
  170MPD1     H 2647   3.228   3.769  13.817  1.1812  2.6625 -0.4720
  170MPD1    H1 2648   3.257   4.004  13.465  0.8870  1.4935  2.3390
  170MPD1    H2 2649   2.971   3.702  13.491  0.7025 -2.1964  2.6812
  170MPD1    H3 2650   3.098   3.871  13.362 -1.8209 -4.9713 -0.5210
  170MPD1     N 2651   3.358   3.953  13.717 -0.1150 -0.1103  0.3822
  170MPD1    H5 2652   3.378   3.920  13.811  0.8437  1.5720  0.7622
  170MPD1    N1 2653   3.027   3.610  13.727 -1.0153  0.3327 -0.3540
  170MPD1    H6 2654   3.082   3.570  13.802 -0.0140 -0.0784 -1.3085
  170MPD1    H7 2655   2.974   3.545  13.668 -0.8741  0.5732 -0.7462
  171MPD1     C 2656   2.763   0.733  15.525  0.6745 -0.1435  0.5855
  171MPD1    C1 2657   2.763   0.600  15.482 -0.7381 -0.7016 -0.6335
  171MPD1    C2 2658   2.667   0.514  15.534 -0.8240  0.3969  0.0660
  171MPD1    C3 2659   2.592   0.555  15.644  0.7131 -0.3564  0.4553
  171MPD1    C4 2660   2.613   0.684  15.697  0.2722  0.4835  0.9167
  171MPD1    C5 2661   2.692   0.773  15.630 -0.1464 -0.5075  0.7989
  171MPD1     H 2662   2.685   0.411  15.508 -1.8295  0.4499 -0.8460
  171MPD1    H1 2663   2.566   0.728  15.784 -0.8122  1.5419 -0.1891
  171MPD1    H2 2664   2.830   0.805  15.479  2.4720 -2.2028 -0.0044
  171MPD1    H3 2665   2.689   0.876  15.665  0.6832 -0.1128 -0.2926
  171MPD1     N 2666   2.499   0.470  15.715  0.0763  0.3263 -0.1083
  171MPD1    H5 2667   2.459   0.510  15.799  0.8744  0.9301 -0.0204
  171MPD1    N1 2668   2.814   0.583  15.348  0.0497  1.1072  0.4250
  171MPD1    H6 2669   2.844   0.487  15.333 -0.1671  0.4584  4.1140
  171MPD1    H7 2670   2.896   0.641  15.329 -0.1775  1.1293 -0.4976
  172MPD1     C 2671   1.358   3.428   0.986 -0.0866 -0.2108 -0.8282
  172MPD1    C1 2672   1.427   3.422   0.878  0.1867  0.6329 -0.3708
  172MPD1    C2 2673   1.542   3.509   0.855 -0.0182  0.3823  0.2281
  172MPD1    C3 2674   1.587   3.575   0.965  0.2544  0.5706  0.5159
  172MPD1    C4 2675   1.516   3.566   1.084  0.9864  0.0883 -0.2356
  172MPD1    C5 2676   1.400   3.501   1.092 -0.3204  0.1756  0.0672
  172MPD1     H 2677   1.592   3.500   0.759 -1.0350  0.3242 -0.2992
  172MPD1    H1 2678   1.554   3.618   1.172  1.0349  0.8199 -0.6903
  172MPD1    H2 2679   1.272   3.363   0.998 -1.3397  1.5641 -0.1200
  172MPD1    H3 2680   1.325   3.503   1.170 -2.5144 -4.4609 -1.9100
  172MPD1     N 2681   1.705   3.656   0.970  0.1016  0.1737 -0.3840
  172MPD1    H5 2682   1.718   3.710   1.055 -0.1044  0.5518 -0.5978
  172MPD1    N1 2683   1.374   3.342   0.777  0.2931  0.3874 -0.0450
  172MPD1    H6 2684   1.442   3.309   0.709  1.6168  1.7303  0.6201
  172MPD1    H7 2685   1.323   3.263   0.817  0.6497  1.1402  1.8898
  173MPD1     C 2686   2.971   4.202  13.785 -0.5296  0.2332  0.3859
  173MPD1    C1 2687   2.894   4.240  13.895 -0.0058  0.1738  0.8982
  173MPD1    C2 2688   2.958   4.255  14.017 -0.0378  0.6613  0.2884
  173MPD1    C3 2689   3.093   4.212  14.039 -0.9153 -0.6448 -1.1142
  173MPD1    C4 2690   3.168   4.174  13.927  0.2333  0.5804 -0.0260
  173MPD1    C5 2691   3.106   4.175  13.802  0.1706 -0.7710  0.2306
  173MPD1     H 2692   2.905   4.305  14.098 -0.8005  1.0928 -0.4750
  173MPD1    H1 2693   3.274   4.156  13.943  0.0630 -1.6922 -1.6385
  173MPD1    H2 2694   2.933   4.197  13.683  1.8008 -0.3538 -0.4588
  173MPD1    H3 2695   3.170   4.155  13.717 -1.3541 -0.6687 -0.9446
  173MPD1     N 2696   3.149   4.226  14.174  0.0257 -0.1428 -0.5233
  173MPD1    H5 2697   3.087   4.261  14.245 -1.2627  0.4041 -1.9210
  173MPD1    N1 2698   2.772   4.297  13.861 -0.4278 -0.1247  0.4207
  173MPD1    H6 2699   2.735   4.256  13.776  0.0220  0.1168  0.1096
  173MPD1    H7 2700   2.702   4.293  13.935 -1.5804  1.3858 -0.5843
  174MPD1     C 2701   4.026   3.960  14.599 -0.3933 -0.1225 -0.4217
  174MPD1    C1 2702   3.950   3.988  14.708 -0.0822 -1.0590  0.5500
  174MPD1    C2 2703   3.823   4.039  14.682  0.0319 -0.3275 -0.1232
  174MPD1    C3 2704   3.774   4.061  14.557  0.1668 -0.0671 -0.5057
  174MPD1    C4 2705   3.849   4.025  14.451 -0.2060 -0.1490 -0.1688
  174MPD1    C5 2706   3.976   3.982  14.475  0.1119 -0.1125 -0.6227
  174MPD1     H 2707   3.757   4.066  14.764  0.8751 -0.9553  0.7718
  174MPD1    H1 2708   3.821   4.038  14.347 -3.2615 -1.6002  0.5015
  174MPD1    H2 2709   4.122   3.911  14.604 -0.1582  0.3400 -0.4173
  174MPD1    H3 2710   4.036   3.960  14.387 -0.0836  1.3446 -1.1168
  174MPD1     N 2711   3.652   4.126  14.528  0.3102  0.1985 -0.4830
  174MPD1    H5 2712   3.637   4.162  14.434  0.1939 -4.2553 -2.1507
  174MPD1    N1 2713   3.995   3.959  14.833  0.6811 -0.1571 -0.7773
  174MPD1    H6 2714   4.097   3.964  14.837  0.5418  0.6026  1.9280
  174MPD1    H7 2715   3.964   4.025  14.904  2.8222  1.5958 -1.4600
  175MPD1     C 2716   2.133   4.147  17.302 -0.4978 -0.5751  0.8053
  175MPD1    C1 2717   2.048   4.134  17.193  1.0009  0.8048  0.3104
  175MPD1    C2 2718   2.012   4.258  17.126  0.3540 -0.5412 -0.4562
  175MPD1    C3 2719   2.067   4.377  17.172  0.0088  0.1820 -0.3854
  175MPD1    C4 2720   2.155   4.386  17.272  0.0894  0.4974  0.1351
  175MPD1    C5 2721   2.189   4.268  17.338  0.1440 -0.1180 -0.3020
  175MPD1     H 2722   1.944   4.251  17.042  0.1311 -2.1429 -0.1289
  175MPD1    H1 2723   2.210   4.473  17.303  0.7841  0.1870 -0.2342
  175MPD1    H2 2724   2.160   4.064  17.367  1.1640 -1.1121 -0.5694
  175MPD1    H3 2725   2.249   4.272  17.429 -0.4186  3.7166 -0.0987
  175MPD1     N 2726   2.035   4.503  17.110 -0.0740 -0.1410 -0.1933
  175MPD1    H5 2727   2.070   4.590  17.149 -2.3668  0.1574  1.2021
  175MPD1    N1 2728   2.037   4.010  17.129 -0.0285  0.2315  0.2992
  175MPD1    H6 2729   1.953   4.004  17.071 -0.5764  1.4295  0.9588
  175MPD1    H7 2730   2.014   3.936  17.195 -0.8098 -1.7340 -2.1988
  176MPD1     C 2731   3.437   1.528  16.891  0.4054  0.2399  0.4092
  176MPD1    C1 2732   3.528   1.628  16.921 -0.2021  0.0446  0.2309
  176MPD1    C2 2733   3.476   1.753  16.955  0.2430 -0.6230  0.1630
  176MPD1    C3 2734   3.339   1.771  16.972 -0.2679 -0.1742 -0.2107
  176MPD1    C4 2735   3.252   1.663  16.954  0.3622 -0.3034  0.2171
  176MPD1    C5 2736   3.300   1.545  16.911 -0.1988 -0.6903  0.4578
  176MPD1     H 2737   3.542   1.838  16.971 -2.3113  0.9166  2.3153
  176MPD1    H1 2738   3.144   1.670  16.954  0.4362  0.8809  0.5938
  176MPD1    H2 2739   3.469   1.430  16.857 -0.9099 -0.6381  1.7031
  176MPD1    H3 2740   3.238   1.464  16.875  0.9790 -0.7435 -1.4173
  176MPD1     N 2741   3.301   1.903  17.006  0.1294 -0.1717  0.6710
  176MPD1    H5 2742   3.374   1.968  17.034 -0.6747  1.5375 -1.2324
  176MPD1    N1 2743   3.668   1.607  16.924 -0.0777  0.6898  0.3258
  176MPD1    H6 2744   3.691   1.534  16.857  0.8307 -0.4867  1.9111
  176MPD1    H7 2745   3.721   1.691  16.902 -1.3718  1.0775 -1.2902
  177MPD1     C 2746   2.374   1.362   9.202  0.1357  0.7843 -0.1529
  177MPD1    C1 2747   2.366   1.497   9.237 -0.1728 -0.0540 -0.3682
  177MPD1    C2 2748   2.256   1.536   9.315 -0.1954  0.0644  0.6391
  177MPD1    C3 2749   2.158   1.451   9.347  0.0841 -0.2743 -0.1043
  177MPD1    C4 2750   2.168   1.316   9.312  0.2464 -0.0088  0.3565
  177MPD1    C5 2751   2.280   1.274   9.244 -0.0642  0.3760  0.8509
  177MPD1     H 2752   2.241   1.638   9.346 -0.5620 -0.1324  1.1063
  177MPD1    H1 2753   2.099   1.236   9.334 -1.0153  0.7893 -0.7706
  177MPD1    H2 2754   2.450   1.317   9.140  2.0525  2.8178  0.6945
  177MPD1    H3 2755   2.289   1.171   9.213  1.3606  0.8437 -0.3241
  177MPD1     N 2756   2.056   1.499   9.434  0.0548  0.5477  0.2097
  177MPD1    H5 2757   2.062   1.596   9.463  1.1204  0.6328 -0.3109
  177MPD1    N1 2758   2.471   1.589   9.220 -0.4477 -0.3756 -0.1269
  177MPD1    H6 2759   2.438   1.683   9.239  1.5739  0.7758 -2.3046
  177MPD1    H7 2760   2.511   1.578   9.127  1.3867  0.4356  0.5732
  178MPD1     C 2761   3.922   3.085  17.579  0.7682 -0.2407 -0.3822
  178MPD1    C1 2762   4.028   2.995  17.614 -0.5811  0.1689 -0.5747
  178MPD1    C2 2763   4.120   2.966  17.510  0.3099  0.6659 -1.0105
  178MPD1    C3 2764   4.112   3.032  17.388  0.0392  0.4837 -0.2943
  178MPD1    C4 2765   4.016   3.126  17.364  0.0329  0.2619  0.7038
  178MPD1    C5 2766   3.923   3.150  17.460 -0.4248 -0.0187 -0.5890
  178MPD1     H 2767   4.200   2.895  17.527  1.4710  2.1806 -0.1176
  178MPD1    H1 2768   4.007   3.172  17.266 -0.9014 -0.2601  0.5419
  178MPD1    H2 2769   3.832   3.095  17.638  2.0554 -1.7156  1.8294
  178MPD1    H3 2770   3.841   3.212  17.426 -0.0616  0.3700 -0.7586
  178MPD1     N 2771   4.195   3.015  17.272  0.8590  0.4552 -0.3434
  178MPD1    H5 2772   4.167   3.071  17.192  2.6254 -2.9173 -3.3397
  178MPD1    N1 2773   4.021   2.915  17.729 -0.2393  0.3561  0.1673
  178MPD1    H6 2774   4.109   2.879   0.020 -0.3423 -0.8017 -0.6942
  178MPD1    H7 2775   3.984   2.977   0.054 -1.5081  1.3532 -1.3735
  179MPD1     C 2776   3.349   2.088  15.836  0.4281  0.2119  0.2332
  179MPD1    C1 2777   3.393   2.063  15.967  0.0220 -0.0941 -0.6483
  179MPD1    C2 2778   3.400   1.930  16.004 -0.0943 -0.0381 -0.2967
  179MPD1    C3 2779   3.375   1.829  15.914  0.8312 -0.1471  0.0139
  179MPD1    C4 2780   3.350   1.857  15.783 -0.2024  0.3378 -0.8988
  179MPD1    C5 2781   3.332   1.986  15.745  0.0522 -0.3804  0.3806
  179MPD1     H 2782   3.432   1.917  16.107  1.0188  2.7151 -0.2748
  179MPD1    H1 2783   3.323   1.774  15.719  1.8851  0.2232 -1.6339
  179MPD1    H2 2784   3.313   2.184  15.798 -0.7201 -0.6241 -0.8108
  179MPD1    H3 2785   3.290   2.009  15.648  0.0660 -0.7107  0.2958
  179MPD1     N 2786   3.376   1.695  15.949 -0.9031  0.3441 -0.2364
  179MPD1    H5 2787   3.365   1.628  15.874  0.9165  0.1780 -0.3552
  179MPD1    N1 2788   3.381   2.160  16.063 -0.4564 -0.0254 -0.2700
  179MPD1    H6 2789   3.418   2.134  16.154 -0.7867  1.4597  0.2830
  179MPD1    H7 2790   3.398   2.255  16.030 -2.0254 -0.1378 -1.4158
  180MPD1     C 2791   3.212   3.140  15.023  0.0850  0.0471 -0.3293
  180MPD1    C1 2792   3.297   3.183  14.923 -0.1657 -0.5649  0.7252
  180MPD1    C2 2793   3.283   3.127  14.800 -0.3482  0.7976 -0.6431
  180MPD1    C3 2794   3.193   3.019  14.779 -0.3144  0.1159  0.0457
  180MPD1    C4 2795   3.110   2.982  14.882 -0.1120  0.2609 -0.0329
  180MPD1    C5 2796   3.126   3.039  15.002  0.0876  0.2485  0.4655
  180MPD1     H 2797   3.345   3.165  14.719  0.8057  1.9918  0.8064
  180MPD1    H1 2798   3.040   2.900  14.867  1.6129 -1.2924  0.4162
  180MPD1    H2 2799   3.215   3.183  15.123  2.0556  1.1780 -0.8717
  180MPD1    H3 2800   3.074   3.004  15.090  1.0287 -0.1880  0.8480
  180MPD1     N 2801   3.191   2.954  14.648  0.1458 -0.2173 -0.1215
  180MPD1    H5 2802   3.269   2.972  14.586 -0.0490 -0.7033 -0.5075
  180MPD1    N1 2803   3.369   3.301  14.945 -0.2804 -0.0979  0.1346
  180MPD1    H6 2804   3.459   3.306  14.897  0.3294  0.5991  1.3649
  180MPD1    H7 2805   3.388   3.324  15.042 -1.7791 -0.5296  0.5407
  181MPD1     C 2806   4.699   4.492  10.820  0.0732  0.7849 -0.0393
  181MPD1    C1 2807   0.037   4.576  10.900  0.5184 -0.1569 -0.8152
  181MPD1    C2 2808   0.145   4.648  10.834 -0.3488  0.0524 -0.0419
  181MPD1    C3 2809   0.174   4.628  10.698  0.3644  0.3256  0.2196
  181MPD1    C4 2810   0.091   4.546  10.628  0.3867  0.2819 -0.6200
  181MPD1    C5 2811   4.718   4.491  10.688 -0.0902  0.3630 -0.5702
  181MPD1     H 2812   0.216   4.704  10.894 -1.5831 -0.6090  2.0232
  181MPD1    H1 2813   0.114   4.516  10.526 -0.5283 -0.0378 -0.7280
  181MPD1    H2 2814   4.613   4.440  10.859  0.3933 -1.0802 -1.8092
  181MPD1    H3 2815   4.650   4.432  10.628  0.2143 -3.9587  3.3854
  181MPD1     N 2816   0.289   4.685  10.636 -0.2253  0.3883  0.1637
  181MPD1    H5 2817   0.300   4.665  10.538  0.6503  0.8407  0.1661
  181MPD1    N1 2818   0.033   4.570  11.044 -0.0462  0.9045  0.0550
  181MPD1    H6 2819   0.084   4.641  11.096  1.8689 -2.3039  2.5715
  181MPD1    H7 2820   4.681   4.539  11.083  0.4355 -0.6191 -0.0569
  182MPD1     C 2821   2.271   2.881   1.367  0.7710 -0.0245 -0.4563
  182MPD1    C1 2822   2.180   2.955   1.296  0.0531  0.2447  0.5943
  182MPD1    C2 2823   2.046   2.938   1.333 -0.2496  0.0784  0.0457
  182MPD1    C3 2824   2.004   2.862   1.441  0.0440 -0.7500  0.1039
  182MPD1    C4 2825   2.100   2.784   1.504  0.1404 -1.3020 -0.1600
  182MPD1    C5 2826   2.236   2.795   1.467 -0.5349 -0.1713 -0.0717
  182MPD1     H 2827   1.972   3.003   1.289  0.4573  1.3856  0.8065
  182MPD1    H1 2828   2.079   2.714   1.583 -0.9167 -0.2523  0.4881
  182MPD1    H2 2829   2.378   2.879   1.352  0.6795  0.1209 -1.1029
  182MPD1    H3 2830   2.308   2.736   1.522  0.1723  1.0818  0.3566
  182MPD1     N 2831   1.876   2.853   1.502  0.3276 -0.1532  0.4227
  182MPD1    H5 2832   1.871   2.819   1.597 -0.1904  0.8940  0.7738
  182MPD1    N1 2833   2.225   3.056   1.210 -0.4974 -0.7656  0.3250
  182MPD1    H6 2834   2.319   3.038   1.173 -0.0889  0.6045  0.6820
  182MPD1    H7 2835   2.155   3.066   1.136 -1.1887 -1.3291  0.9096
  183MPD1     C 2836   1.113   3.217   9.134 -0.1803  0.2289  0.0827
  183MPD1    C1 2837   1.042   3.331   9.128  0.0624  0.0612  0.5479
  183MPD1    C2 2838   1.095   3.446   9.178  0.5459  0.7616 -1.0518
  183MPD1    C3 2839   1.224   3.452   9.223 -0.2769  0.3454 -0.3588
  183MPD1    C4 2840   1.297   3.334   9.227 -0.4030  0.0044 -0.1115
  183MPD1    C5 2841   1.243   3.222   9.173 -0.2504 -0.1523 -0.0293
  183MPD1     H 2842   1.045   3.542   9.182  1.3106  1.0410  2.1342
  183MPD1    H1 2843   1.399   3.330   9.262  0.2302  0.4040 -1.9196
  183MPD1    H2 2844   1.077   3.124   9.091  1.8549 -1.2372  1.5444
  183MPD1    H3 2845   1.295   3.127   9.174 -0.0598 -0.0936 -2.1904
  183MPD1     N 2846   1.275   3.580   9.255 -0.0355  0.4312  0.9373
  183MPD1    H5 2847   1.218   3.664   9.247 -0.2563  0.5275  3.2782
  183MPD1    N1 2848   0.906   3.327   9.094  0.4038  1.0975  0.6336
  183MPD1    H6 2849   0.874   3.420   9.068  1.2251  0.8224 -1.3809
  183MPD1    H7 2850   0.888   3.262   9.018 -0.6888  2.0059  0.1210
  184MPD1     C 2851   0.225   2.755  10.327  0.1083 -0.0613 -0.2115
  184MPD1    C1 2852   0.205   2.859  10.240  0.3954 -0.0730  0.0044
  184MPD1    C2 2853   0.267   2.852  10.118 -0.9063  0.3669  0.2028
  184MPD1    C3 2854   0.347   2.743  10.090 -1.0486 -0.2798  0.3767
  184MPD1    C4 2855   0.356   2.635  10.175  0.5642  0.6405  0.6525
  184MPD1    C5 2856   0.296   2.644  10.292  0.3010  0.0716  0.1233
  184MPD1     H 2857   0.274   2.929  10.043 -0.9880 -1.3332 -1.5411
  184MPD1    H1 2858   0.415   2.547  10.154 -0.1061 -0.2239  2.4251
  184MPD1    H2 2859   0.196   2.761  10.431  2.2526  0.7543  0.3375
  184MPD1    H3 2860   0.309   2.567  10.366  0.3540 -0.1296 -0.0985
  184MPD1     N 2861   0.427   2.741   9.973 -0.0644 -0.3816  0.1750
  184MPD1    H5 2862   0.475   2.653   9.960 -2.0979 -1.5577  0.6409
  184MPD1    N1 2863   0.149   2.987  10.279 -0.3146 -0.3896 -0.1724
  184MPD1    H6 2864   0.083   2.979  10.357 -0.6393 -0.6387 -0.4716
  184MPD1    H7 2865   0.100   3.039  10.207 -0.8300  0.2464  0.6322
  185MPD1     C 2866   0.574   2.829   8.914 -0.3121 -0.3881  0.1872
  185MPD1    C1 2867   0.542   2.941   8.992  0.7400  0.0680  0.3903
  185MPD1    C2 2868   0.544   2.921   9.132 -1.3318 -1.0729  0.5374
  185MPD1    C3 2869   0.574   2.798   9.186 -0.0131 -0.8026  0.6367
  185MPD1    C4 2870   0.607   2.694   9.101 -1.1436 -0.0850  0.0376
  185MPD1    C5 2871   0.605   2.708   8.964  0.0335 -0.7341  0.4115
  185MPD1     H 2872   0.518   3.002   9.198 -2.1398  0.1363 -1.2455
  185MPD1    H1 2873   0.617   2.595   9.144  1.7998  0.4096  0.5083
  185MPD1    H2 2874   0.575   2.847   8.807  0.2805 -0.5846  0.1551
  185MPD1    H3 2875   0.624   2.624   8.899  0.6561 -0.1391 -0.1730
  185MPD1     N 2876   0.585   2.770   9.323  0.1300  0.0291  0.4124
  185MPD1    H5 2877   0.625   2.679   9.341  4.7377  1.9535 -0.0809
  185MPD1    N1 2878   0.527   3.066   8.925 -0.0536 -0.1466 -0.1820
  185MPD1    H6 2879   0.498   3.141   8.988 -1.0435 -1.3169  0.7652
  185MPD1    H7 2880   0.476   3.061   8.837 -1.6275  2.3851  0.5863
  186MPD1     C 2881   4.193   2.178  15.424 -0.1393  0.5044  0.1087
  186MPD1    C1 2882   4.097   2.154  15.527  0.3860  0.1255 -0.6480
  186MPD1    C2 2883   4.140   2.085  15.633  0.7905  0.5193  0.9280
  186MPD1    C3 2884   4.259   2.014  15.635  0.3377  0.0818  0.6235
  186MPD1    C4 2885   4.335   2.023  15.519  0.0588 -0.1049  0.3100
  186MPD1    C5 2886   4.307   2.113  15.421  0.3290  0.2618 -0.5807
  186MPD1     H 2887   4.081   2.084  15.724 -2.2837  1.8488 -1.0439
  186MPD1    H1 2888   4.429   1.969  15.511  0.7685  1.1595 -0.0137
  186MPD1    H2 2889   4.174   2.263  15.359  1.2613 -0.1407 -1.1248
  186MPD1    H3 2890   4.386   2.132  15.349  1.0151 -0.1232  0.0748
  186MPD1     N 2891   4.302   1.932  15.734  0.1768  0.6024  0.7454
  186MPD1    H5 2892   4.388   1.882  15.714  0.1555  1.4280 -1.4462
  186MPD1    N1 2893   3.984   2.234  15.534 -0.1040 -0.5950 -0.0423
  186MPD1    H6 2894   3.953   2.268  15.443 -2.3033  2.1809  1.7644
  186MPD1    H7 2895   3.913   2.192  15.593 -0.8989 -1.4917 -1.6427
  187MPD1     C 2896   3.859   2.941  17.053  0.1832 -0.2369 -0.8708
  187MPD1    C1 2897   3.900   3.057  16.992  0.0340 -0.2498  0.0404
  187MPD1    C2 2898   3.848   3.178  17.033  0.0888 -0.2942  0.1147
  187MPD1    C3 2899   3.734   3.184  17.108  0.7320 -0.7781  1.0015
  187MPD1    C4 2900   3.685   3.067  17.160  0.8899  0.2030  0.1256
  187MPD1    C5 2901   3.756   2.951  17.140  0.9995  0.5075 -0.3557
  187MPD1     H 2902   3.890   3.267  16.986 -0.1981  0.3174  1.0248
  187MPD1    H1 2903   3.596   3.060  17.222  1.6068 -1.7061  0.9423
  187MPD1    H2 2904   3.914   2.847  17.049  0.3601 -0.1707  0.0509
  187MPD1    H3 2905   3.718   2.867  17.198  0.8066  0.3753 -0.6739
  187MPD1     N 2906   3.654   3.300  17.133  0.1299  0.6149 -0.2973
  187MPD1    H5 2907   3.582   3.287  17.203  0.2625  1.1205 -0.0675
  187MPD1    N1 2908   4.013   3.054  16.895 -0.1282  0.1405  0.6520
  187MPD1    H6 2909   4.010   2.964  16.847 -0.5521  0.3478  0.2945
  187MPD1    H7 2910   4.004   3.132  16.831  1.4853  1.7323  2.3523
  188MPD1     C 2911   3.417   3.794  10.058  0.9080 -0.1704 -0.3232
  188MPD1    C1 2912   3.459   3.727  10.168 -0.2284  0.0049  0.3399
  188MPD1    C2 2913   3.389   3.614  10.200 -0.1785 -0.0931  0.2387
  188MPD1    C3 2914   3.269   3.575  10.143 -0.5603 -0.5445 -0.0306
  188MPD1    C4 2915   3.232   3.645  10.031 -0.3584 -0.0957  0.5645
  188MPD1    C5 2916   3.306   3.754   9.990  0.3235 -0.1788 -0.2681
  188MPD1     H 2917   3.439   3.551  10.273 -1.6219  0.7777  1.9787
  188MPD1    H1 2918   3.154   3.622   9.960 -0.7923  1.8285  0.3983
  188MPD1    H2 2919   3.478   3.862   9.999 -0.1316  1.2877  0.3066
  188MPD1    H3 2920   3.282   3.806   9.898  0.0151  1.7198  0.8677
  188MPD1     N 2921   3.188   3.465  10.176  0.7605 -0.5323 -0.3190
  188MPD1    H5 2922   3.115   3.435  10.112  1.5700  0.7022 -1.8447
  188MPD1    N1 2923   3.589   3.738  10.226  0.5935 -0.4181  0.3860
  188MPD1    H6 2924   3.591   3.729  10.327 -1.1269 -0.7960  0.3933
  188MPD1    H7 2925   3.623   3.830  10.199 -1.6311 -0.8678 -4.0269
  189MPD1     C 2926   0.544   4.045  17.676 -0.0205 -0.1044 -0.3896
  189MPD1    C1 2927   0.433   3.968  17.662 -0.0163 -0.3963 -0.3205
  189MPD1    C2 2928   0.319   4.036  17.628  0.5161 -0.0155  0.1323
  189MPD1    C3 2929   0.315   4.167  17.584  0.7065  0.3213  0.8512
  189MPD1    C4 2930   0.438   4.235  17.572 -0.9655 -0.4864 -0.2328
  189MPD1    C5 2931   0.538   4.174  17.630 -1.0694  0.0327 -0.1779
  189MPD1     H 2932   0.226   3.981  17.625 -0.9952  2.5145  0.6677
  189MPD1    H1 2933   0.458   4.332  17.526 -0.2943 -1.2879 -1.6204
  189MPD1    H2 2934   0.642   4.011  17.707  0.1712 -1.4848 -2.5291
  189MPD1    H3 2935   0.638   4.216  17.631 -1.2619  0.4818  0.6123
  189MPD1     N 2936   0.194   4.211  17.545 -0.0621  0.0674  0.1887
  189MPD1    H5 2937   0.109   4.169  17.581 -0.5373  0.1242 -0.8536
  189MPD1    N1 2938   0.426   3.833  17.709  0.1779 -0.7888 -0.3446
  189MPD1    H6 2939   0.342   3.781  17.682 -1.9300  1.6726  1.4961
  189MPD1    H7 2940   0.509   3.775  17.699  0.5031 -0.2612 -0.6712
  190MPD1     C 2941   4.167   2.568  16.279 -0.2926 -0.3728  0.0778
  190MPD1    C1 2942   4.097   2.503  16.178  0.2820  0.0786  0.1761
  190MPD1    C2 2943   4.085   2.570  16.062  0.2058  0.4370  0.3538
  190MPD1    C3 2944   4.175   2.680  16.030 -0.4759 -0.0930  0.0305
  190MPD1    C4 2945   4.247   2.739  16.136  0.1457  0.6037 -1.2984
  190MPD1    C5 2946   4.236   2.679  16.254  0.8080  0.4996  0.1510
  190MPD1     H 2947   4.020   2.526  15.988  0.4715 -1.5187  1.3055
  190MPD1    H1 2948   4.303   2.832  16.132  1.2622  0.0642  2.1555
  190MPD1    H2 2949   4.176   2.520  16.376 -0.0907 -1.5863 -0.5389
  190MPD1    H3 2950   4.304   2.702  16.336  2.2580  2.0657 -1.4933
  190MPD1     N 2951   4.176   2.734  15.901 -0.0299 -0.5392  0.0839
  190MPD1    H5 2952   4.111   2.687  15.841  0.8987  0.9042 -2.0497
  190MPD1    N1 2953   4.016   2.393  16.214  0.2069 -0.3022 -0.0685
  190MPD1    H6 2954   4.062   2.351  16.294  0.2488 -0.7502 -0.3250
  190MPD1    H7 2955   3.998   2.317  16.148  1.3170  1.6960 -2.6692
  191MPD1     C 2956   2.948   4.217  12.795 -0.2456  0.4312  0.3581
  191MPD1    C1 2957   3.043   4.321  12.808  0.8595 -0.7596 -0.0773
  191MPD1    C2 2958   2.994   4.448  12.855 -0.0279  0.1910  0.3916
  191MPD1    C3 2959   2.872   4.456  12.923  0.3334  0.3686  0.1505
  191MPD1    C4 2960   2.796   4.341  12.923 -0.2633  0.7105  0.8033
  191MPD1    C5 2961   2.829   4.223  12.862 -0.7818  0.7508 -0.0501
  191MPD1     H 2962   3.055   4.537  12.844 -1.3055  0.7194 -2.4218
  191MPD1    H1 2963   2.700   4.338  12.973 -0.8328  1.7502 -0.2162
  191MPD1    H2 2964   2.972   4.123  12.746  0.8947 -0.2914  2.3239
  191MPD1    H3 2965   2.760   4.141  12.878 -0.0684  0.1156 -0.2615
  191MPD1     N 2966   2.837   4.591  12.959 -0.2319  0.2379 -0.1100
  191MPD1    H5 2967   2.904   4.656  12.919 -2.3683  1.5522 -1.5376
  191MPD1    N1 2968   3.164   4.317  12.734  0.6498  0.0338  0.4724
  191MPD1    H6 2969   3.228   4.390  12.766  0.9823  0.2911 -0.7927
  191MPD1    H7 2970   3.214   4.229  12.749  1.6552  0.3718 -0.8609
  192MPD1     C 2971   1.970   0.112  13.418 -0.5293 -0.2293 -0.0793
  192MPD1    C1 2972   1.993   0.216  13.326  0.1658 -0.8775 -0.1581
  192MPD1    C2 2973   2.117   0.224  13.267 -0.7540  0.8933 -0.1945
  192MPD1    C3 2974   2.219   0.135  13.296 -0.0691 -1.4851 -0.7759
  192MPD1    C4 2975   2.190   0.039  13.393  0.1705 -0.4942  0.2483
  192MPD1    C5 2976   2.065   0.021  13.448  0.0550  0.5899 -0.2036
  192MPD1     H 2977   2.124   0.294  13.185  0.0538  0.6664 -0.3174
  192MPD1    H1 2978   2.266   4.701  13.411  0.5751 -0.4938 -1.4819
  192MPD1    H2 2979   1.872   0.108  13.465 -0.5612  1.2360 -0.0074
  192MPD1    H3 2980   2.049   4.681  13.523  1.6936 -1.1305 -1.6266
  192MPD1     N 2981   2.339   0.134  13.224 -0.1223 -0.5661  0.1396
  192MPD1    H5 2982   2.401   0.062  13.261  0.3634 -0.4832 -0.5009
  192MPD1    N1 2983   1.883   0.301  13.288  0.9780  0.3959 -0.1676
  192MPD1    H6 2984   1.829   0.328  13.370  0.3879 -0.0728 -0.4075
  192MPD1    H7 2985   1.924   0.385  13.247  3.6914 -1.6665 -1.6659
  193MPD1     C 2986   2.359   4.432  16.981  0.4927  0.3184  1.0050
  193MPD1    C1 2987   2.440   4.496  17.080  0.2911 -0.0592 -0.0338
  193MPD1    C2 2988   2.484   4.620  17.042 -0.5298  0.0425  0.7028
  193MPD1    C3 2989   2.446   4.688  16.928 -0.3961 -0.9756  0.0267
  193MPD1    C4 2990   2.355   4.629  16.843 -0.8207  0.4444 -0.6239
  193MPD1    C5 2991   2.315   4.499  16.869 -0.2035  1.2058 -0.1018
  193MPD1     H 2992   2.557   4.667  17.107  1.1934 -2.1809  0.3483
  193MPD1    H1 2993   2.330   4.670  16.746 -0.4154 -2.0676 -1.8035
  193MPD1    H2 2994   2.324   4.330  16.988 -1.4080  0.8910  0.0096
  193MPD1    H3 2995   2.265   4.434  16.797 -1.3805  2.6191 -0.5588
  193MPD1     N 2996   2.481   0.085  16.907  0.9137 -0.1885  0.3498
  193MPD1    H5 2997   2.459   0.110  16.811 -0.4622 -1.3661  0.3565
  193MPD1    N1 2998   2.484   4.429  17.194  0.5153 -0.2334  0.1696
  193MPD1    H6 2999   2.451   4.336  17.220 -0.0691  0.1559  0.8258
  193MPD1    H7 3000   2.529   4.487  17.265  0.9723 -0.1039 -0.2280
  194MPD1     C 3001   1.958   2.355   0.325 -0.0846  0.4582 -0.4265
  194MPD1    C1 3002   1.991   2.294   0.203  0.3656  0.5477  0.0393
  194MPD1    C2 3003   1.940   2.168   0.183 -0.5860 -0.7983  0.0274
  194MPD1    C3 3004   1.872   2.098   0.282  0.0681  0.0572  0.4154
  194MPD1    C4 3005   1.849   2.156   0.404  0.1387  0.7904  0.1954
  194MPD1    C5 3006   1.891   2.283   0.423  0.1079  0.4172  0.1758
  194MPD1     H 3007   1.949   2.123   0.085  0.5556 -1.6436  0.5216
  194MPD1    H1 3008   1.808   2.108   0.491 -3.3562  1.1405 -1.2641
  194MPD1    H2 3009   1.986   2.455   0.357 -1.4512  0.1933  1.6474
  194MPD1    H3 3010   1.869   2.337   0.514  0.5914 -1.1626  1.2162
  194MPD1     N 3011   1.825   1.970   0.278 -0.5036 -0.3308 -0.3332
  194MPD1    H5 3012   1.765   1.942   0.354 -2.1201  0.6444 -1.2538
  194MPD1    N1 3013   2.055   2.368   0.109  0.0531  0.1695 -0.1865
  194MPD1    H6 3014   2.104   2.310   0.041 -0.5018  0.6982 -1.0402
  194MPD1    H7 3015   2.136   2.405   0.158  0.3610  0.0845 -0.6286
  195MPD1     C 3016   2.698   3.758  17.444  0.4628  0.2473 -0.1426
  195MPD1    C1 3017   2.819   3.705  17.446 -0.6180 -0.6924  0.2136
  195MPD1    C2 3018   2.836   3.591  17.521 -0.0054 -0.8221  2.0058
  195MPD1    C3 3019   2.725   3.506  17.552  0.3502 -0.3051 -0.3959
  195MPD1    C4 3020   2.599   3.555  17.528 -0.3951  0.7895  0.2744
  195MPD1    C5 3021   2.595   3.680  17.477  0.1258 -0.1937 -0.3569
  195MPD1     H 3022   2.938   3.561  17.542  0.8031 -1.1292 -2.4503
  195MPD1    H1 3023   2.510   3.497  17.550  2.1063 -2.8906  0.6828
  195MPD1    H2 3024   2.681   3.853  17.394 -0.7253  0.0301 -0.1511
  195MPD1    H3 3025   2.497   3.724  17.457 -0.5220 -1.7736 -0.6211
  195MPD1     N 3026   2.741   3.382  17.627 -0.7736  0.3143 -0.1774
  195MPD1    H5 3027   2.657   3.329  17.648 -0.3116 -0.4138 -0.1612
  195MPD1    N1 3028   2.930   3.784  17.410 -0.2042  0.4201  0.7474
  195MPD1    H6 3029   2.907   3.856  17.342 -1.1778 -0.6162 -0.0287
  195MPD1    H7 3030   3.013   3.735  17.377  0.3921  1.0938  1.2504
  196MPD1     C 3031   2.746   2.343   0.499  0.7807  0.6324 -0.2175
  196MPD1    C1 3032   2.606   2.339   0.499  0.1898  0.4430  0.3840
  196MPD1    C2 3033   2.540   2.444   0.571 -0.1154 -0.2052  0.5743
  196MPD1    C3 3034   2.606   2.538   0.634 -0.2582 -0.1223 -1.1498
  196MPD1    C4 3035   2.742   2.549   0.620 -0.3995 -0.3612 -0.1976
  196MPD1    C5 3036   2.810   2.452   0.550 -0.6041 -0.3351  0.7151
  196MPD1     H 3037   2.433   2.438   0.583  0.1153 -2.9333  1.2875
  196MPD1    H1 3038   2.782   2.635   0.671  1.0655  0.1644 -2.2434
  196MPD1    H2 3039   2.802   2.260   0.457  0.2871  0.3291 -0.2818
  196MPD1    H3 3040   2.916   2.468   0.535 -0.1234 -1.7730  2.4955
  196MPD1     N 3041   2.548   2.643   0.710 -0.1178  0.3422  0.0707
  196MPD1    H5 3042   2.615   2.702   0.758 -0.7243  0.4284  0.8229
  196MPD1    N1 3043   2.545   2.225   0.459  0.1139  0.0170 -0.0108
  196MPD1    H6 3044   2.601   2.177   0.389  1.3389 -1.0714  1.7188
  196MPD1    H7 3045   2.450   2.253   0.432  0.7786  1.9243 -0.3782
  197MPD1     C 3046   1.941   0.157  17.525 -0.1072 -0.4447 -0.1535
  197MPD1    C1 3047   1.987   0.150  17.395 -0.3651 -0.0622 -0.6920
  197MPD1    C2 3048   1.946   0.248  17.304  0.2442 -0.2862  0.1654
  197MPD1    C3 3049   1.869   0.355  17.338  0.4655 -0.6491 -0.0304
  197MPD1    C4 3050   1.822   0.363  17.475  0.3247 -0.2226  0.4268
  197MPD1    C5 3051   1.861   0.266  17.564 -0.2225 -0.1531 -0.0309
  197MPD1     H 3052   1.976   0.244  17.200  0.5670 -0.5062  0.2648
  197MPD1    H1 3053   1.758   0.444  17.506  1.8604  1.2590 -0.2745
  197MPD1    H2 3054   1.962   0.081  17.599 -0.6070  1.6607  2.1378
  197MPD1    H3 3055   1.830   0.270  17.668  0.4591  1.5073  0.0996
  197MPD1     N 3056   1.831   0.461  17.250  0.5432  0.3397  0.4881
  197MPD1    H5 3057   1.784   0.537  17.296 -1.1660 -0.0162 -0.6852
  197MPD1    N1 3058   2.051   0.025  17.358  0.2373  0.1250 -0.6645
  197MPD1    H6 3059   2.129   0.047  17.297  1.0692  0.4258  0.5208
  197MPD1    H7 3060   2.098   4.717  17.436  1.3459  3.0037  0.3269
  198MPD1     C 3061   3.729   3.718  15.721  0.1033 -0.1800 -0.0072
  198MPD1    C1 3062   3.860   3.702  15.700 -0.1392 -0.1586 -0.4054
  198MPD1    C2 3063   3.946   3.746  15.795  0.3409  0.3206  0.2105
  198MPD1    C3 3064   3.905   3.780  15.924  0.2910  0.0366  0.9075
  198MPD1    C4 3065   3.769   3.788  15.943 -0.5360  0.5850  0.6537
  198MPD1    C5 3066   3.686   3.766  15.837 -0.1464 -0.5843 -0.7715
  198MPD1     H 3067   4.053   3.744  15.776  0.0180  1.6356 -1.7356
  198MPD1    H1 3068   3.724   3.822  16.036 -1.9172 -2.6447  1.1563
  198MPD1    H2 3069   3.659   3.708  15.639  0.1019 -0.3365  0.0134
  198MPD1    H3 3070   3.582   3.778  15.865 -0.1933  1.2401 -1.8081
  198MPD1     N 3071   4.006   3.807  16.014  0.1284 -0.1146 -0.6298
  198MPD1    H5 3072   4.099   3.805  15.973  0.6231 -1.4244  0.5601
  198MPD1    N1 3073   3.908   3.668  15.579 -0.5781 -0.1180  0.0259
  198MPD1    H6 3074   3.999   3.621  15.577 -1.4931 -1.9805  1.8624
  198MPD1    H7 3075   3.846   3.617  15.516  0.5748 -0.4391 -0.8637
  199MPD1     C 3076   1.283   3.581   9.642  0.0055 -0.0715 -0.2505
  199MPD1    C1 3077   1.314   3.683   9.732  0.1455  0.2503 -0.2685
  199MPD1    C2 3078   1.227   3.791   9.729 -0.1975 -0.5000  0.5390
  199MPD1    C3 3079   1.109   3.791   9.659 -0.3932 -0.8786 -0.0444
  199MPD1    C4 3080   1.075   3.682   9.578 -0.2972 -0.0618  0.0929
  199MPD1    C5 3081   1.165   3.584   9.567 -0.2161 -0.2581  0.6990
  199MPD1     H 3082   1.249   3.888   9.772  2.6577 -0.7082 -0.4519
  199MPD1    H1 3083   0.981   3.686   9.525  0.0371  1.6190 -0.3666
  199MPD1    H2 3084   1.354   3.499   9.638 -1.5285 -1.4781  1.1334
  199MPD1    H3 3085   1.139   3.504   9.498 -1.4188 -0.0593  0.9330
  199MPD1     N 3086   1.024   3.904   9.651  0.1831  0.0193  1.0129
  199MPD1    H5 3087   0.956   3.914   9.577  0.0885 -0.0630  1.0896
  199MPD1    N1 3088   1.445   3.685   9.776 -0.6931  0.0110  0.1355
  199MPD1    H6 3089   1.458   3.750   9.854 -2.8095 -0.1558  0.6364
  199MPD1    H7 3090   1.481   3.593   9.798 -1.4433  0.2006  2.1711
  200MPD1     C 3091   0.294   4.487  15.799  0.3098  0.3581 -0.6897
  200MPD1    C1 3092   0.258   4.620  15.830  0.1090 -0.1709 -1.6553
  200MPD1    C2 3093   0.170   4.682  15.746 -0.5490 -0.5651  0.1121
  200MPD1    C3 3094   0.107   4.610  15.645 -0.1606  0.1127 -0.0580
  200MPD1    C4 3095   0.137   4.478  15.628 -0.0438 -0.1430  0.2268
  200MPD1    C5 3096   0.224   4.417  15.708  0.1596  0.2624  0.4393
  200MPD1     H 3097   0.142   0.049  15.764  2.3294  0.3772 -0.8385
  200MPD1    H1 3098   0.082   4.407  15.567 -0.2921  0.2894 -0.0537
  200MPD1    H2 3099   0.375   4.442  15.856  0.2172 -0.3153 -1.0873
  200MPD1    H3 3100   0.240   4.311  15.693  2.6552  1.0411 -2.2995
  200MPD1     N 3101   0.016   4.682  15.566  0.7403 -0.4043  0.4351
  200MPD1    H5 3102   0.006   0.043  15.588  0.9275 -0.9337  2.9541
  200MPD1    N1 3103   0.334   4.704  15.916 -0.7119 -0.0903  0.1854
  200MPD1    H6 3104   0.292   0.050  15.958  0.6371  0.0259  1.3110
  200MPD1    H7 3105   0.402   4.664  15.980  0.1140  1.2857  0.1717
  201MPD1     C 3106   1.752   4.592  12.621  0.8195 -0.0291 -0.2705
  201MPD1    C1 3107   1.701   4.479  12.561 -0.0317 -0.3554  0.3888
  201MPD1    C2 3108   1.771   4.362  12.572 -0.1530  0.0579  0.5287
  201MPD1    C3 3109   1.879   4.360  12.662 -0.2703 -0.3606 -0.0071
  201MPD1    C4 3110   1.923   4.467  12.734  0.3642 -0.6170 -0.4517
  201MPD1    C5 3111   1.855   4.581  12.713 -0.2383 -0.8008 -0.2760
  201MPD1     H 3112   1.741   4.270  12.525  0.6229  0.1787 -0.2026
  201MPD1    H1 3113   2.002   4.460  12.808  1.0826  1.9805 -0.9638
  201MPD1    H2 3114   1.700   4.687  12.611 -2.2218 -1.7070 -0.2342
  201MPD1    H3 3115   1.898   4.670  12.758 -0.4272 -0.7142 -0.2652
  201MPD1     N 3116   1.938   4.230  12.671  0.1227  0.2344 -0.6423
  201MPD1    H5 3117   1.896   4.150  12.626  1.2770 -1.5652  1.4553
  201MPD1    N1 3118   1.591   4.491  12.476  0.2217  0.3002 -0.4656
  201MPD1    H6 3119   1.618   4.487  12.378 -3.9281 -2.1775 -1.4759
  201MPD1    H7 3120   1.538   4.577  12.484 -0.2466  0.0156 -0.5380
  202MPD1     C 3121   2.910   2.852   9.216  0.9690 -0.4663  0.1395
  202MPD1    C1 3122   2.916   2.972   9.149 -0.2066 -0.8076 -0.3358
  202MPD1    C2 3123   2.808   3.051   9.166 -0.3461 -0.2845  0.5657
  202MPD1    C3 3124   2.727   3.050   9.279 -0.6468  0.4740 -0.1124
  202MPD1    C4 3125   2.724   2.930   9.348 -0.1278  0.1613 -0.0993
  202MPD1    C5 3126   2.807   2.828   9.305  0.5676  0.0445  0.8926
  202MPD1     H 3127   2.805   3.146   9.114  0.0489 -0.9169 -0.6112
  202MPD1    H1 3128   2.639   2.920   9.414  1.0137  2.6701  1.7474
  202MPD1    H2 3129   2.971   2.767   9.188 -0.5731 -1.9703  1.3715
  202MPD1    H3 3130   2.792   2.730   9.350  1.0849 -1.5824 -2.5047
  202MPD1     N 3131   2.635   3.153   9.314 -0.1828  0.3543 -0.3285
  202MPD1    H5 3132   2.573   3.138   9.393 -1.0986 -1.4039 -1.3817
  202MPD1    N1 3133   2.977   2.974   9.026  0.0943  0.4607  0.5361
  202MPD1    H6 3134   3.073   2.943   9.033 -0.1046 -0.3878 -0.5180
  202MPD1    H7 3135   2.993   3.070   8.999 -2.4432 -0.2248 -3.5275
  203MPD1     C 3136   0.765   4.541  12.643 -0.3404 -0.0749 -0.2109
  203MPD1    C1 3137   0.804   4.467  12.535 -0.8906  0.4826  0.2445
  203MPD1    C2 3138   0.889   4.361  12.565  0.3814  0.8533 -0.3799
  203MPD1    C3 3139   0.948   4.338  12.687 -0.2706 -0.4258 -0.0519
  203MPD1    C4 3140   0.928   4.436  12.783  0.9145  0.2918 -0.2587
  203MPD1    C5 3141   0.830   4.535  12.762  0.1611 -1.3063  0.2020
  203MPD1     H 3142   0.911   4.292  12.484 -0.1915 -0.6863  0.7764
  203MPD1    H1 3143   0.975   4.427  12.880  0.7739  0.1394 -0.2034
  203MPD1    H2 3144   0.710   4.632  12.625 -1.4319 -0.9044 -1.1322
  203MPD1    H3 3145   0.798   4.606  12.838  0.0412 -0.7672 -0.3545
  203MPD1     N 3146   1.039   4.225  12.714  0.1834 -0.2710  0.4501
  203MPD1    H5 3147   1.031   4.151  12.645 -1.5276 -0.9770  1.3853
  203MPD1    N1 3148   0.739   4.486  12.410  0.0912  0.0664  0.2366
  203MPD1    H6 3149   0.738   4.583  12.379 -0.8717  0.8542  2.7335
  203MPD1    H7 3150   0.800   4.448  12.338 -0.3961 -1.6629  0.7379
  204MPD1     C 3151   0.492   0.590  17.250 -0.7544  0.3917  0.0296
  204MPD1    C1 3152   0.627   0.601  17.245 -0.0794 -0.8133 -0.2633
  204MPD1    C2 3153   0.694   0.605  17.373 -0.2268 -0.2412 -0.0287
  204MPD1    C3 3154   0.627   0.594  17.493  0.4197 -0.1681  0.5423
  204MPD1    C4 3155   0.489   0.584  17.487 -0.3166  0.7348  0.2054
  204MPD1    C5 3156   0.424   0.583  17.370  0.6002 -0.4720 -0.3596
  204MPD1     H 3157   0.803   0.606  17.368 -0.2917 -2.2759 -1.7227
  204MPD1    H1 3158   0.425   0.569  17.573 -1.0935  0.0102 -0.4990
  204MPD1    H2 3159   0.435   0.589  17.158  0.5349 -0.0494 -0.7761
  204MPD1    H3 3160   0.316   0.577  17.366  0.6392 -0.8893 -0.7649
  204MPD1     N 3161   0.702   0.587  17.611 -0.4088  0.5688 -0.3445
  204MPD1    H5 3162   0.804   0.586  17.610 -0.4080  0.3732  0.3568
  204MPD1    N1 3163   0.701   0.583  17.125  0.7269  0.1320 -0.1000
  204MPD1    H6 3164   0.798   0.613  17.127  0.0168  2.5332 -1.2912
  204MPD1    H7 3165   0.655   0.610  17.038 -1.7758  0.4265  1.3362
  205MPD1     C 3166   0.963   3.663  17.580  0.2984 -0.7488 -0.4749
  205MPD1    C1 3167   0.924   3.795  17.568  0.6415 -0.0038 -0.3575
  205MPD1    C2 3168   0.932   3.873  17.677 -0.2286 -0.2108  0.4667
  205MPD1    C3 3169   0.989   3.830   0.048 -0.5404 -0.0006  0.2069
  205MPD1    C4 3170   1.032   3.707   0.059 -0.1163 -0.3489  0.4957
  205MPD1    C5 3171   1.025   3.622  17.695  0.3507 -0.0338  0.1782
  205MPD1     H 3172   0.877   3.966  17.673  0.3615  0.2048  1.9534
  205MPD1    H1 3173   1.074   3.675   0.154  1.1531  0.5261  0.2253
  205MPD1    H2 3174   0.957   3.596  17.495 -1.0479  0.1497 -1.0964
  205MPD1    H3 3175   1.062   3.520  17.700  0.6473  0.1225  1.0912
  205MPD1     N 3176   0.993   3.913   0.165 -0.4558 -0.5800  0.4747
  205MPD1    H5 3177   1.022   3.875   0.255 -1.9029 -1.6338  0.4951
  205MPD1    N1 3178   0.845   3.826  17.457 -0.0528 -0.4825 -0.7893
  205MPD1    H6 3179   0.865   3.784  17.367  0.3444  0.2261 -1.0319
  205MPD1    H7 3180   0.836   3.926  17.444 -0.6087 -0.6241 -1.4941
  206MPD1     C 3181   0.932   1.442  16.623  0.6788 -0.9668 -0.2490
  206MPD1    C1 3182   1.027   1.533  16.592 -0.0075 -0.3526 -0.1328
  206MPD1    C2 3183   0.996   1.647  16.508 -0.4318  0.0581  0.1979
  206MPD1    C3 3184   0.878   1.653  16.437 -0.5975 -0.0190  0.0433
  206MPD1    C4 3185   0.789   1.555  16.460 -0.0826 -0.2628  0.5511
  206MPD1    C5 3186   0.812   1.457  16.558 -0.0406 -0.6834 -0.3705
  206MPD1     H 3187   1.072   1.723  16.493  1.7899 -1.9916  1.0744
  206MPD1    H1 3188   0.695   1.552  16.407 -0.8455 -0.5626  1.9285
  206MPD1    H2 3189   0.943   1.370  16.703  1.2450 -0.6578 -0.0474
  206MPD1    H3 3190   0.739   1.378  16.573 -1.9185  1.2533  0.7547
  206MPD1     N 3191   0.847   1.738  16.333  0.7400  0.2811  0.0574
  206MPD1    H5 3192   0.760   1.714  16.288 -0.5442  3.4441  0.8456
  206MPD1    N1 3193   1.144   1.536  16.668  0.6636  0.5025  0.4208
  206MPD1    H6 3194   1.224   1.584  16.627 -1.2330  1.2337 -2.4467
  206MPD1    H7 3195   1.184   1.446  16.692  0.8629  0.5970  0.4447
  207MPD1     C 3196   2.823   0.067   9.456  0.0983  0.4446 -0.1389
  207MPD1    C1 3197   2.837   0.204   9.486 -0.0876  0.0266  0.2611
  207MPD1    C2 3198   2.902   0.244   9.600  0.2285  1.1378  0.2079
  207MPD1    C3 3199   2.977   0.153   9.665  0.4905  0.4984  0.8118
  207MPD1    C4 3200   2.978   0.019   9.630  0.2056 -0.1518  0.0838
  207MPD1    C5 3201   2.893   4.713   9.528 -0.2427 -0.6058 -0.1832
  207MPD1     H 3202   2.893   0.348   9.628 -1.0077  1.4884 -1.4957
  207MPD1    H1 3203   3.036   4.686   9.688  0.6764 -2.0504 -2.6549
  207MPD1    H2 3204   2.761   0.033   9.374 -1.9844 -0.3946  1.7882
  207MPD1    H3 3205   2.879   4.612   9.491  0.6353 -1.1783  1.0348
  207MPD1     N 3206   3.036   0.182   9.788 -0.8550 -0.0802  0.0291
  207MPD1    H5 3207   3.061   0.109   9.854  1.2924  1.7718  1.2653
  207MPD1    N1 3208   2.760   0.301   9.417  0.2935 -0.1987 -0.2892
  207MPD1    H6 3209   2.731   0.274   9.323 -2.3333 -0.1886  0.5249
  207MPD1    H7 3210   2.788   0.399   9.420  0.7082 -0.3058 -0.6111
  208MPD1     C 3211   1.433   2.768   0.609  0.2830  0.2032  0.4612
  208MPD1    C1 3212   1.357   2.710   0.706 -0.4017  0.3291 -0.4130
  208MPD1    C2 3213   1.265   2.790   0.774  0.0620 -0.4373  0.0181
  208MPD1    C3 3214   1.215   2.904   0.720  0.1353 -0.3500  0.0147
  208MPD1    C4 3215   1.278   2.952   0.607 -0.2608 -0.0156  0.1119
  208MPD1    C5 3216   1.397   2.894   0.575  0.0996  0.4143  0.4863
  208MPD1     H 3217   1.221   2.748   0.864 -1.4430  1.5221  0.2173
  208MPD1    H1 3218   1.256   3.047   0.560  1.2298  0.9160  1.2725
  208MPD1    H2 3219   1.519   2.723   0.558 -0.0493 -0.8528  0.8277
  208MPD1    H3 3220   1.458   2.940   0.497 -2.8802 -0.4426 -2.3650
  208MPD1     N 3221   1.103   2.970   0.776  0.3471  0.3345 -0.0210
  208MPD1    H5 3222   1.067   2.921   0.858  1.6543 -0.5158  0.0350
  208MPD1    N1 3223   1.393   2.588   0.760 -0.1468 -0.1016 -0.0864
  208MPD1    H6 3224   1.310   2.554   0.809  0.0920  1.4883  1.4017
  208MPD1    H7 3225   1.423   2.519   0.691 -1.6322 -0.5668 -0.2656
  209MPD1     C 3226   3.390   3.583  11.055 -0.5558  0.1835 -0.2468
  209MPD1    C1 3227   3.388   3.667  11.162  0.9511  0.3515 -0.2782
  209MPD1    C2 3228   3.392   3.801  11.134  0.0048 -0.2135 -0.1305
  209MPD1    C3 3229   3.381   3.851  11.001 -0.5026  0.6586  0.7096
  209MPD1    C4 3230   3.354   3.762  10.897  0.4425 -0.3382 -0.3354
  209MPD1    C5 3231   3.367   3.631  10.932 -0.2934  0.5381 -0.1880
  209MPD1     H 3232   3.407   3.873  11.214  1.9193 -1.5145  0.6869
  209MPD1    H1 3233   3.334   3.789  10.794 -1.5565  1.0285  0.4099
  209MPD1    H2 3234   3.386   3.475  11.060  0.8895  0.0825 -1.1042
  209MPD1    H3 3235   3.351   3.557  10.855  0.3938  1.6451 -1.3945
  209MPD1     N 3236   3.381   3.991  10.991 -0.1025  0.0426 -0.4764
  209MPD1    H5 3237   3.396   4.046  11.075 -0.5428 -1.2424  0.4256
  209MPD1    N1 3238   3.403   3.610  11.293 -0.8707  0.4172  0.4511
  209MPD1    H6 3239   3.390   3.509  11.297  0.1105  0.2843  0.3111
  209MPD1    H7 3240   3.365   3.660  11.373 -1.7596  2.1756 -1.0706
  210MPD1     C 3241   3.269   0.163  11.412  0.0610 -0.1636 -0.0541
  210MPD1    C1 3242   3.314   0.035  11.445 -0.2815 -0.6479  0.1651
  210MPD1    C2 3243   3.317   4.684  11.340 -0.3145  1.2085  0.0006
  210MPD1    C3 3244   3.250   4.699  11.221 -0.6951 -0.6538 -0.3723
  210MPD1    C4 3245   3.195   0.088  11.199 -0.2591 -0.0383 -0.3316
  210MPD1    C5 3246   3.214   0.190  11.287 -0.2403 -0.3844  0.5067
  210MPD1     H 3247   3.377   4.596  11.362 -2.4424 -0.5725 -1.2708
  210MPD1    H1 3248   3.161   0.124  11.102  2.5777  1.1753 -0.8894
  210MPD1    H2 3249   3.271   0.246  11.482  1.9213 -0.7189  0.5496
  210MPD1    H3 3250   3.171   0.287  11.262  3.5797  0.6461 -2.0499
  210MPD1     N 3251   3.245   4.604  11.124  0.0141  0.1290  0.9044
  210MPD1    H5 3252   3.181   4.628  11.049 -0.8732  0.0534  1.6350
  210MPD1    N1 3253   3.381   0.014  11.563 -0.2499  0.0869 -0.6531
  210MPD1    H6 3254   3.333   0.074  11.630  1.3796 -0.4758  1.0198
  210MPD1    H7 3255   3.360   4.662  11.608  0.2874 -0.7715 -2.1007
  211MPD1     C 3256   1.317   3.933  17.055 -0.7909  0.4707  0.3310
  211MPD1    C1 3257   1.279   3.827  16.979  0.1858 -0.0192 -0.9065
  211MPD1    C2 3258   1.243   3.845  16.844  0.4563  0.6733  0.1707
  211MPD1    C3 3259   1.261   3.967  16.788 -0.5743  0.1808  0.0148
  211MPD1    C4 3260   1.307   4.074  16.865  0.0169 -0.2980 -0.4791
  211MPD1    C5 3261   1.335   4.054  16.997 -0.1231 -0.0637  0.2802
  211MPD1     H 3262   1.185   3.772  16.789  0.8331  0.7903 -0.3773
  211MPD1    H1 3263   1.302   4.174  16.823  1.5045  0.6438  1.5834
  211MPD1    H2 3264   1.341   3.928  17.161  0.5380 -2.1982 -0.0922
  211MPD1    H3 3265   1.364   4.141  17.054 -1.0182 -1.5170  2.9806
  211MPD1     N 3266   1.226   3.991  16.652 -0.0313  0.2770  0.1765
  211MPD1    H5 3267   1.175   3.918  16.603  0.2845  0.1201  0.0779
  211MPD1    N1 3268   1.244   3.706  17.042  0.2984 -0.6278 -0.1399
  211MPD1    H6 3269   1.304   3.689  17.123  1.6243 -0.7520 -1.1369
  211MPD1    H7 3270   1.237   3.622  16.985  2.6241  0.0258 -1.4040
  212MPD1     C 3271   0.401   2.461  16.233 -0.4231 -0.4983  0.6966
  212MPD1    C1 3272   0.329   2.507  16.341 -0.9593 -0.1022  0.1736
  212MPD1    C2 3273   0.270   2.413  16.429 -1.0154  0.1975  0.0492
  212MPD1    C3 3274   0.298   2.275  16.414  0.1373 -0.4246 -0.1224
  212MPD1    C4 3275   0.382   2.237  16.305  0.1455 -0.0348  0.0772
  212MPD1    C5 3276   0.422   2.330  16.212  0.2495 -0.0104 -0.3706
  212MPD1     H 3277   0.204   2.452  16.506  0.5486  2.3683  0.3026
  212MPD1    H1 3278   0.410   2.135  16.283 -0.7130 -0.2626  0.0473
  212MPD1    H2 3279   0.439   2.535  16.164 -2.4696 -0.2149 -0.1119
  212MPD1    H3 3280   0.477   2.299  16.124  1.4458  2.0444 -0.3324
  212MPD1     N 3281   0.242   2.171  16.494 -0.1513  0.0028  0.3013
  212MPD1    H5 3282   0.266   2.075  16.471  1.4215 -0.2223  2.8376
  212MPD1    N1 3283   0.298   2.642  16.337  0.1242 -0.4930  0.0995
  212MPD1    H6 3284   0.285   2.684  16.429  0.4060 -0.8377  0.2937
  212MPD1    H7 3285   0.370   2.699  16.293 -0.1105 -0.8721 -0.7649
  213MPD1     C 3286   2.591   2.446  14.862  0.4745  0.2773 -0.2733
  213MPD1    C1 3287   2.712   2.486  14.901 -0.5407  1.0408  0.2833
  213MPD1    C2 3288   2.716   2.616  14.949  0.1200 -0.9214 -0.4548
  213MPD1    C3 3289   2.605   2.689  14.968 -0.3445 -0.2236  0.6949
  213MPD1    C4 3290   2.486   2.645  14.926  0.1008  0.0600 -0.1080
  213MPD1    C5 3291   2.487   2.532  14.855  0.7619 -0.4235 -0.4288
  213MPD1     H 3292   2.812   2.657  14.980 -2.0690  2.2669  2.1472
  213MPD1    H1 3293   2.394   2.701  14.942  0.5523  0.4149  1.3400
  213MPD1    H2 3294   2.575   2.352  14.810 -3.6337  1.0161 -0.3309
  213MPD1    H3 3295   2.391   2.502  14.815  0.4918 -0.1696  0.0266
  213MPD1     N 3296   2.614   2.809  15.043 -0.2953  0.1997 -0.3275
  213MPD1    H5 3297   2.709   2.824  15.077 -1.0060  1.9537  0.8665
  213MPD1    N1 3298   2.827   2.426  14.851  0.5676 -0.5615 -0.1038
  213MPD1    H6 3299   2.828   2.327  14.830  0.3758 -1.0241  2.0412
  213MPD1    H7 3300   2.909   2.452  14.906  0.8770  2.1871 -1.8962
  214MPD1     C 3301   1.889   3.247  15.643  0.0731 -0.6721  0.2595
  214MPD1    C1 3302   1.952   3.347  15.572  0.2999 -0.2440  0.4809
  214MPD1    C2 3303   2.079   3.321  15.508 -0.4267 -0.7950 -0.3397
  214MPD1    C3 3304   2.133   3.194  15.507  0.0959 -0.9365 -0.2751
  214MPD1    C4 3305   2.067   3.098  15.584  0.6486 -0.5583  0.1484
  214MPD1    C5 3306   1.953   3.128  15.648  0.1075 -0.4416 -0.1194
  214MPD1     H 3307   2.129   3.407  15.466  1.0962 -0.8272  1.3644
  214MPD1    H1 3308   2.089   2.992  15.594 -1.0177 -0.7812  1.3591
  214MPD1    H2 3309   1.801   3.274  15.701  1.8243  1.6845  1.8184
  214MPD1    H3 3310   1.905   3.041  15.693 -1.1071 -0.7987 -2.1037
  214MPD1     N 3311   2.251   3.161  15.436 -0.4180  0.4329  0.0617
  214MPD1    H5 3312   2.274   3.062  15.441  1.1655  0.6606 -2.9957
  214MPD1    N1 3313   1.910   3.478  15.598 -0.1078 -0.8594  0.3275
  214MPD1    H6 3314   1.936   3.541  15.522 -0.0201 -1.3394 -0.0417
  214MPD1    H7 3315   1.809   3.484  15.609  0.0391  0.0029  1.2779
  215MPD1     C 3316   2.638   3.760  11.301  0.0158  1.1151  0.1126
  215MPD1    C1 3317   2.593   3.844  11.399 -0.0784 -0.1570 -0.4174
  215MPD1    C2 3318   2.626   3.975  11.385  0.1307  0.0976 -0.0653
  215MPD1    C3 3319   2.708   4.027  11.288 -0.3977  0.1537 -0.1183
  215MPD1    C4 3320   2.750   3.937  11.186 -0.8645  0.5583  0.7101
  215MPD1    C5 3321   2.713   3.809  11.196  1.2133  0.1142  0.6929
  215MPD1     H 3322   2.577   4.040  11.455 -2.6964 -0.5729 -1.4066
  215MPD1    H1 3323   2.809   3.961  11.099 -2.4684  0.6962 -0.3432
  215MPD1    H2 3324   2.620   3.653  11.300 -0.8260  1.2764 -1.4513
  215MPD1    H3 3325   2.754   3.731  11.134 -0.6958  1.7773 -2.6469
  215MPD1     N 3326   2.728   4.162  11.279  0.1613  0.0769  0.8752
  215MPD1    H5 3327   2.697   4.205  11.366  1.7829  0.7699  1.1106
  215MPD1    N1 3328   2.496   3.806  11.494  0.6261  0.1634  0.7389
  215MPD1    H6 3329   2.506   3.854  11.583 -2.9856  0.8587  0.7760
  215MPD1    H7 3330   2.512   3.707  11.510  0.2853 -0.1296 -0.7916
  216MPD1     C 3331   1.309   1.431  16.924  0.2378  0.2219  0.1267
  216MPD1    C1 3332   1.245   1.332  16.854 -0.1644 -0.6273 -0.5899
  216MPD1    C2 3333   1.143   1.267  16.925  0.9979  0.6610 -0.2735
  216MPD1    C3 3334   1.103   1.299  17.054 -0.6284 -0.9327  0.2070
  216MPD1    C4 3335   1.158   1.409  17.114 -0.0139 -0.8163  0.5381
  216MPD1    C5 3336   1.259   1.469  17.047  0.7289 -0.3251  0.5209
  216MPD1     H 3337   1.103   1.173  16.889 -2.2551  2.7070 -2.0832
  216MPD1    H1 3338   1.126   1.447  17.210  1.2241  0.6739  0.3711
  216MPD1    H2 3339   1.400   1.480  16.892 -0.1739  0.7499 -0.2378
  216MPD1    H3 3340   1.313   1.548  17.097  2.5247 -1.4610  0.3737
  216MPD1     N 3341   1.005   1.219  17.121  0.0577 -0.2557 -0.1580
  216MPD1    H5 3342   0.978   1.141  17.064  0.2765  0.6479 -1.4901
  216MPD1    N1 3343   1.315   1.274  16.746  0.1263 -0.4055  0.0981
  216MPD1    H6 3344   1.375   1.340  16.696 -0.0905  0.9260  1.6007
  216MPD1    H7 3345   1.260   1.211  16.689 -2.0365  0.7791  0.8679
  217MPD1     C 3346   0.019   3.128   8.997  0.1444 -0.0107  0.0093
  217MPD1    C1 3347   4.698   3.212   9.090  0.8388  0.6652  0.0723
  217MPD1    C2 3348   0.038   3.266   9.189  0.1889 -0.3386  0.2976
  217MPD1    C3 3349   0.154   3.201   9.226  0.0717 -0.0291 -0.3946
  217MPD1    C4 3350   0.203   3.103   9.143  0.3482 -1.0237  0.0217
  217MPD1    C5 3351   0.138   3.071   9.027  0.4384 -0.3894  0.0570
  217MPD1     H 3352   0.000   3.344   9.255  1.6552 -1.0430  1.9707
  217MPD1    H1 3353   0.300   3.057   9.162  2.1799  2.6747 -0.2271
  217MPD1    H2 3354   4.698   3.095   8.912  0.7940 -0.6340 -0.1870
  217MPD1    H3 3355   0.182   3.011   8.949  0.7369 -0.7291  0.4853
  217MPD1     N 3356   0.234   3.236   9.339 -0.5770  0.3781  0.5159
  217MPD1    H5 3357   0.315   3.175   9.347 -0.8181 -0.2736 -2.0259
  217MPD1    N1 3358   4.574   3.272   9.053  0.4484 -0.2175  0.0452
  217MPD1    H6 3359   4.515   3.291   9.134  1.0567  0.3542  0.3508
  217MPD1    H7 3360   4.528   3.210   8.987 -0.8493 -2.7989  3.3840
  218MPD1     C 3361   1.976   0.172  12.923  0.4283  0.4846  0.6417
  218MPD1    C1 3362   2.048   0.232  12.818 -0.0396  0.3768  0.2898
  218MPD1    C2 3363   2.161   0.163  12.776  0.1205  0.7475 -0.2411
  218MPD1    C3 3364   2.215   0.055  12.843 -0.0016 -0.0097  0.8732
  218MPD1    C4 3365   2.150   0.006  12.948  0.8096  0.6194 -0.8287
  218MPD1    C5 3366   2.035   0.067  12.986  0.4549 -0.1476  0.2250
  218MPD1     H 3367   2.214   0.199  12.689  1.7012 -2.3835 -0.5702
  218MPD1    H1 3368   2.183   4.661  13.011  0.9938  0.6014 -0.9493
  218MPD1    H2 3369   1.894   0.221  12.974  1.3966  1.0520  1.6318
  218MPD1    H3 3370   1.987   0.018  13.070 -1.0817  1.1711  0.1148
  218MPD1     N 3371   2.332   4.729  12.782 -0.5229 -0.1950 -0.5208
  218MPD1    H5 3372   2.376   0.046  12.708  0.2586 -0.8496 -0.5278
  218MPD1    N1 3373   1.995   0.344  12.744 -0.4919 -0.1017  0.3019
  218MPD1    H6 3374   1.934   0.397  12.806 -0.0216  1.4668 -0.5790
  218MPD1    H7 3375   2.068   0.412  12.723 -0.4615 -0.5112 -0.9082
  219MPD1     C 3376   3.328   0.039  12.528  0.1691  0.2621  0.8898
  219MPD1    C1 3377   3.302   4.642  12.503 -0.0519 -0.2613 -0.1515
  219MPD1    C2 3378   3.174   4.598  12.536 -0.9735  0.6758 -0.3689
  219MPD1    C3 3379   3.068   4.676  12.574  0.1926  0.2775 -0.4323
  219MPD1    C4 3380   3.097   0.067  12.598 -0.2288  0.8695  0.4241
  219MPD1    C5 3381   3.224   0.114  12.574 -0.3659 -0.0355  0.0890
  219MPD1     H 3382   3.151   4.493  12.530 -1.5538  0.8655 -1.5837
  219MPD1    H1 3383   3.023   0.143  12.621 -0.3025  0.0753  2.7447
  219MPD1    H2 3384   3.422   0.092  12.515  0.8138 -0.6445  1.8010
  219MPD1    H3 3385   3.245   0.218  12.593 -1.5864  0.6972 -2.5376
  219MPD1     N 3386   2.942   4.615  12.586  0.2221  0.3192 -0.0532
  219MPD1    H5 3387   2.929   4.517  12.562 -2.2073  0.6914 -0.2485
  219MPD1    N1 3388   3.400   4.540  12.480  0.3581 -0.3387 -0.8770
  219MPD1    H6 3389   3.480   4.570  12.425  0.8000 -0.5936 -0.3688
  219MPD1    H7 3390   3.360   4.456  12.439 -2.3147  0.8988 -0.8280
  220MPD1     C 3391   2.321   0.283   9.528 -0.2724  0.0749 -0.0659
  220MPD1    C1 3392   2.444   0.277   9.582 -0.3122  0.6569  0.5962
  220MPD1    C2 3393   2.488   0.198   9.686 -0.2127  0.5258  0.0594
  220MPD1    C3 3394   2.399   0.104   9.735  0.3737 -0.2160 -0.3301
  220MPD1    C4 3395   2.272   0.109   9.682  0.0631  0.2673 -0.3079
  220MPD1    C5 3396   2.232   0.202   9.587 -0.1799  0.5093 -0.7718
  220MPD1     H 3397   2.589   0.199   9.727 -0.8919  0.8088  1.7334
  220MPD1    H1 3398   2.189   0.050   9.721  0.4004  0.1787  0.2785
  220MPD1    H2 3399   2.290   0.361   9.460 -5.2947 -2.0152 -0.1837
  220MPD1    H3 3400   2.128   0.208   9.556 -0.0384  1.9523 -0.9661
  220MPD1     N 3401   2.433   0.024   9.850  0.2886  0.7561 -0.0018
  220MPD1    H5 3402   2.508   0.056   9.910  1.5063  1.4329 -1.8862
  220MPD1    N1 3403   2.527   0.372   9.536  0.0344 -0.2544 -0.1006
  220MPD1    H6 3404   2.625   0.344   9.531  0.0803 -0.2771  1.0698
  220MPD1    H7 3405   2.502   0.416   9.448  0.0836  0.2108  0.1197
  221MPD1     C 3406   0.898   3.560  16.535  0.3579  0.1754  0.1058
  221MPD1    C1 3407   0.984   3.499  16.629 -0.4209 -0.5656 -0.5327
  221MPD1    C2 3408   1.061   3.389  16.580 -0.0690  0.3632  0.1145
  221MPD1    C3 3409   1.037   3.346  16.453  0.7772 -0.3109 -0.3790
  221MPD1    C4 3410   0.945   3.401  16.368  0.2448  0.0527 -0.0410
  221MPD1    C5 3411   0.873   3.507  16.409 -0.2760 -0.4558  0.2792
  221MPD1     H 3412   1.141   3.353  16.645 -0.2723  0.1357  0.2389
  221MPD1    H1 3413   0.933   3.369  16.265 -0.2922  0.6593 -0.1594
  221MPD1    H2 3414   0.832   3.643  16.556  0.3718  0.1787  0.1365
  221MPD1    H3 3415   0.793   3.554  16.353  0.1698  2.0065  1.7028
  221MPD1     N 3416   1.105   3.240  16.394  0.0558 -0.1809  0.3959
  221MPD1    H5 3417   1.070   3.213  16.303  1.4945  0.4557 -0.3422
  221MPD1    N1 3418   1.017   3.568  16.746  0.6571  0.1758 -0.9604
  221MPD1    H6 3419   1.042   3.506  16.823  1.6795  0.4044 -1.1014
  221MPD1    H7 3420   0.940   3.623  16.784  2.6258  0.8693  2.0538
  222MPD1     C 3421   4.706   1.174  16.960  0.4276 -0.1894 -0.0748
  222MPD1    C1 3422   4.696   1.306  16.970  0.0123  0.0784  0.2139
  222MPD1    C2 3423   4.670   1.375  17.090  0.4857 -0.0290 -0.2615
  222MPD1    C3 3424   4.654   1.300  17.204 -0.3842 -0.0499  0.1105
  222MPD1    C4 3425   4.660   1.166  17.189 -1.2163  0.2346  0.4329
  222MPD1    C5 3426   4.678   1.100  17.070 -0.1898  0.4028  0.4900
  222MPD1     H 3427   4.659   1.482  17.096  0.1305 -0.1083  0.5075
  222MPD1    H1 3428   4.648   1.108  17.280 -1.6613  0.1027  0.2890
  222MPD1    H2 3429   4.728   1.121  16.868  0.6559  0.7544 -0.5623
  222MPD1    H3 3430   4.680   0.992  17.056 -2.3170  0.5213 -0.7179
  222MPD1     N 3431   4.648   1.347  17.336  0.0120 -0.0659  0.2056
  222MPD1    H5 3432   4.652   1.278  17.410  1.2226 -0.4794 -0.2507
  222MPD1    N1 3433   0.016   1.373  16.857 -0.1625  0.2887  0.0530
  222MPD1    H6 3434   0.005   1.474  16.852 -2.5668  0.0876  1.3132
  222MPD1    H7 3435   4.713   1.341  16.769 -2.1032  2.0920  0.2876
  223MPD1     C 3436   0.124   1.009   0.355 -0.5049  0.1395 -0.0433
  223MPD1    C1 3437   4.733   1.023   0.309  0.0648  0.3835 -0.3558
  223MPD1    C2 3438   4.709   1.116   0.208 -0.1670 -0.1510 -0.8925
  223MPD1    C3 3439   0.072   1.206   0.172 -0.5330  0.0828  0.2513
  223MPD1    C4 3440   0.189   1.205   0.234 -0.3875 -0.3316  0.5912
  223MPD1    C5 3441   0.222   1.103   0.323  0.0993  0.3114 -0.6535
  223MPD1     H 3442   4.612   1.143   0.167 -0.0047 -0.1523 -1.2723
  223MPD1    H1 3443   0.270   1.271   0.205 -0.7586  0.4256  1.2740
  223MPD1    H2 3444   0.157   0.934   0.425 -1.7123 -0.9255 -0.6051
  223MPD1    H3 3445   0.318   1.103   0.372  0.1842 -0.8293 -0.8176
  223MPD1     N 3446   0.046   1.305   0.071  0.7602  0.4457  0.3459
  223MPD1    H5 3447   4.705   1.294   0.006 -0.3121  2.0362  1.3501
  223MPD1    N1 3448   4.634   0.932   0.343 -0.2670 -0.2996 -0.2732
  223MPD1    H6 3449   4.544   0.977   0.334  1.4184  3.1968  0.1458
  223MPD1    H7 3450   4.643   0.908   0.442 -0.4143 -1.0625 -0.4416
  224MPD1     C 3451   0.368   3.699   9.418  0.1929 -0.5626  0.2180
  224MPD1    C1 3452   0.328   3.795   9.499  0.1587 -0.2679  0.1455
  224MPD1    C2 3453   0.396   3.833   9.617 -0.3051  0.5280 -0.5311
  224MPD1    C3 3454   0.510   3.758   9.651 -0.2402  0.5953 -0.4033
  224MPD1    C4 3455   0.546   3.645   9.571 -0.4539 -0.7507  0.3837
  224MPD1    C5 3456   0.478   3.621   9.449 -0.4812  0.7567 -0.6283
  224MPD1     H 3457   0.359   3.905   9.689 -0.1241  1.4010 -1.2985
  224MPD1    H1 3458   0.622   3.576   9.604  0.5550 -2.3002 -5.1944
  224MPD1    H2 3459   0.307   3.676   9.332 -0.7601  4.2900 -0.3917
  224MPD1    H3 3460   0.508   3.536   9.388 -0.5572 -0.0150  0.4108
  224MPD1     N 3461   0.581   3.773   9.767 -0.2645  0.3326 -0.4365
  224MPD1    H5 3462   0.652   3.704   9.787  0.0229  0.2917 -1.6026
  224MPD1    N1 3463   0.205   3.861   9.471  0.3200  0.2670  0.8555
  224MPD1    H6 3464   0.215   3.960   9.494 -0.8738  0.2570  1.4000
  224MPD1    H7 3465   0.164   3.846   9.380  2.9267  0.1971 -0.3115
  225MPD1     C 3466   2.829   1.064  11.906 -0.3480  0.1970  0.1100
  225MPD1    C1 3467   2.700   1.056  11.858 -0.1117  0.5846  0.3396
  225MPD1    C2 3468   2.616   0.955  11.907 -0.6125  0.6037  0.0964
  225MPD1    C3 3469   2.663   0.865  12.005 -0.3751  1.1344 -0.5445
  225MPD1    C4 3470   2.789   0.883  12.057 -0.6322 -0.1018 -0.2465
  225MPD1    C5 3471   2.869   0.986  12.014  0.4365  0.2431  0.8912
  225MPD1     H 3472   2.515   0.961  11.868 -0.9295  0.5828  0.9205
  225MPD1    H1 3473   2.822   0.822  12.141 -2.0197 -0.1152  0.2856
  225MPD1    H2 3474   2.896   1.141  11.870 -1.5766  0.8304 -0.8089
  225MPD1    H3 3475   2.971   0.993  12.047  0.4391  1.0637  0.7130
  225MPD1     N 3476   2.577   0.776  12.073  0.2243 -0.6506  0.2469
  225MPD1    H5 3477   2.611   0.736  12.160 -0.5885 -0.7970  0.4892
  225MPD1    N1 3478   2.647   1.160  11.770 -0.1411  0.1815  0.0248
  225MPD1    H6 3479   2.547   1.164  11.752 -0.2794  1.0158  0.9693
  225MPD1    H7 3480   2.688   1.252  11.787  0.6197 -0.3780  1.2542
  226MPD1     C 3481   0.644   4.044   8.711  0.3529 -0.8518  0.3666
  226MPD1    C1 3482   0.733   4.030   8.816 -0.5359  0.8990 -0.4821
  226MPD1    C2 3483   0.716   4.115   8.924 -0.0416 -0.9307 -0.4127
  226MPD1    C3 3484   0.601   4.194   8.936  0.9240 -0.1491  0.0325
  226MPD1    C4 3485   0.513   4.198   8.838 -0.4567  0.5046  0.1637
  226MPD1    C5 3486   0.543   4.132   8.722 -0.2342 -0.0587 -0.3061
  226MPD1     H 3487   0.785   4.105   9.007  0.1141 -0.4962 -0.4886
  226MPD1    H1 3488   0.423   4.258   8.839  0.6008  2.0724  1.0457
  226MPD1    H2 3489   0.657   3.979   8.625 -0.0228 -0.3289 -0.0811
  226MPD1    H3 3490   0.460   4.136   8.653 -0.3556  0.9865 -0.0921
  226MPD1     N 3491   0.581   4.253   9.062  0.1263  0.4569 -0.9638
  226MPD1    H5 3492   0.648   4.232   9.135 -2.3459  2.3984  1.8571
  226MPD1    N1 3493   0.846   3.952   8.805  0.1384  0.3492  0.7224
  226MPD1    H6 3494   0.881   3.915   8.892 -1.4282 -0.3477  1.0508
  226MPD1    H7 3495   0.827   3.869   8.749  1.3334  0.7696 -0.3188
  227MPD1     C 3496   0.068   4.663   9.927 -0.5815  0.6461 -0.1340
  227MPD1    C1 3497   0.202   4.634   9.947  0.3802  0.1881 -0.5602
  227MPD1    C2 3498   0.284   4.614   9.833  0.3189  0.4162 -0.7806
  227MPD1    C3 3499   0.238   4.609   9.704  0.5057 -0.6682 -0.1619
  227MPD1    C4 3500   0.104   4.650   9.685  0.6135 -0.2717  0.0956
  227MPD1    C5 3501   0.025   4.674   9.796 -0.4117 -0.5619  0.2880
  227MPD1     H 3502   0.383   4.577   9.858  1.0946  2.4531 -0.8610
  227MPD1    H1 3503   0.056   4.648   9.588 -0.5362 -0.2500  0.6630
  227MPD1    H2 3504   4.731   4.649  10.006  0.9255 -2.0110  0.8056
  227MPD1    H3 3505   4.656   4.691   9.781 -0.2942 -0.4430 -0.4100
  227MPD1     N 3506   0.324   4.573   9.597 -0.8666 -1.2015 -0.1512
  227MPD1    H5 3507   0.421   4.563   9.623 -1.4965 -0.3259  2.5282
  227MPD1    N1 3508   0.246   4.600  10.075 -0.1326  0.0988  0.3243
  227MPD1    H6 3509   0.346   4.611  10.088 -0.4361  0.3787  2.4182
  227MPD1    H7 3510   0.196   4.660  10.141 -0.3202 -1.3420  1.4881
  228MPD1     C 3511   4.061   3.203  12.596 -0.9094 -0.3996 -0.1238
  228MPD1    C1 3512   3.975   3.234  12.499 -0.2223 -0.0196  0.5826
  228MPD1    C2 3513   3.844   3.191  12.517 -0.5729 -0.4783  0.7791
  228MPD1    C3 3514   3.804   3.110  12.628 -0.2886 -0.4662  0.3792
  228MPD1    C4 3515   3.903   3.069  12.711 -0.1335 -0.8225  0.4760
  228MPD1    C5 3516   4.029   3.115  12.690  0.2014 -1.1247  0.2922
  228MPD1     H 3517   3.770   3.237  12.453  1.4533  0.6360 -0.7405
  228MPD1    H1 3518   3.888   2.995  12.788  0.0727 -1.9648 -0.5840
  228MPD1    H2 3519   4.161   3.244  12.600 -1.0622  0.1905 -2.2290
  228MPD1    H3 3520   4.097   3.072  12.764 -0.1238 -1.6858  0.2650
  228MPD1     N 3521   3.668   3.082  12.660  0.2292  0.4693 -0.0984
  228MPD1    H5 3522   3.604   3.122  12.592 -2.0431 -2.0937  0.5207
  228MPD1    N1 3523   4.002   3.341  12.416 -0.5368  0.9462  0.8712
  228MPD1    H6 3524   4.100   3.357  12.395 -0.3385  0.6022  1.5637
  228MPD1    H7 3525   3.945   3.353  12.332  1.0229 -2.0777 -0.6126
  229MPD1     C 3526   4.376   1.484  14.929  0.2098 -0.7290  0.2080
  229MPD1    C1 3527   4.269   1.458  14.841 -0.0902  0.2763 -0.7336
  229MPD1    C2 3528   4.147   1.405  14.885  0.5942 -0.5268  0.7188
  229MPD1    C3 3529   4.123   1.414  15.027 -0.5738 -0.7587 -0.0428
  229MPD1    C4 3530   4.220   1.458  15.107 -0.2562  0.2785 -0.3222
  229MPD1    C5 3531   4.342   1.489  15.062 -0.3392 -0.3774 -0.2299
  229MPD1     H 3532   4.079   1.360  14.814  0.2068 -0.8583  1.3072
  229MPD1    H1 3533   4.200   1.464  15.214 -1.2893  1.5521 -0.6019
  229MPD1    H2 3534   4.473   1.520  14.896 -0.8186  1.3048 -0.6532
  229MPD1    H3 3535   4.414   1.527  15.134 -2.7167  0.1764  1.8245
  229MPD1     N 3536   3.996   1.381  15.081 -0.3739  0.0154  0.2597
  229MPD1    H5 3537   3.991   1.390  15.182 -1.9199 -1.1639  0.2917
  229MPD1    N1 3538   4.289   1.442  14.704 -0.2834 -0.1794  0.1470
  229MPD1    H6 3539   4.355   1.511  14.670 -0.3577  0.3578  1.0976
  229MPD1    H7 3540   4.199   1.456  14.659 -0.1720 -0.5535 -0.1905
  230MPD1     C 3541   3.738   1.481  15.874  0.3417 -0.0112  0.1393
  230MPD1    C1 3542   3.807   1.376  15.804 -0.0396  0.5340  0.2118
  230MPD1    C2 3543   3.810   1.372  15.666  0.2871  0.0285 -0.5831
  230MPD1    C3 3544   3.724   1.456  15.597  0.0878 -0.1747  0.2037
  230MPD1    C4 3545   3.645   1.555  15.658  0.2260 -0.5022 -0.1712
  230MPD1    C5 3546   3.660   1.570  15.796 -0.4152 -0.5915 -0.4655
  230MPD1     H 3547   3.869   1.296  15.616 -0.8271 -1.0590 -0.2618
  230MPD1    H1 3548   3.583   1.626  15.603  1.3180  0.7464  0.2131
  230MPD1    H2 3549   3.742   1.484  15.982  0.9704 -0.6951  0.1353
  230MPD1    H3 3550   3.610   1.649  15.851  1.0766 -0.0957  0.1992
  230MPD1     N 3551   3.720   1.443  15.456  1.0989 -0.1316  0.3307
  230MPD1    H5 3552   3.801   1.393  15.420  0.4034 -0.0392 -1.3550
  230MPD1    N1 3553   3.891   1.293  15.884  0.0090 -0.5441  0.0212
  230MPD1    H6 3554   3.845   1.264  15.970  1.9110  1.9969  1.9031
  230MPD1    H7 3555   3.897   1.199  15.845  2.6312 -0.4344  0.1893
  231MPD1     C 3556   2.287   3.672  15.883 -0.1781  0.2369 -0.1455
  231MPD1    C1 3557   2.217   3.614  15.781  0.0296 -0.2037  0.0530
  231MPD1    C2 3558   2.243   3.642  15.649 -0.2516 -1.1762 -0.2256
  231MPD1    C3 3559   2.348   3.722  15.616  0.5224 -0.4723  0.1095
  231MPD1    C4 3560   2.423   3.781  15.719 -0.1797 -0.5940  0.1998
  231MPD1    C5 3561   2.392   3.753  15.853 -0.5063 -1.3876  0.1051
  231MPD1     H 3562   2.179   3.597  15.575 -0.1875 -0.8854 -0.4562
  231MPD1    H1 3563   2.501   3.855  15.707 -1.8320  1.0370 -0.5980
  231MPD1    H2 3564   2.257   3.677  15.987  1.6222  0.5758  0.3570
  231MPD1    H3 3565   2.443   3.812  15.928  0.1136 -0.9865 -0.6292
  231MPD1     N 3566   2.366   3.750  15.485 -0.2576 -0.2053 -0.3621
  231MPD1    H5 3567   2.316   3.689  15.421  1.9574 -1.2305 -1.1094
  231MPD1    N1 3568   2.116   3.528  15.823 -0.0379 -0.0679  0.0566
  231MPD1    H6 3569   2.051   3.499  15.750 -1.0198  1.0769  0.4774
  231MPD1    H7 3570   2.075   3.576  15.903  0.9017  0.4599  0.2236
  232MPD1     C 3571   3.551   4.201  17.409  0.0291  0.5320 -0.1426
  232MPD1    C1 3572   3.519   4.208  17.544  0.3290 -0.3411 -0.2446
  232MPD1    C2 3573   3.544   4.330  17.605 -0.6740 -0.2135 -0.0915
  232MPD1    C3 3574   3.595   4.439  17.535 -0.2674 -0.0634  0.0829
  232MPD1    C4 3575   3.623   4.424  17.398 -0.1611 -0.1174  0.1562
  232MPD1    C5 3576   3.603   4.301  17.336 -0.2641 -0.1298  0.2365
  232MPD1     H 3577   3.520   4.343  17.710 -0.6297 -0.4324 -0.0528
  232MPD1    H1 3578   3.675   4.495  17.336 -1.7666  0.6205 -0.3550
  232MPD1    H2 3579   3.529   4.112  17.351  0.4492 -0.2654  0.9397
  232MPD1    H3 3580   3.637   4.295  17.233  0.6461  1.6690  0.4288
  232MPD1     N 3581   3.604   4.560  17.610  0.3286 -0.1295  0.6237
  232MPD1    H5 3582   3.575   4.562  17.707 -1.9404 -0.9834 -0.0347
  232MPD1    N1 3583   3.457   4.109  17.621  0.4588 -0.7870 -0.2376
  232MPD1    H6 3584   3.410   4.151  17.700 -0.9560 -1.0846 -0.9262
  232MPD1    H7 3585   3.381   4.079  17.560  0.0107  0.1948 -0.1742
  233MPD1     C 3586   1.898   3.626   2.965 -0.2684  0.3376  0.4637
  233MPD1    C1 3587   2.026   3.586   2.929 -0.7024  0.4564  0.8891
  233MPD1    C2 3588   2.036   3.478   2.846  0.2914  0.2073  0.6276
  233MPD1    C3 3589   1.926   3.399   2.808 -0.4657  0.1405  0.4248
  233MPD1    C4 3590   1.804   3.438   2.858 -0.5410  0.1881 -0.8846
  233MPD1    C5 3591   1.790   3.561   2.922 -0.3998  0.1069  0.0355
  233MPD1     H 3592   2.140   3.459   2.822 -0.2203  0.6952 -2.0331
  233MPD1    H1 3593   1.713   3.384   2.838 -0.5404 -0.7732  1.7175
  233MPD1    H2 3594   1.884   3.715   3.026 -2.8844  1.4933 -1.7764
  233MPD1    H3 3595   1.691   3.597   2.944 -0.3679  0.7175 -0.7980
  233MPD1     N 3596   1.936   3.281   2.739 -0.3275 -0.1593 -0.2151
  233MPD1    H5 3597   1.847   3.236   2.725 -0.6872  0.7886 -1.0000
  233MPD1    N1 3598   2.142   3.643   2.987  0.5759  0.6644  0.0507
  233MPD1    H6 3599   2.135   3.736   3.026  0.9015  1.4215 -1.6808
  233MPD1    H7 3600   2.223   3.643   2.924  0.4737 -0.3801 -0.0943
  234MPD1     C 3601   1.832   2.548   9.678  0.0049  0.2192 -0.4655
  234MPD1    C1 3602   1.768   2.640   9.592 -0.0759  0.6145 -0.1210
  234MPD1    C2 3603   1.685   2.731   9.648  0.0392 -0.5827  0.5350
  234MPD1    C3 3604   1.646   2.714   9.778  0.0445  0.4941  0.4608
  234MPD1    C4 3605   1.713   2.626   9.861 -0.1368  0.0957  1.0934
  234MPD1    C5 3606   1.807   2.540   9.810  0.2573  0.5058 -0.1858
  234MPD1     H 3607   1.627   2.799   9.587 -0.0807 -1.4793 -0.3402
  234MPD1    H1 3608   1.684   2.606   9.964  0.2243  0.4811  1.2732
  234MPD1    H2 3609   1.905   2.479   9.638 -0.1820 -1.2554  1.7491
  234MPD1    H3 3610   1.863   2.470   9.872  0.9447  1.6730  0.5000
  234MPD1     N 3611   1.541   2.803   9.818  0.5663 -0.0637 -0.1221
  234MPD1    H5 3612   1.500   2.866   9.750 -0.3342 -0.5515 -0.0291
  234MPD1    N1 3613   1.819   2.656   9.459 -0.0140 -0.3194  0.3095
  234MPD1    H6 3614   1.753   2.704   9.399  1.6197 -1.0330 -2.0360
  234MPD1    H7 3615   1.842   2.568   9.414 -0.1426 -0.0563 -0.2708
  235MPD1     C 3616   2.853   0.300  10.172 -0.4598  0.1844 -0.2494
  235MPD1    C1 3617   2.829   0.397  10.087 -0.6394  0.0109 -0.0738
  235MPD1    C2 3618   2.890   0.518  10.124 -0.3304 -0.2586 -0.2799
  235MPD1    C3 3619   2.981   0.534  10.230  0.4849  0.4754 -0.0969
  235MPD1    C4 3620   3.010   0.416  10.303 -0.3220  0.6406 -0.8360
  235MPD1    C5 3621   2.941   0.305  10.270  0.0283 -0.6148  0.2946
  235MPD1     H 3622   2.858   0.612  10.079 -2.1899 -1.6687 -1.9111
  235MPD1    H1 3623   3.087   0.407  10.379  0.3578  0.6975 -1.5165
  235MPD1    H2 3624   2.813   0.199  10.167 -0.4864  0.2615 -1.4215
  235MPD1    H3 3625   2.941   0.220  10.337 -2.2538 -0.8663 -0.0447
  235MPD1     N 3626   3.039   0.654  10.264  0.4850 -0.1604 -0.0045
  235MPD1    H5 3627   3.012   0.730  10.204 -2.5549 -0.7775  0.5900
  235MPD1    N1 3628   2.731   0.391   9.983 -0.2324 -0.1582  0.0046
  235MPD1    H6 3629   2.740   0.460   9.909  0.9518 -0.2801  0.0387
  235MPD1    H7 3630   2.722   0.301   9.935  0.4403  0.3333 -1.0330
  236MPD1     C 3631   1.354   2.179  10.015 -0.4773  0.1404 -0.8343
  236MPD1    C1 3632   1.347   2.091  10.118 -0.0394  0.0464  0.4725
  236MPD1    C2 3633   1.463   2.023  10.149  0.0774 -0.5449  0.8419
  236MPD1    C3 3634   1.588   2.051  10.092 -0.1058  0.0191 -0.1739
  236MPD1    C4 3635   1.596   2.147   9.998 -0.4894  0.2753  0.5163
  236MPD1    C5 3636   1.481   2.206   9.961  0.0621 -0.1042  0.4000
  236MPD1     H 3637   1.456   1.935  10.212 -0.1915 -0.6608  0.6541
  236MPD1    H1 3638   1.687   2.190   9.958 -0.1806  0.8840  1.8519
  236MPD1    H2 3639   1.270   2.225   9.965 -0.2464  1.0742 -0.3642
  236MPD1    H3 3640   1.481   2.274   9.877 -0.0897 -1.5037 -0.7315
  236MPD1     N 3641   1.705   1.981  10.130 -0.2897  0.3565  0.5721
  236MPD1    H5 3642   1.795   2.020  10.105 -0.1362 -0.6432 -0.4331
  236MPD1    N1 3643   1.223   2.038  10.152 -0.0189  0.1978 -0.0368
  236MPD1    H6 3644   1.238   1.987  10.239 -0.2244  2.0506  1.0846
  236MPD1    H7 3645   1.196   1.964  10.088 -0.6708  0.3073  0.1128
  237MPD1     C 3646   2.883   0.200  14.851  0.0773  0.2630 -0.5395
  237MPD1    C1 3647   2.874   0.137  14.971 -0.4142  0.2340  0.4231
  237MPD1    C2 3648   2.760   0.069  15.007 -0.2740  0.2703 -0.0614
  237MPD1    C3 3649   2.653   0.049  14.920  0.2257 -0.0909  0.1978
  237MPD1    C4 3650   2.668   0.107  14.793  0.2513  0.5685  0.0620
  237MPD1    C5 3651   2.778   0.178  14.765 -0.4295 -0.2517 -0.2790
  237MPD1     H 3652   2.747   0.029  15.107  1.8875  0.3283  0.2392
  237MPD1    H1 3653   2.590   0.097  14.719 -0.3737 -0.9689  0.9239
  237MPD1    H2 3654   2.968   0.253  14.810 -0.1839  0.4547 -0.8347
  237MPD1    H3 3655   2.777   0.231  14.671 -0.4789  1.3276  0.6088
  237MPD1     N 3656   2.532   4.726  14.952 -0.4051 -0.6367  0.2469
  237MPD1    H5 3657   2.456   4.729  14.885 -1.8984  0.3593  1.9749
  237MPD1    N1 3658   2.971   0.151  15.067 -0.2081 -0.0486 -0.5383
  237MPD1    H6 3659   2.973   0.062  15.117  0.6717  0.5542  0.4962
  237MPD1    H7 3660   3.063   0.177  15.031 -0.0755  1.6099  1.0083
  238MPD1     C 3661   4.413   3.816  14.644 -0.4981 -0.0272 -0.3349
  238MPD1    C1 3662   4.363   3.722  14.729  0.4494  0.6752  0.0263
  238MPD1    C2 3663   4.265   3.631  14.683  0.7370 -0.5663  0.5272
  238MPD1    C3 3664   4.235   3.625  14.551  0.3683 -0.7332 -0.1069
  238MPD1    C4 3665   4.297   3.711  14.466  0.3143  0.1159  0.0711
  238MPD1    C5 3666   4.374   3.811  14.511 -0.5828  0.3161 -0.1680
  238MPD1     H 3667   4.203   3.586  14.759  0.7533 -0.7467  0.4320
  238MPD1    H1 3668   4.280   3.700  14.360  3.2130 -1.4942 -0.2301
  238MPD1    H2 3669   4.473   3.900  14.678  1.5269 -0.9910 -1.5337
  238MPD1    H3 3670   4.423   3.877  14.441 -1.6804 -2.2703 -3.3403
  238MPD1     N 3671   4.138   3.536  14.499  0.2903 -0.6428  0.0715
  238MPD1    H5 3672   4.100   3.551  14.406  0.2777  0.4032  0.2376
  238MPD1    N1 3673   4.374   3.749  14.866 -0.0979 -0.2586 -0.4024
  238MPD1    H6 3674   4.348   3.676  14.931 -1.0887 -1.1210 -1.7620
  238MPD1    H7 3675   4.465   3.786  14.894 -1.1820  1.2984  1.0489
  239MPD1     C 3676   3.731   3.910  15.389  0.1519 -0.1261 -0.5123
  239MPD1    C1 3677   3.848   3.958  15.350 -1.0332 -0.0542 -0.1359
  239MPD1    C2 3678   3.854   4.055  15.250 -1.0220 -0.3501 -0.0950
  239MPD1    C3 3679   3.736   4.087  15.178 -0.5110 -0.1559 -0.1195
  239MPD1    C4 3680   3.622   4.018  15.209 -0.3242  1.3145  0.5218
  239MPD1    C5 3681   3.618   3.938  15.322 -0.8644  0.6358 -0.0494
  239MPD1     H 3682   3.944   4.112  15.230  0.0072 -1.3119  1.7967
  239MPD1    H1 3683   3.529   4.044  15.159 -0.2430  1.9451  0.6897
  239MPD1    H2 3684   3.717   3.840  15.470 -0.9262  0.5304 -0.1295
  239MPD1    H3 3685   3.530   3.886  15.357  0.2987 -1.4778 -0.2307
  239MPD1     N 3686   3.739   4.188  15.081 -0.1248 -0.8272 -0.2390
  239MPD1    H5 3687   3.648   4.204  15.039 -1.1642 -0.3863  2.2419
  239MPD1    N1 3688   3.963   3.931  15.424  0.0180  0.6192 -0.2048
  239MPD1    H6 3689   4.051   3.943  15.376  0.3220 -0.8329  0.0028
  239MPD1    H7 3690   3.963   3.844  15.477  1.2919  0.6057 -0.2299
  240MPD1     C 3691   3.904   3.734  13.355  0.7736 -0.1707  0.7756
  240MPD1    C1 3692   3.932   3.805  13.466  0.1645 -0.2171  0.0320
  240MPD1    C2 3693   3.864   3.780  13.585  0.4942  0.2456  0.0334
  240MPD1    C3 3694   3.756   3.697  13.589 -0.6651 -0.4771  0.1929
  240MPD1    C4 3695   3.719   3.633  13.473 -0.1979 -0.1842 -0.4136
  240MPD1    C5 3696   3.792   3.656  13.352 -0.2946  1.0939  0.2938
  240MPD1     H 3697   3.906   3.835  13.668 -1.0736  1.6755 -0.1129
  240MPD1    H1 3698   3.630   3.572  13.469 -0.4671  0.1198  0.9533
  240MPD1    H2 3699   3.969   3.745  13.268 -0.4897 -2.1934 -0.4197
  240MPD1    H3 3700   3.769   3.605  13.260  2.0033 -0.4628  0.5945
  240MPD1     N 3701   3.691   3.682  13.714 -0.1038 -0.3647  0.4168
  240MPD1    H5 3702   3.740   3.724  13.793 -1.2851  1.7838  0.0064
  240MPD1    N1 3703   4.039   3.897  13.462 -0.1390  0.2445  0.2066
  240MPD1    H6 3704   4.061   3.939  13.372 -0.0869 -1.5814 -0.6411
  240MPD1    H7 3705   4.016   3.971  13.528  2.5993  1.7887 -0.5829
  241MPD1     C 3706   3.645   3.604  14.715  0.1623 -0.6911  0.5546
  241MPD1    C1 3707   3.739   3.647  14.621 -0.3164 -0.2805  0.6043
  241MPD1    C2 3708   3.716   3.612  14.488 -0.3368  0.0837  0.1152
  241MPD1    C3 3709   3.591   3.570  14.446  0.3514 -0.2175  0.0831
  241MPD1    C4 3710   3.497   3.543  14.545  0.2068 -0.7329 -0.1977
  241MPD1    C5 3711   3.524   3.558  14.678  0.0438 -0.0067 -0.1394
  241MPD1     H 3712   3.793   3.631  14.414  0.4681  0.3829  1.0300
  241MPD1    H1 3713   3.395   3.510  14.529 -0.9714  1.6663  2.4234
  241MPD1    H2 3714   3.656   3.625  14.821  2.7562 -0.2563  0.2047
  241MPD1    H3 3715   3.448   3.532  14.751 -0.1321  1.3202  0.1455
  241MPD1     N 3716   3.551   3.549  14.311  0.3042 -0.4313  0.2816
  241MPD1    H5 3717   3.451   3.535  14.302  0.2314  0.3298 -0.1054
  241MPD1    N1 3718   3.864   3.691  14.660 -0.3090  0.0926  0.1353
  241MPD1    H6 3719   3.850   3.757  14.737 -2.8385  1.6449 -1.6434
  241MPD1    H7 3720   3.892   3.761  14.592  2.3236  1.2152  2.3788
  242MPD1     C 3721   3.730   1.881  16.317  0.3081 -0.1294 -0.2821
  242MPD1    C1 3722   3.683   1.979  16.238  0.0211 -0.5805  0.1621
  242MPD1    C2 3723   3.714   1.967  16.105  0.0110 -0.1867  0.3581
  242MPD1    C3 3724   3.788   1.858  16.053  0.5557  0.4901  0.1081
  242MPD1    C4 3725   3.825   1.761  16.143  0.3127  0.0719  0.1330
  242MPD1    C5 3726   3.796   1.774  16.277 -0.0272 -0.7909 -0.2289
  242MPD1     H 3727   3.671   2.047  16.046 -2.3811 -0.1626  2.1128
  242MPD1    H1 3728   3.874   1.666  16.125 -0.4615 -0.3426  0.1899
  242MPD1    H2 3729   3.701   1.895  16.421 -0.6241  0.3927 -0.6095
  242MPD1    H3 3730   3.843   1.710  16.351 -0.5569  0.1724  0.9259
  242MPD1     N 3731   3.831   1.837  15.925  0.1871 -0.3219 -0.3726
  242MPD1    H5 3732   3.886   1.754  15.911  2.8952  1.3534  0.3133
  242MPD1    N1 3733   3.591   2.072  16.289 -1.0281  0.5183  0.1247
  242MPD1    H6 3734   3.597   2.082  16.390  2.8995  1.2350 -0.1563
  242MPD1    H7 3735   3.591   2.164  16.246  0.0480  0.7232  0.5619
  243MPD1     C 3736   4.321   0.583  17.583 -0.0068 -0.8325 -0.3741
  243MPD1    C1 3737   4.438   0.626  17.641 -0.3705 -0.4755 -0.8101
  243MPD1    C2 3738   4.554   0.591  17.582  0.6242 -0.6751 -0.6070
  243MPD1    C3 3739   4.561   0.497  17.478  0.4364  0.5779  0.2761
  243MPD1    C4 3740   4.445   0.464  17.419  0.5560  0.2210  0.2776
  243MPD1    C5 3741   4.325   0.511  17.470 -0.2999  0.2633  0.4430
  243MPD1     H 3742   4.641   0.640  17.623 -0.8688  1.3237  0.1311
  243MPD1    H1 3743   4.443   0.396  17.335  0.9569  0.4020  0.1218
  243MPD1    H2 3744   4.220   0.611  17.609  1.1031  0.4042  2.7145
  243MPD1    H3 3745   4.236   0.478  17.419 -1.9027  2.8144  1.5536
  243MPD1     N 3746   4.685   0.459  17.450 -0.2649 -0.7090  0.4442
  243MPD1    H5 3747   0.027   0.469  17.512  0.6266  0.7792 -0.9397
  243MPD1    N1 3748   4.443   0.720  17.740  0.2643 -0.6963  0.7415
  243MPD1    H6 3749   4.527   0.707   0.050 -0.2978  1.1643  1.9928
  243MPD1    H7 3750   4.364   0.719   0.059 -1.1037 -0.6610 -0.9277
  244MPD1     C 3751   0.613   4.517   0.034  0.3237  0.8465 -0.3938
  244MPD1    C1 3752   0.697   4.616  17.730  0.0298 -0.2584 -0.1798
  244MPD1    C2 3753   0.645   4.697  17.628 -0.4323  0.3071 -0.0982
  244MPD1    C3 3754   0.516   4.691  17.587 -0.1057 -0.0497 -0.2036
  244MPD1    C4 3755   0.434   4.600  17.653 -0.0877 -0.6249 -0.0116
  244MPD1    C5 3756   0.478   4.506  17.740 -0.3832  0.1251  0.3919
  244MPD1     H 3757   0.712   0.039  17.594  1.5885 -0.5105  1.9437
  244MPD1    H1 3758   0.329   4.589  17.632 -0.1236 -0.9876  0.3717
  244MPD1    H2 3759   0.647   4.437   0.099 -2.0471 -0.9297 -1.3363
  244MPD1    H3 3760   0.417   4.426   0.035 -1.9595  0.8795 -0.4873
  244MPD1     N 3761   0.456   0.058  17.502  0.1180  0.2441  0.7113
  244MPD1    H5 3762   0.521   0.127  17.465  1.0646 -0.3392  1.2649
  244MPD1    N1 3763   0.835   4.619   0.028  0.1428  0.1785  0.2440
  244MPD1    H6 3764   0.868   4.715   0.019  1.1623 -0.0849  1.2827
  244MPD1    H7 3765   0.847   4.583   0.122  0.6292  2.9931  1.2617
  245MPD1     C 3766   1.533   1.524  13.896  0.1864 -0.2239  0.1944
  245MPD1    C1 3767   1.478   1.617  13.817  0.1046  0.1722 -0.4265
  245MPD1    C2 3768   1.562   1.713  13.759 -0.3452 -0.2362 -0.6154
  245MPD1    C3 3769   1.696   1.720  13.790 -0.4009 -0.4589 -0.0843
  245MPD1    C4 3770   1.746   1.627  13.881 -0.0590 -0.0365  0.7135
  245MPD1    C5 3771   1.664   1.525  13.927 -0.0947  0.2122  0.3460
  245MPD1     H 3772   1.518   1.784  13.689  1.3871  0.1424 -1.3018
  245MPD1    H1 3773   1.848   1.618  13.916  0.8867  1.7102 -1.5962
  245MPD1    H2 3774   1.480   1.437  13.933 -0.2638  0.0323  0.1619
  245MPD1    H3 3775   1.702   1.452  13.998 -0.2751  1.0454  1.2970
  245MPD1     N 3776   1.786   1.803  13.721 -0.2861 -0.1993 -0.1855
  245MPD1    H5 3777   1.744   1.873  13.660 -0.2988  1.3840  1.6516
  245MPD1    N1 3778   1.351   1.600  13.775  0.2408 -0.0841  0.5395
  245MPD1    H6 3779   1.300   1.684  13.747  1.7776  1.2661  1.7064
  245MPD1    H7 3780   1.290   1.538  13.827  0.4063 -1.1910 -0.6120
  246MPD1     C 3781   1.085   1.744  10.435 -0.3433 -1.0948 -0.2763
  246MPD1    C1 3782   1.212   1.766  10.392  0.8511  0.0575 -0.2086
  246MPD1    C2 3783   1.275   1.682  10.309 -0.5643 -0.3718 -0.2200
  246MPD1    C3 3784   1.218   1.561  10.270  0.4313 -0.5378 -0.0395
  246MPD1    C4 3785   1.094   1.530  10.317 -0.0088 -0.2559  0.3706
  246MPD1    C5 3786   1.034   1.622  10.407  0.1917 -0.6251 -0.6173
  246MPD1     H 3787   1.376   1.708  10.278  0.3717 -1.8083  1.6288
  246MPD1    H1 3788   1.046   1.435  10.302 -0.4693  0.2619 -1.4504
  246MPD1    H2 3789   1.035   1.824  10.488 -0.0841 -0.8206 -0.4522
  246MPD1    H3 3790   0.940   1.592  10.452 -0.8708  1.5326 -1.4157
  246MPD1     N 3791   1.295   1.471  10.191  0.4019 -0.2957  0.1743
  246MPD1    H5 3792   1.382   1.511  10.157  0.5709 -1.3319 -0.6228
  246MPD1    N1 3793   1.261   1.897  10.406 -0.8194  0.4722 -0.1968
  246MPD1    H6 3794   1.221   1.942  10.488 -1.5875 -0.9321  0.2082
  246MPD1    H7 3795   1.362   1.895  10.402 -0.7823 -1.1770  1.9197
  247MPD1     C 3796   1.562   2.391  16.508 -0.3534 -0.4651  0.7531
  247MPD1    C1 3797   1.591   2.305  16.610 -0.7785 -0.1766 -0.2046
  247MPD1    C2 3798   1.601   2.171  16.578  0.6304 -1.1714  0.6139
  247MPD1    C3 3799   1.599   2.128  16.444 -0.2373 -0.1979 -0.6154
  247MPD1    C4 3800   1.596   2.219  16.342 -0.1297 -0.7239  0.0876
  247MPD1    C5 3801   1.568   2.346  16.375 -0.5048 -0.4757 -0.4956
  247MPD1     H 3802   1.604   2.098  16.658  0.7893 -0.9339  0.8224
  247MPD1    H1 3803   1.617   2.190  16.239  0.3406 -0.6239  0.1567
  247MPD1    H2 3804   1.546   2.495  16.531  1.6711  0.2097 -0.9076
  247MPD1    H3 3805   1.565   2.427  16.303  3.7374  0.7708  0.7308
  247MPD1     N 3806   1.614   2.002  16.401  0.1773 -0.3558  0.1334
  247MPD1    H5 3807   1.622   1.984  16.301  1.2191 -3.0018  0.6970
  247MPD1    N1 3808   1.575   2.350  16.742 -1.2888 -0.2488  0.6296
  247MPD1    H6 3809   1.601   2.449  16.743 -1.3820 -0.2273  0.9015
  247MPD1    H7 3810   1.636   2.302  16.807  0.4334  0.9979 -0.0715
  248MPD1     C 3811   2.172   4.531   1.328 -0.6232 -0.7564 -0.3028
  248MPD1    C1 3812   2.185   4.459   1.212 -0.0447 -0.1636  0.6629
  248MPD1    C2 3813   2.181   4.534   1.094 -0.0061  0.0470 -0.5723
  248MPD1    C3 3814   2.122   4.658   1.096  0.7184 -0.8508  0.0408
  248MPD1    C4 3815   2.085   4.712   1.216 -1.1265  0.2272  0.0852
  248MPD1    C5 3816   2.113   4.649   1.334  0.3495 -0.4132 -0.4117
  248MPD1     H 3817   2.220   4.490   1.003  1.5756  0.6262 -0.1691
  248MPD1    H1 3818   2.041   0.074   1.216  0.8933  1.1450 -0.0580
  248MPD1    H2 3819   2.191   4.482   1.423 -0.2239  0.2360  0.1357
  248MPD1    H3 3820   2.084   4.700   1.424  1.0262 -2.3531  0.9089
  248MPD1     N 3821   2.084   4.703   0.971  0.0052 -0.2493 -0.1360
  248MPD1    H5 3822   2.124   4.650   0.894  0.7802 -0.5440  0.4678
  248MPD1    N1 3823   2.251   4.337   1.215  0.6390  0.0935  0.1330
  248MPD1    H6 3824   2.204   4.289   1.292  1.8655 -0.9173  0.2480
  248MPD1    H7 3825   2.216   4.278   1.139 -1.0505  1.7239 -0.3740
  249MPD1     C 3826   0.047   1.422  10.351 -0.8144  0.5794 -0.5817
  249MPD1    C1 3827   0.035   1.320  10.262 -0.2803  0.5244  1.0442
  249MPD1    C2 3828   0.019   1.193  10.320 -0.1314 -0.2875  0.2566
  249MPD1    C3 3829   0.045   1.168  10.457  0.1892  1.0054 -0.1278
  249MPD1    C4 3830   0.087   1.275  10.534  0.3889  0.3196 -0.5934
  249MPD1    C5 3831   0.087   1.397  10.481  0.1224  0.6027  0.3707
  249MPD1     H 3832   4.735   1.102  10.265  1.6417 -1.7495  2.0047
  249MPD1    H1 3833   0.112   1.276  10.640 -0.6019  0.6444 -0.3615
  249MPD1    H2 3834   0.056   1.523  10.314 -0.4561  1.3467  1.5780
  249MPD1    H3 3835   0.134   1.478  10.534  0.8571  0.1381  0.4339
  249MPD1     N 3836   0.021   1.043  10.513 -0.1380  0.1602  0.1565
  249MPD1    H5 3837   4.705   0.968  10.469 -1.1579  1.6484 -1.1363
  249MPD1    N1 3838   0.009   1.340  10.129  0.0315 -0.0124  0.2458
  249MPD1    H6 3839   0.037   1.267  10.064  1.8664  0.1097  0.9152
  249MPD1    H7 3840   0.051   1.428  10.100 -1.8461  1.3210  1.5168
  250MPD2     C 3841   0.665   4.360  12.992 -0.4984 -0.7382  0.6605
  250MPD2    C1 3842   0.541   4.400  13.018 -0.1080  0.0571  0.4897
  250MPD2    C2 3843   0.438   4.356  12.937  0.0144  0.0793 -0.0327
  250MPD2    C3 3844   0.453   4.257  12.837  0.0240  0.4290  0.0108
  250MPD2    C4 3845   0.580   4.207  12.821  0.1568  1.0173  0.0342
  250MPD2    C5 3846   0.681   4.255  12.900  0.1865  0.4486 -0.1192
  250MPD2     H 3847   0.341   4.401  12.951  0.7500  1.7384 -0.2590
  250MPD2    H1 3848   0.609   4.129  12.751  1.1094  1.8906 -0.5494
  250MPD2    H2 3849   0.743   4.397  13.057 -0.5583 -1.5679  1.1986
  250MPD2    H3 3850   0.781   4.215  12.891 -0.4633 -1.1053 -0.4184
  250MPD2     N 3851   0.347   4.213  12.753 -0.3167  0.2506  0.5867
  250MPD2    H5 3852   0.371   4.134  12.695 -0.6409  0.1433  0.5959
  250MPD2    N1 3853   0.530   4.504  13.114  0.5362 -0.2352  0.1416
  250MPD2    H7 3854   0.608   4.529  13.173  0.8862 -0.9473 -0.0210
  251TMC3    C1 3855   0.430   4.690  13.216 -0.4265  0.5047 -0.5126
  251TMC3    C2 3856   0.324   0.037  13.223  0.1782  0.4460  1.0949
  251TMC3    C3 3857   0.345   0.172  13.248  0.5463  0.2406  0.8419
  251TMC3    C4 3858   0.560   0.005  13.227  0.1697  0.7613  0.1717
  251TMC3    C5 3859   0.574   0.138  13.251  0.2833  0.0105 -0.7714
  251TMC3    C6 3860   0.469   0.229  13.260  0.2372 -0.1220 -0.3016
  251TMC3     C 3861   0.415   4.555  13.162  0.5862  0.3749 -0.0317
  251TMC3     O 3862   0.301   4.509  13.144  0.2223 -0.4894  0.0692
  251TMC3     H 3863   0.229   4.721  13.218  0.8646 -0.6864 -0.2394
  251TMC3    H1 3864   0.650   4.680  13.221  0.6164  1.5124 -0.9546
  251TMC3    H2 3865   0.477   0.324  13.311 -1.1697 -1.0101  1.5754
  251TMC3    C7 3866   0.709   0.184  13.258 -0.2150 -0.1359  0.6280
  251TMC3    C8 3867   0.236   0.253  13.300 -0.9612 -0.2626  0.5009
  251TMC3    O1 3868   0.796   0.099  13.251 -0.2882 -0.0678  0.0665
  251TMC3    O2 3869   0.243   0.375  13.300 -0.2196  0.4257 -0.2963
  252TMC3    C1 3870   0.425   0.254  10.270  0.0033 -0.3436  0.1734
  252TMC3    C2 3871   0.402   0.388  10.291  0.2248 -0.8172 -0.1404
  252TMC3    C3 3872   0.518   0.462  10.312  0.5001 -0.5063  0.7299
  252TMC3    C4 3873   0.550   0.194  10.270  0.2337  0.0411  0.2679
  252TMC3    C5 3874   0.657   0.277  10.279 -0.3979 -0.5415  0.6585
  252TMC3    C6 3875   0.648   0.404  10.322  0.2545 -0.6730  0.1981
  252TMC3     C 3876   0.312   0.165  10.296  0.7793  0.1035  0.9963
  252TMC3     O 3877   0.337   0.051  10.325  0.2851  0.1973 -0.4081
  252TMC3     H 3878   0.303   0.431  10.300  1.5645  2.4061 -0.9331
  252TMC3    H1 3879   0.564   0.088  10.249 -0.5964  0.3283 -1.6264
  252TMC3    H2 3880   0.732   0.472  10.319 -0.1997 -0.2101 -2.2986
  252TMC3    C7 3881   0.796   0.238  10.254 -0.1930  0.9938 -0.3149
  252TMC3    C8 3882   0.510   0.589  10.242  0.5992 -0.0881 -0.1344
  252TMC3    O1 3883   0.889   0.282  10.321  0.7255  0.7074 -0.0086
  252TMC3    O2 3884   0.429   0.613  10.155 -0.3445  0.5743  0.0482
  253MPD2     C 3885   2.084   0.026  15.520  0.1869  0.3509 -0.2421
  253MPD2    C1 3886   1.949   0.055  15.515 -0.4611  0.3658 -0.4546
  253MPD2    C2 3887   1.868   0.018  15.613  0.8536 -0.1173  0.7525
  253MPD2    C3 3888   1.923   4.696  15.724 -0.8205 -0.0668 -0.4411
  253MPD2    C4 3889   2.059   4.672  15.742 -0.5939  0.4472 -0.3356
  253MPD2    C5 3890   2.134   4.707  15.635 -0.1728  0.5776  0.6106
  253MPD2     H 3891   1.763   0.032  15.591  0.4669 -1.5641  1.6525
  253MPD2    H1 3892   2.099   4.625  15.831 -0.3077  2.9794  0.8790
  253MPD2    H2 3893   2.162   0.051  15.449 -0.5429  0.6127 -0.9494
  253MPD2    H3 3894   2.240   4.682  15.641 -0.0320  1.1475  0.4402
  253MPD2     N 3895   1.844   4.660  15.834 -0.2232 -0.2245 -0.1191
  253MPD2    H5 3896   1.889   4.619  15.915  1.9446 -0.9673 -1.7060
  253MPD2    N1 3897   1.892   0.125  15.412 -0.3510 -0.4954 -0.3736
  253MPD2    H7 3898   1.791   0.122  15.405 -0.4071  0.2841  0.1377
  254TMC3    C1 3899   1.671   4.630  15.977  0.6299 -0.3847 -0.4107
  254TMC3    C2 3900   1.588   4.717  16.047  0.0210 -0.2055 -0.7429
  254TMC3    C3 3901   1.570   4.678  16.178 -0.3148 -0.2677 -0.0573
  254TMC3    C4 3902   1.729   4.521  16.034 -0.4511 -0.2222 -0.5929
  254TMC3    C5 3903   1.705   4.491  16.162  0.1410  0.4593  0.2720
  254TMC3    C6 3904   1.623   4.564  16.232 -1.1349  0.4046  0.3404
  254TMC3     C 3905   1.710   4.674  15.847 -1.2412 -0.3955  0.0369
  254TMC3     O 3906   1.631   4.730  15.774 -0.6851  0.9662 -0.2301
  254TMC3     H 3907   1.537   0.063  15.998 -0.2716 -0.1223 -0.3013
  254TMC3    H1 3908   1.788   4.452  15.975  0.7118 -0.0131  0.3342
  254TMC3    H2 3909   1.592   4.513  16.322  0.2453 -3.0379 -1.1376
  254TMC3    C7 3910   1.703   4.349  16.203  0.5049 -0.3773  0.8517
  254TMC3    C8 3911   1.461   0.002  16.264 -0.2012 -0.0223 -0.5216
  254TMC3    O1 3912   1.752   4.326  16.314 -0.0951  0.3288  0.0432
  254TMC3    O2 3913   1.473   4.723  16.388  0.9966  0.7087  0.1090
  255MPD2     C 3914   0.148   2.343  10.065  0.0761  0.5412  0.1893
  255MPD2    C1 3915   0.065   2.455  10.060  0.2133  0.3147 -0.1719
  255MPD2    C2 3916   0.058   2.540   9.956  0.1886  0.3236  0.0288
  255MPD2    C3 3917   0.131   2.500   9.840 -0.0890  0.9179  0.0934
  255MPD2    C4 3918   0.219   2.392   9.837  0.8696 -0.4805 -0.6579
  255MPD2    C5 3919   0.213   2.308   9.950  0.0975  0.3411 -0.0181
  255MPD2     H 3920   0.001   2.632   9.959  0.0099  0.1848  0.7514
  255MPD2    H1 3921   0.270   2.365   9.745 -0.8913 -1.7158 -1.2817
  255MPD2    H2 3922   0.146   2.276  10.150  1.6049 -0.3893 -0.5027
  255MPD2    H3 3923   0.282   2.224   9.948 -1.0373 -0.6127  0.7292
  255MPD2     N 3924   0.142   2.597   9.736 -0.0421  0.0648  0.2333
  255MPD2    H5 3925   0.082   2.679   9.736 -2.2771 -1.5365  1.8773
  255MPD2    N1 3926   4.717   2.473  10.182  0.4940  0.4126  0.0305
  255MPD2    H7 3927   4.722   2.407  10.260  1.5943  0.9753  0.4362
  256TMC3    C1 3928   4.552   2.567  10.326 -0.1085  0.6424  0.3087
  256TMC3    C2 3929   4.632   2.584  10.438  0.6351 -0.2190  0.0399
  256TMC3    C3 3930   4.590   2.652  10.548 -0.2884 -0.1348 -0.3811
  256TMC3    C4 3931   4.426   2.628  10.323 -0.9483 -0.0687 -0.3497
  256TMC3    C5 3932   4.385   2.698  10.435  0.6780  0.5301 -0.9555
  256TMC3    C6 3933   4.464   2.717  10.547  0.7087 -0.2264  0.2138
  256TMC3     C 3934   4.612   2.558  10.195  0.7805  0.1839  0.5278
  256TMC3     O 3935   4.557   2.626  10.110 -0.1399  0.4217 -0.2779
  256TMC3     H 3936   4.734   2.548  10.435  0.4128 -0.9617  1.0866
  256TMC3    H1 3937   4.369   2.616  10.232 -0.8288  1.4730 -0.6366
  256TMC3    H2 3938   4.449   2.781  10.633 -0.2247 -0.6275  0.3500
  256TMC3    C7 3939   4.266   2.776  10.422  0.6441  0.3342  0.2555
  256TMC3    C8 3940   4.696   2.713  10.618  0.4177 -0.1524 -0.3339
  256TMC3    O1 3941   4.183   2.734  10.342  0.3131 -0.4896  0.4288
  256TMC3    O2 3942   0.052   2.647  10.659 -0.3495 -0.6235 -0.0206
  257MPD2     C 3943   3.937   0.055  13.466 -0.3054  0.3940  0.0729
  257MPD2    C1 3944   3.817   0.010  13.404 -0.3389  1.0290  0.4509
  257MPD2    C2 3945   3.748   4.638  13.461 -0.4447 -0.1505  0.4225
  257MPD2    C3 3946   3.778   4.597  13.595  0.4692  0.3609 -0.4024
  257MPD2    C4 3947   3.889   4.657  13.659  0.4655 -0.3738 -0.9312
  257MPD2    C5 3948   3.969   0.014  13.597 -0.1491  0.1243  0.9779
  257MPD2     H 3949   3.669   4.592  13.404 -0.8497  0.0903  0.7936
  257MPD2    H1 3950   3.923   4.627  13.758 -0.5949  1.0246 -0.1318
  257MPD2    H2 3951   3.996   0.129  13.413  3.0923 -1.6278  1.0176
  257MPD2    H3 3952   4.057   0.053  13.645  0.6860 -1.7316  0.9147
  257MPD2     N 3953   3.714   4.479  13.638  0.0119 -0.2118  0.1185
  257MPD2    H5 3954   3.652   4.429  13.576 -0.0953  0.4385 -0.2943
  257MPD2    N1 3955   3.791   0.069  13.279  0.1030  0.0723  0.0698
  257MPD2    H7 3956   3.857   0.142  13.254  1.2259 -0.3663  1.7488
  258TMC3    C1 3957   3.691   4.291  13.778  0.2296  0.5391 -0.1472
  258TMC3    C2 3958   3.583   4.246  13.703  0.1765  0.3788  0.0164
  258TMC3    C3 3959   3.545   4.113  13.726  0.4668  0.5517 -0.2498
  258TMC3    C4 3960   3.759   4.204  13.856  0.3411 -0.0800  0.0767
  258TMC3    C5 3961   3.726   4.072  13.857 -1.8022 -0.7633  0.1376
  258TMC3    C6 3962   3.610   4.026  13.800  0.2441  0.1348 -0.3313
  258TMC3     C 3963   3.751   4.420  13.754 -0.4603 -0.1591  0.1573
  258TMC3     O 3964   3.831   4.454  13.838  0.3933 -0.1770  0.2351
  258TMC3     H 3965   3.531   4.314  13.637 -1.2423  0.1465  0.9125
  258TMC3    H1 3966   3.838   4.247  13.916 -1.2464  1.1834  1.2583
  258TMC3    H2 3967   3.589   3.920  13.803 -1.0658  0.3730 -1.3702
  258TMC3    C7 3968   3.817   3.979  13.920  0.4364  0.2019 -0.3818
  258TMC3    C8 3969   3.422   4.069  13.673  0.0446  0.1905  0.5319
  258TMC3    O1 3970   3.788   3.860  13.901 -0.5654 -0.3975 -0.3667
  258TMC3    O2 3971   3.381   4.140  13.585  0.0264 -0.3105  0.3402
  259MPD2     C 3972   2.974   1.611   0.389  0.4463 -0.4764  0.5045
  259MPD2    C1 3973   2.950   1.482   0.433  0.1532  0.0763 -0.0261
  259MPD2    C2 3974   2.985   1.382   0.346 -0.0370  0.1422  0.5177
  259MPD2    C3 3975   3.010   1.400   0.209  0.9597  0.1082  0.8792
  259MPD2    C4 3976   3.007   1.538   0.166 -0.1573  0.4510  0.1327
  259MPD2    C5 3977   2.997   1.639   0.256  0.3259  0.6168 -0.2843
  259MPD2     H 3978   3.005   1.283   0.385 -2.1098 -0.3704  0.2769
  259MPD2    H1 3979   3.010   1.570   0.062 -1.6230 -0.1616 -0.1038
  259MPD2    H2 3980   2.950   1.694   0.454  1.3702 -0.8085  1.2766
  259MPD2    H3 3981   3.002   1.743   0.228 -1.1497  1.2205  1.6871
  259MPD2     N 3982   3.032   1.287   0.120  0.1196  0.1069  0.4227
  259MPD2    H5 3983   3.013   1.198   0.164  0.0117  0.2406  0.6523
  259MPD2    N1 3984   2.914   1.460   0.565 -0.6057  0.0721  0.1734
  259MPD2    H7 3985   2.917   1.530   0.639  0.4139 -1.1250  1.2748
  260TMC3    C1 3986   3.069   1.151  17.689  0.9220  0.6280 -0.2990
  260TMC3    C2 3987   3.159   1.115  17.590 -0.7865 -0.0541  0.3876
  260TMC3    C3 3988   3.180   0.985  17.571 -0.2921  0.5162  0.4416
  260TMC3    C4 3989   3.006   1.057   0.019  0.2021 -0.3194 -0.2071
  260TMC3    C5 3990   3.019   0.924  17.737  0.0984 -0.0073 -0.0059
  260TMC3    C6 3991   3.107   0.889  17.642 -0.0004  0.2364 -0.4929
  260TMC3     C 3992   3.057   1.287  17.728 -0.5208  0.2998 -0.5196
  260TMC3     O 3993   3.098   1.371  17.652  0.8027 -0.1048  0.5821
  260TMC3     H 3994   3.218   1.189  17.538  2.0317 -2.0980  0.6913
  260TMC3    H1 3995   2.931   1.079   0.094  0.6134  1.8928 -0.4562
  260TMC3    H2 3996   3.137   0.785  17.631  0.1943  0.2057  0.3719
  260TMC3    C7 3997   2.980   0.828   0.091  0.0637 -0.4781  0.3504
  260TMC3    C8 3998   3.277   0.933  17.476  0.0754 -0.2768 -0.1825
  260TMC3    O1 3999   3.027   0.718   0.076  0.1407 -0.0507  0.4500
  260TMC3    O2 4000   3.301   0.989  17.366 -0.4665 -0.3959 -0.5514
  261MPD2     C 4001   4.422   4.331  12.291  0.5609  0.0069 -0.0490
  261MPD2    C1 4002   4.543   4.369  12.347 -0.4084  0.4560 -0.0095
  261MPD2    C2 4003   4.583   4.500  12.338 -0.0558  0.7405 -0.5226
  261MPD2    C3 4004   4.490   4.601  12.306 -0.5682  0.4220  0.1976
  261MPD2    C4 4005   4.366   4.565  12.260 -0.2414 -0.0430 -0.4045
  261MPD2    C5 4006   4.338   4.432  12.251  0.1751  0.0918  0.1001
  261MPD2     H 4007   4.681   4.532  12.372 -0.3854  0.2261  0.9074
  261MPD2    H1 4008   4.291   4.636  12.229  0.5579  0.6436 -0.7498
  261MPD2    H2 4009   4.394   4.228  12.272  2.9448 -0.7103  0.3938
  261MPD2    H3 4010   4.240   4.404  12.214  0.5457  1.1038 -1.6215
  261MPD2     N 4011   4.530   0.001  12.308  0.1850  0.0010 -0.9155
  261MPD2    H5 4012   4.628   0.018  12.326  0.7117 -1.0983 -2.7464
  261MPD2    N1 4013   4.624   4.283  12.423  0.0520 -0.1005  1.0564
  261MPD2    H7 4014   4.702   4.328  12.470 -0.0385  1.4258 -0.2416
  262TMC3    C1 4015   4.517   0.241  12.297  0.3788  0.0717 -0.0856
  262TMC3    C2 4016   4.466   0.352  12.363  0.1772  0.1819 -0.5961
  262TMC3    C3 4017   4.553   0.451  12.383 -0.1301 -0.9000  0.2399
  262TMC3    C4 4018   4.642   0.238  12.248 -0.1839 -0.4342 -0.2029
  262TMC3    C5 4019   4.724   0.345  12.262 -0.0213 -0.0430 -0.4363
  262TMC3    C6 4020   4.680   0.456  12.338  0.5698  0.4999 -0.3354
  262TMC3     C 4021   4.445   0.113  12.309  1.1301 -1.4665 -0.1148
  262TMC3     O 4022   4.322   0.112  12.330  0.5769  0.0814  0.1842
  262TMC3     H 4023   4.378   0.339  12.425 -0.9007 -0.6204 -2.2889
  262TMC3    H1 4024   4.671   0.158  12.181  2.9024 -0.2330  0.8964
  262TMC3    H2 4025   0.008   0.539  12.362  1.6896 -0.8918  1.5113
  262TMC3    C7 4026   0.113   0.335  12.187  0.0069  0.7601 -1.0853
  262TMC3    C8 4027   4.499   0.584  12.401  0.3296 -0.2750  0.7428
  262TMC3    O1 4028   0.155   0.225  12.154  0.4548 -0.1556 -0.0610
  262TMC3    O2 4029   4.572   0.676  12.423 -0.4771  0.0590 -0.0337
  263MPD2     C 4030   0.471   3.628  11.753  0.0937 -0.0658  0.1525
  263MPD2    C1 4031   0.605   3.671  11.750  0.1251  0.2029 -0.3066
  263MPD2    C2 4032   0.639   3.791  11.700 -0.3660 -0.7557  0.3424
  263MPD2    C3 4033   0.542   3.881  11.658  0.4750  0.3077  0.2996
  263MPD2    C4 4034   0.407   3.841  11.667  0.1376 -0.4229  0.2336
  263MPD2    C5 4035   0.375   3.718  11.713  0.0363 -0.3012 -0.4418
  263MPD2     H 4036   0.744   3.814  11.682 -0.1705  1.0289  3.7138
  263MPD2    H1 4037   0.325   3.906  11.637 -1.4838 -0.9714  3.4637
  263MPD2    H2 4038   0.450   3.524  11.777 -0.0428  0.0579  0.5797
  263MPD2    H3 4039   0.272   3.688  11.697  0.1182 -0.9560  0.2677
  263MPD2     N 4040   0.585   4.003  11.597 -0.1129  0.2661  0.5798
  263MPD2    H5 4041   0.681   4.016  11.565  0.3837 -1.3808  1.3654
  263MPD2    N1 4042   0.697   3.583  11.814 -0.6131  1.0216 -0.6401
  263MPD2    H7 4043   0.664   3.492  11.843  0.1187  0.5230 -1.3636
  264TMC3    C1 4044   0.575   4.228  11.530 -0.2892 -0.0133  0.3304
  264TMC3    C2 4045   0.545   4.348  11.584  0.2661  0.2515  0.2441
  264TMC3    C3 4046   0.555   4.459  11.498  0.6992  0.1345  0.3578
  264TMC3    C4 4047   0.617   4.208  11.399  0.0230 -0.6270  0.0371
  264TMC3    C5 4048   0.636   4.319  11.322 -0.0069 -0.2371 -0.5717
  264TMC3    C6 4049   0.600   4.441  11.365 -0.2483 -0.7190 -0.3287
  264TMC3     C 4050   0.504   4.117  11.594  0.1020  0.4100 -0.5380
  264TMC3     O 4051   0.388   4.132  11.632  0.3456 -1.1620  0.0562
  264TMC3     H 4052   0.498   4.351  11.681  0.2358  2.4702  0.1458
  264TMC3    H1 4053   0.635   4.104  11.374 -1.5363 -1.0185  0.5566
  264TMC3    H2 4054   0.588   4.522  11.294  1.2441  0.3626  0.6484
  264TMC3    C7 4055   0.754   4.320  11.234 -0.7921  0.2104 -0.1037
  264TMC3    C8 4056   0.622   4.576  11.552 -0.1545  0.2922 -0.0006
  264TMC3    O1 4057   0.796   4.210  11.198 -0.3631  0.4081 -0.2348
  264TMC3    O2 4058   0.709   4.614  11.479 -0.3171 -0.2022  0.3946
  265MPD2     C 4059   2.372   4.354  15.872 -0.0302 -0.6043  0.1717
  265MPD2    C1 4060   2.455   4.445  15.803  0.2349 -0.5836  0.0606
  265MPD2    C2 4061   2.530   4.397  15.700 -0.4946  0.1690 -0.5835
  265MPD2    C3 4062   2.535   4.260  15.672  0.3488  0.0120 -0.1937
  265MPD2    C4 4063   2.458   4.171  15.746  0.8744 -0.2740 -0.1418
  265MPD2    C5 4064   2.380   4.221  15.842 -0.4867 -0.6471  0.1412
  265MPD2     H 4065   2.578   4.473  15.639 -0.5640 -0.3099 -1.2293
  265MPD2    H1 4066   2.462   4.063  15.736  1.8989 -0.2277 -0.2537
  265MPD2    H2 4067   2.298   4.374  15.950  0.0061 -2.0926  0.5855
  265MPD2    H3 4068   2.315   4.150  15.891  0.1052 -1.6150 -0.4837
  265MPD2     N 4069   2.621   4.203  15.577 -0.1421  0.0451  0.3408
  265MPD2    H5 4070   2.615   4.102  15.566  0.7431 -0.1247  1.4416
  265MPD2    N1 4071   2.441   4.582  15.821 -0.2667  0.3782  0.0586
  265MPD2    H7 4072   2.505   4.640  15.767 -0.0653 -1.2223 -1.4290
  266TMC3    C1 4073   2.367   0.055  15.909 -0.4652  0.7281  0.4345
  266TMC3    C2 4074   2.332   0.121  16.020  0.5374  0.5291  0.6324
  266TMC3    C3 4075   2.350   0.254  16.031 -0.9553 -0.0785 -0.5106
  266TMC3    C4 4076   2.407   0.124  15.793  0.3346 -0.3640  1.0308
  266TMC3    C5 4077   2.413   0.260  15.801 -0.0778  0.4350 -0.3741
  266TMC3    C6 4078   2.383   0.328  15.920  0.7519 -0.0674  0.1850
  266TMC3     C 4079   2.366   4.648  15.916 -0.2780 -0.2218 -0.1243
  266TMC3     O 4080   2.287   4.598  15.994  0.3650 -0.3952  0.4643
  266TMC3     H 4081   2.292   0.069  16.106 -0.4155  1.6047  0.8462
  266TMC3    H1 4082   2.430   0.079  15.697  0.5349  2.1892 -0.1174
  266TMC3    H2 4083   2.391   0.436  15.922  3.7571 -0.3232  1.0013
  266TMC3    C7 4084   2.475   0.334  15.687  0.4660 -0.3866 -0.9823
  266TMC3    C8 4085   2.336   0.312  16.162 -0.2715 -0.6745 -0.9154
  266TMC3    O1 4086   2.522   0.262  15.602 -0.1788  0.1049  0.1571
  266TMC3    O2 4087   2.247   0.279  16.240  0.2669 -0.3953  0.1150
  267MPD2     C 4088   0.465   0.857   0.259 -0.6997 -0.0298 -0.4259
  267MPD2    C1 4089   0.594   0.901   0.249  0.6537  0.3592  0.4301
  267MPD2    C2 4090   0.648   0.933   0.121 -0.0767  0.5483 -0.3292
  267MPD2    C3 4091   0.563   0.924   0.004  0.2288 -0.0621  0.0445
  267MPD2    C4 4092   0.437   0.879   0.027 -0.6011 -0.2164 -0.5998
  267MPD2    C5 4093   0.389   0.845   0.149 -0.0461  0.4389 -0.3779
  267MPD2     H 4094   0.749   0.972   0.127  0.1732 -0.5074  2.2038
  267MPD2    H1 4095   0.376   0.856  17.686 -0.4892 -0.6942 -0.5517
  267MPD2    H2 4096   0.431   0.819   0.354  1.6378  0.4543  0.5944
  267MPD2    H3 4097   0.291   0.797   0.149  1.0914 -1.8614 -0.3515
  267MPD2     N 4098   0.603   0.946  17.620  0.2670 -0.0573 -0.3393
  267MPD2    H5 4099   0.530   0.947  17.549  0.6365  1.3624 -0.7041
  267MPD2    N1 4100   0.663   0.904   0.369 -0.2347 -0.0181  0.2936
  267MPD2    H7 4101   0.615   0.872   0.452 -3.5093 -0.0667 -1.5838
  268TMC3    C1 4102   0.834   0.933   0.521 -0.8261 -0.0668 -0.4585
  268TMC3    C2 4103   0.944   1.009   0.553 -0.0329 -0.1834  0.8662
  268TMC3    C3 4104   0.999   0.984   0.667 -0.1571 -0.4075  0.2013
  268TMC3    C4 4105   0.777   0.836   0.595  0.1635 -0.0094  0.7323
  268TMC3    C5 4106   0.829   0.827   0.720  0.2325  0.0272 -0.0225
  268TMC3    C6 4107   0.939   0.904   0.764 -0.4297 -0.1255 -0.4204
  268TMC3     C 4108   0.795   0.941   0.383  1.0191  0.5514 -0.0394
  268TMC3     O 4109   0.879   0.978   0.304 -1.3499 -0.8437  0.0470
  268TMC3     H 4110   0.983   1.079   0.480 -1.9067 -0.2668 -0.2160
  268TMC3    H1 4111   0.713   0.759   0.551  0.5149 -0.0019  0.2104
  268TMC3    H2 4112   0.989   0.880   0.857 -0.1412  1.2018 -0.2387
  268TMC3    C7 4113   0.767   0.732   0.817 -0.2332  0.4202 -0.4603
  268TMC3    C8 4114   1.102   1.076   0.712 -0.7602 -0.1341 -0.1445
  268TMC3    O1 4115   0.833   0.706   0.918 -0.5083 -0.2206  1.0482
  268TMC3    O2 4116   1.115   1.071   0.835 -0.4927 -0.0290 -0.3432
  269MPD2     C 4117   1.019   0.479  15.576 -0.5997 -0.3474  0.1937
  269MPD2    C1 4118   0.880   0.489  15.564  0.5799  0.5581  0.0099
  269MPD2    C2 4119   0.828   0.603  15.508 -0.3378 -0.3524 -0.3915
  269MPD2    C3 4120   0.911   0.693  15.446 -0.4627  0.4333  0.5579
  269MPD2    C4 4121   1.048   0.689  15.471 -0.4071  0.2837  0.1041
  269MPD2    C5 4122   1.103   0.582  15.543  0.3150  0.0281 -0.0129
  269MPD2     H 4123   0.722   0.617  15.496 -0.4652 -0.4373  0.6760
  269MPD2    H1 4124   1.122   0.754  15.425 -0.7908 -0.5678 -1.7409
  269MPD2    H2 4125   1.063   0.394  15.626 -0.8181 -1.3893 -1.4022
  269MPD2    H3 4126   1.210   0.578  15.557  0.4624  0.6834 -0.9344
  269MPD2     N 4127   0.851   0.782  15.354  0.2272 -0.0566  0.1107
  269MPD2    H5 4128   0.751   0.770  15.347  0.0868 -0.0655  2.1394
  269MPD2    N1 4129   0.807   0.385  15.609  0.2175  0.3487 -0.1526
  269MPD2    H7 4130   0.857   0.302  15.639  0.9189  1.3026  1.3137
  270TMC3    C1 4131   0.620   0.245  15.622 -0.2664  0.1879  0.6228
  270TMC3    C2 4132   0.513   0.205  15.551  0.2056  0.4007  0.0917
  270TMC3    C3 4133   0.485   0.079  15.530  0.5520 -0.5287 -0.2208
  270TMC3    C4 4134   0.704   0.149  15.683 -1.0822 -0.4726  0.3266
  270TMC3    C5 4135   0.661   0.022  15.680 -0.5171 -0.1043  0.6752
  270TMC3    C6 4136   0.549   4.722  15.604 -0.5614 -0.4562  0.0196
  270TMC3     C 4137   0.667   0.375  15.590 -0.4284 -0.6729  0.1211
  270TMC3     O 4138   0.583   0.459  15.556 -0.2286 -0.8626 -0.1753
  270TMC3     H 4139   0.460   0.282  15.497 -0.2456 -0.2362 -0.3656
  270TMC3    H1 4140   0.793   0.177  15.738 -0.6798  0.5383 -0.8380
  270TMC3    H2 4141   0.517   4.620  15.615 -0.8684 -0.0250  3.1553
  270TMC3    C7 4142   0.774   4.671  15.651  0.8211  0.3158  0.0422
  270TMC3    C8 4143   0.423   0.049  15.405  0.0694 -0.6060 -0.7989
  270TMC3    O1 4144   0.841   4.627  15.740  1.0170  0.4339 -0.1372
  270TMC3    O2 4145   0.436   0.123  15.312 -0.2755 -0.6348  0.1783
  271MPD2     C 4146   4.446   0.055  14.010 -0.3395  0.5963  0.9748
  271MPD2    C1 4147   4.450   0.042  14.148 -0.9907 -0.1025 -0.0644
  271MPD2    C2 4148   4.326   0.042  14.224  0.5852 -0.6495  0.0344
  271MPD2    C3 4149   4.205   0.041  14.157  0.0026 -0.0331  0.6729
  271MPD2    C4 4150   4.202   0.054  14.020 -0.0457 -0.4906 -0.1459
  271MPD2    C5 4151   4.322   0.072  13.952 -0.5062  0.4326  0.0845
  271MPD2     H 4152   4.336   0.020  14.330  0.1968  2.4455  0.7056
  271MPD2    H1 4153   4.109   0.056  13.964 -0.2902  0.9367  0.3085
  271MPD2    H2 4154   4.533   0.058  13.946 -0.7290 -0.7328  0.4011
  271MPD2    H3 4155   4.313   0.082  13.845  0.1492 -0.0204 -0.0123
  271MPD2     N 4156   4.081   0.014  14.217 -0.6177  0.4952  0.2280
  271MPD2    H5 4157   4.001   0.001  14.155 -0.4930 -1.7968  0.5544
  271MPD2    N1 4158   4.559   0.005  14.220 -0.5288  0.1117 -0.0887
  271MPD2    H7 4159   4.546   4.712  14.316  1.9140  0.9855  0.5140
  272TMC3    C1 4160   0.049   4.701  14.279 -0.1829 -0.0938 -0.0192
  272TMC3    C2 4161   0.178   4.670  14.235 -0.5051  0.8285 -0.2733
  272TMC3    C3 4162   0.263   4.621  14.327  0.3489  0.2474  0.0317
  272TMC3    C4 4163   0.005   4.685  14.407  0.1461 -0.1713  0.1360
  272TMC3    C5 4164   0.092   4.631  14.492  0.0714  0.7830 -0.5374
  272TMC3    C6 4165   0.218   4.591  14.452  0.0007  0.5036 -0.0981
  272TMC3     C 4166   4.687   0.001  14.175  0.3507  0.3915  0.3975
  272TMC3     O 4167   4.733   0.048  14.067  0.3805 -0.0992 -0.5955
  272TMC3     H 4168   0.203   4.694  14.132 -0.7736 -0.5289 -0.6505
  272TMC3    H1 4169   4.645   4.715  14.447 -0.7115  0.6606 -2.5486
  272TMC3    H2 4170   0.276   4.540  14.528 -0.9780 -1.1669 -0.4563
  272TMC3    C7 4171   0.055   4.644  14.631 -0.1970  1.6326  0.4244
  272TMC3    C8 4172   0.403   4.616  14.301 -0.3030  0.0368  0.0885
  272TMC3    O1 4173   4.683   4.598  14.671  0.0675  0.6704  0.1217
  272TMC3    O2 4174   0.435   4.652  14.190  0.2163 -0.4863  0.6980
  273MPD2     C 4175   1.025   2.548  11.525 -0.3650  0.6542  0.1060
  273MPD2    C1 4176   1.142   2.626  11.537  0.7591 -0.3851 -0.4164
  273MPD2    C2 4177   1.216   2.637  11.421 -0.8357  0.0358  0.4751
  273MPD2    C3 4178   1.163   2.601  11.293  0.2610 -0.1664  0.6483
  273MPD2    C4 4179   1.038   2.547  11.288  0.1589  0.0708 -0.5741
  273MPD2    C5 4180   0.979   2.507  11.405 -0.1999 -0.6234 -0.3297
  273MPD2     H 4181   1.308   2.693  11.427 -3.0673  3.6435  0.5809
  273MPD2    H1 4182   1.000   2.510  11.193 -0.6519 -0.6721  0.0460
  273MPD2    H2 4183   0.958   2.532  11.609 -0.8816 -1.6867 -0.7515
  273MPD2    H3 4184   0.878   2.469  11.396 -0.5251 -0.2080  1.5869
  273MPD2     N 4185   1.232   2.626  11.175  0.0096 -0.7997  0.4009
  273MPD2    H5 4186   1.187   2.643  11.085  0.4818 -0.2913  0.2594
  273MPD2    N1 4187   1.172   2.690  11.663  0.7106 -0.2766 -0.1036
  273MPD2    H7 4188   1.109   2.662  11.738  1.0279 -1.9430 -0.4472
  274TMC3    C1 4189   1.392   2.787  11.109  0.0720  0.7071 -0.1749
  274TMC3    C2 4190   1.320   2.815  11.003  0.4393  0.4095  0.4210
  274TMC3    C3 4191   1.321   2.944  10.951  0.3751 -0.7181  0.3107
  274TMC3    C4 4192   1.459   2.885  11.186  0.5131  0.4504  0.2986
  274TMC3    C5 4193   1.458   3.010  11.131 -0.3965 -0.1469 -0.3337
  274TMC3    C6 4194   1.406   3.034  11.011  0.0088  0.8151  0.4440
  274TMC3     C 4195   1.369   2.664  11.183 -0.3984  0.4137  0.3847
  274TMC3     O 4196   1.452   2.632  11.270  0.2315  0.3187 -0.1500
  274TMC3     H 4197   1.254   2.741  10.959  3.3833 -0.2616 -2.8764
  274TMC3    H1 4198   1.505   2.855  11.279  0.0681 -1.2050 -0.0114
  274TMC3    H2 4199   1.378   3.135  10.984 -0.6535  0.7764  1.0025
  274TMC3    C7 4200   1.500   3.124  11.215 -0.4660  0.1141 -0.5981
  274TMC3    C8 4201   1.210   2.982  10.864  0.2058 -0.1909  0.1385
  274TMC3    O1 4202   1.559   3.217  11.162  0.0004  0.3127  0.4596
  274TMC3    O2 4203   1.111   2.911  10.851  0.3283  0.1707  0.4548
  275MPD2     C 4204   1.251   1.441  14.350  0.8652  0.0863 -0.6986
  275MPD2    C1 4205   1.250   1.320  14.417  0.3562 -0.4765  0.0346
  275MPD2    C2 4206   1.159   1.226  14.377  0.1910 -0.8243  0.7031
  275MPD2    C3 4207   1.068   1.255  14.274 -0.2009 -0.7314  0.2281
  275MPD2    C4 4208   1.084   1.373  14.201 -0.8031  0.0215 -0.4967
  275MPD2    C5 4209   1.176   1.464  14.239  0.5361 -0.4421 -0.1719
  275MPD2     H 4210   1.157   1.132  14.431 -1.3332 -1.0267  0.3014
  275MPD2    H1 4211   1.022   1.400  14.117 -1.1472  0.0639 -0.2302
  275MPD2    H2 4212   1.305   1.525  14.393 -0.8583  1.4442 -1.1857
  275MPD2    H3 4213   1.176   1.558  14.185  1.4838 -0.0932  0.4413
  275MPD2     N 4214   0.967   1.171  14.238 -0.3006  0.4640  0.5526
  275MPD2    H5 4215   0.896   1.212  14.179 -2.4483 -0.2106  2.6657
  275MPD2    N1 4216   1.326   1.305  14.532 -0.2915 -0.2088  0.2491
  275MPD2    H7 4217   1.314   1.215  14.576 -1.8117 -0.1450 -0.0335
  276TMC3    C1 4218   1.467   1.347  14.720  0.5706 -0.5054 -0.1011
  276TMC3    C2 4219   1.396   1.251  14.786 -0.0288 -0.5964 -0.7967
  276TMC3    C3 4220   1.451   1.202  14.896  0.2721 -0.1501 -0.3154
  276TMC3    C4 4221   1.593   1.392  14.757  0.0294  0.0611 -0.0470
  276TMC3    C5 4222   1.641   1.348  14.872  0.3533  0.2003 -0.1950
  276TMC3    C6 4223   1.568   1.253  14.937 -0.6118  0.2065 -0.2267
  276TMC3     C 4224   1.417   1.384  14.587  0.1185 -1.2506 -0.0203
  276TMC3     O 4225   1.478   1.477  14.535  0.1829  0.3236 -0.1680
  276TMC3     H 4226   1.302   1.209  14.752  1.3823 -2.2731 -2.6396
  276TMC3    H1 4227   1.646   1.460  14.692 -1.2115  1.1118  0.0528
  276TMC3    H2 4228   1.603   1.225  15.036  1.7207  2.0364 -0.5192
  276TMC3    C7 4229   1.770   1.391  14.921  0.0729 -0.5119  0.2163
  276TMC3    C8 4230   1.384   1.099  14.968 -0.3071 -0.3220 -0.0936
  276TMC3    O1 4231   1.810   1.340  15.025  0.0964  0.2453  0.8648
  276TMC3    O2 4232   1.262   1.106  14.952  0.1313  0.1621  0.5428
  277MPD2     C 4233   3.099   0.384  13.217  0.8908  0.2073 -0.0404
  277MPD2    C1 4234   2.975   0.345  13.253 -0.4392 -0.3247  0.6700
  277MPD2    C2 4235   2.945   0.207  13.283 -0.4369  0.1651 -0.5497
  277MPD2    C3 4236   3.051   0.113  13.283 -0.4524 -0.8296  0.6791
  277MPD2    C4 4237   3.175   0.162  13.248 -0.1992  0.1385  0.2228
  277MPD2    C5 4238   3.195   0.289  13.202 -0.7077  0.3246 -0.0242
  277MPD2     H 4239   2.846   0.167  13.301 -0.4137  1.0804  1.6530
  277MPD2    H1 4240   3.265   0.101  13.247 -0.3947 -0.1016 -1.5831
  277MPD2    H2 4241   3.118   0.488  13.190 -0.7798  0.7443  0.8733
  277MPD2    H3 4242   3.288   0.316  13.152  0.0887 -0.9322  0.7914
  277MPD2     N 4243   3.035   4.721  13.331  0.8939  0.2647 -0.1948
  277MPD2    H5 4244   2.951   4.708  13.387  1.0482 -0.5002 -0.1340
  277MPD2    N1 4245   2.872   0.439  13.253 -0.0225 -0.2272 -0.5278
  277MPD2    H7 4246   2.890   0.530  13.212 -0.8088 -0.0882 -0.5684
  278TMC3    C1 4247   3.065   4.495  13.366  0.6718  0.3266 -0.3074
  278TMC3    C2 4248   3.050   4.378  13.297  0.6349 -0.4558  0.0034
  278TMC3    C3 4249   2.932   4.311  13.314 -0.9798  0.3040 -0.3949
  278TMC3    C4 4250   2.978   4.539  13.459 -0.2063 -0.4505  0.1570
  278TMC3    C5 4251   2.864   4.464  13.471  0.2618 -0.0061  0.3020
  278TMC3    C6 4252   2.833   4.358  13.391  0.2768 -0.1862 -0.8083
  278TMC3     C 4253   3.113   4.613  13.293  0.2449  0.4362 -0.4263
  278TMC3     O 4254   3.192   4.606  13.202  0.7344  0.0027 -0.0116
  278TMC3     H 4255   3.113   4.351  13.213 -0.7828  1.1528 -1.5547
  278TMC3    H1 4256   3.004   4.618  13.529  0.1544  0.2923 -0.8094
  278TMC3    H2 4257   2.746   4.296  13.409 -0.6922  1.9547  2.0752
  278TMC3    C7 4258   2.755   4.546  13.523  0.0306  0.5421  0.3594
  278TMC3    C8 4259   2.921   4.194  13.242 -0.1940  0.2750 -0.1163
  278TMC3    O1 4260   2.770   4.661  13.491  0.4955  0.0022  0.2897
  278TMC3    O2 4261   3.022   4.124  13.219 -0.0931  0.2664  1.0189
  279MPD2     C 4262   2.176   3.629   0.336  0.1056  0.1926  0.0377
  279MPD2    C1 4263   2.152   3.751   0.385 -0.3385 -0.6056  0.5792
  279MPD2    C2 4264   2.170   3.860   0.299 -0.0374 -0.2856 -0.1212
  279MPD2    C3 4265   2.195   3.836   0.162  0.4311  0.3624 -0.4593
  279MPD2    C4 4266   2.218   3.705   0.113 -0.1798 -0.1198  0.0689
  279MPD2    C5 4267   2.213   3.605   0.206  0.8713  0.4565 -0.4943
  279MPD2     H 4268   2.139   3.959   0.330  0.9282 -0.2607  0.7759
  279MPD2    H1 4269   2.246   3.674   0.013  0.2221 -1.4527  0.5921
  279MPD2    H2 4270   2.181   3.543   0.402 -1.9779  0.2810  0.3178
  279MPD2    H3 4271   2.244   3.511   0.163  0.8549  0.7422 -1.1356
  279MPD2     N 4272   2.182   3.937   0.064  0.2383  0.1382 -0.3096
  279MPD2    H5 4273   2.185   3.919  17.710  0.3967  2.4256 -0.7174
  279MPD2    N1 4274   2.122   3.764   0.523 -0.5250  0.4837 -0.3416
  279MPD2    H7 4275   2.130   3.677   0.574 -3.2225  0.7194  0.5052
  280TMC3    C1 4276   2.030   3.869   0.723 -0.2183 -0.5135 -0.0602
  280TMC3    C2 4277   1.985   3.746   0.772  0.1589  0.0114 -0.0982
  280TMC3    C3 4278   1.913   3.750   0.886 -0.0660 -0.2866 -0.4456
  280TMC3    C4 4279   2.003   3.986   0.787  0.9775  0.5805 -0.5464
  280TMC3    C5 4280   1.938   3.982   0.908 -0.3069 -0.2431  0.1926
  280TMC3    C6 4281   1.890   3.868   0.957  0.5008 -0.6720  0.5357
  280TMC3     C 4282   2.089   3.878   0.589 -1.5691  0.0186  0.2592
  280TMC3     O 4283   2.099   3.995   0.549 -0.3905 -0.1941  0.3558
  280TMC3     H 4284   1.986   3.659   0.707  0.5657 -0.9669  1.2145
  280TMC3    H1 4285   2.063   4.072   0.761  2.1066  0.7773  2.7796
  280TMC3    H2 4286   1.833   3.869   1.049 -1.0648  0.9503 -0.4661
  280TMC3    C7 4287   1.905   4.104   0.982  0.1644 -0.0226 -0.0396
  280TMC3    C8 4288   1.807   3.639   0.879  0.1657  0.6094  0.1579
  280TMC3    O1 4289   1.915   4.108   1.103 -0.0699  0.3060 -0.0142
  280TMC3    O2 4290   1.796   3.569   0.779 -0.3026 -0.3944 -0.2121
  281TMC3    C1 4291   0.986   0.070  13.609 -0.2268  1.3652  0.7050
  281TMC3    C2 4292   1.061   0.174  13.555  0.2983  0.1119  0.2169
  281TMC3    C3 4293   1.156   0.139  13.460  0.1274  0.2403 -0.2751
  281TMC3    C4 4294   1.008   4.677  13.565 -0.3916  0.2292  0.1989
  281TMC3    C5 4295   1.114   4.649  13.483  0.2462 -0.1623  0.3044
  281TMC3    C6 4296   1.189   0.014  13.424 -0.0868  0.2259  0.1385
  281TMC3     C 4297   0.847   0.090  13.649  0.2851 -0.1136  0.2351
  281TMC3     O 4298   0.781   4.730  13.676 -0.6047  0.5827  0.0971
  281TMC3     H 4299   1.046   0.276  13.588  0.8126 -0.0537  0.9608
  281TMC3    H1 4300   0.949   4.600  13.612 -0.6696  1.0410  1.1754
  281TMC3    H2 4301   1.262   4.730  13.346  0.1364  1.4494  0.0241
  281TMC3    C7 4302   1.109   4.517  13.417  0.1779  0.0711 -0.1165
  281TMC3    C8 4303   1.253   0.237  13.416  0.3169 -0.0209  0.0104
  281TMC3    O1 4304   1.148   4.510  13.302 -0.1888  0.1752 -0.2163
  281TMC3    O2 4305   1.370   0.199  13.414  0.2452  0.0178 -0.1333
  282MPD2     C 4306   3.100   1.347  15.056  0.2228 -0.4460 -0.5271
  282MPD2    C1 4307   3.021   1.461  15.040 -0.1101 -0.1912  0.1583
  282MPD2    C2 4308   2.961   1.488  14.920 -0.3428 -0.0261 -0.3778
  282MPD2    C3 4309   2.976   1.395  14.817  0.0456 -0.4120  0.5035
  282MPD2    C4 4310   3.043   1.278  14.837  0.0765  0.2685 -0.5212
  282MPD2    C5 4311   3.113   1.252  14.954 -0.3832  0.1396  0.5454
  282MPD2     H 4312   2.897   1.573  14.900  0.2448  0.8409  1.3784
  282MPD2    H1 4313   3.064   1.207  14.758  2.2478  0.7252 -0.3652
  282MPD2    H2 4314   3.147   1.315  15.148  0.5575  1.2730 -0.0973
  282MPD2    H3 4315   3.179   1.166  14.958 -0.7141 -0.0940  0.9681
  282MPD2     N 4316   2.935   1.436  14.689  0.1848  0.6385 -0.5718
  282MPD2    H5 4317   2.880   1.521  14.682 -0.7977 -0.3754 -4.8555
  282MPD2    N1 4318   3.000   1.552  15.153 -0.8399 -0.4688  1.2916
  282MPD2    H7 4319   2.970   1.648  15.140  1.3868  0.0940  0.3867
  283TMC3    C1 4320   2.968   1.595  15.381 -0.4429  0.0070 -0.2415
  283TMC3    C2 4321   2.988   1.725  15.366 -1.1018 -0.0988  0.2683
  283TMC3    C3 4322   2.934   1.814  15.452 -0.4399  0.0651  0.8602
  283TMC3    C4 4323   2.889   1.546  15.480 -0.1278 -0.6570 -0.1024
  283TMC3    C5 4324   2.836   1.636  15.578 -0.2839 -0.4222 -1.1706
  283TMC3    C6 4325   2.853   1.776  15.562  0.5736 -0.6630  0.5577
  283TMC3     C 4326   3.022   1.506  15.282 -0.5596  0.4494 -0.0252
  283TMC3     O 4327   3.060   1.399  15.330  0.7287  0.0023  0.3104
  283TMC3     H 4328   3.045   1.764  15.282  1.2954  0.4208  2.1394
  283TMC3    H1 4329   2.878   1.439  15.477  2.4386 -0.9316  0.0503
  283TMC3    H2 4330   2.789   1.845  15.614  1.0443  1.5465 -1.7969
  283TMC3    C7 4331   2.717   1.597  15.653 -1.0172 -0.0568  0.0661
  283TMC3    C8 4332   2.975   1.948  15.435  0.0712 -0.7454  0.2349
  283TMC3    O1 4333   2.680   1.660  15.748 -0.0495  0.1507 -0.0353
  283TMC3    O2 4334   3.016   1.992  15.327 -0.3044  0.3784  0.1941
  284MPD2     C 4335   1.026   0.899  12.700  0.0842  0.0197  0.0551
  284MPD2    C1 4336   0.982   0.893  12.570  0.4185 -0.1696  0.3167
  284MPD2    C2 4337   0.913   0.785  12.525  0.1825 -0.2503  0.1726
  284MPD2    C3 4338   0.911   0.673  12.599 -0.4317  0.1175  0.4392
  284MPD2    C4 4339   0.963   0.673  12.727  0.4692  0.0708  0.4299
  284MPD2    C5 4340   1.014   0.789  12.785 -0.2096 -0.0035 -0.2388
  284MPD2     H 4341   0.886   0.788  12.420  2.3371  1.8822 -0.3313
  284MPD2    H1 4342   0.957   0.582  12.787 -1.6688  1.0557  1.6870
  284MPD2    H2 4343   1.081   0.988  12.727 -0.9212  0.7390 -0.2851
  284MPD2    H3 4344   1.065   0.780  12.880  1.4886 -1.5125 -1.2968
  284MPD2     N 4345   0.864   0.549  12.546  0.4729 -0.3854 -0.2282
  284MPD2    H5 4346   0.889   0.463  12.594 -2.5400 -0.3370  1.4002
  284MPD2    N1 4347   1.027   0.983  12.473  0.9681 -0.5063 -0.1134
  284MPD2    H7 4348   1.007   0.946  12.380  0.9681  0.3682 -0.4621
  285TMC3    C1 4349   1.119   1.174  12.368 -0.0638  0.0668  0.6016
  285TMC3    C2 4350   1.163   1.097  12.262  0.3069 -0.4915 -0.0016
  285TMC3    C3 4351   1.205   1.168  12.154 -0.6685 -0.1777  0.3856
  285TMC3    C4 4352   1.102   1.310  12.363  0.1529  0.3074 -0.3320
  285TMC3    C5 4353   1.133   1.370  12.243 -1.0524  0.5242 -0.4224
  285TMC3    C6 4354   1.197   1.304  12.144  0.5568  0.0165 -0.0860
  285TMC3     C 4355   1.074   1.110  12.497  0.2574 -0.8201 -0.3213
  285TMC3     O 4356   1.055   1.175  12.598  0.3569  0.0536 -0.1456
  285TMC3     H 4357   1.168   0.989  12.264 -0.3264 -0.5161  0.3246
  285TMC3    H1 4358   1.061   1.369  12.444 -0.8899  1.9956 -2.0877
  285TMC3    H2 4359   1.213   1.355  12.049  0.3195  2.0566  0.9708
  285TMC3    C7 4360   1.101   1.519  12.235  0.2084 -0.1885 -0.5100
  285TMC3    C8 4361   1.216   1.085  12.037 -0.5812 -0.8920 -0.1989
  285TMC3    O1 4362   1.168   1.575  12.147 -0.0077  0.1323 -0.1607
  285TMC3    O2 4363   1.217   0.963  12.049  0.2455 -0.2529 -0.1991
  286MPD2     C 4364   1.151   3.999   2.064  0.1046 -0.5957  0.3969
  286MPD2    C1 4365   1.136   3.955   1.936  0.2443 -0.4522  0.2745
  286MPD2    C2 4366   1.176   3.829   1.900  0.2866  0.3119  0.0629
  286MPD2    C3 4367   1.225   3.741   1.994  0.3512  0.4638 -0.1079
  286MPD2    C4 4368   1.235   3.785   2.128 -0.2831  0.0187 -0.1235
  286MPD2    C5 4369   1.196   3.911   2.157 -0.2365 -0.9297  0.2419
  286MPD2     H 4370   1.174   3.800   1.796  2.6106  0.1448  0.0512
  286MPD2    H1 4371   1.280   3.722   2.203 -0.3296 -1.3437 -1.2347
  286MPD2    H2 4372   1.128   4.098   2.102  0.9157 -0.5645  0.7896
  286MPD2    H3 4373   1.206   3.938   2.261  1.1912 -1.6067  0.2795
  286MPD2     N 4374   1.286   3.619   1.968  0.2557 -0.3483 -0.1714
  286MPD2    H5 4375   1.341   3.583   2.046  2.7108 -0.5855 -2.0193
  286MPD2    N1 4376   1.077   4.033   1.833 -0.0931 -0.1188  0.2116
  286MPD2    H7 4377   1.054   3.980   1.750 -0.8490 -1.7019  1.4256
  287TMC3    C1 4378   1.378   3.442   1.829 -0.1876  1.0182  0.1522
  287TMC3    C2 4379   1.384   3.389   1.702  0.2480  0.6467  0.3469
  287TMC3    C3 4380   1.495   3.317   1.663  0.3747  0.3177 -0.8828
  287TMC3    C4 4381   1.485   3.434   1.916  0.3221 -0.5144  0.6671
  287TMC3    C5 4382   1.586   3.341   1.887 -0.7647  0.4170  0.4436
  287TMC3    C6 4383   1.590   3.287   1.758  0.6702  0.2197  0.1700
  287TMC3     C 4384   1.282   3.555   1.848 -0.3197 -0.3469  0.1506
  287TMC3     O 4385   1.195   3.570   1.763  0.5014  0.7231  0.3813
  287TMC3     H 4386   1.304   3.401   1.630  1.7517  0.2496 -1.3759
  287TMC3    H1 4387   1.492   3.498   2.003  2.0192 -1.0030  0.8799
  287TMC3    H2 4388   1.675   3.224   1.733 -0.1814 -0.7038 -0.3783
  287TMC3    C7 4389   1.705   3.322   1.981 -0.1755 -0.1590 -0.2685
  287TMC3    C8 4390   1.509   3.253   1.536 -0.0713 -0.1018 -0.1176
  287TMC3    O1 4391   1.811   3.282   1.936  0.1560  0.3570 -0.9244
  287TMC3    O2 4392   1.614   3.185   1.524 -0.9160 -0.2018  0.6601
  288TMC3    C1 4393   3.427   4.187  14.540 -0.0550 -0.8148  0.1290
  288TMC3    C2 4394   3.333   4.242  14.625 -0.6908  0.0618  0.6559
  288TMC3    C3 4395   3.242   4.315  14.559  0.9286 -0.3002 -0.6009
  288TMC3    C4 4396   3.431   4.203  14.398 -0.5578  0.4798 -0.4556
  288TMC3    C5 4397   3.320   4.257  14.339  0.2678 -0.4834 -0.3285
  288TMC3    C6 4398   3.229   4.323  14.418 -0.9525 -1.0922  0.3447
  288TMC3     C 4399   3.540   4.129  14.609  0.4864 -0.2793  0.4590
  288TMC3     O 4400   3.530   4.097  14.727 -0.6914 -0.4628 -0.0059
  288TMC3     H 4401   3.353   4.246  14.731  0.5705  0.9750  0.3866
  288TMC3    H1 4402   3.495   4.144  14.333  2.3005 -1.3127  4.0126
  288TMC3    H2 4403   3.143   4.378  14.384  0.5605  0.5219 -0.8138
  288TMC3    C7 4404   3.286   4.227  14.202  0.7917 -0.2690  0.0488
  288TMC3    C8 4405   3.136   4.372  14.634  0.4069  0.5985  0.0092
  288TMC3    O1 4406   3.381   4.186  14.134  0.4749 -0.2231  0.4722
  288TMC3    O2 4407   3.099   4.480  14.586  0.4976  0.7517 -0.2789
  289MPD2     C 4408   3.157   3.044  14.023  0.0841 -0.3192 -0.1294
  289MPD2    C1 4409   3.138   3.179  14.045  0.4521 -0.3724 -0.1150
  289MPD2    C2 4410   3.024   3.237  14.092  0.5544  0.6403 -0.4675
  289MPD2    C3 4411   2.907   3.155  14.107 -0.2562 -0.2858 -0.5736
  289MPD2    C4 4412   2.923   3.025  14.077 -0.1781  0.2533 -0.4091
  289MPD2    C5 4413   3.047   2.968  14.032 -0.3001 -0.2680 -0.3783
  289MPD2     H 4414   3.016   3.345  14.104  1.7669  0.1358  4.8503
  289MPD2    H1 4415   2.846   2.951  14.090  0.6388 -0.3827  0.7724
  289MPD2    H2 4416   3.250   3.005  13.984  0.4101  0.3896 -0.0610
  289MPD2    H3 4417   3.057   2.864  14.002 -1.8409 -1.2270  2.4230
  289MPD2     N 4418   2.782   3.189  14.168  0.1820 -0.4811 -0.0994
  289MPD2    H5 4419   2.719   3.112  14.188 -0.1897  0.0132  0.6387
  289MPD2    N1 4420   3.251   3.258  14.014  0.7991 -0.2575 -0.3204
  289MPD2    H7 4421   3.337   3.204  14.014  0.2288 -1.2067 -2.8403
  290TMC3    C1 4422   2.648   3.332  14.302 -0.0051  0.0091 -0.5956
  290TMC3    C2 4423   2.581   3.447  14.281 -0.3125 -0.1984 -0.4574
  290TMC3    C3 4424   2.450   3.455  14.337 -0.2956  0.2647 -0.4980
  290TMC3    C4 4425   2.596   3.223  14.373 -0.2639  0.5254 -0.0970
  290TMC3    C5 4426   2.470   3.236  14.420 -0.2380 -0.4105  0.2787
  290TMC3    C6 4427   2.393   3.348  14.400 -0.4630 -0.6270 -0.9653
  290TMC3     C 4428   2.763   3.314  14.211 -0.4234  0.0889  0.2523
  290TMC3     O 4429   2.811   3.420  14.176  0.3808 -0.9471  1.0586
  290TMC3     H 4430   2.636   3.533  14.244  0.9115 -0.4680  0.7380
  290TMC3    H1 4431   2.648   3.129  14.385  0.7201  0.9589 -0.9416
  290TMC3    H2 4432   2.297   3.365  14.448 -0.5333  2.1874 -2.0580
  290TMC3    C7 4433   2.402   3.124  14.477 -0.3154  0.1948  0.9301
  290TMC3    C8 4434   2.365   3.569  14.321 -0.1294  0.2147  0.3095
  290TMC3    O1 4435   2.280   3.140  14.477 -0.2125 -0.4890  0.6771
  290TMC3    O2 4436   2.248   3.545  14.310  0.4986 -0.0614 -0.6174
  291MPD2     C 4437   3.168   3.022   0.740 -0.7853  0.0250  0.5830
  291MPD2    C1 4438   3.129   2.911   0.664  0.1383 -0.3472  0.2661
  291MPD2    C2 4439   3.104   2.935   0.526 -1.1573  0.4554 -0.0515
  291MPD2    C3 4440   3.113   3.054   0.463  0.2230 -0.4085  0.7101
  291MPD2    C4 4441   3.154   3.159   0.544  0.1308 -0.5510  0.2959
  291MPD2    C5 4442   3.183   3.145   0.679 -0.8732  0.4635 -0.4860
  291MPD2     H 4443   3.076   2.842   0.477 -0.4266  0.1754  0.0458
  291MPD2    H1 4444   3.165   3.257   0.500 -0.2404  0.0989  1.6473
  291MPD2    H2 4445   3.195   3.010   0.844  1.4236 -0.8955 -0.1152
  291MPD2    H3 4446   3.238   3.223   0.729 -0.6775 -0.7260  1.1312
  291MPD2     N 4447   3.071   3.073   0.326 -0.1591  0.5526 -0.5025
  291MPD2    H5 4448   3.068   3.167   0.289  1.8552  0.7885 -0.0589
  291MPD2    N1 4449   3.114   2.797   0.736 -0.4494  0.6575  0.0353
  291MPD2    H7 4450   3.135   2.804   0.835 -3.3034 -0.1229  0.7064
  292TMC3    C1 4451   3.058   2.563   0.768  0.2130  0.8082  0.3302
  292TMC3    C2 4452   2.998   2.596   0.885 -0.7728 -0.4072  0.4653
  292TMC3    C3 4453   2.938   2.496   0.959  0.2964 -0.1634 -0.1278
  292TMC3    C4 4454   3.085   2.429   0.735 -0.0964 -0.4087 -0.0009
  292TMC3    C5 4455   3.036   2.330   0.817 -0.7494 -0.3116 -0.3321
  292TMC3    C6 4456   2.949   2.370   0.917 -0.7623 -0.0430  0.0634
  292TMC3     C 4457   3.104   2.668   0.678  0.3788  0.3030  1.0369
  292TMC3     O 4458   3.119   2.632   0.560 -0.3253 -0.2361  0.3716
  292TMC3     H 4459   2.981   2.700   0.909  0.9027 -0.4806  1.9917
  292TMC3    H1 4460   3.157   2.410   0.656 -0.3437 -1.3691  0.0090
  292TMC3    H2 4461   2.882   2.294   0.956  0.8225 -0.2003  2.4286
  292TMC3    C7 4462   3.035   2.195   0.773 -0.5056  0.3980 -0.3520
  292TMC3    C8 4463   2.815   2.528   1.036  0.0543  0.6825 -0.0589
  292TMC3    O1 4464   3.043   2.170   0.654  0.1763 -0.3114  0.3017
  292TMC3    O2 4465   2.826   2.633   1.102 -0.0956 -0.7669 -0.0751
  293MPD2     C 4466   3.668   4.230  13.293  0.7393 -0.5256  0.3525
  293MPD2    C1 4467   3.762   4.325  13.253  0.0951 -0.4723  0.4891
  293MPD2    C2 4468   3.875   4.349  13.331 -0.1793  0.2812 -1.4533
  293MPD2    C3 4469   3.902   4.265  13.434  1.4433 -0.1510  0.5961
  293MPD2    C4 4470   3.816   4.162  13.469 -0.4863  0.2633 -0.4008
  293MPD2    C5 4471   3.697   4.143  13.392 -0.9653  0.0521  0.2694
  293MPD2     H 4472   3.947   4.427  13.310  2.5842 -1.8709  0.1428
  293MPD2    H1 4473   3.836   4.093  13.550 -0.7072  1.5199  0.7393
  293MPD2    H2 4474   3.591   4.206  13.221  3.0167  0.0318 -2.2631
  293MPD2    H3 4475   3.626   4.065  13.415 -0.4787 -0.4984 -0.0872
  293MPD2     N 4476   4.021   4.281  13.517  0.6923  0.1912  1.0653
  293MPD2    H5 4477   4.078   4.362  13.495 -0.3331  0.4871 -0.5359
  293MPD2    N1 4478   3.748   4.369  13.121 -0.5378 -0.2842 -0.2460
  293MPD2    H7 4479   3.670   4.336  13.066  0.3390  0.1323 -1.7580
  294TMC3    C1 4480   3.815   4.475  12.917 -0.3276  0.7737  0.5176
  294TMC3    C2 4481   3.733   4.384  12.857  0.8316 -0.2482  0.3943
  294TMC3    C3 4482   3.714   4.401  12.724 -0.2957 -0.1640  0.4896
  294TMC3    C4 4483   3.854   4.584  12.849  0.4515 -0.5707 -0.3276
  294TMC3    C5 4484   3.815   4.601  12.723  0.1003  0.4244  0.0996
  294TMC3    C6 4485   3.747   4.513  12.657  0.8002 -0.1962 -0.0435
  294TMC3     C 4486   3.841   4.450  13.056  0.3798  0.3332 -0.4031
  294TMC3     O 4487   3.943   4.507  13.093  0.7325 -0.0051 -0.1124
  294TMC3     H 4488   3.712   4.284  12.894 -0.5790 -1.2258 -3.1213
  294TMC3    H1 4489   3.899   4.659  12.913 -1.7143 -1.2765  2.0348
  294TMC3    H2 4490   3.723   4.529  12.552  0.7290  0.8668  0.1362
  294TMC3    C7 4491   3.845   4.732  12.669  0.5417 -0.6300 -0.3653
  294TMC3    C8 4492   3.608   4.310  12.677 -0.0351  0.5443  0.0863
  294TMC3    O1 4493   3.862   0.085  12.748 -0.6219 -0.0493 -0.4419
  294TMC3    O2 4494   3.541   4.268  12.770 -0.1343  0.2204 -0.1572
  295MPD2     C 4495   4.476   2.314   0.910  0.9874 -0.3172 -0.1877
  295MPD2    C1 4496   4.461   2.443   0.849  0.4843 -0.2999 -0.3307
  295MPD2    C2 4497   4.423   2.548   0.924 -0.2959  0.1887 -0.0566
  295MPD2    C3 4498   4.380   2.534   1.052  0.4640  0.1566 -0.3543
  295MPD2    C4 4499   4.399   2.419   1.117  0.3056 -0.2109 -0.5598
  295MPD2    C5 4500   4.447   2.312   1.043  0.5546 -0.7388  0.1446
  295MPD2     H 4501   4.415   2.644   0.874  1.8860  0.6446  0.4799
  295MPD2    H1 4502   4.371   2.399   1.220  0.7519 -0.8776 -0.5722
  295MPD2    H2 4503   4.511   2.224   0.860 -0.1677  0.3126 -2.1085
  295MPD2    H3 4504   4.450   2.214   1.090 -4.4944 -0.9289  0.0550
  295MPD2     N 4505   4.333   2.645   1.128  0.0139 -0.3511  0.4674
  295MPD2    H5 4506   4.324   2.628   1.227 -0.4183 -1.8820  0.1547
  295MPD2    N1 4507   4.491   2.477   0.712 -0.4870  0.7529 -0.2900
  295MPD2    H7 4508   4.474   2.574   0.689  1.3385  1.1285 -0.0064
  296TMC3    C1 4509   4.245   2.860   1.177  0.0414  0.0865 -0.0840
  296TMC3    C2 4510   4.137   2.942   1.144  1.0945 -0.0845 -0.2461
  296TMC3    C3 4511   4.060   3.013   1.238 -0.3404 -0.3935  0.7912
  296TMC3    C4 4512   4.267   2.836   1.318 -0.1195  0.6492 -0.1894
  296TMC3    C5 4513   4.182   2.895   1.405  0.4853  0.0901 -0.2057
  296TMC3    C6 4514   4.082   2.989   1.370  0.6174  0.8290  0.5860
  296TMC3     C 4515   4.298   2.771   1.075 -0.0946  0.0916 -0.7735
  296TMC3     O 4516   4.284   2.812   0.959 -0.5078 -0.5321  0.3621
  296TMC3     H 4517   4.117   2.960   1.039  0.7658  0.9845 -0.0029
  296TMC3    H1 4518   4.342   2.767   1.352 -0.9164 -1.6720 -3.1180
  296TMC3    H2 4519   4.015   3.037   1.441  0.3549  3.6932 -1.6111
  296TMC3    C7 4520   4.202   2.879   1.550 -0.4888 -0.1302 -0.1995
  296TMC3    C8 4521   3.984   3.136   1.205  0.4274 -0.6872 -0.4085
  296TMC3    O1 4522   4.140   2.950   1.627 -0.5428  0.2259 -0.7358
  296TMC3    O2 4523   3.915   3.188   1.295  0.2626 -0.1229 -0.7532
  297MPD2     C 4524   2.176   0.501  16.931 -0.1261  0.9066 -0.5462
  297MPD2    C1 4525   2.117   0.459  16.814  0.0669  0.5879  0.0794
  297MPD2    C2 4526   2.105   0.548  16.712 -0.3905 -0.5600  0.1066
  297MPD2    C3 4527   2.165   0.678  16.721  0.5263  0.3833 -0.5529
  297MPD2    C4 4528   2.223   0.715  16.845  0.3810 -0.0398  0.3747
  297MPD2    C5 4529   2.219   0.630  16.951 -0.6061  0.7313 -0.4503
  297MPD2     H 4530   2.064   0.510  16.619  0.3730 -1.2994  0.0774
  297MPD2    H1 4531   2.271   0.812  16.851  1.2848 -0.4392 -0.5439
  297MPD2    H2 4532   2.174   0.439  17.020  0.1145  1.0107 -0.4665
  297MPD2    H3 4533   2.239   0.652  17.055  1.4293 -0.4244 -0.5955
  297MPD2     N 4534   2.164   0.771  16.617  0.0097 -0.0037  0.0689
  297MPD2    H5 4535   2.207   0.863  16.627 -1.3163  0.3374  2.5534
  297MPD2    N1 4536   2.064   0.332  16.795 -0.4283  0.3390  0.2236
  297MPD2    H7 4537   2.004   0.321  16.715 -0.1004 -1.3444  0.1978
  298TMC3    C1 4538   1.992   0.106  16.857 -0.7903  0.7580  0.4841
  298TMC3    C2 4539   2.020   0.005  16.939  0.0430  0.4940  0.4235
  298TMC3    C3 4540   1.924   4.653  16.972  0.2040  0.2932 -0.3773
  298TMC3    C4 4541   1.865   0.125  16.810  0.2746 -0.0798  0.2811
  298TMC3    C5 4542   1.765   0.038  16.854 -0.4053 -0.0284  0.2300
  298TMC3    C6 4543   1.793   4.671  16.927 -0.4963  0.8562 -0.4801
  298TMC3     C 4544   2.083   0.221  16.878 -0.4508  0.7756  0.2637
  298TMC3     O 4545   2.168   0.208  16.964  0.0893 -0.1309 -0.0008
  298TMC3     H 4546   2.125   4.723  16.958  0.7389  1.7242 -2.2946
  298TMC3    H1 4547   1.831   0.221  16.774  1.8909  0.0656 -0.8476
  298TMC3    H2 4548   1.718   4.605  16.968  1.1582 -1.2455 -0.8209
  298TMC3    C7 4549   1.649   0.115  16.907  0.4382  0.0088  0.1846
  298TMC3    C8 4550   1.949   4.515  17.006  0.2980  0.1801 -0.1447
  298TMC3    O1 4551   1.610   0.099  17.022  0.2491  0.3057 -0.2967
  298TMC3    O2 4552   1.895   4.440  16.930  0.2168 -0.0305  0.3613
  299MPD2     C 4553   2.154   0.173  10.042 -0.3301 -0.6919 -0.1526
  299MPD2    C1 4554   2.179   0.164  10.182  0.0246  0.0656  0.2028
  299MPD2    C2 4555   2.072   0.163  10.263 -0.0637 -0.2685 -0.0769
  299MPD2    C3 4556   1.943   0.164  10.214 -0.8727 -0.5990 -0.2163
  299MPD2    C4 4557   1.920   0.151  10.075  0.5993  0.4518 -0.6528
  299MPD2    C5 4558   2.029   0.155   9.994 -0.2817  0.6568  0.2250
  299MPD2     H 4559   2.095   0.163  10.369  0.2708 -0.0860 -0.1481
  299MPD2    H1 4560   1.826   0.138  10.023  0.7860  0.2932 -0.9524
  299MPD2    H2 4561   2.235   0.192   9.972  0.8946 -1.7849  0.9643
  299MPD2    H3 4562   2.004   0.156   9.889  0.5257 -1.1311  0.0203
  299MPD2     N 4563   1.824   0.172  10.288 -0.0888  0.0807 -0.7649
  299MPD2    H5 4564   1.745   0.197  10.230 -0.8363 -0.1754  0.1392
  299MPD2    N1 4565   2.311   0.180  10.230  0.3163  0.1464  0.3737
  299MPD2    H7 4566   2.381   0.219  10.167 -1.5280  1.4469 -0.8775
  300TMC3    C1 4567   1.694   0.232  10.479  0.0922  0.0329 -0.0758
  300TMC3    C2 4568   1.607   0.301  10.404  0.5913 -0.1724 -0.3708
  300TMC3    C3 4569   1.496   0.346  10.466 -0.4203  0.0140 -0.1801
  300TMC3    C4 4570   1.665   0.189  10.608  0.0356  0.0971 -1.0119
  300TMC3    C5 4571   1.551   0.235  10.667 -0.1460  0.9794 -0.2468
  300TMC3    C6 4572   1.465   0.312  10.595  0.1420 -0.6064  1.0342
  300TMC3     C 4573   1.821   0.182  10.423  0.6820 -0.0613 -0.0843
  300TMC3     O 4574   1.908   0.164  10.501  0.2043 -0.6144  0.2562
  300TMC3     H 4575   1.638   0.339  10.308 -0.9709 -0.6724 -1.0863
  300TMC3    H1 4576   1.732   0.119  10.658 -0.5729 -0.1340 -0.5070
  300TMC3    H2 4577   1.368   0.349  10.625  0.2608 -0.5078  1.3019
  300TMC3    C7 4578   1.517   0.181  10.796  0.7657 -0.5849 -0.2321
  300TMC3    C8 4579   1.430   0.466  10.420  0.0152  0.7378  0.7919
  300TMC3    O1 4580   1.590   0.091  10.833  0.5250  0.4247 -0.1126
  300TMC3    O2 4581   1.504   0.562  10.405  0.1908 -0.5484 -0.3467
  301MPD2     C 4582   4.382   0.868   1.091  0.2217 -0.1894 -0.0675
  301MPD2    C1 4583   4.407   0.863   0.958 -0.2248  0.2912 -0.4006
  301MPD2    C2 4584   4.373   0.747   0.891  0.1173  0.5569 -0.0420
  301MPD2    C3 4585   4.331   0.631   0.961  0.8293 -0.4766  0.6072
  301MPD2    C4 4586   4.331   0.633   1.100  0.7497 -0.3262  0.2296
  301MPD2    C5 4587   4.352   0.756   1.164 -0.6091 -0.4625 -0.2301
  301MPD2     H 4588   4.376   0.752   0.783  1.6089  2.0893  0.0739
  301MPD2    H1 4589   4.310   0.549   1.165 -0.9610  0.6338  0.9181
  301MPD2    H2 4590   4.401   0.959   1.148  0.3195 -0.3555  0.1684
  301MPD2    H3 4591   4.342   0.771   1.271  0.4160  0.0133 -0.2006
  301MPD2     N 4592   4.301   0.508   0.897 -0.4436 -0.6026 -0.3181
  301MPD2    H5 4593   4.276   0.423   0.946 -1.4206 -0.7863 -1.1422
  301MPD2    N1 4594   4.454   0.973   0.881  0.5138 -0.4553 -0.1270
  301MPD2    H7 4595   4.455   0.958   0.781  0.8313  0.3834 -0.2500
  302TMC3    C1 4596   4.275   0.348   0.716  0.7745  0.6013 -0.7478
  302TMC3    C2 4597   4.372   0.267   0.768 -0.0296  0.1756  0.7704
  302TMC3    C3 4598   4.399   0.155   0.692  0.2677 -0.6904 -0.1356
  302TMC3    C4 4599   4.212   0.325   0.595 -0.3553 -0.4921 -0.6516
  302TMC3    C5 4600   4.242   0.211   0.524 -0.6445 -0.2317 -0.3708
  302TMC3    C6 4601   4.333   0.121   0.573 -0.3433 -0.0836  0.7426
  302TMC3     C 4602   4.296   0.488   0.758  0.1605  0.0308  0.6995
  302TMC3     O 4603   4.281   0.572   0.671 -0.8599 -0.1805  0.0954
  302TMC3     H 4604   4.414   0.285   0.867  1.4668  1.4804 -0.1173
  302TMC3    H1 4605   4.149   0.403   0.554  1.4223  2.1361  1.6325
  302TMC3    H2 4606   4.342   0.019   0.538  0.7078  0.9502 -1.9742
  302TMC3    C7 4607   4.232   0.201   0.379 -0.1581  0.9370  0.1389
  302TMC3    C8 4608   4.501   0.066   0.745 -0.1696 -0.1343  0.5251
  302TMC3    O1 4609   4.312   0.118   0.336  0.4242  0.7674  0.2203
  302TMC3    O2 4610   4.514   0.073   0.865 -0.5577 -0.4016  0.0818
  303MPD2     C 4611   4.724   4.105  10.606  0.5347 -0.0909 -0.0452
  303MPD2    C1 4612   4.602   4.162  10.589 -1.3037 -0.7135  0.2914
  303MPD2    C2 4613   4.582   4.239  10.475 -0.0096 -0.5450 -0.0087
  303MPD2    C3 4614   4.683   4.258  10.384  0.8800  0.1793 -0.4271
  303MPD2    C4 4615   0.069   4.212  10.410 -0.3053 -1.1666  0.5928
  303MPD2    C5 4616   0.092   4.139  10.526 -0.2780 -0.0564 -0.0656
  303MPD2     H 4617   4.481   4.277  10.460  0.6911  1.8438  1.3367
  303MPD2    H1 4618   0.156   4.220  10.346 -0.2407  2.0318  1.0988
  303MPD2    H2 4619   0.008   4.041  10.692  0.8439  0.2030  0.1019
  303MPD2    H3 4620   0.191   4.103  10.552 -0.6684  1.1191  3.0955
  303MPD2     N 4621   4.658   4.324  10.256 -0.6335 -0.0686  0.3477
  303MPD2    H5 4622   4.729   4.329  10.184 -1.3576 -1.6884 -0.4836
  303MPD2    N1 4623   4.495   4.113  10.672 -0.3030 -0.7268  0.2031
  303MPD2    H7 4624   4.512   4.035  10.734 -1.5848 -1.8919 -0.9020
  304TMC3    C1 4625   4.280   4.091  10.720 -0.2827 -0.1050 -0.5253
  304TMC3    C2 4626   4.176   4.139  10.789 -0.0500  0.4123 -0.8509
  304TMC3    C3 4627   4.066   4.052  10.808 -0.1117  0.6916 -0.5547
  304TMC3    C4 4628   4.280   3.967  10.653 -0.0190 -0.6893  0.6445
  304TMC3    C5 4629   4.164   3.903  10.657 -1.4776  0.1781 -0.3529
  304TMC3    C6 4630   4.070   3.934  10.742 -0.3603  0.1598  0.4384
  304TMC3     C 4631   4.376   4.179  10.671 -0.1590  0.2858  0.3701
  304TMC3     O 4632   4.336   4.282  10.625 -0.1740  0.0703  0.0707
  304TMC3     H 4633   4.182   4.237  10.835  1.1871 -1.2103  2.3785
  304TMC3    H1 4634   4.362   3.942  10.586  0.2829 -0.7119  1.0210
  304TMC3    H2 4635   3.987   3.866  10.746 -1.7941  1.9860  1.8875
  304TMC3    C7 4636   4.120   3.862  10.526 -0.3033 -0.4518 -0.7949
  304TMC3    C8 4637   3.940   4.116  10.824 -0.7733 -0.1847 -0.0878
  304TMC3    O1 4638   4.205   3.814  10.453 -0.0832 -0.6346 -0.6777
  304TMC3    O2 4639   3.858   4.054  10.755  0.7169 -0.2141  0.0330
  305MPD2     C 4640   2.842   1.885  14.402  0.0038 -0.2315 -0.2385
  305MPD2    C1 4641   2.917   1.770  14.380 -0.2759  0.2239 -0.4353
  305MPD2    C2 4642   2.886   1.700  14.266  0.1137  0.0307  0.7351
  305MPD2    C3 4643   2.783   1.732  14.182 -0.2105 -0.5983  0.6231
  305MPD2    C4 4644   2.713   1.847  14.202  0.5350 -0.3333 -0.2199
  305MPD2    C5 4645   2.746   1.922  14.311 -0.2988 -0.3415 -0.2935
  305MPD2     H 4646   2.940   1.608  14.245  0.9140  0.9251 -1.1509
  305MPD2    H1 4647   2.637   1.878  14.131  0.1185 -2.1843 -0.5712
  305MPD2    H2 4648   2.867   1.953  14.483  0.8636 -2.0849  1.0257
  305MPD2    H3 4649   2.691   2.012  14.333  1.4165  0.5371  0.3486
  305MPD2     N 4650   2.751   1.648  14.075  0.3803  0.2875  0.6115
  305MPD2    H5 4651   2.807   1.566  14.054 -1.0222  0.0775 -2.2915
  305MPD2    N1 4652   3.022   1.756  14.475 -0.2810 -0.3791  0.9081
  305MPD2    H7 4653   3.019   1.827  14.547  0.1496  1.0617 -0.5015
  306TMC3    C1 4654   3.202   1.654  14.597 -0.2930  0.0355 -0.1317
  306TMC3    C2 4655   3.313   1.570  14.574  0.1058  0.0844 -0.1662
  306TMC3    C3 4656   3.383   1.529  14.683  0.4297 -0.3634  0.0030
  306TMC3    C4 4657   3.174   1.706  14.719 -0.2693 -0.9560 -0.3973
  306TMC3    C5 4658   3.244   1.658  14.826  0.0263 -0.1129 -0.1425
  306TMC3    C6 4659   3.344   1.570  14.809 -0.0231 -0.3618 -0.3918
  306TMC3     C 4660   3.108   1.650  14.484 -0.0926 -0.1545  0.2883
  306TMC3     O 4661   3.127   1.554  14.411  0.3217  0.3050 -0.5722
  306TMC3     H 4662   3.340   1.547  14.471  1.2224 -0.2581  0.2146
  306TMC3    H1 4663   3.081   1.759  14.733  0.6974  0.4929  0.5356
  306TMC3    H2 4664   3.408   1.537  14.890 -1.6354  2.0758  1.8792
  306TMC3    C7 4665   3.233   1.737  14.948  0.3206 -0.1334  1.6435
  306TMC3    C8 4666   3.491   1.427  14.675 -0.8091 -0.1289 -0.1098
  306TMC3    O1 4667   3.132   1.802  14.959 -0.5864 -0.3215  0.6428
  306TMC3    O2 4668   3.564   1.413  14.773  0.0866  0.1590 -0.0570
  307MPD2     C 4669   1.254   4.435   1.220 -0.1536  0.0484 -1.0002
  307MPD2    C1 4670   1.186   4.489   1.116  0.1095 -1.0793  0.4823
  307MPD2    C2 4671   1.082   4.416   1.065 -0.3897 -0.1544  0.8032
  307MPD2    C3 4672   1.040   4.304   1.121 -0.8607  0.1153 -0.0944
  307MPD2    C4 4673   1.095   4.258   1.237  0.6283 -0.6071  0.1257
  307MPD2    C5 4674   1.207   4.320   1.283  0.0672  0.3944  0.6358
  307MPD2     H 4675   1.026   4.445   0.976  1.5496  2.7913  0.5202
  307MPD2    H1 4676   1.051   4.175   1.289  0.7973 -0.4238  0.5599
  307MPD2    H2 4677   1.338   4.484   1.268 -1.1460 -1.0992  1.9131
  307MPD2    H3 4678   1.246   4.293   1.380  0.9490  1.9209  0.7043
  307MPD2     N 4679   0.934   4.242   1.050 -0.4879  0.8004 -0.4474
  307MPD2    H5 4680   0.905   4.279   0.960 -1.0520 -0.5554 -0.8247
  307MPD2    N1 4681   1.206   4.623   1.070  0.4256  0.5836 -0.1259
  307MPD2    H7 4682   1.137   4.653   1.002 -0.1966  0.7758  0.5811
  308TMC3    C1 4683   0.660   4.181   0.798  0.5678  0.1529  0.9366
  308TMC3    C2 4684   0.550   4.247   0.847 -0.7344 -0.0043  0.7931
  308TMC3    C3 4685   0.539   4.264   0.981  0.3502  0.2210  0.2170
  308TMC3    C4 4686   0.752   4.119   0.880 -0.1309  0.4222  0.0701
  308TMC3    C5 4687   0.738   4.129   1.015 -0.1409  0.2493 -0.3746
  308TMC3    C6 4688   0.634   4.203   1.063 -0.8251 -0.2822  0.3522
  308TMC3     C 4689   0.656   4.151   0.659 -0.0551  1.1540 -0.2406
  308TMC3     O 4690   0.761   4.159   0.599  0.1107 -0.0073 -0.6398
  308TMC3     H 4691   0.475   4.290   0.781  0.6060  2.6159  0.9570
  308TMC3    H1 4692   0.843   4.081   0.834 -0.8012 -1.1902  0.0661
  308TMC3    H2 4693   0.634   4.229   1.168 -1.2154  1.2759 -0.0355
  308TMC3    C7 4694   0.856   4.139   1.095  0.7676 -0.1969 -0.0259
  308TMC3    C8 4695   0.470   4.386   1.028  0.1729  0.0139  0.6403
  308TMC3    O1 4696   0.865   4.081   1.206 -0.5362 -0.2093  0.0451
  308TMC3    O2 4697   0.435   4.397   1.143  0.3783 -0.5812 -1.0317
  309MPD2     C 4698   0.222   4.681  17.045 -0.4297  0.4109  0.1870
  309MPD2    C1 4699   0.135   4.719  16.937  0.4662 -0.0525  0.2731
  309MPD2    C2 4700   0.008   0.019  16.964 -0.2270 -0.1054  0.2300
  309MPD2    C3 4701   4.695   0.022  17.095 -0.1969  0.4656  0.2950
  309MPD2    C4 4702   0.044   4.731  17.201 -0.2309 -0.7312  0.2260
  309MPD2    C5 4703   0.179   4.700  17.179  0.0847 -0.2705  0.6192
  309MPD2     H 4704   4.678   0.048  16.884  1.0667 -0.7624 -1.1172
  309MPD2    H1 4705   0.021   0.006  17.306 -0.0125 -0.9626  0.2996
  309MPD2    H2 4706   0.325   4.649  17.034 -0.5755  0.3868 -1.1318
  309MPD2    H3 4707   0.242   4.684  17.267 -0.5554 -2.3926  0.6846
  309MPD2     N 4708   4.565   0.058  17.137  0.0697 -0.0819  0.0371
  309MPD2    H5 4709   4.557   0.063  17.238  1.4065  0.6295  0.1144
  309MPD2    N1 4710   0.174   4.724  16.803 -0.5275  0.2933  0.1863
  309MPD2    H7 4711   0.098   4.735  16.737 -0.4846  0.1017  0.1037
  310TMC3    C1 4712   0.328   4.708  16.612 -0.0157 -0.3905 -0.6367
  310TMC3    C2 4713   0.229   0.016  16.523 -0.1325  0.1632 -0.7166
  310TMC3    C3 4714   0.275   0.047  16.395 -0.3225 -0.1149  1.0644
  310TMC3    C4 4715   0.464   4.700  16.586 -0.2354  0.5409 -0.2271
  310TMC3    C5 4716   0.494   4.729  16.452  0.7841 -0.5090  0.5091
  310TMC3    C6 4717   0.404   0.027  16.355 -0.3228 -0.0908 -0.1844
  310TMC3     C 4718   0.299   4.697  16.754  0.3690  0.2175  0.4627
  310TMC3     O 4719   0.402   4.681  16.822  0.2064 -0.6256 -0.0971
  310TMC3     H 4720   0.126   0.013  16.555  0.7882 -0.0066  2.2565
  310TMC3    H1 4721   0.536   4.656  16.654 -1.7954 -2.1421 -0.3061
  310TMC3    H2 4722   0.432   0.050  16.253 -2.2098 -0.9722 -0.8967
  310TMC3    C7 4723   0.615   4.668  16.401 -0.3475  0.3348 -0.3206
  310TMC3    C8 4724   0.172   0.081  16.298  0.6154  0.4305 -0.0547
  310TMC3    O1 4725   0.643   4.552  16.442  0.2000 -0.1535  0.1174
  310TMC3    O2 4726   0.056   0.056  16.337 -0.3404  0.4662 -0.4064
  311MPD2     C 4727   1.989   1.657  13.388 -0.3057 -0.3046  0.1329
  311MPD2    C1 4728   1.922   1.703  13.279  0.3900 -0.0719  0.5482
  311MPD2    C2 4729   1.783   1.678  13.270  0.1847  1.0387  0.1888
  311MPD2    C3 4730   1.723   1.616  13.374 -0.0392  0.5443 -0.1590
  311MPD2    C4 4731   1.794   1.586  13.487 -0.0734 -0.0246  0.5050
  311MPD2    C5 4732   1.926   1.603  13.495 -0.0686  0.0536 -0.3800
  311MPD2     H 4733   1.737   1.694  13.173  0.2347 -2.1516 -0.3541
  311MPD2    H1 4734   1.745   1.544  13.575  1.6345  0.0428  1.5021
  311MPD2    H2 4735   2.097   1.653  13.397 -0.2137 -2.6912 -2.0020
  311MPD2    H3 4736   1.983   1.562  13.577 -0.4058  1.2830  0.4564
  311MPD2     N 4737   1.586   1.588  13.375 -0.4006 -0.5001  0.5250
  311MPD2    H5 4738   1.550   1.524  13.445 -1.4096 -1.5717 -0.9663
  311MPD2    N1 4739   1.987   1.762  13.171 -0.4969 -0.3605  0.0313
  311MPD2    H7 4740   1.929   1.782  13.091  0.9156  0.4656 -0.7970
  312TMC3    C1 4741   1.371   1.559  13.273 -0.4504 -0.4684 -0.0420
  312TMC3    C2 4742   1.297   1.571  13.161  0.3086  0.2909  0.0028
  312TMC3    C3 4743   1.168   1.516  13.166  0.4591  0.3244  0.2385
  312TMC3    C4 4744   1.331   1.496  13.388  0.2432  0.1370  0.5886
  312TMC3    C5 4745   1.208   1.418  13.378 -0.0374 -1.1207  0.0979
  312TMC3    C6 4746   1.126   1.431  13.270 -0.0999  0.2701 -0.5635
  312TMC3     C 4747   1.498   1.620  13.269 -0.0816 -0.6231 -0.5829
  312TMC3     O 4748   1.512   1.693  13.175 -1.0073  0.3781  0.0968
  312TMC3     H 4749   1.314   1.640  13.079 -1.2821  1.7181  0.8560
  312TMC3    H1 4750   1.396   1.493  13.475  0.0369  0.2536  0.7441
  312TMC3    H2 4751   1.025   1.393  13.270  0.3652 -0.9025  2.1911
  312TMC3    C7 4752   1.151   1.363  13.497  0.2113 -0.5513  0.0329
  312TMC3    C8 4753   1.064   1.595  13.114 -0.2915  0.3723  0.3491
  312TMC3    O1 4754   1.035   1.329  13.494  0.0607 -0.0075 -0.4810
  312TMC3    O2 4755   1.067   1.717  13.133  0.4997  0.2101  0.2778
  313MPD2     C 4756   0.861   1.238  11.945 -0.8470 -0.0302  0.3895
  313MPD2    C1 4757   0.753   1.288  11.872 -0.4635  0.6647  0.3542
  313MPD2    C2 4758   0.675   1.198  11.807  0.5506  0.8686 -0.0737
  313MPD2    C3 4759   0.703   1.057  11.809  0.4338 -0.0492 -0.7489
  313MPD2    C4 4760   0.808   1.007  11.880  0.2686  0.2178  0.2538
  313MPD2    C5 4761   0.883   1.101  11.946 -0.1977 -0.2876 -0.4500
  313MPD2     H 4762   0.585   1.226  11.753  0.3158  1.0405  0.4025
  313MPD2    H1 4763   0.842   0.905  11.895  0.0984 -0.2486 -2.6538
  313MPD2    H2 4764   0.925   1.302  12.005 -1.1658  0.9304 -0.2970
  313MPD2    H3 4765   0.961   1.054  12.005  0.7765  0.7584 -0.9180
  313MPD2     N 4766   0.614   0.964  11.749 -0.1363 -0.7895 -0.1947
  313MPD2    H5 4767   0.532   0.992  11.696 -1.0707 -2.6250  0.2680
  313MPD2    N1 4768   0.716   1.421  11.857 -0.0571 -0.3222 -0.4613
  313MPD2    H7 4769   0.642   1.450  11.793 -0.0564  1.2878  0.2586
  314TMC3    C1 4770   0.767   1.651  11.844 -1.3344 -0.4573 -0.4819
  314TMC3    C2 4771   0.885   1.705  11.797 -0.0425  0.6408  0.1470
  314TMC3    C3 4772   0.893   1.781  11.686 -0.0287  0.0536  0.4210
  314TMC3    C4 4773   0.654   1.678  11.780  0.1629 -0.5253  0.2180
  314TMC3    C5 4774   0.659   1.746  11.664  0.0761 -0.0502 -0.1762
  314TMC3    C6 4775   0.774   1.805  11.616  0.8701 -0.6175 -0.5530
  314TMC3     C 4776   0.782   1.523  11.919 -0.2961  0.3923 -0.1246
  314TMC3     O 4777   0.879   1.514  11.988 -0.0248 -0.2596  0.0489
  314TMC3     H 4778   0.968   1.692  11.865 -0.3339  1.6770  0.7036
  314TMC3    H1 4779   0.566   1.639  11.831 -0.2110 -0.0980 -0.0935
  314TMC3    H2 4780   0.773   1.877  11.534 -2.0803 -3.1333 -2.7104
  314TMC3    C7 4781   0.569   1.706  11.556  0.2506  0.1683  0.2269
  314TMC3    C8 4782   1.009   1.809  11.610  0.3041 -0.9408 -0.2402
  314TMC3    O1 4783   0.456   1.677  11.591 -0.0056  0.2202 -0.1857
  314TMC3    O2 4784   1.003   1.899  11.524 -0.1191  0.3284 -0.6373
  315MPD2     C 4785   1.296   4.075   0.134 -0.1732  0.0404  0.2081
  315MPD2    C1 4786   1.330   4.092   0.259 -0.5763  0.4214 -0.6620
  315MPD2    C2 4787   1.340   4.213   0.314  0.4418  0.7403 -0.6686
  315MPD2    C3 4788   1.340   4.323   0.239  0.6475 -0.2254 -0.5265
  315MPD2    C4 4789   1.313   4.307   0.108  0.2684  0.6867 -0.0466
  315MPD2    C5 4790   1.290   4.187   0.054  0.0418  0.0945  0.8593
  315MPD2     H 4791   1.362   4.211   0.420 -0.6833 -1.1621 -0.4877
  315MPD2    H1 4792   1.300   4.394   0.045 -2.6868  0.9392  0.8962
  315MPD2    H2 4793   1.263   3.979   0.095  0.3081 -1.5570  3.7150
  315MPD2    H3 4794   1.271   4.183  17.693  1.0710  0.4297  0.6634
  315MPD2     N 4795   1.375   4.447   0.306 -0.2105  0.6742  0.1467
  315MPD2    H5 4796   1.396   4.445   0.406  0.4252  1.5693  0.0297
  315MPD2    N1 4797   1.362   3.979   0.342 -0.2549  0.3891  0.2531
  315MPD2    H7 4798   1.390   4.007   0.436  4.1118 -0.3137 -0.8773
  316TMC3    C1 4799   1.451   4.673   0.340  0.2266  0.3267 -0.4610
  316TMC3    C2 4800   1.492   4.629   0.462  0.2669 -0.2093  0.0310
  316TMC3    C3 4801   1.535   4.728   0.553 -0.0984 -0.7675  0.4874
  316TMC3    C4 4802   1.446   0.071   0.310 -0.3358  0.8435 -0.0393
  316TMC3    C5 4803   1.499   0.162   0.393  0.0114  0.4157 -0.4536
  316TMC3    C6 4804   1.542   0.123   0.518  0.2137  0.2978 -0.4081
  316TMC3     C 4805   1.378   4.572   0.251 -0.6647  0.2542  0.0183
  316TMC3     O 4806   1.342   4.608   0.137  0.2173  0.1399 -0.2064
  316TMC3     H 4807   1.486   4.525   0.493  1.4053 -0.3038 -0.0713
  316TMC3    H1 4808   1.405   0.102   0.214  1.2337  0.7671 -0.7383
  316TMC3    H2 4809   1.576   0.187   0.598 -0.7018  0.5422 -0.2093
  316TMC3    C7 4810   1.467   0.303   0.381 -0.5226  0.1364 -0.2988
  316TMC3    C8 4811   1.570   4.693   0.693  0.6783  0.2683  0.6375
  316TMC3    O1 4812   1.451   0.369   0.482 -0.0373  0.5864 -0.3246
  316TMC3    O2 4813   1.591   0.051   0.770 -0.0745 -0.3255 -0.2471
  317MPD2     C 4814   2.412   3.410  12.561  0.4173  0.2833  0.0532
  317MPD2    C1 4815   2.511   3.322  12.521  0.1102 -0.4145  0.0627
  317MPD2    C2 4816   2.599   3.267  12.612 -0.1727  0.7219 -0.2586
  317MPD2    C3 4817   2.609   3.319  12.738 -0.3887 -0.2149 -0.6140
  317MPD2    C4 4818   2.525   3.422  12.770  0.3778  0.3256  0.2925
  317MPD2    C5 4819   2.424   3.457  12.686 -0.2477  0.6972 -0.1329
  317MPD2     H 4820   2.671   3.191  12.584 -0.2443  0.5499  0.0208
  317MPD2    H1 4821   2.523   3.470  12.868  0.6712  1.1098 -0.0860
  317MPD2    H2 4822   2.352   3.470  12.494  0.1334  0.7185  0.7053
  317MPD2    H3 4823   2.359   3.538  12.717  0.5286  0.7404  1.3968
  317MPD2     N 4824   2.707   3.264  12.824 -0.4329 -0.0591 -0.2524
  317MPD2    H5 4825   2.757   3.181  12.795 -1.3039 -1.0619  1.0877
  317MPD2    N1 4826   2.527   3.271  12.389  0.5685  0.0031  0.4095
  317MPD2    H7 4827   2.605   3.207  12.379  0.5309  0.2586 -1.4903
  318TMC3    C1 4828   2.783   3.195  13.031  0.2886 -0.7570 -0.1608
  318TMC3    C2 4829   2.724   3.070  13.011 -0.0999  1.2295 -0.1986
  318TMC3    C3 4830   2.794   2.970  13.075  0.4001 -0.4964  0.0865
  318TMC3    C4 4831   2.900   3.216  13.092 -0.5070 -0.0546  0.2805
  318TMC3    C5 4832   2.973   3.108  13.135 -0.7735 -0.4869  0.0814
  318TMC3    C6 4833   2.923   2.984  13.128  0.2149 -0.4831  0.0471
  318TMC3     C 4834   2.741   3.307  12.948 -0.0173  0.2219 -0.4125
  318TMC3     O 4835   2.690   3.401  13.010  0.2038  0.5964 -0.1305
  318TMC3     H 4836   2.637   3.053  12.949  0.3783  1.0963 -0.8309
  318TMC3    H1 4837   2.938   3.317  13.095  0.2206 -0.3985  2.8459
  318TMC3    H2 4838   2.972   2.893  13.158  0.4792 -0.7122 -1.0791
  318TMC3    C7 4839   3.118   3.128  13.167  0.2030 -0.4660  0.6729
  318TMC3    C8 4840   2.731   2.843  13.095  0.3738 -0.0170  0.4994
  318TMC3    O1 4841   3.169   3.235  13.141  0.0732  0.0466  0.0738
  318TMC3    O2 4842   2.786   2.740  13.134  0.3422 -0.4310 -0.4010
  319MPD2     C 4843   4.176   4.187  16.436 -0.1697  0.1336 -0.4833
  319MPD2    C1 4844   4.091   4.128  16.524 -0.1586  0.7730  0.8194
  319MPD2    C2 4845   3.965   4.100  16.477 -0.5743  0.5844 -0.2021
  319MPD2    C3 4846   3.913   4.137  16.352 -0.6387 -0.5790  0.2092
  319MPD2    C4 4847   4.000   4.202  16.267 -0.1929  0.2520 -1.1911
  319MPD2    C5 4848   4.132   4.214  16.310 -0.3805 -0.7698 -0.3836
  319MPD2     H 4849   3.894   4.052  16.544 -1.6215  1.5010 -0.6422
  319MPD2    H1 4850   3.964   4.233  16.169 -0.6286  0.0356 -1.1024
  319MPD2    H2 4851   4.271   4.224  16.473 -1.0573  1.0410  0.9009
  319MPD2    H3 4852   4.197   4.264  16.239  1.2479 -0.8560  1.0544
  319MPD2     N 4853   3.774   4.116  16.334  0.3962  0.6228  0.0585
  319MPD2    H5 4854   3.726   4.077  16.414  0.1227  1.0775  0.1127
  319MPD2    N1 4855   4.113   4.096  16.657 -0.1381 -0.8564  0.2042
  319MPD2    H7 4856   4.039   4.039  16.699  0.2625 -1.8791 -0.4801
  320TMC3    C1 4857   3.571   4.126  16.241  0.0548 -0.2987 -0.4354
  320TMC3    C2 4858   3.485   4.226  16.194 -0.7868  0.0459  0.0062
  320TMC3    C3 4859   3.355   4.199  16.187  0.0250 -0.5234 -0.3101
  320TMC3    C4 4860   3.521   4.014  16.296  0.2074  0.8082  0.1858
  320TMC3    C5 4861   3.384   3.993  16.296 -0.2394  0.3115 -0.4467
  320TMC3    C6 4862   3.297   4.084  16.246 -0.3169 -0.5977 -0.1678
  320TMC3     C 4863   3.711   4.149  16.219 -0.4369 -0.2197  0.4264
  320TMC3     O 4864   3.747   4.232  16.135 -0.1729 -0.0803 -0.1982
  320TMC3     H 4865   3.528   4.312  16.144  1.3794 -0.8777  0.2627
  320TMC3    H1 4866   3.581   3.926  16.315  1.6066  2.0230  1.3567
  320TMC3    H2 4867   3.191   4.063  16.240 -0.6972  0.5952  2.1522
  320TMC3    C7 4868   3.348   3.864  16.256 -1.3650  0.8382  0.0815
  320TMC3    C8 4869   3.278   4.280  16.101 -0.4302 -0.3057 -0.3093
  320TMC3    O1 4870   3.272   3.850  16.159  0.0527 -0.3529 -0.3301
  320TMC3    O2 4871   3.333   4.382  16.064 -0.4189 -0.2019  0.0796
  321TMC3    C1 4872   4.228   4.062  16.856  0.1057 -0.3296  0.2360
  321TMC3    C2 4873   4.118   3.983  16.885 -0.0584 -0.0326  0.0069
  321TMC3    C3 4874   4.076   3.980  17.012 -0.0374  0.0600  0.1987
  321TMC3    C4 4875   4.295   4.124  16.962 -0.7951  0.9609  0.2192
  321TMC3    C5 4876   4.259   4.108  17.091 -0.8871 -0.1246 -0.4397
  321TMC3    C6 4877   4.138   4.041  17.120  0.1620  0.1378 -0.5804
  321TMC3     C 4878   4.231   4.124  16.721  0.0828  0.0019 -0.6348
  321TMC3     O 4879   4.332   4.197  16.702 -0.2182 -0.5236 -0.3853
  321TMC3     H 4880   4.052   3.932  16.815  1.5103 -1.8538 -0.1523
  321TMC3    H1 4881   4.371   4.196  16.935  0.7174 -0.7786 -0.1346
  321TMC3    H2 4882   4.081   4.069  17.208 -1.3990 -4.0013 -0.2393
  321TMC3    C7 4883   4.356   4.056  17.186  0.2649 -0.3305  0.1258
  321TMC3    C8 4884   4.023   3.849  17.057 -0.2639 -0.5528  0.5417
  321TMC3    O1 4885   4.314   3.963  17.254  0.1955  0.0483 -0.2927
  321TMC3    O2 4886   3.956   3.779  16.982  0.3753 -0.4141 -0.2118
  322MPD2     C 4887   2.647   0.763  13.789 -0.5477 -0.3888 -0.5659
  322MPD2    C1 4888   2.668   0.728  13.922  0.2744 -0.2222 -1.2259
  322MPD2    C2 4889   2.662   0.589  13.957  0.8278  0.3432 -0.3761
  322MPD2    C3 4890   2.650   0.491  13.857 -0.0339 -0.1180 -0.3465
  322MPD2    C4 4891   2.637   0.532  13.730  0.2883  0.0197  0.4150
  322MPD2    C5 4892   2.632   0.665  13.698  0.0047  0.0228 -0.1113
  322MPD2     H 4893   2.664   0.551  14.059  2.1078  2.3386  0.3440
  322MPD2    H1 4894   2.626   0.466  13.644  2.2067  1.2304 -0.7537
  322MPD2    H2 4895   2.641   0.868  13.759 -1.1635 -0.2097  0.1968
  322MPD2    H3 4896   2.615   0.696  13.596  1.2374  0.4819 -0.1840
  322MPD2     N 4897   2.668   0.351  13.891  0.3144 -0.3506  0.0087
  322MPD2    H5 4898   2.693   0.335  13.988 -2.3703 -2.0765  0.4004
  322MPD2    N1 4899   2.702   0.827  14.014 -0.0090  0.4999 -0.5868
  322MPD2    H7 4900   2.748   0.901  13.962  1.5000 -0.6906 -0.9303
  323TMC3    C1 4901   2.836   0.886  14.192  0.1351  0.3383  0.0491
  323TMC3    C2 4902   2.887   0.977  14.104  0.1926  0.1150  0.1277
  323TMC3    C3 4903   2.981   1.060  14.162  0.4648 -0.2737  0.0535
  323TMC3    C4 4904   2.882   0.865  14.320  0.0168  0.2152 -0.0017
  323TMC3    C5 4905   2.968   0.958  14.371  0.7180 -0.7971 -1.3274
  323TMC3    C6 4906   3.023   1.055  14.289  0.4057 -0.3400 -0.4036
  323TMC3     C 4907   2.727   0.806  14.147  0.4379 -0.1899 -0.1775
  323TMC3     O 4908   2.675   0.720  14.220 -0.2342 -0.2334 -0.1048
  323TMC3     H 4909   2.844   1.003  14.009 -0.5225 -0.5922  0.2547
  323TMC3    H1 4910   2.842   0.790  14.387 -0.6997  1.0671  0.5066
  323TMC3    H2 4911   3.109   1.111  14.322  2.3408 -3.5540  0.0122
  323TMC3    C7 4912   3.049   0.911  14.473  0.2964 -1.0397 -0.6724
  323TMC3    C8 4913   3.068   1.137  14.075  0.2035 -0.1950  0.7706
  323TMC3    O1 4914   3.035   0.792  14.498  0.2596 -0.2692 -0.1095
  323TMC3    O2 4915   3.127   1.226  14.132  0.6025  0.1491 -0.7991
  324MPD2     C 4916   4.397   2.220  15.056  0.3549  0.6488 -0.2572
  324MPD2    C1 4917   4.443   2.272  14.938 -0.7207 -0.2217 -0.9208
  324MPD2    C2 4918   4.368   2.251  14.823  0.4646  0.0419  0.9511
  324MPD2    C3 4919   4.249   2.178  14.823  0.0087  0.3567  0.0411
  324MPD2    C4 4920   4.205   2.121  14.943 -0.1585 -0.4002 -0.6337
  324MPD2    C5 4921   4.276   2.150  15.057  0.2055 -0.2770 -0.9394
  324MPD2     H 4922   4.416   2.292  14.735 -0.9168  2.5011  1.3300
  324MPD2    H1 4923   4.113   2.064  14.952  0.5133 -1.3268  0.3176
  324MPD2    H2 4924   4.454   2.240  15.145  1.5007  0.5293 -0.9620
  324MPD2    H3 4925   4.240   2.120  15.154 -0.9234 -1.0822 -1.6008
  324MPD2     N 4926   4.166   2.159  14.712 -0.4894  0.1595 -0.0535
  324MPD2    H5 4927   4.078   2.109  14.719 -0.5938  0.4093  0.4496
  324MPD2    N1 4928   4.561   2.337  14.920  0.1590 -0.7177 -0.5088
  324MPD2    H7 4929   4.583   2.380  14.830  0.5537 -0.2429 -0.1855
  325TMC3    C1 4930   4.078   2.209  14.496  0.0788  0.1322 -0.6196
  325TMC3    C2 4931   3.972   2.119  14.522 -1.1017  0.0873  1.2242
  325TMC3    C3 4932   3.852   2.151  14.465 -0.1699 -0.3454  0.4889
  325TMC3    C4 4933   4.065   2.311  14.409  0.1404 -0.4085 -0.1969
  325TMC3    C5 4934   3.939   2.340  14.367  0.4539  0.0707 -0.4580
  325TMC3    C6 4935   3.826   2.260  14.388 -0.4225  0.0800  0.2890
  325TMC3     C 4936   4.187   2.217  14.589  0.1958  0.6345  0.0273
  325TMC3     O 4937   4.281   2.286  14.561  0.4800 -0.4892 -0.1761
  325TMC3     H 4938   3.982   2.019  14.564  0.1699  0.3814  1.6228
  325TMC3    H1 4939   4.146   2.383  14.408  0.1941 -0.4298  2.2842
  325TMC3    H2 4940   3.730   2.274  14.339  0.8364 -0.8263 -2.4341
  325TMC3    C7 4941   3.919   2.479  14.307 -0.3497  0.7929  0.0918
  325TMC3    C8 4942   3.746   2.056  14.485 -0.8365 -0.2000  0.1343
  325TMC3    O1 4943   4.018   2.534  14.258 -0.1063 -0.1269  0.5127
  325TMC3    O2 4944   3.762   1.933  14.478  0.4450  0.5163 -0.0236
  326MPD2     C 4945   0.592   3.268  11.323 -0.5837  0.1660  0.3004
  326MPD2    C1 4946   0.660   3.299  11.211 -0.1047  0.5943  0.1737
  326MPD2    C2 4947   0.800   3.317  11.220 -0.3444  1.1179 -0.2489
  326MPD2    C3 4948   0.871   3.295  11.336 -0.4719 -0.1283  0.1771
  326MPD2    C4 4949   0.802   3.247  11.443  0.6877 -0.5386  1.0072
  326MPD2    C5 4950   0.667   3.220  11.428 -0.0742  0.6622 -0.1563
  326MPD2     H 4951   0.850   3.349  11.129 -1.5854  0.5095 -1.1445
  326MPD2    H1 4952   0.852   3.208  11.531 -0.1590  0.6046  1.9947
  326MPD2    H2 4953   0.485   3.251  11.320 -0.4020 -0.6805 -1.2449
  326MPD2    H3 4954   0.616   3.170  11.509 -0.5511  2.6398  0.7786
  326MPD2     N 4955   1.014   3.313  11.345 -0.1108 -0.1501 -0.1390
  326MPD2    H5 4956   1.069   3.267  11.417  1.0139  1.8732  0.3260
  326MPD2    N1 4957   0.599   3.324  11.092  0.6733 -0.1858  0.0175
  326MPD2    H7 4958   0.658   3.348  11.012  1.3959 -1.1695  0.2577
  327TMC3    C1 4959   0.464   3.379  10.924 -0.1356 -0.3995  0.5106
  327TMC3    C2 4960   0.399   3.502  10.912 -0.1629  0.1505 -0.4165
  327TMC3    C3 4961   0.445   3.582  10.813 -0.2220  0.2819 -0.1468
  327TMC3    C4 4962   0.568   3.329  10.848 -0.4009  0.1461 -0.5597
  327TMC3    C5 4963   0.612   3.421  10.763  0.1059  0.2223  0.3958
  327TMC3    C6 4964   0.554   3.543  10.746  0.1784  0.0291  0.1765
  327TMC3     C 4965   0.467   3.332  11.059  0.8488  0.2649  0.5532
  327TMC3     O 4966   0.369   3.331  11.132 -0.5038 -0.6101 -0.0457
  327TMC3     H 4967   0.332   3.538  10.989  0.6837  1.2384 -0.1951
  327TMC3    H1 4968   0.611   3.230  10.855 -0.5726  0.1767  0.8653
  327TMC3    H2 4969   0.598   3.611  10.673 -0.3030 -0.5788 -0.6843
  327TMC3    C7 4970   0.755   3.424  10.719  0.1828  0.6336 -0.0280
  327TMC3    C8 4971   0.412   3.723  10.803  0.2686  0.5217 -1.1636
  327TMC3    O1 4972   0.806   3.530  10.693 -0.1852  0.1781 -0.7008
  327TMC3    O2 4973   0.485   3.799  10.736  0.6270 -0.2462  0.4506
  328MPD2     C 4974   3.488   2.647  16.995 -0.1584 -0.1097 -0.7013
  328MPD2    C1 4975   3.360   2.643  17.041 -0.2861  0.6790  0.4230
  328MPD2    C2 4976   3.289   2.758  17.053 -0.3470  0.4041 -0.3907
  328MPD2    C3 4977   3.342   2.882  17.013  0.4509  0.5710 -0.1949
  328MPD2    C4 4978   3.472   2.884  16.961  0.5184 -1.0552 -1.1279
  328MPD2    C5 4979   3.541   2.763  16.945 -0.3245  0.0466 -0.7367
  328MPD2     H 4980   3.183   2.750  17.077  0.2801  0.9153  2.4424
  328MPD2    H1 4981   3.519   2.971  16.916 -1.7498 -0.0952 -1.6358
  328MPD2    H2 4982   3.544   2.555  16.979 -1.5869 -1.0562 -0.2493
  328MPD2    H3 4983   3.632   2.766  16.886 -0.8184 -1.0353 -1.5730
  328MPD2     N 4984   3.268   3.007  17.019 -0.3791  0.2701  0.1701
  328MPD2    H5 4985   3.316   3.082  16.971 -0.3459 -1.1137 -1.9626
  328MPD2    N1 4986   3.296   2.523  17.077 -0.1066 -0.4845 -0.2134
  328MPD2    H7 4987   3.205   2.533  17.121  0.1633  0.0595  0.2135
  329TMC3    C1 4988   3.252   2.294  17.105  0.3522 -0.1908 -0.2453
  329TMC3    C2 4989   3.154   2.326  17.197 -0.1888  0.0167  0.1902
  329TMC3    C3 4990   3.050   2.240  17.220 -0.1044 -0.2311 -0.6319
  329TMC3    C4 4991   3.257   2.170  17.042 -0.3629  0.1402 -0.6051
  329TMC3    C5 4992   3.152   2.087  17.066 -0.0034 -0.4210  0.4387
  329TMC3    C6 4993   3.044   2.123  17.146 -0.5534  0.3893 -0.1415
  329TMC3     C 4994   3.336   2.395  17.037  0.5279 -0.2316  0.0653
  329TMC3     O 4995   3.416   2.360  16.953  0.0773  0.3859  0.2461
  329TMC3     H 4996   3.154   2.417  17.256  0.0414 -0.2947  0.6716
  329TMC3    H1 4997   3.342   2.145  16.979 -0.1634  0.2036 -0.3575
  329TMC3    H2 4998   2.970   2.046  17.160  1.5910 -1.6834 -0.2253
  329TMC3    C7 4999   3.169   1.948  17.022  0.2767 -0.4639  0.0640
  329TMC3    C8 5000   2.923   2.278  17.276 -0.0715 -0.2249  0.1482
  329TMC3    O1 5001   3.071   1.881  17.001  0.0773  0.2039  0.6516
  329TMC3    O2 5002   2.823   2.229  17.220  0.3087  0.1516 -0.1960
  330TMC3    C1 5003   1.751   1.722   9.598 -1.1639  0.1638 -0.5033
  330TMC3    C2 5004   1.655   1.657   9.667 -0.3921  0.0995 -0.2412
  330TMC3    C3 5005   1.639   1.520   9.644  0.4516  0.1511  0.3013
  330TMC3    C4 5006   1.849   1.650   9.533 -0.2419 -0.2457  0.5134
  330TMC3    C5 5007   1.848   1.510   9.548  0.8298 -0.3356 -0.4134
  330TMC3    C6 5008   1.736   1.443   9.588  0.4441  0.1022 -0.4998
  330TMC3     C 5009   1.750   1.870   9.585  0.0560  0.3350  0.1880
  330TMC3     O 5010   1.848   1.929   9.534 -0.4514  0.1565  0.1203
  330TMC3     H 5011   1.577   1.715   9.716  1.1020 -0.5751  2.9549
  330TMC3    H1 5012   1.924   1.701   9.474 -0.6807 -0.2471 -0.0459
  330TMC3    H2 5013   1.731   1.335   9.589 -1.7867  0.2207 -0.0240
  330TMC3    C7 5014   1.947   1.426   9.483 -0.0935  0.2007 -0.7004
  330TMC3    C8 5015   1.519   1.444   9.678  0.2466 -0.3281 -0.0870
  330TMC3    O1 5016   1.919   1.313   9.447 -0.2183 -0.4245  0.4041
  330TMC3    O2 5017   1.514   1.332   9.633  0.9380  0.2883  0.7445
  331MPD2     C 5018   3.579   1.735  13.041 -0.0239 -0.0475 -0.4759
  331MPD2    C1 5019   3.682   1.740  12.944  0.6158 -0.3761 -0.5007
  331MPD2    C2 5020   3.748   1.623  12.902 -0.7782 -0.7238  0.2872
  331MPD2    C3 5021   3.717   1.500  12.952 -0.7158  0.4227 -0.2366
  331MPD2    C4 5022   3.611   1.493  13.040 -0.4541 -0.3499  0.4105
  331MPD2    C5 5023   3.544   1.612  13.084  0.6678  0.4989 -0.5000
  331MPD2     H 5024   3.827   1.627  12.829 -1.1218 -1.5321 -0.1248
  331MPD2    H1 5025   3.580   1.397  13.079  0.3789 -0.2477  1.3331
  331MPD2    H2 5026   3.532   1.828  13.072  0.6099  0.6838 -1.6773
  331MPD2    H3 5027   3.467   1.596  13.159  0.4495  2.9807 -0.1928
  331MPD2     N 5028   3.788   1.383  12.901 -0.4075  0.1932  0.0432
  331MPD2    H5 5029   3.839   1.403  12.816  0.3059 -1.3770  0.1081
  331MPD2    N1 5030   3.702   1.872  12.881 -0.1441  0.4080  0.6187
  331MPD2    H7 5031   3.634   1.944  12.903 -0.2693 -0.5384  3.3344
  332TMC3    C1 5032   3.854   1.161  12.860 -0.3040 -0.2468  0.9272
  332TMC3    C2 5033   3.856   1.179  12.722 -0.5629 -0.3196 -0.3408
  332TMC3    C3 5034   3.957   1.117  12.655 -0.2200 -0.0309  0.2115
  332TMC3    C4 5035   3.940   1.068  12.924  0.4678 -0.3698  0.5448
  332TMC3    C5 5036   4.033   1.010  12.844 -0.1260  0.3693 -0.2495
  332TMC3    C6 5037   4.050   1.043  12.712  0.4092  0.2270  0.7308
  332TMC3     C 5038   3.788   1.252  12.948  0.9620 -0.1203 -0.0525
  332TMC3     O 5039   3.760   1.214  13.060 -0.0860  0.0215 -0.0395
  332TMC3     H 5040   3.779   1.235  12.671 -0.0144 -0.0950 -0.9284
  332TMC3    H1 5041   3.940   1.049  13.030 -0.1620  0.8730  0.7738
  332TMC3    H2 5042   4.134   1.000  12.658 -0.3464 -0.5752  0.2167
  332TMC3    C7 5043   4.120   0.922  12.910  0.1474  0.2035 -0.0644
  332TMC3    C8 5044   3.954   1.127  12.510 -0.5096 -0.1300  0.3414
  332TMC3    O1 5045   4.078   0.837  12.990  0.5272  0.2084  0.4136
  332TMC3    O2 5046   4.071   1.135  12.469  0.1826 -0.3457  0.1176
  333MPD2     C 5047   3.881   1.963  11.318 -0.1064  0.4050 -0.3997
  333MPD2    C1 5048   3.925   1.887  11.215  0.2915 -0.2060 -0.5260
  333MPD2    C2 5049   3.920   1.749  11.225 -0.6035 -0.0161  0.0304
  333MPD2    C3 5050   3.873   1.691  11.340 -0.1419 -0.3034  0.3667
  333MPD2    C4 5051   3.825   1.771  11.442  0.2000 -0.6369  0.7412
  333MPD2    C5 5052   3.822   1.906  11.428  0.4769  0.3040 -0.0297
  333MPD2     H 5053   3.953   1.684  11.145 -0.0432 -0.5758  0.7125
  333MPD2    H1 5054   3.790   1.730  11.536 -2.2430 -1.6384 -0.6030
  333MPD2    H2 5055   3.882   2.072  11.313 -2.2380  0.5015  1.3436
  333MPD2    H3 5056   3.795   1.972  11.510  1.0378  1.1105 -0.4882
  333MPD2     N 5057   3.856   1.549  11.343  0.6683 -0.2155  0.0221
  333MPD2    H5 5058   3.860   1.508  11.251 -1.1006  1.8745 -0.9943
  333MPD2    N1 5059   3.980   1.954  11.105 -0.3699 -0.3732  0.5587
  333MPD2    H7 5060   3.971   2.055  11.114 -0.0598 -0.4116  1.2867
  334TMC3    C1 5061   4.073   1.963  10.892  0.0705 -0.5982 -0.5835
  334TMC3    C2 5062   4.168   1.930  10.804  0.1341 -0.4179 -0.1924
  334TMC3    C3 5063   4.168   1.983  10.677  0.5521 -0.2233 -0.1896
  334TMC3    C4 5064   3.988   2.065  10.868 -1.0052 -0.1689 -0.3052
  334TMC3    C5 5065   3.988   2.115  10.741  0.1200  0.6733  0.0956
  334TMC3    C6 5066   4.070   2.072  10.642 -0.3110 -0.4767  0.3322
  334TMC3     C 5067   4.051   1.884  11.012 -0.1037 -1.0682 -0.1071
  334TMC3     O 5068   4.112   1.776  11.013  0.1948 -0.7043  0.2330
  334TMC3     H 5069   4.237   1.850  10.832 -0.7133 -0.5441  1.5529
  334TMC3    H1 5070   3.903   2.093  10.929 -1.4533  0.0534 -1.0291
  334TMC3    H2 5071   4.073   2.115  10.543 -1.7877  0.0860  0.5277
  334TMC3    C7 5072   3.957   2.258  10.733  0.0247  0.4733 -0.0164
  334TMC3    C8 5073   4.275   1.959  10.580  0.3789 -0.7461 -0.3264
  334TMC3    O1 5074   3.946   2.325  10.836 -0.0258 -0.0687 -0.3554
  334TMC3    O2 5075   4.248   1.974  10.463  0.0530  0.4793  0.0143
  335TMC3    C1 5076   4.376   2.929  17.139  0.4765  0.5979 -0.3739
  335TMC3    C2 5077   4.292   2.916  17.031  0.3856 -0.2162  0.0461
  335TMC3    C3 5078   4.357   2.928  16.911 -0.2592 -0.1074 -0.1875
  335TMC3    C4 5079   4.507   2.963  17.131 -0.0905 -0.6200 -0.1602
  335TMC3    C5 5080   4.563   2.969  17.006 -0.2351 -0.0981 -0.0372
  335TMC3    C6 5081   4.494   2.959  16.892 -0.3945 -0.5315 -0.4592
  335TMC3     C 5082   4.309   2.938  17.268 -0.3111 -0.3441  0.0436
  335TMC3     O 5083   4.381   2.908  17.365 -0.5098 -0.1317  0.0157
  335TMC3     H 5084   4.187   2.889  17.039 -0.1337  1.2830 -1.6994
  335TMC3    H1 5085   4.567   2.974  17.220 -0.5458 -0.3476  0.1118
  335TMC3    H2 5086   4.540   2.949  16.795  0.8465 -2.7284  0.3615
  335TMC3    C7 5087   4.701   3.019  16.981 -1.0113  0.7666  0.7046
  335TMC3    C8 5088   4.282   2.894  16.788 -0.2402  0.8116 -0.5503
  335TMC3    O1 5089   4.728   3.046  16.866  0.9471  0.0018 -0.7323
  335TMC3    O2 5090   4.325   2.944  16.689  0.4685  0.4134  0.0543
  336MPD2     C 5091   3.843   1.064  16.222 -0.8456  0.2370  0.1580
  336MPD2    C1 5092   3.707   1.026  16.235  0.4884  0.4684 -0.5901
  336MPD2    C2 5093   3.680   0.901  16.286  0.2285  0.5393 -0.3918
  336MPD2    C3 5094   3.782   0.815  16.325  0.0797 -0.1559  0.3458
  336MPD2    C4 5095   3.910   0.848  16.310  0.6390 -0.2961  0.3413
  336MPD2    C5 5096   3.941   0.971  16.255 -0.1393 -0.4257  0.3913
  336MPD2     H 5097   3.575   0.872  16.285 -0.0165  1.4699 -2.6529
  336MPD2    H1 5098   3.991   0.781  16.337 -0.3034 -1.6321 -0.1490
  336MPD2    H2 5099   3.881   1.153  16.174  0.8761 -1.1440 -1.0454
  336MPD2    H3 5100   4.047   0.985  16.236  0.3003 -1.8185  1.8286
  336MPD2     N 5101   3.755   0.686  16.379  0.0575 -0.6474 -0.2119
  336MPD2    H5 5102   3.843   0.636  16.391  0.9177  1.0032  0.4033
  336MPD2    N1 5103   3.596   1.109  16.194  0.2893  0.3900 -0.1061
  336MPD2    H7 5104   3.501   1.073  16.197 -0.2103  1.6900 -0.6832
  337TMC3    C1 5105   3.489   1.299  16.131  0.4825  0.6343  0.3918
  337TMC3    C2 5106   3.413   1.244  16.032 -0.3691  0.2503  1.0275
  337TMC3    C3 5107   3.314   1.313  15.973  0.2732 -0.1437 -0.4635
  337TMC3    C4 5108   3.484   1.432  16.149 -0.0263 -0.0418  0.1424
  337TMC3    C5 5109   3.388   1.505  16.080 -0.1875 -0.1225  0.1947
  337TMC3    C6 5110   3.301   1.445  15.997  0.2094  0.7425  0.3424
  337TMC3     C 5111   3.612   1.237  16.166  0.4014  0.3914  0.1248
  337TMC3     O 5112   3.713   1.306  16.168 -0.2791 -0.2258 -0.5695
  337TMC3     H 5113   3.414   1.139  16.005 -0.5641  0.2260  1.1116
  337TMC3    H1 5114   3.555   1.480  16.216 -0.9312 -0.6217  1.5219
  337TMC3    H2 5115   3.215   1.497  15.955 -2.0651 -1.6228  2.0985
  337TMC3    C7 5116   3.408   1.647  16.073  0.2188  0.0867  0.0841
  337TMC3    C8 5117   3.184   1.246  15.963  0.1317 -0.5639 -0.0206
  337TMC3    O1 5118   3.460   1.698  16.170  0.1514 -0.3036 -0.0225
  337TMC3    O2 5119   3.141   1.176  16.058  0.2728 -0.2624  0.0990
  338MPD2     C 5120   4.297   3.946   0.700  0.0952  0.0652 -0.7307
  338MPD2    C1 5121   4.249   4.041   0.614 -0.0695 -0.7515  0.2713
  338MPD2    C2 5122   4.125   4.081   0.637 -0.4556 -1.1395  0.8681
  338MPD2    C3 5123   4.049   4.031   0.748 -0.1423 -0.3430  0.0019
  338MPD2    C4 5124   4.097   3.932   0.834  0.1847  0.7308 -0.8902
  338MPD2    C5 5125   4.222   3.891   0.802 -0.2731 -0.1239  0.0945
  338MPD2     H 5126   4.071   4.157   0.582 -1.5129 -0.7849  2.4013
  338MPD2    H1 5127   4.043   3.893   0.919  2.6050 -1.7392 -0.4586
  338MPD2    H2 5128   4.398   3.907   0.695  0.2397  0.5211 -1.4186
  338MPD2    H3 5129   4.254   3.800   0.850 -1.8151 -0.6036  0.2269
  338MPD2     N 5130   3.933   4.094   0.775 -0.1468  0.3919  0.2231
  338MPD2    H5 5131   3.910   4.187   0.740  0.0702  0.1577 -0.5367
  338MPD2    N1 5132   4.311   4.091   0.497  0.0250 -0.2810 -0.8483
  338MPD2    H7 5133   4.266   4.161   0.438 -0.8213 -1.4313 -1.5504
  339TMC3    C1 5134   3.694   4.101   0.832 -0.1793  0.3005  0.1607
  339TMC3    C2 5135   3.603   4.065   0.927 -0.2118  0.4492 -0.4864
  339TMC3    C3 5136   3.487   4.130   0.940  0.0247 -0.6438  0.3802
  339TMC3    C4 5137   3.661   4.202   0.746  0.0367  0.1419 -0.4507
  339TMC3    C5 5138   3.536   4.265   0.757 -0.0369 -0.4383 -0.1897
  339TMC3    C6 5139   3.454   4.238   0.860 -0.2162 -0.3475 -0.5976
  339TMC3     C 5140   3.822   4.034   0.834 -0.7504 -0.6469  0.6748
  339TMC3     O 5141   3.812   3.916   0.869  0.5022  0.6469 -0.1767
  339TMC3     H 5142   3.635   3.998   1.005 -0.8296  2.5477  1.5555
  339TMC3    H1 5143   3.724   4.235   0.664  2.4734 -1.0253  0.9548
  339TMC3    H2 5144   3.357   4.285   0.869  0.0001  0.1063 -0.6317
  339TMC3    C7 5145   3.490   4.346   0.644  0.0644  0.0719 -0.4421
  339TMC3    C8 5146   3.412   4.132   1.070  0.2629 -0.0491 -0.1853
  339TMC3    O1 5147   3.542   4.325   0.536 -0.0395 -0.0007  0.1628
  339TMC3    O2 5148   3.349   4.235   1.094 -0.3584 -1.2092  0.2972
  340MPD2     C 5149   4.062   3.223  10.337  0.2683  0.1138  0.3881
  340MPD2    C1 5150   4.006   3.101  10.315 -0.7628 -0.0799 -0.8763
  340MPD2    C2 5151   4.066   2.990  10.371 -0.3599 -0.9036 -0.1850
  340MPD2    C3 5152   4.186   3.002  10.445 -0.5469 -0.3495 -0.3357
  340MPD2    C4 5153   4.242   3.124  10.468  0.0640  0.1641  0.8287
  340MPD2    C5 5154   4.169   3.235  10.423 -0.3177 -0.1848 -0.3462
  340MPD2     H 5155   4.027   2.891  10.349 -1.1934 -0.0243 -2.5896
  340MPD2    H1 5156   4.336   3.129  10.521  1.2139 -0.3146 -1.1658
  340MPD2    H2 5157   4.009   3.308  10.295  1.4636  0.4009 -0.5471
  340MPD2    H3 5158   4.190   3.335  10.457  1.1100 -1.1148  1.4762
  340MPD2     N 5159   4.268   2.893  10.489  0.5946  0.0190  0.3003
  340MPD2    H5 5160   4.360   2.916  10.525  1.2387 -3.6545  0.9892
  340MPD2    N1 5161   3.901   3.097  10.219 -0.1698 -0.1322  0.0512
  340MPD2    H7 5162   3.852   3.181  10.190 -2.7978 -2.1939 -1.5127
  341TMC3    C1 5163   3.729   3.005  10.088  0.5837  0.0333 -0.5211
  341TMC3    C2 5164   3.637   2.904  10.100  0.3044 -0.2404  0.5576
  341TMC3    C3 5165   3.572   2.860   9.992  0.0127  0.4661 -0.2952
  341TMC3    C4 5166   3.763   3.048   9.962  0.7465 -0.5864 -0.3255
  341TMC3    C5 5167   3.683   3.004   9.856 -0.5266  0.0932  0.0991
  341TMC3    C6 5168   3.588   2.911   9.870 -0.3764  0.5498 -0.2554
  341TMC3     C 5169   3.843   2.983  10.166  0.2452 -1.2174 -0.0579
  341TMC3     O 5170   3.870   2.866  10.184 -0.2584 -0.6065 -0.2212
  341TMC3     H 5171   3.623   2.856  10.196  1.4033 -1.0786  0.2922
  341TMC3    H1 5172   3.854   3.104   9.943  0.2165  0.0542 -0.9510
  341TMC3    H2 5173   3.554   2.866   9.778  1.4219 -0.6834 -0.3234
  341TMC3    C7 5174   3.708   3.061   9.726  0.9367 -0.1193 -0.1977
  341TMC3    C8 5175   3.498   2.738  10.001 -0.4168 -0.7800 -0.7501
  341TMC3    O1 5176   3.826   3.093   9.706  0.2299  0.4717 -0.0086
  341TMC3    O2 5177   3.544   2.652  10.074 -0.0015  0.1411 -0.2949
  342MPD2     C 5178   2.053   1.041   0.577 -0.4662 -0.6102  0.2358
  342MPD2    C1 5179   2.121   1.061   0.455 -0.1283  0.4080 -0.3660
  342MPD2    C2 5180   2.171   1.183   0.420  1.3158 -1.1787  0.4801
  342MPD2    C3 5181   2.186   1.286   0.509  0.7215 -0.2685 -0.3472
  342MPD2    C4 5182   2.135   1.269   0.630  0.3896  0.2702 -0.0387
  342MPD2    C5 5183   2.075   1.147   0.663 -0.8605 -0.6473  0.4409
  342MPD2     H 5184   2.226   1.193   0.328 -0.2000  0.9710 -0.1994
  342MPD2    H1 5185   2.147   1.343   0.709  1.3347 -0.2246  0.2867
  342MPD2    H2 5186   2.017   0.946   0.616 -3.3780  1.2072  1.9675
  342MPD2    H3 5187   2.038   1.136   0.764 -0.1928  0.1827  0.7693
  342MPD2     N 5188   2.263   1.401   0.487 -0.4400 -0.5008  0.4174
  342MPD2    H5 5189   2.271   1.457   0.571  0.3743  1.1745 -0.7605
  342MPD2    N1 5190   2.137   0.966   0.348  0.0330  0.6480 -0.4417
  342MPD2    H7 5191   2.191   1.000   0.270  0.1066  2.9753  0.6260
  343TMC3    C1 5192   2.135   0.759   0.226 -0.0505  0.2602  0.3816
  343TMC3    C2 5193   2.167   0.829   0.115  0.4749  0.2099 -0.0409
  343TMC3    C3 5194   2.209   0.753   0.010 -0.2687 -0.0334 -0.1054
  343TMC3    C4 5195   2.117   0.628   0.221 -0.0572 -0.6739 -0.8130
  343TMC3    C5 5196   2.144   0.558   0.108 -0.8965  0.5867 -0.2925
  343TMC3    C6 5197   2.207   0.616   0.004  0.1936 -0.4599  0.6840
  343TMC3     C 5198   2.108   0.828   0.355  0.1213  0.4013 -0.2612
  343TMC3     O 5199   2.058   0.768   0.447 -0.1933 -0.1899 -0.0034
  343TMC3     H 5200   2.170   0.938   0.117  2.0374  0.1685 -0.2975
  343TMC3    H1 5201   2.087   0.573   0.309 -2.0093  0.7686 -0.5905
  343TMC3    H2 5202   2.256   0.550  17.680  0.9951  0.4594  0.3780
  343TMC3    C7 5203   2.142   0.415   0.113  0.7241  0.3823  0.1036
  343TMC3    C8 5204   2.286   0.830  17.658 -0.0091  0.2239 -0.4834
  343TMC3    O1 5205   2.113   0.358   0.011 -0.7102 -0.0115 -0.3803
  343TMC3    O2 5206   2.341   0.939  17.681  0.0407  0.2981  0.0690
  344MPD2     C 5207   2.455   0.730  10.010  0.7241  0.3697  0.2187
  344MPD2    C1 5208   2.551   0.712  10.112 -1.0850 -0.5776 -1.2431
  344MPD2    C2 5209   2.645   0.815  10.130 -0.6186  0.3451  0.0828
  344MPD2    C3 5210   2.655   0.922  10.044 -0.0222 -0.6013 -0.2172
  344MPD2    C4 5211   2.561   0.937   9.947 -0.1031 -0.2193  0.1997
  344MPD2    C5 5212   2.462   0.843   9.932  0.5760  0.6905  0.0056
  344MPD2     H 5213   2.720   0.797  10.207  1.8927  0.3760 -2.3286
  344MPD2    H1 5214   2.566   1.018   9.875 -1.8191  0.4742  0.8518
  344MPD2    H2 5215   2.377   0.659   9.989 -0.6280  0.9723  3.2524
  344MPD2    H3 5216   2.392   0.855   9.849 -0.0868  0.7363  0.5686
  344MPD2     N 5217   2.750   1.027  10.044  0.5692  0.2559  0.1059
  344MPD2    H5 5218   2.737   1.097   9.971 -0.9071  1.2649  1.3355
  344MPD2    N1 5219   2.537   0.597  10.197  0.2715  0.0039 -0.2093
  344MPD2    H7 5220   2.459   0.535  10.178  1.0417 -1.1434  0.3677
  345TMC3    C1 5221   2.910   1.157  10.171  0.4397 -0.0946  0.2319
  345TMC3    C2 5222   2.987   1.157  10.286  0.1114  0.1898  0.3576
  345TMC3    C3 5223   3.029   1.276  10.331 -0.1834  0.2166  0.0323
  345TMC3    C4 5224   2.858   1.262  10.117  0.4672 -0.7241  0.1899
  345TMC3    C5 5225   2.902   1.378  10.158 -0.2010 -0.0362  0.7042
  345TMC3    C6 5226   2.992   1.385  10.257  0.4106  1.0542 -0.5826
  345TMC3     C 5227   2.857   1.027  10.126 -0.2939  0.0700 -0.0200
  345TMC3     O 5228   2.899   0.939  10.197 -0.6773 -0.0664  0.2234
  345TMC3     H 5229   3.003   1.066  10.342 -0.1622 -0.1415 -0.1011
  345TMC3    H1 5230   2.797   1.263  10.028  1.2387 -2.4560 -0.3504
  345TMC3    H2 5231   3.040   1.478  10.283 -0.3102  1.1334  0.4498
  345TMC3    C7 5232   2.823   1.496  10.137 -0.3438 -0.0738  0.1597
  345TMC3    C8 5233   3.047   1.289  10.475 -0.0347 -0.0524  0.4472
  345TMC3    O1 5234   2.874   1.594  10.185 -0.0892  0.2876  0.5065
  345TMC3    O2 5235   3.017   1.193  10.540  0.2066 -0.4707 -0.6933
  346MPD2     C 5236   2.479   2.509  13.939  0.1270 -0.2878 -0.2963
  346MPD2    C1 5237   2.595   2.522  13.869  0.5131  0.3185 -0.4709
  346MPD2    C2 5238   2.718   2.557  13.933  0.6558  0.1851  0.3926
  346MPD2    C3 5239   2.721   2.591  14.061 -0.0149 -0.2736  0.3183
  346MPD2    C4 5240   2.604   2.581  14.134  0.6575  0.3691 -0.0886
  346MPD2    C5 5241   2.490   2.548  14.074 -0.4212  0.2029 -0.5816
  346MPD2     H 5242   2.803   2.578  13.869 -1.4906  2.7888 -1.6241
  346MPD2    H1 5243   2.592   2.599  14.240 -0.7752 -1.6933  0.1099
  346MPD2    H2 5244   2.381   2.497  13.895  1.2317  0.0234 -2.8602
  346MPD2    H3 5245   2.400   2.547  14.135  0.3098  2.4432  0.5363
  346MPD2     N 5246   2.844   2.633  14.122 -0.4185 -0.4110  0.1320
  346MPD2    H5 5247   2.927   2.616  14.067 -0.1936  1.9698 -0.2464
  346MPD2    N1 5248   2.609   2.518  13.732 -0.5193  0.2985  0.0850
  346MPD2    H7 5249   2.698   2.535  13.687 -1.3116 -1.7969 -2.2565
  347TMC3    C1 5250   2.973   2.733  14.297  0.8261 -0.1703 -0.7865
  347TMC3    C2 5251   3.084   2.688  14.239 -0.2998 -0.3198  0.3473
  347TMC3    C3 5252   3.202   2.726  14.290  0.4972  0.6870 -0.1533
  347TMC3    C4 5253   2.972   2.825  14.399 -0.3972  0.1528  0.2664
  347TMC3    C5 5254   3.095   2.855  14.456  0.3571  0.3451 -0.2476
  347TMC3    C6 5255   3.208   2.815  14.396 -0.6994  0.1671 -0.0119
  347TMC3     C 5256   2.845   2.707  14.241  0.3246 -0.2579  0.8298
  347TMC3     O 5257   2.747   2.760  14.290  0.1772  0.0937 -0.1555
  347TMC3     H 5258   3.081   2.613  14.161  0.0965  0.6858 -0.6205
  347TMC3    H1 5259   2.879   2.864  14.437 -0.0390  0.5080  0.7829
  347TMC3    H2 5260   3.302   2.821  14.450 -0.3715  0.6373 -0.6429
  347TMC3    C7 5261   3.077   2.894  14.598 -0.8636 -0.2176  0.1555
  347TMC3    C8 5262   3.324   2.711  14.210 -0.0998 -0.3369  0.3755
  347TMC3    O1 5263   2.968   2.871  14.653  0.0337  0.0058 -0.0983
  347TMC3    O2 5264   3.327   2.621  14.123 -0.5801  0.0193  0.0044
  348MPD2     C 5265   1.882   2.196  12.070  0.2419 -0.5240 -0.4233
  348MPD2    C1 5266   1.917   2.111  11.969  0.1593  0.5250 -0.5668
  348MPD2    C2 5267   1.895   2.158  11.837 -0.3650  0.1768 -0.1030
  348MPD2    C3 5268   1.855   2.292  11.806  0.1041 -0.4957 -0.4790
  348MPD2    C4 5269   1.813   2.373  11.913 -0.4493  0.0723  0.0364
  348MPD2    C5 5270   1.824   2.319  12.041  0.6072 -0.7874 -0.5208
  348MPD2     H 5271   1.908   2.087  11.756  0.0316 -0.0247  0.1398
  348MPD2    H1 5272   1.769   2.472  11.901 -1.9274 -0.5861  0.0699
  348MPD2    H2 5273   1.883   2.167  12.174 -1.3911 -1.5837 -0.6945
  348MPD2    H3 5274   1.792   2.379  12.125 -1.2530 -1.2401 -0.9175
  348MPD2     N 5275   1.837   2.336  11.674  0.0124  0.7709 -0.0409
  348MPD2    H5 5276   1.858   2.271  11.598  0.4128  0.8310  0.0171
  348MPD2    N1 5277   1.961   1.975  11.981 -0.1608  0.1684 -0.1190
  348MPD2    H7 5278   1.958   1.917  11.897 -2.0888  0.6946 -0.4230
  349TMC3    C1 5279   1.978   1.766  12.093  0.4177 -0.7027  0.8526
  349TMC3    C2 5280   1.944   1.713  12.216 -0.5614  0.2651  0.6141
  349TMC3    C3 5281   1.851   1.618  12.210  0.0134  0.4198 -0.1753
  349TMC3    C4 5282   1.916   1.724  11.972  0.4487  0.5700  0.4307
  349TMC3    C5 5283   1.808   1.638  11.977 -0.4912 -0.0835  0.5480
  349TMC3    C6 5284   1.773   1.586  12.101  0.8030  0.5168  0.0545
  349TMC3     C 5285   2.012   1.910  12.094  0.2513  0.8171 -0.5643
  349TMC3     O 5286   2.029   1.956  12.207  0.7488  0.2954  0.5934
  349TMC3     H 5287   2.010   1.733  12.299 -2.2650  0.1713  1.9680
  349TMC3    H1 5288   1.957   1.760  11.879  0.7721 -2.5167 -0.6192
  349TMC3    H2 5289   1.678   1.533  12.104  1.1896 -0.2376 -1.1942
  349TMC3    C7 5290   1.699   1.692  11.905  0.5034 -0.4925  0.4184
  349TMC3    C8 5291   1.821   1.550  12.334 -0.5581 -0.1577 -0.5609
  349TMC3    O1 5292   1.591   1.696  11.963 -0.3231 -0.0427 -0.5060
  349TMC3    O2 5293   1.920   1.532  12.405 -0.0136  0.5496 -0.0191
  350MPD2     C 5294   0.886   0.505  10.883 -1.3531 -0.0755 -0.5691
  350MPD2    C1 5295   0.781   0.416  10.914 -0.4519  0.0677  0.2568
  350MPD2    C2 5296   0.715   0.448  11.032  0.4633 -1.0307 -0.0938
  350MPD2    C3 5297   0.750   0.557  11.112  0.3132 -0.2094  0.5344
  350MPD2    C4 5298   0.860   0.632  11.080 -0.1668 -0.2245 -0.5497
  350MPD2    C5 5299   0.932   0.602  10.968 -0.0112  0.5470 -0.2990
  350MPD2     H 5300   0.632   0.392  11.074 -1.3160  2.2846  0.7950
  350MPD2    H1 5301   0.902   0.716  11.135 -0.8318 -0.4323  0.2655
  350MPD2    H2 5302   0.954   0.488  10.800 -1.9100 -0.4956 -0.9354
  350MPD2    H3 5303   1.011   0.671  10.941  0.4225 -0.8154 -2.5674
  350MPD2     N 5304   0.667   0.589  11.223  0.1923  0.5803  0.1709
  350MPD2    H5 5305   0.581   0.536  11.230  2.0453 -2.6029 -1.1434
  350MPD2    N1 5306   0.734   0.312  10.825 -0.3242 -0.3398 -0.4084
  350MPD2    H7 5307   0.662   0.254  10.868 -2.0732  1.4243 -0.9805
  351TMC3    C1 5308   0.699   0.187  10.629  0.3154 -0.5066  1.0813
  351TMC3    C2 5309   0.756   0.091  10.556  0.1593 -0.6347  0.4002
  351TMC3    C3 5310   0.679   4.718  10.512  0.1769  0.5628  0.1097
  351TMC3    C4 5311   0.571   0.179  10.669 -0.3909  0.5623  0.4381
  351TMC3    C5 5312   0.497   0.075  10.624  0.8553 -0.3452 -0.3820
  351TMC3    C6 5313   0.552   4.718  10.540  0.2742 -0.6857  0.5578
  351TMC3     C 5314   0.777   0.289  10.697  0.1005 -0.7623 -0.0640
  351TMC3     O 5315   0.872   0.330  10.634  0.0722  0.5837  0.8255
  351TMC3     H 5316   0.861   0.100  10.529 -0.5400 -0.6832 -2.2978
  351TMC3    H1 5317   0.526   0.248  10.739  0.0755 -0.4363  1.7208
  351TMC3    H2 5318   0.488   4.645  10.492  2.6742 -0.8121 -2.4666
  351TMC3    C7 5319   0.368   0.049  10.690  0.6062 -0.1698  0.2064
  351TMC3    C8 5320   0.728   4.637  10.405 -0.3159 -0.8723  0.9619
  351TMC3    O1 5321   0.345   0.123  10.789 -0.1263  0.1767  0.0302
  351TMC3    O2 5322   0.650   4.579  10.330 -0.2708 -0.0412  0.7061
  352MPD2     C 5323   4.361   1.897   1.198  0.9708 -0.1894 -0.3069
  352MPD2    C1 5324   4.348   1.915   1.058  0.3154 -0.8748  0.3535
  352MPD2    C2 5325   4.409   1.827   0.972 -0.3052  0.0616 -0.5696
  352MPD2    C3 5326   4.467   1.710   1.021 -0.0734  0.2202 -0.9291
  352MPD2    C4 5327   4.494   1.700   1.154  0.0479 -0.3857  0.1964
  352MPD2    C5 5328   4.432   1.786   1.241 -0.2185 -0.0951 -0.0713
  352MPD2     H 5329   4.403   1.845   0.866 -1.2116  0.5260 -0.4428
  352MPD2    H1 5330   4.539   1.611   1.196  0.7106  0.1470  0.6267
  352MPD2    H2 5331   4.303   1.956   1.269 -2.2034 -0.8887 -2.3152
  352MPD2    H3 5332   4.441   1.762   1.346 -1.5652  1.9264  0.5117
  352MPD2     N 5333   4.499   1.597   0.937  0.0426 -0.0066 -0.2719
  352MPD2    H5 5334   4.560   1.524   0.973  0.8747  0.1345 -1.3985
  352MPD2    N1 5335   4.255   2.013   1.006  0.0375 -0.1940 -0.3370
  352MPD2    H7 5336   4.252   2.025   0.906  1.1311  1.7998 -0.1207
  353TMC3    C1 5337   4.489   1.432   0.767 -0.0797  0.3009  0.2103
  353TMC3    C2 5338   4.501   1.334   0.866  0.4372  0.3597  0.1705
  353TMC3    C3 5339   4.505   1.201   0.828  0.6928  0.7026  0.2249
  353TMC3    C4 5340   4.465   1.388   0.641  0.6347 -0.2432  0.1279
  353TMC3    C5 5341   4.469   1.256   0.601  0.6200  0.6818 -0.3211
  353TMC3    C6 5342   4.489   1.158   0.695 -0.6584 -0.0853  0.1856
  353TMC3     C 5343   4.469   1.569   0.805  0.0287  0.3360  0.0151
  353TMC3     O 5344   4.414   1.630   0.716  0.5742  0.2057 -0.6721
  353TMC3     H 5345   4.508   1.356   0.972 -0.0425  3.7495 -0.5024
  353TMC3    H1 5346   4.449   1.459   0.561 -4.9276 -0.0833  1.3413
  353TMC3    H2 5347   4.496   1.053   0.669  0.1144  0.1183 -0.4156
  353TMC3    C7 5348   4.429   1.205   0.471 -0.5388  0.0096  0.3031
  353TMC3    C8 5349   4.492   1.102   0.932  0.2160 -0.7396  0.2815
  353TMC3    O1 5350   4.406   1.084   0.469 -0.2634  0.2189 -0.7987
  353TMC3    O2 5351   4.478   1.140   1.048  0.2697 -0.6920  0.0317
  354TMC3    C1 5352   0.939   3.304  13.705  0.1388  0.1637 -0.5015
  354TMC3    C2 5353   0.996   3.429  13.715  0.0663  0.2146 -0.3705
  354TMC3    C3 5354   1.023   3.494  13.600 -0.1723 -0.1938  0.5720
  354TMC3    C4 5355   0.913   3.247  13.584  0.2722 -0.1178 -0.8593
  354TMC3    C5 5356   0.954   3.306  13.469 -0.2117  0.7613 -0.0224
  354TMC3    C6 5357   1.001   3.437  13.478  0.2851 -0.1948  0.1914
  354TMC3     C 5358   0.917   3.217  13.817  0.2557 -0.1964 -0.0480
  354TMC3     O 5359   0.851   3.117  13.803  0.0365 -0.7989  0.4251
  354TMC3     H 5360   0.999   3.485  13.808  1.4384  1.0541 -0.9254
  354TMC3    H1 5361   0.911   3.139  13.596 -0.5649  0.1676  1.5557
  354TMC3    H2 5362   1.027   3.487  13.385  2.1731 -0.9019  0.3288
  354TMC3    C7 5363   0.937   3.234  13.348  1.0225  0.6349  0.3262
  354TMC3    C8 5364   1.075   3.626  13.611  0.3578 -0.1093 -0.6609
  354TMC3    O1 5365   0.865   3.139  13.353 -0.4972 -0.8722 -0.7118
  354TMC3    O2 5366   1.070   3.678  13.724 -0.0145 -0.6401 -0.4386
  355MPD2     C 5367   1.153   3.919  11.996  0.5826 -0.5815  0.4033
  355MPD2    C1 5368   1.084   4.036  11.968  0.4606 -0.3560  0.2713
  355MPD2    C2 5369   1.154   4.151  11.980  0.1496  0.1647  0.3944
  355MPD2    C3 5370   1.287   4.164  12.020  0.0708  0.2028  0.6746
  355MPD2    C4 5371   1.346   4.046  12.061  0.2403  1.0519 -0.7305
  355MPD2    C5 5372   1.286   3.924  12.035 -0.5304  0.0136 -0.2328
  355MPD2     H 5373   1.094   4.240  11.964 -0.6506 -0.2560  1.0908
  355MPD2    H1 5374   1.444   4.037  12.106  0.6444 -1.9925 -2.2277
  355MPD2    H2 5375   1.113   3.818  11.986 -0.9829  0.0978 -0.1500
  355MPD2    H3 5376   1.340   3.832  12.052 -0.2979 -0.0720 -1.4348
  355MPD2     N 5377   1.369   4.276  12.004  0.1344 -0.2697 -0.4403
  355MPD2    H5 5378   1.470   4.264  12.009  0.5878  3.4525 -1.1832
  355MPD2    N1 5379   0.958   4.026  11.909 -0.0717  0.1284 -0.0566
  355MPD2    H7 5380   0.918   3.934  11.923 -1.4506  0.7906  0.3827
  356TMC3    C1 5381   1.429   4.485  11.925 -0.1132  0.2496 -0.0811
  356TMC3    C2 5382   1.409   4.576  11.820 -0.2116  0.0024 -0.0662
  356TMC3    C3 5383   1.488   4.687  11.825 -0.4542  0.2034 -0.1738
  356TMC3    C4 5384   1.517   4.506  12.022 -0.5194 -0.2169  0.0494
  356TMC3    C5 5385   1.607   4.609  12.020 -0.4059 -0.5926  0.6682
  356TMC3    C6 5386   1.586   4.704  11.921  0.5559  0.6996  0.3989
  356TMC3     C 5387   1.326   4.382  11.938  0.2686  0.2357 -0.0398
  356TMC3     O 5388   1.222   4.405  11.882  0.5517  0.3801  0.3397
  356TMC3     H 5389   1.343   4.547  11.740 -0.5958 -2.7043  1.2168
  356TMC3    H1 5390   1.531   4.427  12.095  1.1786 -1.6727 -1.8730
  356TMC3    H2 5391   1.662   0.043  11.906  2.2235 -0.9562  0.4523
  356TMC3    C7 5392   1.689   4.638  12.136  0.4268  0.1143  0.1769
  356TMC3    C8 5393   1.493   0.017  11.693  0.1936  0.0262  0.1787
  356TMC3    O1 5394   1.704   4.543  12.213  0.4768  0.1472 -0.2200
  356TMC3    O2 5395   1.439   4.707  11.594  0.7291  0.4235 -0.4469
  357MPD2     C 5396   1.372   3.063   2.154 -0.2961  0.7971 -0.0971
  357MPD2    C1 5397   1.492   3.018   2.095 -0.2931  0.6074 -0.3252
  357MPD2    C2 5398   1.609   3.014   2.171  0.2322 -0.1703  0.2788
  357MPD2    C3 5399   1.605   3.037   2.309  0.0108  0.2687  0.1974
  357MPD2    C4 5400   1.488   3.090   2.369 -0.3756 -0.3550  0.6282
  357MPD2    C5 5401   1.372   3.103   2.284  0.5305 -0.2337 -0.0806
  357MPD2     H 5402   1.703   2.984   2.127  1.0607  1.1861  1.1279
  357MPD2    H1 5403   1.481   3.129   2.470  1.1638 -0.0593  0.6315
  357MPD2    H2 5404   1.275   3.081   2.108 -0.4799  1.9787  0.7574
  357MPD2    H3 5405   1.281   3.152   2.316  1.4195  1.8019 -0.6446
  357MPD2     N 5406   1.712   3.021   2.394  0.2047 -0.0594 -0.0056
  357MPD2    H5 5407   1.705   3.065   2.485 -1.4330 -0.7530  0.1994
  357MPD2    N1 5408   1.483   3.010   1.955  0.1574  0.7702 -0.0148
  357MPD2    H7 5409   1.394   3.027   1.909  0.0354  0.3884  0.0790
  358TMC3    C1 5410   1.550   2.936   1.735 -0.0538  0.3678 -0.4774
  358TMC3    C2 5411   1.421   2.929   1.693  0.3202 -1.1783  0.1820
  358TMC3    C3 5412   1.413   2.896   1.560 -0.0576  0.2486  0.8047
  358TMC3    C4 5413   1.660   2.908   1.666 -0.2777  0.5820  0.0388
  358TMC3    C5 5414   1.642   2.874   1.537 -0.2164 -0.2142 -0.2711
  358TMC3    C6 5415   1.521   2.867   1.479  0.6688 -0.4773  0.0795
  358TMC3     C 5416   1.585   2.963   1.874  0.4683 -0.4378 -0.2203
  358TMC3     O 5417   1.702   2.942   1.910 -0.0967 -0.0286 -0.5304
  358TMC3     H 5418   1.335   2.957   1.751 -0.2514  0.7155 -1.5836
  358TMC3    H1 5419   1.759   2.922   1.706 -0.0163  0.8258 -0.6865
  358TMC3    H2 5420   1.521   2.877   1.371  0.7028  0.0499  0.1284
  358TMC3    C7 5421   1.759   2.894   1.450 -0.0066  0.1833  0.3452
  358TMC3    C8 5422   1.280   2.896   1.493  1.0636 -0.1161  0.0907
  358TMC3    O1 5423   1.740   2.934   1.338 -0.3083 -0.0462 -0.3883
  358TMC3    O2 5424   1.276   2.879   1.373  0.0415  0.4127  0.1150
  359MPD2     C 5425   1.006   2.605  12.302  0.2764  0.1000  0.6537
  359MPD2    C1 5426   0.948   2.703  12.219  0.2526  0.1212  0.3591
  359MPD2    C2 5427   0.812   2.729  12.228  0.0505  0.3161  0.2813
  359MPD2    C3 5428   0.739   2.666  12.329  0.0749 -0.3156 -0.6115
  359MPD2    C4 5429   0.802   2.577  12.415 -0.0151 -0.9413 -0.1417
  359MPD2    C5 5430   0.931   2.546  12.400  0.4614  0.7196 -0.2045
  359MPD2     H 5431   0.765   2.800  12.161 -1.4190  0.7142  1.7324
  359MPD2    H1 5432   0.746   2.545  12.502 -3.3054  2.1809 -1.0995
  359MPD2    H2 5433   1.107   2.570  12.288 -0.4852 -1.9257  0.1135
  359MPD2    H3 5434   0.978   2.472  12.465  0.7932  1.3549  0.2781
  359MPD2     N 5435   0.615   2.711  12.378  0.4704 -0.8779  0.5717
  359MPD2    H5 5436   0.576   2.670  12.463 -4.0525  0.3959 -0.8884
  359MPD2    N1 5437   1.034   2.760  12.124 -0.0672  0.5032 -0.0761
  359MPD2    H7 5438   1.117   2.703  12.110 -1.6861 -1.9596  0.3814
  360TMC3    C1 5439   1.154   2.911  11.987 -0.6407  0.2118  0.1431
  360TMC3    C2 5440   1.243   3.010  12.029  0.3569  0.3128  0.6252
  360TMC3    C3 5441   1.350   3.019  11.947  0.4357  0.0402 -0.3946
  360TMC3    C4 5442   1.171   2.821  11.886  0.1121 -0.0809  0.3466
  360TMC3    C5 5443   1.273   2.847  11.803  0.5821  0.1019 -0.1033
  360TMC3    C6 5444   1.362   2.946  11.826  0.1282  0.5198 -0.3168
  360TMC3     C 5445   1.034   2.886  12.072  0.3814 -0.2592 -0.4143
  360TMC3     O 5446   0.959   2.979  12.106 -0.0981 -0.5551 -0.0139
  360TMC3     H 5447   1.243   3.054  12.128 -1.3863  1.8058 -0.0496
  360TMC3    H1 5448   1.097   2.743  11.872 -1.3732  1.2031  0.9613
  360TMC3    H2 5449   1.433   2.974  11.749  0.8171 -2.1782 -0.6678
  360TMC3    C7 5450   1.281   2.775  11.683  0.4992  0.2043  0.2660
  360TMC3    C8 5451   1.449   3.122  11.983  0.7733 -0.1978  0.7786
  360TMC3    O1 5452   1.366   2.810  11.599 -0.1635  0.2055 -0.4733
  360TMC3    O2 5453   1.417   3.222  12.045 -0.5489  0.1363 -0.0878
  361MPD2     C 5454   2.941   1.390  17.106  0.1764 -0.2698  0.7611
  361MPD2    C1 5455   3.012   1.490  17.162 -0.0548  0.3247  0.6745
  361MPD2    C2 5456   3.129   1.463  17.226 -0.8967  0.4159  0.2445
  361MPD2    C3 5457   3.173   1.336  17.234  0.1571  0.1444  0.2350
  361MPD2    C4 5458   3.098   1.236  17.184 -0.9269 -0.3732 -0.1931
  361MPD2    C5 5459   2.988   1.267  17.115  0.9272  0.2766 -0.5121
  361MPD2     H 5460   3.185   1.541  17.275 -1.1206  1.5781 -1.3445
  361MPD2    H1 5461   3.131   1.133  17.189  1.6991  0.5082  1.3349
  361MPD2    H2 5462   2.845   1.393  17.057  0.3731  0.2000  0.4059
  361MPD2    H3 5463   2.923   1.188  17.080 -0.5556  1.4115 -0.3183
  361MPD2     N 5464   3.297   1.294  17.293  0.4414  0.2189  0.3520
  361MPD2    H5 5465   3.324   1.197  17.283  1.7539  0.5992  0.3123
  361MPD2    N1 5466   2.967   1.621  17.171  0.5302 -0.2754  0.4911
  361MPD2    H7 5467   3.010   1.690  17.232 -1.0799  1.0062  0.1780
  362TMC3    C1 5468   2.826   1.803  17.122  0.3137 -1.2675 -0.2127
  362TMC3    C2 5469   2.818   1.846  17.251  0.7736 -0.0067 -0.1104
  362TMC3    C3 5470   2.730   1.942  17.291 -0.2126 -0.3436  0.2344
  362TMC3    C4 5471   2.740   1.861  17.035  0.7212 -0.2144  0.1605
  362TMC3    C5 5472   2.654   1.967  17.073  0.4004  0.0291 -0.6297
  362TMC3    C6 5473   2.642   2.007  17.206  0.1542  0.1625 -0.5398
  362TMC3     C 5474   2.858   1.666  17.089 -0.2188  0.4736 -0.0268
  362TMC3     O 5475   2.793   1.606  17.006 -0.1191  0.2674 -0.8075
  362TMC3     H 5476   2.893   1.809  17.320  0.3128  0.6829  0.7618
  362TMC3    H1 5477   2.739   1.819  16.935 -1.8619 -1.5421  0.7296
  362TMC3    H2 5478   2.587   2.097  17.227  0.1107  0.0807 -0.2993
  362TMC3    C7 5479   2.572   2.040  16.980 -0.2670 -0.8053 -0.1551
  362TMC3    C8 5480   2.747   2.006  17.425  0.0028 -0.6177  0.5329
  362TMC3    O1 5481   2.544   2.152  17.008 -0.5972  0.6317  0.6696
  362TMC3    O2 5482   2.845   1.966  17.487  0.3748 -0.1487  0.4752
  363TMC3    C1 5483   1.423   3.742   9.312  0.3481 -0.1897  0.4813
  363TMC3    C2 5484   1.556   3.772   9.334  1.0308 -0.1815 -0.3925
  363TMC3    C3 5485   1.579   3.903   9.364  0.8710 -0.0808 -0.2468
  363TMC3    C4 5486   1.315   3.819   9.348  0.5708 -0.2851 -0.1957
  363TMC3    C5 5487   1.351   3.944   9.401 -0.4998  0.2298 -0.8311
  363TMC3    C6 5488   1.480   3.984   9.408  0.7959 -0.1194  0.4959
  363TMC3     C 5489   1.408   3.602   9.292  0.3070 -0.1818  0.3854
  363TMC3     O 5490   1.504   3.529   9.321  0.3008 -0.1688 -0.0197
  363TMC3     H 5491   1.636   3.706   9.302 -0.4309 -2.3643  0.4306
  363TMC3    H1 5492   1.213   3.804   9.313  0.0591  0.8369  0.8019
  363TMC3    H2 5493   1.512   4.084   9.437 -0.9045  0.7927 -0.7345
  363TMC3    C7 5494   1.254   4.053   9.391  0.2668 -0.1558 -0.0908
  363TMC3    C8 5495   1.707   3.961   9.335 -0.6008 -0.5898  0.0200
  363TMC3    O1 5496   1.166   4.033   9.308  0.1100  0.7157 -0.5702
  363TMC3    O2 5497   1.714   4.075   9.289  0.1937 -0.3167 -0.5268
  364MPD2     C 5498   0.155   4.166  10.909  0.6268  0.1957  0.1526
  364MPD2    C1 5499   0.269   4.141  10.830 -0.1374  0.2668  0.1768
  364MPD2    C2 5500   0.319   4.015  10.811 -0.3714  0.3052  0.3313
  364MPD2    C3 5501   0.264   3.905  10.883 -0.4987  0.2314 -0.0688
  364MPD2    C4 5502   0.155   3.935  10.961 -0.4701  0.3010 -0.1336
  364MPD2    C5 5503   0.095   4.058  10.973 -0.4108 -0.3440 -0.1957
  364MPD2     H 5504   0.409   4.003  10.752  2.3188  2.0648  4.0413
  364MPD2    H1 5505   0.113   3.851  11.015 -1.0484 -1.4014 -3.2533
  364MPD2    H2 5506   0.108   4.262  10.925  2.2965  1.1575 -0.7178
  364MPD2    H3 5507   0.020   4.079  11.048 -0.0560 -2.5581  0.7655
  364MPD2     N 5508   0.306   3.766  10.874  0.7063 -0.4510  0.3338
  364MPD2    H5 5509   0.247   3.702  10.926 -0.4233  1.6038  1.5569
  364MPD2    N1 5510   0.329   4.251  10.764 -0.1498  0.2561 -0.4276
  364MPD2    H7 5511   0.294   4.344  10.787  3.1377  1.0763  1.2088
  365TMC3    C1 5512   0.499   4.360  10.638  0.3455  0.2286 -0.0683
  365TMC3    C2 5513   0.609   4.328  10.564 -0.3114 -0.0020 -0.8904
  365TMC3    C3 5514   0.730   4.334  10.623 -0.0771 -1.0648 -0.7473
  365TMC3    C4 5515   0.509   4.438  10.749 -0.0932 -0.1508 -0.5025
  365TMC3    C5 5516   0.634   4.468  10.793 -0.6288 -0.2150  0.9493
  365TMC3    C6 5517   0.748   4.405  10.742 -0.0583 -0.2647 -0.0776
  365TMC3     C 5518   0.426   4.241  10.671 -0.3400 -0.3189  0.0544
  365TMC3     O 5519   0.462   4.150  10.594 -0.1582 -0.5731  0.3366
  365TMC3     H 5520   0.613   4.277  10.468 -1.0899  2.9960 -2.5031
  365TMC3    H1 5521   0.424   4.494  10.785  0.3359 -0.0208  0.2983
  365TMC3    H2 5522   0.846   4.417  10.787 -0.0752 -0.2567 -0.0424
  365TMC3    C7 5523   0.661   4.589  10.864 -0.0743 -0.1595  0.1660
  365TMC3    C8 5524   0.832   4.235  10.593  0.0910 -0.2810 -0.2507
  365TMC3    O1 5525   0.773   4.637  10.848  0.6290 -0.0436 -0.3033
  365TMC3    O2 5526   0.945   4.248  10.630  0.0602  0.5766  0.5850
  366MPD2     C 5527   3.102   4.567  15.540  0.5102 -0.0239  0.9889
  366MPD2    C1 5528   3.194   4.611  15.448  0.3671 -0.1197  0.1022
  366MPD2    C2 5529   3.312   4.534  15.442 -0.1250 -0.0876 -0.6068
  366MPD2    C3 5530   3.337   4.420  15.515  0.2618 -0.1951 -0.0156
  366MPD2    C4 5531   3.233   4.382  15.602  0.4054  0.7983 -0.1114
  366MPD2    C5 5532   3.124   4.454  15.612  0.2449  0.3493  0.9159
  366MPD2     H 5533   3.383   4.563  15.365 -1.3725 -0.7869 -2.0123
  366MPD2    H1 5534   3.249   4.303  15.675 -2.2118 -0.9099 -1.3957
  366MPD2    H2 5535   3.018   4.635  15.556 -0.4644 -0.9531 -0.2322
  366MPD2    H3 5536   3.059   4.423  15.694  0.8351  0.5604  1.4664
  366MPD2     N 5537   3.463   4.364  15.525  0.4747 -0.3440  0.9138
  366MPD2    H5 5538   3.525   4.417  15.465 -1.6492 -0.2548 -1.2011
  366MPD2    N1 5539   3.184   0.008  15.398 -0.5076  0.8872  0.1918
  366MPD2    H7 5540   3.099   0.058  15.424  1.6275  2.3048  4.5462
  367TMC3    C1 5541   3.291   0.218  15.417 -0.7667  0.0478 -0.8547
  367TMC3    C2 5542   3.402   0.270  15.483  0.3243  0.4103  0.1123
  367TMC3    C3 5543   3.397   0.400  15.521  0.5542 -0.0731  0.7924
  367TMC3    C4 5544   3.182   0.294  15.382  0.3305 -0.2518  0.2004
  367TMC3    C5 5545   3.200   0.425  15.406 -0.3524 -0.0726  0.7535
  367TMC3    C6 5546   3.301   0.485  15.476  0.2909  0.1655 -0.4579
  367TMC3     C 5547   3.302   0.079  15.376  0.0208  0.2880 -0.3110
  367TMC3     O 5548   3.420   0.040  15.365 -0.6999  0.1231 -0.5109
  367TMC3     H 5549   3.476   0.200  15.520 -0.5604  0.3854  1.8235
  367TMC3    H1 5550   3.096   0.250  15.332 -0.4112  2.0543 -0.5634
  367TMC3    H2 5551   3.312   0.593  15.484  0.1910  0.0213  1.4691
  367TMC3    C7 5552   3.136   0.513  15.316 -0.0572 -0.0062 -0.1024
  367TMC3    C8 5553   3.515   0.442  15.598 -0.5125 -0.2176 -1.2505
  367TMC3    O1 5554   3.104   0.624  15.360  0.9152  0.3072 -0.3693
  367TMC3    O2 5555   3.606   0.359  15.610  0.1211 -0.3432  0.5243
  368MPD2     C 5556   4.031   1.653  13.050  0.6383  0.1281 -0.4050
  368MPD2    C1 5557   4.045   1.779  13.093  0.2530 -0.5102  0.0187
  368MPD2    C2 5558   4.166   1.837  13.055  0.0225  0.4678 -0.1568
  368MPD2    C3 5559   4.259   1.767  12.982  0.6368 -0.2009 -0.2414
  368MPD2    C4 5560   4.247   1.633  12.962 -0.9192 -0.2084  0.8345
  368MPD2    C5 5561   4.130   1.578  12.998 -0.3991 -0.4465  0.6787
  368MPD2     H 5562   4.180   1.942  13.078  0.0702 -0.1498  2.6201
  368MPD2    H1 5563   4.335   1.582  12.926 -0.5880  0.8339  0.1715
  368MPD2    H2 5564   3.941   1.596  13.072 -0.6239  1.5290 -1.9455
  368MPD2    H3 5565   4.117   1.472  12.979  0.6781 -0.8952  2.4956
  368MPD2     N 5566   4.388   1.815  12.956 -0.2331  0.4178  0.3109
  368MPD2    H5 5567   4.445   1.755  12.897 -0.4125  0.4052  0.1502
  368MPD2    N1 5568   3.947   1.849  13.170  0.4732 -0.4709  0.3697
  368MPD2    H7 5569   3.858   1.804  13.187  0.4929 -0.3492  0.8052
  369TMC3    C1 5570   3.842   2.037  13.274  0.0010  0.7681 -0.2313
  369TMC3    C2 5571   3.855   2.172  13.281 -0.2972 -0.6944  0.2075
  369TMC3    C3 5572   3.745   2.249  13.297 -0.2735  0.0741 -0.1769
  369TMC3    C4 5573   3.722   1.977  13.281 -0.3947  0.2297 -0.9155
  369TMC3    C5 5574   3.617   2.057  13.301  0.4658 -0.0339  0.4413
  369TMC3    C6 5575   3.621   2.190  13.314  0.3860  0.5138  0.2884
  369TMC3     C 5576   3.962   1.972  13.221  0.9383  0.2166  0.0794
  369TMC3     O 5577   4.061   2.048  13.224 -0.2481  0.7404  0.4128
  369TMC3     H 5578   3.953   2.213  13.302 -0.0991  0.0389 -2.1826
  369TMC3    H1 5579   3.727   1.871  13.305  1.7433  1.2975  3.2577
  369TMC3    H2 5580   3.538   2.256  13.338  0.8459  1.0064  0.5168
  369TMC3    C7 5581   3.505   1.992  13.359 -0.1565 -0.2351 -0.0053
  369TMC3    C8 5582   3.752   2.388  13.266  0.5081  0.1102 -0.0558
  369TMC3    O1 5583   3.508   1.872  13.379  0.0392  0.1270 -0.2839
  369TMC3    O2 5584   3.643   2.441  13.247  0.2807 -0.4212 -0.5763
  370TMC3    C1 5585   4.510   2.534  16.078  0.2165  0.6612  0.3579
  370TMC3    C2 5586   4.473   2.430  16.158 -0.4712  0.1004  0.3037
  370TMC3    C3 5587   4.414   2.319  16.106  0.2488 -0.1452 -0.2771
  370TMC3    C4 5588   4.492   2.525  15.942 -0.0588  0.0460  0.0231
  370TMC3    C5 5589   4.437   2.407  15.892  0.0322  0.2484  0.0132
  370TMC3    C6 5590   4.391   2.306  15.971  0.0937 -0.0026 -0.5291
  370TMC3     C 5591   4.585   2.642  16.138 -0.2664 -0.1142 -0.7062
  370TMC3     O 5592   4.630   2.610  16.246 -0.2911  0.0013  0.6986
  370TMC3     H 5593   4.500   2.435  16.263  1.4500 -2.0047 -0.0958
  370TMC3    H1 5594   4.522   2.602  15.872  2.1129  0.1863  1.0983
  370TMC3    H2 5595   4.345   2.217  15.928 -0.7018  0.4285 -0.5675
  370TMC3    C7 5596   4.490   2.381  15.763  0.0038  0.2442  0.2533
  370TMC3    C8 5597   4.347   2.233  16.197  0.6204 -0.5361 -0.1687
  370TMC3    O1 5598   4.505   2.474  15.686  0.2811 -0.4383 -0.2248
  370TMC3    O2 5599   4.328   2.121  16.155  0.1696  0.1251 -0.3369
  371TMC3    C1 5600   0.831   0.945  15.188  0.0302 -0.5771 -0.0392
  371TMC3    C2 5601   0.711   0.895  15.150 -0.8044  0.0883 -0.7941
  371TMC3    C3 5602   0.641   0.957  15.059  0.4500 -0.1209  0.5162
  371TMC3    C4 5603   0.883   1.065  15.144 -0.3391  0.0597 -0.0122
  371TMC3    C5 5604   0.807   1.131  15.053  0.3053  0.3240 -0.3785
  371TMC3    C6 5605   0.690   1.078  15.005  0.5134 -0.4013  0.2488
  371TMC3     C 5606   0.917   0.873  15.276 -0.7056  0.0215  0.0517
  371TMC3     O 5607   1.034   0.909  15.286  0.0095  0.0974  0.2284
  371TMC3     H 5608   0.685   0.793  15.175 -2.4005  0.7630  0.3345
  371TMC3    H1 5609   0.983   1.102  15.166 -0.4654  0.9421 -0.9256
  371TMC3    H2 5610   0.616   1.132  14.947  1.8537  0.3292 -0.7911
  371TMC3    C7 5611   0.845   1.258  15.010  0.4367 -0.0102 -0.4790
  371TMC3    C8 5612   0.503   0.945  15.098 -0.4607 -0.5125  0.3907
  371TMC3    O1 5613   0.889   1.341  15.090  0.0399  0.0556  0.0293
  371TMC3    O2 5614   0.458   0.835  15.082 -0.3000 -0.2370  0.3036
  372MPD2     C 5615   4.321   1.895  14.071 -0.0812 -0.4858  0.3256
  372MPD2    C1 5616   4.415   1.888  13.970 -0.0257 -0.8089  0.0990
  372MPD2    C2 5617   4.523   1.811  13.997 -1.4660  0.2186  0.4202
  372MPD2    C3 5618   4.545   1.747  14.116 -0.4476 -0.4468  0.1072
  372MPD2    C4 5619   4.441   1.741  14.207  0.3155 -0.1218  0.7501
  372MPD2    C5 5620   4.337   1.815  14.181 -0.1436  0.3777 -0.3706
  372MPD2     H 5621   4.601   1.819  13.922  1.2318  2.7085  3.4837
  372MPD2    H1 5622   4.445   1.679  14.296 -0.6238  0.3050  1.0868
  372MPD2    H2 5623   4.232   1.957  14.071 -0.0888 -0.4906 -1.9633
  372MPD2    H3 5624   4.251   1.800  14.245 -0.8190  0.8137 -1.1789
  372MPD2     N 5625   4.671   1.689  14.136 -0.0541 -0.1570 -0.9040
  372MPD2    H5 5626   4.735   1.683  14.058  0.0239 -1.3773 -0.7500
  372MPD2    N1 5627   4.419   1.966  13.857 -0.2579 -0.1167  0.4162
  372MPD2    H7 5628   4.498   1.954  13.793  0.5149  0.9952  1.1686
  373TMC3    C1 5629   0.098   1.581  14.267 -0.2920  0.1318 -0.4881
  373TMC3    C2 5630   0.176   1.648  14.358  0.0040 -0.5769 -0.4144
  373TMC3    C3 5631   0.303   1.668  14.330  0.0064  0.5265 -1.1315
  373TMC3    C4 5632   0.149   1.543  14.146  0.7028  0.1160  0.0109
  373TMC3    C5 5633   0.284   1.540  14.135 -0.0677 -0.7500  0.9958
  373TMC3    C6 5634   0.363   1.595  14.229 -0.4037  0.2057  0.3114
  373TMC3     C 5635   4.708   1.638  14.259 -0.5558 -0.1988  0.1476
  373TMC3     O 5636   4.655   1.657  14.370 -0.0287  0.5586  0.1920
  373TMC3     H 5637   0.128   1.695  14.444 -0.3489 -0.1038 -0.8722
  373TMC3    H1 5638   0.083   1.503  14.070 -1.4598  0.2720  1.7956
  373TMC3    H2 5639   0.471   1.595  14.224 -0.4413 -2.8720 -0.5320
  373TMC3    C7 5640   0.333   1.496  14.004 -0.6599  0.4355  0.3880
  373TMC3    C8 5641   0.358   1.801  14.343  0.2869 -0.3045 -0.0639
  373TMC3    O1 5642   0.256   1.438  13.928  0.0919 -0.2715  0.1857
  373TMC3    O2 5643   0.416   1.826  14.238  0.5425 -0.3358  0.3832
  374TMC3    C1 5644   0.542   2.807   9.774  0.1878  0.0170  0.2574
  374TMC3    C2 5645   0.648   2.732   9.801  0.3997 -0.0102 -0.8893
  374TMC3    C3 5646   0.719   2.687   9.693  0.0750  0.5160  0.0748
  374TMC3    C4 5647   0.494   2.836   9.655  0.0237  0.0198  0.6303
  374TMC3    C5 5648   0.557   2.778   9.547  0.3563  0.8008  0.1096
  374TMC3    C6 5649   0.669   2.713   9.570 -0.5774  0.3482 -0.4026
  374TMC3     C 5650   0.441   2.840   9.876 -0.9111  0.9319  0.2019
  374TMC3     O 5651   0.367   2.935   9.853  0.4789 -0.0225  0.0545
  374TMC3     H 5652   0.657   2.701   9.905 -3.5162  0.7427 -0.3300
  374TMC3    H1 5653   0.405   2.896   9.641 -0.0120 -0.2553 -0.2865
  374TMC3    H2 5654   0.718   2.666   9.486  1.6818  1.5753  0.2270
  374TMC3    C7 5655   0.529   2.847   9.426  0.6579 -0.1488 -0.2938
  374TMC3    C8 5656   0.855   2.686   9.689 -0.0331 -0.4307 -0.1803
  374TMC3    O1 5657   0.473   2.954   9.431  0.1130  0.6050  0.3032
  374TMC3    O2 5658   0.916   2.680   9.582 -0.3396  0.1914  0.5192
  375MPD2     C 5659   0.964   2.819  16.517 -0.2602  0.1327  0.0077
  375MPD2    C1 5660   0.922   2.907  16.419 -0.7558  0.5531  0.2730
  375MPD2    C2 5661   0.923   2.873  16.290  0.6056  0.9134  0.3886
  375MPD2    C3 5662   0.966   2.754  16.242 -0.5362 -0.0905  0.7312
  375MPD2    C4 5663   1.018   2.666  16.349 -0.4729 -0.5244 -0.2572
  375MPD2    C5 5664   1.013   2.697  16.482  0.3718 -0.2624  0.4114
  375MPD2     H 5665   0.906   2.943  16.209 -0.2761 -0.7323 -0.8376
  375MPD2    H1 5666   1.062   2.570  16.321  1.7088  0.9494 -1.8885
  375MPD2    H2 5667   0.950   2.838  16.623 -1.4584  1.7086 -0.4300
  375MPD2    H3 5668   1.037   2.625  16.559  0.0085  0.5447  1.2777
  375MPD2     N 5669   0.976   2.710  16.108  0.1167 -0.4196 -0.3517
  375MPD2    H5 5670   1.014   2.617  16.093 -1.8850 -1.2610 -0.3303
  375MPD2    N1 5671   0.865   3.028  16.453 -0.5285 -0.2982 -0.1107
  375MPD2    H7 5672   0.818   3.069  16.373 -0.6260  2.0970  1.1735
  376TMC3    C1 5673   0.973   2.697  15.869  0.1211  0.3813 -0.3435
  376TMC3    C2 5674   1.076   2.607  15.875  0.3628 -0.5266 -0.5372
  376TMC3    C3 5675   1.127   2.538  15.774 -0.1529 -0.3990 -0.2372
  376TMC3    C4 5676   0.931   2.737  15.749 -0.4060  0.0137  0.4610
  376TMC3    C5 5677   0.977   2.658  15.642  0.6889 -0.0643 -0.0189
  376TMC3    C6 5678   1.072   2.552  15.648  0.4391  0.6029 -0.2324
  376TMC3     C 5679   0.928   2.768  15.989 -0.5114  0.3857  0.4350
  376TMC3     O 5680   0.871   2.877  15.972  0.0342  0.5130 -0.0381
  376TMC3     H 5681   1.112   2.585  15.975 -1.7015  2.1099  0.7947
  376TMC3    H1 5682   0.863   2.818  15.726 -0.0403 -0.6229 -2.8037
  376TMC3    H2 5683   1.109   2.505  15.558  0.5755 -0.6301  0.4651
  376TMC3    C7 5684   0.947   2.700  15.504  0.3324 -0.1110  0.6081
  376TMC3    C8 5685   1.261   2.469  15.795  0.3468  0.1377  0.5532
  376TMC3    O1 5686   0.926   2.820  15.489 -0.3541 -0.1508 -0.2924
  376TMC3    O2 5687   1.300   2.399  15.704 -0.1575 -0.1763 -0.0624
  377MPD2     C 5688   3.349   2.567  12.668  0.2302  0.3560 -0.6176
  377MPD2    C1 5689   3.425   2.506  12.763 -0.5705  0.2869  0.1802
  377MPD2    C2 5690   3.365   2.414  12.846 -0.1645 -0.4463 -0.8780
  377MPD2    C3 5691   3.227   2.392  12.841 -0.0463 -0.4792 -0.4645
  377MPD2    C4 5692   3.156   2.451  12.739 -0.5041 -0.0757  0.7721
  377MPD2    C5 5693   3.218   2.535  12.650  0.4290  0.4418  0.7705
  377MPD2     H 5694   3.422   2.365  12.923 -0.7642 -0.0451 -0.1789
  377MPD2    H1 5695   3.051   2.439  12.714  0.0271 -1.4914 -0.7592
  377MPD2    H2 5696   3.396   2.637  12.600  1.6506  1.1746  1.1983
  377MPD2    H3 5697   3.153   2.586  12.579 -0.7558  1.6731  2.7336
  377MPD2     N 5698   3.149   2.306  12.930 -0.0631 -0.4412  0.0085
  377MPD2    H5 5699   3.049   2.300  12.918 -0.4066  0.6149  2.4590
  377MPD2    N1 5700   3.562   2.538  12.765  0.3758  0.0076  0.6249
  377MPD2    H7 5701   3.589   2.610  12.698 -1.8600 -0.5018 -0.8019
  378TMC3    C1 5702   3.871   2.685  12.652  0.2519 -0.8999 -0.5837
  378TMC3    C2 5703   3.811   2.650  12.768  0.0885  0.2249  0.3147
  378TMC3    C3 5704   3.798   2.516  12.795  0.0372  0.3620  0.1586
  378TMC3    C4 5705   3.953   2.603  12.585  0.9391  0.5064  0.0984
  378TMC3    C5 5706   3.961   2.476  12.628 -0.0035 -0.7807 -1.5296
  378TMC3    C6 5707   3.885   2.428  12.730 -0.1400  0.5307  0.6300
  378TMC3     C 5708   3.769   2.751  12.566  0.8000  0.5552 -0.3060
  378TMC3     O 5709   3.656   2.714  12.579 -0.0054 -0.0701 -0.1296
  378TMC3     H 5710   3.743   2.722  12.812  3.4368  2.3722  1.9587
  378TMC3    H1 5711   4.002   2.645  12.498 -2.7102  0.7409 -1.8144
  378TMC3    H2 5712   3.875   2.321  12.741  2.0564  0.2400 -0.2928
  378TMC3    C7 5713   4.052   2.392  12.568 -0.2600 -0.7095  0.3679
  378TMC3    C8 5714   3.668   2.467  12.823 -1.0859 -0.4075 -0.3089
  378TMC3    O1 5715   4.103   2.302  12.636  0.2997 -0.8472 -0.1730
  378TMC3    O2 5716   3.665   2.358  12.870 -0.5061  0.2749  0.5104
  379MPD2     C 5717   0.013   0.470  16.005  0.7063 -0.0310  0.5196
  379MPD2    C1 5718   4.677   0.362  16.047  0.2850 -0.1538 -0.3299
  379MPD2    C2 5719   0.005   0.258  16.119 -0.4743 -0.4940  0.8065
  379MPD2    C3 5720   0.135   0.276  16.153 -0.0461  0.5686 -0.2529
  379MPD2    C4 5721   0.211   0.382  16.112  0.9123 -0.4426 -0.3969
  379MPD2    C5 5722   0.148   0.472  16.025  0.9177  0.7187 -0.1220
  379MPD2     H 5723   4.675   0.184  16.162 -0.2039 -1.4608 -0.4460
  379MPD2    H1 5724   0.315   0.392  16.138  0.8777 -1.7321  0.2212
  379MPD2    H2 5725   4.712   0.552  15.945  0.3171  0.8615  1.9925
  379MPD2    H3 5726   0.216   0.545  15.982  1.3468  1.4085  1.7207
  379MPD2     N 5727   0.215   0.184  16.220 -0.2134 -0.2292  0.2204
  379MPD2    H5 5728   0.314   0.206  16.224 -0.3702  0.1535  2.5176
  379MPD2    N1 5729   4.535   0.358  16.037 -0.2953  0.3188 -0.1216
  379MPD2    H7 5730   4.491   0.280  16.085 -0.0150  1.4604  1.9957
  380TMC3    C1 5731   4.318   0.421  15.998 -0.2425  0.4742  0.1039
  380TMC3    C2 5732   4.290   0.291  15.966  0.4660 -0.4759  0.6142
  380TMC3    C3 5733   4.155   0.265  15.964 -0.2730  0.0997 -0.7651
  380TMC3    C4 5734   4.226   0.525  16.019  0.2376  0.7096 -0.2621
  380TMC3    C5 5735   4.098   0.488  16.019 -0.5454 -0.0372  0.5152
  380TMC3    C6 5736   4.056   0.359  15.994 -0.3916 -0.0570 -0.7972
  380TMC3     C 5737   4.455   0.459  15.990 -0.5150  0.3961 -0.5134
  380TMC3     O 5738   4.491   0.571  15.955  0.2199  0.4845  0.4503
  380TMC3     H 5739   4.367   0.225  15.928  0.2979 -0.1206 -0.3492
  380TMC3    H1 5740   4.261   0.628  16.028  2.9889 -0.0538 -2.1436
  380TMC3    H2 5741   3.952   0.329  15.989 -0.3339 -0.4862  0.6334
  380TMC3    C7 5742   4.016   0.600  15.987 -0.0725  0.0244  0.9283
  380TMC3    C8 5743   4.099   0.174  15.872  0.2456 -0.6667 -0.4645
  380TMC3    O1 5744   4.047   0.715  16.004  0.1225 -0.0232  0.2823
  380TMC3    O2 5745   3.996   0.207  15.814  0.4204  0.1374  0.2986
  381TMC3    C1 5746   4.322   1.827  15.936  0.4288  0.5235  1.1061
  381TMC3    C2 5747   4.462   1.804  15.915 -0.6650 -0.0923  0.2065
  381TMC3    C3 5748   4.535   1.751  16.021 -0.4696  0.1625  0.0101
  381TMC3    C4 5749   4.257   1.783  16.043 -0.1680 -0.6608 -0.1276
  381TMC3    C5 5750   4.337   1.734  16.142  0.2799  0.5843 -0.0557
  381TMC3    C6 5751   4.471   1.726  16.134 -0.5310  0.4586  0.1955
  381TMC3     C 5752   4.241   1.911  15.855 -0.1683 -0.4971  0.1422
  381TMC3     O 5753   4.139   1.959  15.903 -0.4155 -0.2865  0.0859
  381TMC3     H 5754   4.510   1.852  15.830  0.2413 -1.0115  0.1937
  381TMC3    H1 5755   4.149   1.783  16.050 -0.1165 -1.2769  0.6680
  381TMC3    H2 5756   4.529   1.696  16.222  0.3689  0.5773 -0.3543
  381TMC3    C7 5757   4.281   1.654  16.251 -0.2979  0.2439 -0.5352
  381TMC3    C8 5758   4.634   1.850  16.049 -0.5734  0.2526  0.2881
  381TMC3    O1 5759   4.341   1.561  16.300  0.4396  0.1036  0.5936
  381TMC3    O2 5760   4.717   1.876  15.962  0.3457 -0.5743 -0.0916
  382MPD2     C 5761   3.718   4.291  16.844 -0.7727  0.0365 -0.2745
  382MPD2    C1 5762   3.605   4.273  16.921  0.6549  0.2443 -0.1711
  382MPD2    C2 5763   3.563   4.145  16.960 -0.6145 -0.7683  0.4986
  382MPD2    C3 5764   3.641   4.034  16.930  0.6280  0.4744  0.0579
  382MPD2    C4 5765   3.755   4.053  16.861  0.3554 -0.9721  0.3574
  382MPD2    C5 5766   3.787   4.178  16.814 -0.4696 -0.1356 -0.3630
  382MPD2     H 5767   3.465   4.137  17.006 -1.1331 -1.9717 -0.8063
  382MPD2    H1 5768   3.822   3.970  16.837  1.3839  0.2728 -1.0443
  382MPD2    H2 5769   3.745   4.388  16.806 -1.0570 -0.6303 -2.1836
  382MPD2    H3 5770   3.882   4.189  16.764  0.6153  3.5406  2.4280
  382MPD2     N 5771   3.615   3.903  16.979  0.6058  0.5842  0.2639
  382MPD2    H5 5772   3.669   3.823  16.948 -1.7922 -1.1777  0.6367
  382MPD2    N1 5773   3.524   4.376  16.963 -0.4049 -0.1642  0.6661
  382MPD2    H7 5774   3.434   4.351  17.003 -1.1212  0.2130 -0.7006
  383TMC3    C1 5775   3.512   3.735  17.115  0.5494  0.1276 -0.6343
  383TMC3    C2 5776   3.391   3.710  17.180  1.1501  0.2981 -0.6239
  383TMC3    C3 5777   3.384   3.580  17.223 -0.4465 -0.5274 -0.3323
  383TMC3    C4 5778   3.605   3.640  17.070 -0.1895  0.1257 -0.0941
  383TMC3    C5 5779   3.591   3.525  17.129  0.4185 -0.4976 -0.0468
  383TMC3    C6 5780   3.474   3.480  17.201  0.5263  0.0094 -0.0456
  383TMC3     C 5781   3.524   3.877  17.079 -0.3148 -0.0881  0.2609
  383TMC3     O 5782   3.461   3.953  17.148  0.0937  0.3642  0.1515
  383TMC3     H 5783   3.318   3.789  17.195  0.3019 -0.8919  1.5505
  383TMC3    H1 5784   3.701   3.671  17.030 -0.7304  0.7928 -0.8744
  383TMC3    H2 5785   3.453   3.374  17.211 -1.6303  0.4420 -0.0361
  383TMC3    C7 5786   3.678   3.425  17.079 -0.0835 -0.6462 -0.3260
  383TMC3    C8 5787   3.254   3.550  17.290  0.5739  0.1547 -0.3691
  383TMC3    O1 5788   3.761   3.452  16.990 -0.0125  0.3344  0.0880
  383TMC3    O2 5789   3.170   3.636  17.304 -0.1806  0.4381 -0.2211
  384MPD2     C 5790   0.310   0.594  12.515  0.9585  0.4066  0.4839
  384MPD2    C1 5791   0.265   0.510  12.611 -0.4682  0.3034 -0.2675
  384MPD2    C2 5792   0.301   0.374  12.613 -0.2051 -0.5480  0.7852
  384MPD2    C3 5793   0.386   0.325  12.519 -0.4084  0.0554  1.4884
  384MPD2    C4 5794   0.439   0.405  12.424  0.7105  0.2217  0.0558
  384MPD2    C5 5795   0.401   0.541  12.428  0.1106  0.2993 -0.0032
  384MPD2     H 5796   0.257   0.306  12.686  0.5387 -1.3688  0.4710
  384MPD2    H1 5797   0.505   0.372  12.345 -0.8551 -0.2794 -1.0446
  384MPD2    H2 5798   0.296   0.702  12.509  0.2476  0.3358  0.9252
  384MPD2    H3 5799   0.460   0.608  12.368  1.0740 -1.9271 -1.5622
  384MPD2     N 5800   0.410   0.185  12.526 -0.0601  0.2786  1.0538
  384MPD2    H5 5801   0.362   0.144  12.605 -0.9785  0.0889  0.3967
  384MPD2    N1 5802   0.163   0.554  12.695 -1.1545  0.3775  0.3449
  384MPD2    H7 5803   0.128   0.487  12.762  2.2714 -1.3290  0.4259
  385TMC3    C1 5804   0.498   4.723  12.485 -0.2973  0.1939  0.2138
  385TMC3    C2 5805   0.435   4.629  12.406 -0.8245  0.9987  0.0206
  385TMC3    C3 5806   0.338   4.547  12.460  0.2484 -0.4298  0.3128
  385TMC3    C4 5807   0.473   4.719  12.623 -0.2798  0.1031 -0.1239
  385TMC3    C5 5808   0.370   4.638  12.675 -0.2337  0.2384 -0.2300
  385TMC3    C6 5809   0.298   4.556  12.591  0.4533  0.3127 -0.2053
  385TMC3     C 5810   0.488   0.114  12.437  0.1651 -0.7864  0.8683
  385TMC3     O 5811   0.541   0.147  12.333 -0.2698 -0.3044 -0.4617
  385TMC3     H 5812   0.477   4.618  12.306 -0.7270 -2.3336  0.4283
  385TMC3    H1 5813   0.536   0.050  12.679  0.5759 -1.2803  0.5987
  385TMC3    H2 5814   0.212   4.502  12.627  1.2563 -1.7143 -1.3613
  385TMC3    C7 5815   0.299   4.700  12.789 -0.7286 -0.4414 -0.5265
  385TMC3    C8 5816   0.271   4.442  12.384  1.0740  0.5175  0.0324
  385TMC3    O1 5817   0.329   0.081  12.799  0.2789 -0.6863  0.6222
  385TMC3    O2 5818   0.201   4.362  12.445 -0.3761  0.0645 -0.7205
  386TMC3    C1 5819   0.145   2.880  11.714  0.5771  0.1573  0.3048
  386TMC3    C2 5820   0.088   2.940  11.606 -0.1673  0.4170  0.1986
  386TMC3    C3 5821   4.686   2.963  11.601  0.1572 -0.1167  0.3990
  386TMC3    C4 5822   0.070   2.840  11.817  0.1893  0.3415  0.5740
  386TMC3    C5 5823   4.678   2.875  11.812  0.5157 -0.0218 -0.6954
  386TMC3    C6 5824   4.615   2.933  11.710  0.3547 -0.2714  0.6610
  386TMC3     C 5825   0.285   2.837  11.709 -0.0277  0.2925  0.0024
  386TMC3     O 5826   0.354   2.894  11.624 -0.4170 -0.0526 -0.0540
  386TMC3     H 5827   0.155   2.977  11.529 -0.3860  0.1489 -0.1202
  386TMC3    H1 5828   0.114   2.790  11.902 -3.5166 -3.9717 -0.0550
  386TMC3    H2 5829   4.514   2.971  11.718  0.4203  0.5481 -2.1582
  386TMC3    C7 5830   4.597   2.820  11.920 -0.2860  0.4597  0.4664
  386TMC3    C8 5831   4.616   3.012  11.480  0.1276 -0.1762  0.8894
  386TMC3    O1 5832   4.663   2.794  12.019 -0.1513 -0.0184 -0.3744
  386TMC3    O2 5833   4.496   3.040  11.487  0.5023 -0.3432 -0.1844
  387MPD2     C 5834   2.599   3.028  10.008  0.2838  0.2531  0.6986
  387MPD2    C1 5835   2.641   2.989  10.128  0.5964  0.0583  0.6223
  387MPD2    C2 5836   2.615   2.866  10.184  0.3166 -0.1340 -0.6392
  387MPD2    C3 5837   2.546   2.774  10.116 -0.8742  0.3287  0.1358
  387MPD2    C4 5838   2.476   2.822  10.005  0.0075  0.2158  0.0707
  387MPD2    C5 5839   2.508   2.944   9.949 -0.3316  0.1232  0.1833
  387MPD2     H 5840   2.662   2.851  10.281 -1.3620 -0.2354  0.1628
  387MPD2    H1 5841   2.412   2.751   9.954 -1.3979 -0.0571  2.2257
  387MPD2    H2 5842   2.627   3.122   9.962  1.8346 -1.0129 -0.9005
  387MPD2    H3 5843   2.459   2.966   9.855 -0.1924 -0.1392  0.0487
  387MPD2     N 5844   2.543   2.645  10.170 -0.2905 -0.1768  0.1973
  387MPD2    H5 5845   2.575   2.637  10.266 -1.2558  2.0512  0.7089
  387MPD2    N1 5846   2.724   3.064  10.217 -0.8799  0.4099 -0.0976
  387MPD2    H7 5847   2.738   3.028  10.310 -0.2547 -2.0602 -1.1394
  388TMC3    C1 5848   2.923   3.183  10.273  0.0218  0.6409 -0.3390
  388TMC3    C2 5849   2.999   3.292  10.256 -0.5458  1.0358 -0.5129
  388TMC3    C3 5850   3.113   3.292  10.333  0.3645  0.1287  0.2351
  388TMC3    C4 5851   2.951   3.083  10.363  0.4706 -0.5887 -0.2499
  388TMC3    C5 5852   3.064   3.092  10.437  0.7504 -0.0272 -0.1157
  388TMC3    C6 5853   3.148   3.193  10.425 -0.2245 -0.8694 -0.1699
  388TMC3     C 5854   2.814   3.163  10.175 -0.0647 -0.1616 -0.5549
  388TMC3     O 5855   2.818   3.214  10.065  0.4483 -0.2721 -0.3933
  388TMC3     H 5856   2.967   3.365  10.183  0.8395  0.2062 -1.9530
  388TMC3    H1 5857   2.905   2.985  10.351 -0.1021 -0.3865  0.2785
  388TMC3    H2 5858   3.242   3.196  10.479 -0.3054 -0.0950 -0.0718
  388TMC3    C7 5859   3.111   2.971  10.496  0.1522  0.4927  0.1956
  388TMC3    C8 5860   3.210   3.393  10.295 -0.4294 -0.1989 -0.0188
  388TMC3    O1 5861   3.155   2.967  10.613 -0.3965  0.1364 -0.9174
  388TMC3    O2 5862   3.302   3.414  10.377  0.0612 -0.6927 -0.2114
  389MPD2     C 5863   1.655   0.591  10.852 -0.0764  0.1949  0.2470
  389MPD2    C1 5864   1.572   0.693  10.899  0.0681  1.0164 -0.7215
  389MPD2    C2 5865   1.537   0.700  11.034 -0.2911 -0.2274  0.3905
  389MPD2    C3 5866   1.556   0.587  11.115 -0.6992  0.2056  1.0550
  389MPD2    C4 5867   1.628   0.481  11.061 -0.3720 -0.2993  0.5155
  389MPD2    C5 5868   1.682   0.484  10.937 -0.0841 -0.0307 -0.3975
  389MPD2     H 5869   1.482   0.786  11.070  0.2386 -0.8495  2.6826
  389MPD2    H1 5870   1.633   0.388  11.117  2.8279 -0.4297  0.0156
  389MPD2    H2 5871   1.680   0.575  10.748 -1.9585 -1.5633  0.0663
  389MPD2    H3 5872   1.739   0.402  10.894 -3.2812 -0.9932 -2.7559
  389MPD2     N 5873   1.502   0.577  11.244 -0.0160  0.6069 -0.7338
  389MPD2    H5 5874   1.498   0.481  11.277 -1.0308  0.4514 -1.3131
  389MPD2    N1 5875   1.535   0.795  10.814  0.1273  0.6867  0.3687
  389MPD2    H7 5876   1.581   0.788  10.723 -1.3540  0.6231 -0.3824
  390TMC3    C1 5877   1.453   0.641  11.466 -0.2062  0.4279  0.0517
  390TMC3    C2 5878   1.415   0.511  11.483 -0.3122  0.1613  0.4555
  390TMC3    C3 5879   1.415   0.462  11.609 -0.4045 -0.0939  0.6229
  390TMC3    C4 5880   1.485   0.732  11.562  0.5241  0.3180  0.7102
  390TMC3    C5 5881   1.507   0.665  11.686  0.3234  0.1479 -0.4782
  390TMC3    C6 5882   1.476   0.534  11.714 -0.5303  0.5074  0.0240
  390TMC3     C 5883   1.460   0.685  11.322 -0.8797  0.6343  0.8770
  390TMC3     O 5884   1.470   0.807  11.308 -0.3790 -0.1078  0.1865
  390TMC3     H 5885   1.381   0.445  11.403  0.2647  0.5513 -0.1017
  390TMC3    H1 5886   1.511   0.835  11.542  0.4463  0.2366  0.1790
  390TMC3    H2 5887   1.500   0.495  11.812 -3.1315 -2.4246 -0.5202
  390TMC3    C7 5888   1.504   0.753  11.800  0.0162  0.6543 -0.7831
  390TMC3    C8 5889   1.304   0.370  11.643  0.0706  0.0397 -0.1958
  390TMC3    O1 5890   1.613   0.791  11.839 -0.2506  0.3816  0.2580
  390TMC3    O2 5891   1.239   0.326  11.551  0.4244  0.6880 -0.2872
  391MPD2     C 5892   1.357   2.325  11.188  0.7277 -0.9211  0.2885
  391MPD2    C1 5893   1.485   2.348  11.139  0.8503 -0.3163 -0.7898
  391MPD2    C2 5894   1.508   2.388  11.005  0.7834 -0.4445 -0.3997
  391MPD2    C3 5895   1.398   2.411  10.923 -0.1010 -0.3459 -1.0527
  391MPD2    C4 5896   1.269   2.376  10.971 -0.5126  0.5075  0.1840
  391MPD2    C5 5897   1.252   2.331  11.098  0.1380 -0.2632 -1.2125
  391MPD2     H 5898   1.604   2.407  10.959  0.4047 -0.6941 -1.2997
  391MPD2    H1 5899   1.174   2.381  10.919 -0.0071 -0.0196 -0.7929
  391MPD2    H2 5900   1.341   2.295  11.291 -0.5863  1.2383  0.7235
  391MPD2    H3 5901   1.154   2.312  11.139 -0.2547  0.5840 -1.7760
  391MPD2     N 5902   1.403   2.471  10.793 -0.3373  0.0262  0.7099
  391MPD2    H5 5903   1.499   2.491  10.769 -0.6223  2.3641  1.5219
  391MPD2    N1 5904   1.591   2.333  11.229 -0.0101 -0.2669  0.9580
  391MPD2    H7 5905   1.570   2.330  11.328 -0.6470 -1.2966  0.7901
  392TMC3    C1 5906   1.341   2.568  10.589  0.0445 -0.0963 -0.7677
  392TMC3    C2 5907   1.266   2.551  10.477  0.3481 -0.3036 -0.3197
  392TMC3    C3 5908   1.316   2.595  10.355  0.0829 -0.0234  0.4322
  392TMC3    C4 5909   1.468   2.625  10.583 -1.1099  0.8895  0.1272
  392TMC3    C5 5910   1.503   2.676  10.466 -0.5301  0.3367 -0.3393
  392TMC3    C6 5911   1.437   2.666  10.348  0.1942 -0.7435 -0.2634
  392TMC3     C 5912   1.299   2.503  10.707  0.5054  0.0170 -0.9904
  392TMC3     O 5913   1.178   2.488  10.713  0.1766  0.5870  0.5609
  392TMC3     H 5914   1.171   2.499  10.476 -0.0966  0.5046  0.5400
  392TMC3    H1 5915   1.530   2.637  10.671 -0.4007 -1.5908 -0.0185
  392TMC3    H2 5916   1.473   2.710  10.256  1.1740  1.0642  0.9777
  392TMC3    C7 5917   1.621   2.770  10.468 -0.0108  0.7706  0.0410
  392TMC3    C8 5918   1.218   2.600  10.245  0.1024  0.1222  0.5646
  392TMC3    O1 5919   1.644   2.823  10.573  0.4317 -0.4126  0.3317
  392TMC3    O2 5920   1.101   2.631  10.269  0.0074  0.5819  0.2027
  393TMC3    C1 5921   0.047   0.228  10.689  0.0608  0.0296 -0.4581
  393TMC3    C2 5922   4.666   0.208  10.614  0.0724 -0.2920  0.0016
  393TMC3    C3 5923   4.547   0.170  10.677  0.3152  0.5062 -0.0034
  393TMC3    C4 5924   0.036   0.229  10.828  0.1980  0.3722  0.1198
  393TMC3    C5 5925   4.648   0.202  10.882  0.5727  0.5696 -1.0738
  393TMC3    C6 5926   4.538   0.164  10.813  0.4312  0.2145 -0.5559
  393TMC3     C 5927   0.143   0.313  10.622 -0.2858  0.4620  0.1165
  393TMC3     O 5928   0.123   0.351  10.508  0.4546  0.2527  0.2876
  393TMC3     H 5929   4.670   0.207  10.505  1.6032  2.0189  0.0408
  393TMC3    H1 5930   0.120   0.235  10.897  0.2625  1.1075 -0.0218
  393TMC3    H2 5931   4.450   0.129  10.866 -0.7562  1.4291 -1.7279
  393TMC3    C7 5932   4.647   0.192  11.036 -0.2925  0.1239  0.2218
  393TMC3    C8 5933   4.428   0.226  10.612  0.2876 -0.2297 -0.4485
  393TMC3    O1 5934   4.571   0.119  11.087 -0.6113 -0.3706  0.0881
  393TMC3    O2 5935   4.317   0.192  10.653 -1.1307  0.5621  0.3259
  394TMC3    C1 5936   1.401   0.961  10.722 -0.8872 -0.2509 -0.3912
  394TMC3    C2 5937   1.272   0.987  10.687  0.5203  0.4908  0.4466
  394TMC3    C3 5938   1.246   1.071  10.581  0.5839  0.3363 -0.2294
  394TMC3    C4 5939   1.499   1.032  10.663 -0.4636  0.9214 -0.1608
  394TMC3    C5 5940   1.459   1.122  10.568 -0.0589  0.9222  0.3278
  394TMC3    C6 5941   1.333   1.153  10.528  0.0492 -0.8287  0.0291
  394TMC3     C 5942   1.424   0.876  10.835 -0.3324  0.9784 -0.0293
  394TMC3     O 5943   1.339   0.882  10.923 -0.2821 -0.0863  0.0821
  394TMC3     H 5944   1.188   0.937  10.733  0.6642 -1.2030 -1.1134
  394TMC3    H1 5945   1.602   1.028  10.696 -0.4806 -0.2442 -0.2835
  394TMC3    H2 5946   1.301   1.211  10.442 -0.5179  1.4923  1.7980
  394TMC3    C7 5947   1.565   1.182  10.497  0.9491 -0.3968  0.4080
  394TMC3    C8 5948   1.141   1.022  10.501 -0.3791 -1.1454  0.3897
  394TMC3    O1 5949   1.529   1.268  10.417 -0.7673 -0.1196  0.3987
  394TMC3    O2 5950   1.033   1.000  10.556  0.2268 -1.2151  0.7311
  395TMC3    C1 5951   2.009   2.839  14.828  0.0161  0.5736  0.2967
  395TMC3    C2 5952   1.881   2.880  14.813 -0.3298  0.0807  0.1019
  395TMC3    C3 5953   1.852   3.010  14.833  0.1653 -0.1831  0.1461
  395TMC3    C4 5954   2.108   2.919  14.877 -0.2920  0.0062 -0.1120
  395TMC3    C5 5955   2.073   3.049  14.910 -0.3148  0.0579  0.2853
  395TMC3    C6 5956   1.949   3.096  14.882 -0.0833  0.2537 -0.1774
  395TMC3     C 5957   2.000   2.713  14.902  0.0500 -0.1514 -0.2699
  395TMC3     O 5958   2.056   2.699  15.010  0.1515 -0.0119  0.1793
  395TMC3     H 5959   1.813   2.825  14.749 -0.4601 -0.4569  0.7005
  395TMC3    H1 5960   2.204   2.871  14.897 -0.3800 -0.2716 -0.3514
  395TMC3    H2 5961   1.911   3.193  14.913 -0.0417 -0.1144  1.0162
  395TMC3    C7 5962   2.167   3.153  14.928 -0.5155  0.2563 -0.5170
  395TMC3    C8 5963   1.730   3.027  14.909  0.3475 -0.4359  0.6340
  395TMC3    O1 5964   2.118   3.261  14.941  0.5688 -0.1551 -0.2308
  395TMC3    O2 5965   1.693   3.138  14.943  0.3499  0.1455 -0.0629
  396MPD2     C 5966   1.496   3.103  17.069  0.3816  0.1186  0.4388
  396MPD2    C1 5967   1.542   3.205  17.150  0.0775 -0.2029 -0.3993
  396MPD2    C2 5968   1.586   3.312  17.080 -0.5184 -0.2571 -0.0899
  396MPD2    C3 5969   1.582   3.340  16.945 -0.2008 -0.5233 -0.3428
  396MPD2    C4 5970   1.533   3.240  16.868  0.0449  0.1603  0.7960
  396MPD2    C5 5971   1.493   3.121  16.933  0.1117  0.2825 -0.2053
  396MPD2     H 5972   1.639   3.384  17.141 -1.4531  1.6269 -1.5457
  396MPD2    H1 5973   1.527   3.257  16.761  1.2829  1.9842  1.0151
  396MPD2    H2 5974   1.449   3.018  17.116  3.9833 -2.8534 -1.3585
  396MPD2    H3 5975   1.465   3.043  16.864 -1.4324  1.1900 -0.5885
  396MPD2     N 5976   1.619   3.475  16.905  0.4353 -0.0774 -0.1934
  396MPD2    H5 5977   1.639   3.539  16.981  1.7392  0.4655 -1.0019
  396MPD2    N1 5978   1.537   3.198  17.293 -0.3282 -0.0515 -0.0733
  396MPD2    H7 5979   1.496   3.115  17.335  1.7405 -1.5479 -1.0033
  397TMC3    C1 5980   1.577   3.286  17.521 -0.1984  0.0042  0.6213
  397TMC3    C2 5981   1.637   3.401  17.581  0.1330  0.0776 -0.5173
  397TMC3    C3 5982   1.758   3.387  17.653 -0.2606  1.0576  0.0501
  397TMC3    C4 5983   1.628   3.163  17.551 -0.3903 -0.2511  0.8913
  397TMC3    C5 5984   1.733   3.155  17.633 -0.2570  0.0780 -0.0870
  397TMC3    C6 5985   1.806   3.262  17.678 -0.2706  1.0945  0.5327
  397TMC3     C 5986   1.568   3.306  17.378  0.2433  0.3983  0.1942
  397TMC3     O 5987   1.606   3.419  17.346  0.5681 -0.9111  0.2253
  397TMC3     H 5988   1.604   3.496  17.540 -2.2160 -0.4596  0.1248
  397TMC3    H1 5989   1.581   3.073  17.513 -1.4968  0.0783  1.4707
  397TMC3    H2 5990   1.901   3.246  17.728 -0.0864  0.3593 -0.0576
  397TMC3    C7 5991   1.771   3.025  17.686 -0.2562 -0.5798  0.6019
  397TMC3    C8 5992   1.866   3.479  17.605  0.8614  0.3115  0.4189
  397TMC3    O1 5993   1.718   2.934  17.622 -0.2712 -0.0509 -0.4200
  397TMC3    O2 5994   1.974   3.486  17.665  0.2753  0.5845 -0.1224
  398MPD2     C 5995   4.554   0.207  17.671  0.1023 -0.5543  0.2564
  398MPD2    C1 5996   4.651   0.109  17.702 -0.3619  0.5272 -0.2627
  398MPD2    C2 5997   0.007   0.136   0.053  0.4302 -0.3001 -0.4201
  398MPD2    C3 5998   0.015   0.261   0.113  0.1191 -0.2188 -0.3444
  398MPD2    C4 5999   4.657   0.358   0.073  0.3959 -0.1700  0.4395
  398MPD2    C5 6000   4.560   0.324  17.737 -0.3687 -0.1566  0.5974
  398MPD2     H 6001   0.087   0.064   0.067 -1.0827 -2.1010 -0.9183
  398MPD2    H1 6002   4.644   0.453   0.125  1.3603  0.0120  0.3392
  398MPD2    H2 6003   4.465   0.182  17.614  0.1632 -1.1106  0.3991
  398MPD2    H3 6004   4.475   0.391  17.727  1.7347  2.3149 -0.6031
  398MPD2     N 6005   0.121   0.284   0.204  0.1380 -0.0388 -0.3764
  398MPD2    H5 6006   0.171   0.204   0.240 -0.0897 -0.8790 -1.9624
  398MPD2    N1 6007   4.669   4.722  17.634  0.3151  0.1377  0.3783
  398MPD2    H7 6008   0.008   4.664  17.668 -0.3498 -0.0960  1.4515
  399TMC3    C1 6009   4.622   4.548  17.499  0.3599 -0.4695 -0.6857
  399TMC3    C2 6010   0.012   4.502  17.521 -0.0298 -0.1545  0.3538
  399TMC3    C3 6011   0.033   4.364  17.512 -0.8751  0.2467  0.2086
  399TMC3    C4 6012   4.515   4.466  17.479  0.4651 -0.3054 -0.2747
  399TMC3    C5 6013   4.544   4.328  17.490 -0.3804 -0.0270 -0.2629
  399TMC3    C6 6014   4.668   4.273  17.497  0.5183 -0.2931 -0.2106
  399TMC3     C 6015   4.581   4.678  17.539  0.1985 -0.4286 -0.1704
  399TMC3     O 6016   4.488   4.733  17.481  0.0491 -0.2254 -0.1734
  399TMC3     H 6017   0.098   4.566  17.538  1.2593 -2.1710  1.4398
  399TMC3    H1 6018   4.415   4.506  17.486  0.5064 -0.6405  2.3888
  399TMC3    H2 6019   4.684   4.167  17.485  1.1732 -0.1822 -0.3624
  399TMC3    C7 6020   4.425   4.242  17.505 -0.0405  0.2883  0.1709
  399TMC3    C8 6021   0.174   4.328  17.487 -0.1369 -0.1888  0.0933
  399TMC3    O1 6022   4.441   4.136  17.564  0.3647  0.0185  0.3028
  399TMC3    O2 6023   0.250   4.401  17.427 -0.5195 -0.0535  0.1149
  400TMC3    C1 6024   3.062   3.121  17.011  0.2388 -0.0167 -0.7562
  400TMC3    C2 6025   2.932   3.089  16.983  0.7620  0.5636 -0.1901
  400TMC3    C3 6026   2.861   3.190  16.931  0.4329 -0.0346 -0.0151
  400TMC3    C4 6027   3.115   3.242  16.986  0.3521  0.1447 -1.1876
  400TMC3    C5 6028   3.028   3.346  16.965 -0.3359 -0.3081 -0.6332
  400TMC3    C6 6029   2.899   3.322  16.921 -0.2704  0.0481  0.2903
  400TMC3     C 6030   3.138   3.015  17.060 -0.2811 -0.1845  0.6123
  400TMC3     O 6031   3.082   2.948  17.148  0.3438  0.1817 -0.1388
  400TMC3     H 6032   2.885   3.000  17.023 -1.2656  2.0350  0.6811
  400TMC3    H1 6033   3.221   3.261  17.003  0.2566 -0.9082  0.6889
  400TMC3    H2 6034   2.832   3.400  16.889  1.5348  3.1527  4.0055
  400TMC3    C7 6035   3.103   3.464  16.911  0.4714 -0.4713  0.1289
  400TMC3    C8 6036   2.718   3.173  16.936  0.0562  0.3728 -0.4599
  400TMC3    O1 6037   3.213   3.446  16.863 -0.1911 -0.1027  0.1886
  400TMC3    O2 6038   2.641   3.270  16.930 -0.0361  0.1471  0.3874
  401MPD2     C 6039   2.104   1.813   0.412 -0.8380 -0.3811 -0.4726
  401MPD2    C1 6040   2.034   1.784   0.530 -0.0023 -0.8465 -0.2544
  401MPD2    C2 6041   1.969   1.665   0.539 -0.2782 -0.1616  0.3947
  401MPD2    C3 6042   1.971   1.573   0.439 -0.1986 -0.3756 -0.2007
  401MPD2    C4 6043   2.033   1.607   0.316  0.3376 -0.3659  0.2798
  401MPD2    C5 6044   2.100   1.727   0.304  0.3792 -0.0463 -0.2491
  401MPD2     H 6045   1.917   1.646   0.633 -0.9335  3.9267  0.8228
  401MPD2    H1 6046   2.040   1.530   0.241  1.2463  0.0003 -0.0045
  401MPD2    H2 6047   2.153   1.909   0.397  0.5442 -0.9641  0.3035
  401MPD2    H3 6048   2.132   1.756   0.205  1.5344  1.3417  0.5365
  401MPD2     N 6049   1.897   1.450   0.454 -0.1371 -0.0865  0.2606
  401MPD2    H5 6050   1.851   1.445   0.544 -1.5035 -0.6415 -0.4727
  401MPD2    N1 6051   2.013   1.880   0.632  0.1801  0.2089  0.0599
  401MPD2    H7 6052   1.958   1.848   0.712  2.7405  0.0844  1.7793
  402TMC3    C1 6053   1.797   1.236   0.410 -0.5198 -1.0885  0.1660
  402TMC3    C2 6054   1.742   1.232   0.541  0.3558  0.2238 -0.3316
  402TMC3    C3 6055   1.682   1.112   0.577 -0.3560 -0.0907  0.1984
  402TMC3    C4 6056   1.804   1.124   0.325  0.1644 -0.4973 -0.2835
  402TMC3    C5 6057   1.726   1.014   0.363 -0.2356 -0.3297 -0.0486
  402TMC3    C6 6058   1.675   1.007   0.491 -0.3490  0.1632 -0.2442
  402TMC3     C 6059   1.877   1.346   0.360 -0.3861 -0.6892 -0.6594
  402TMC3     O 6060   1.912   1.340   0.242  0.0694 -0.3201 -0.2741
  402TMC3     H 6061   1.727   1.318   0.606 -0.1600 -2.1354  2.6525
  402TMC3    H1 6062   1.833   1.130   0.221  4.4286 -1.5057  0.8357
  402TMC3    H2 6063   1.615   0.919   0.512  0.3696 -0.0759  0.8332
  402TMC3    C7 6064   1.729   0.895   0.279  0.8970  0.4608  0.6015
  402TMC3    C8 6065   1.699   1.060   0.715 -0.0666  0.7747  0.2164
  402TMC3    O1 6066   1.726   0.921   0.161  0.6238  0.7272 -0.1580
  402TMC3    O2 6067   1.710   0.938   0.720  0.0727 -0.5280 -0.1684
  403MPD2     C 6068   0.034   4.369  13.637  0.2948  0.0082 -0.0979
  403MPD2    C1 6069   4.681   4.469  13.675  0.2540 -0.0717 -0.4207
  403MPD2    C2 6070   4.729   4.584  13.737 -0.2296 -0.1409  0.5131
  403MPD2    C3 6071   0.126   4.598  13.749 -0.0709  0.2536  0.0356
  403MPD2    C4 6072   0.213   4.511  13.696 -0.2312 -0.4239  0.1581
  403MPD2    C5 6073   0.170   4.391  13.642 -0.0747 -0.0060 -0.2437
  403MPD2     H 6074   4.665   4.659  13.783 -1.0071 -0.2684 -0.3696
  403MPD2    H1 6075   0.321   4.524  13.694 -0.4567  1.5327  0.8825
  403MPD2    H2 6076   4.733   4.275  13.599  0.0003 -0.3459  1.1029
  403MPD2    H3 6077   0.246   4.322  13.606  1.5181  0.8392  1.5084
  403MPD2     N 6078   0.168   4.710  13.818  0.5371 -0.3474  0.2944
  403MPD2    H5 6079   0.102   0.031  13.868 -0.0253 -0.9890  0.2940
  403MPD2    N1 6080   4.540   4.438  13.658 -0.1059 -0.7947 -0.8609
  403MPD2    H7 6081   4.515   4.343  13.635 -0.5259 -0.7395 -0.6377
  404TMC3    C1 6082   4.311   4.465  13.720  0.3156 -0.2109 -0.2698
  404TMC3    C2 6083   4.283   4.469  13.857 -0.2077  0.6655  0.8403
  404TMC3    C3 6084   4.204   4.371  13.912 -0.8130  0.4665  0.6267
  404TMC3    C4 6085   4.252   4.377  13.634  0.5445  0.1681  0.3558
  404TMC3    C5 6086   4.168   4.282  13.700  0.2232 -0.0934 -0.1204
  404TMC3    C6 6087   4.145   4.279  13.839  0.5700 -0.2471  0.1473
  404TMC3     C 6088   4.435   4.524  13.685  0.3450  0.5777 -0.0338
  404TMC3     O 6089   4.445   4.641  13.711  0.1208 -0.5182  0.3141
  404TMC3     H 6090   4.321   4.555  13.912  1.1723  2.4968 -2.9429
  404TMC3    H1 6091   4.293   4.356  13.535  1.2940  1.9536  0.2862
  404TMC3    H2 6092   4.056   4.226  13.871 -0.7785  1.9134  0.0013
  404TMC3    C7 6093   4.060   4.210  13.631 -0.1791 -0.0189 -0.7207
  404TMC3    C8 6094   4.157   4.386  14.051 -0.0919  0.3608 -0.2428
  404TMC3    O1 6095   4.002   4.108  13.675  0.2453 -0.0447 -0.4618
  404TMC3    O2 6096   4.053   4.339  14.087 -0.0692 -0.1202  0.0995
  405MPD2     C 6097   0.310   0.482  15.365  0.0329 -0.5258  0.1915
  405MPD2    C1 6098   0.189   0.449  15.298 -0.2465 -0.5851  0.3435
  405MPD2    C2 6099   0.191   0.467  15.160 -0.3299  0.0716 -0.0317
  405MPD2    C3 6100   0.301   0.518  15.093  0.7592 -0.3096 -0.1699
  405MPD2    C4 6101   0.412   0.556  15.165  0.2450 -0.5215  0.1255
  405MPD2    C5 6102   0.418   0.537  15.305  0.0765 -0.0161  0.9344
  405MPD2     H 6103   0.115   0.421  15.098  0.6040 -0.1740 -0.9992
  405MPD2    H1 6104   0.498   0.600  15.117  0.0050 -0.5599 -0.3375
  405MPD2    H2 6105   0.321   0.450  15.468  0.0364 -4.0345 -0.9030
  405MPD2    H3 6106   0.510   0.563  15.355  0.5312  1.3842 -0.6206
  405MPD2     N 6107   0.285   0.527  14.957  0.1257  0.5154  0.2780
  405MPD2    H5 6108   0.201   0.500  14.907  0.1362  1.2395 -0.1402
  405MPD2    N1 6109   0.082   0.387  15.366  0.1988 -0.7657 -0.0211
  405MPD2    H7 6110   0.102   0.356  15.461 -0.0188 -0.2860  0.1862
  406TMC3    C1 6111   0.205   0.671  14.571  0.0738 -0.3128  0.3533
  406TMC3    C2 6112   0.123   0.568  14.534  0.5833 -0.4549 -0.6877
  406TMC3    C3 6113   0.137   0.453  14.612 -0.1995 -0.8191 -0.6566
  406TMC3    C4 6114   0.300   0.669  14.672  1.2218 -0.1704  0.1934
  406TMC3    C5 6115   0.314   0.547  14.731  0.4956  0.5065 -0.4372
  406TMC3    C6 6116   0.228   0.443  14.717  0.6750  0.2768 -0.1603
  406TMC3     C 6117   0.182   0.798  14.509  0.4044  0.3470  0.1194
  406TMC3     O 6118   0.242   0.824  14.404 -0.6691  0.0628  0.3004
  406TMC3     H 6119   0.033   0.584  14.476 -0.2138 -1.5519  0.2522
  406TMC3    H1 6120   0.370   0.750  14.688 -0.8737  1.5406  0.6256
  406TMC3    H2 6121   0.244   0.349  14.770 -0.6976  0.4514  0.5719
  406TMC3    C7 6122   0.379   0.558  14.863 -0.7381  0.1621  0.0628
  406TMC3    C8 6123   0.034   0.357  14.615 -0.0349 -0.0552 -0.3884
  406TMC3    O1 6124   0.488   0.614  14.878 -0.3331 -0.2146  0.7407
  406TMC3    O2 6125   4.731   0.323  14.507  0.1339 -0.1066 -0.2155
  407MPD2     C 6126   1.900   2.381  10.190  0.0795  0.5925  0.0020
  407MPD2    C1 6127   1.993   2.429  10.104  0.4972  0.3635 -0.0410
  407MPD2    C2 6128   2.059   2.549  10.129  0.5833 -0.3820  0.4812
  407MPD2    C3 6129   2.052   2.607  10.249  0.1163 -0.0858  0.1186
  407MPD2    C4 6130   1.960   2.555  10.337 -0.5955  0.7242  0.8993
  407MPD2    C5 6131   1.882   2.451  10.301  0.1451 -0.1033  0.3734
  407MPD2     H 6132   2.127   2.590  10.055  0.6168 -2.2024 -0.5136
  407MPD2    H1 6133   1.940   2.606  10.431 -3.8572 -1.3703  1.3661
  407MPD2    H2 6134   1.845   2.291  10.166  1.0812  0.0644 -0.3055
  407MPD2    H3 6135   1.815   2.418  10.380  1.2985  1.0252  1.8340
  407MPD2     N 6136   2.129   2.724  10.272  0.1069 -0.0178 -0.8387
  407MPD2    H5 6137   2.163   2.767  10.187 -1.1519  1.9574 -0.3473
  407MPD2    N1 6138   2.030   2.351   9.989  0.0340 -0.4141 -0.0021
  407MPD2    H7 6139   2.084   2.398   9.918 -0.0584  0.0746  0.2485
  408TMC3    C1 6140   2.047   2.166   9.848 -0.2708  0.5198  0.5779
  408TMC3    C2 6141   2.184   2.184   9.822 -0.3607 -0.5138  0.4519
  408TMC3    C3 6142   2.260   2.069   9.773 -0.0865  0.6012  0.4043
  408TMC3    C4 6143   1.985   2.049   9.823 -0.1718  0.0330  0.0380
  408TMC3    C5 6144   2.062   1.938   9.785  0.6678  0.4475  0.1453
  408TMC3    C6 6145   2.190   1.950   9.756  0.3667 -0.8121 -0.0969
  408TMC3     C 6146   1.994   2.220   9.966 -0.0360 -0.1035  0.0415
  408TMC3     O 6147   1.928   2.142  10.030  0.4141 -0.1489  0.1555
  408TMC3     H 6148   2.238   2.271   9.857 -2.6080  1.2853 -0.6183
  408TMC3    H1 6149   1.881   2.039   9.852 -0.1892  0.3332  0.0721
  408TMC3    H2 6150   2.248   1.858   9.755 -0.9360 -1.6455  0.8585
  408TMC3    C7 6151   2.007   1.812   9.846  0.2400  0.4843  0.3171
  408TMC3    C8 6152   2.404   2.065   9.749 -0.0753  0.0913 -0.5056
  408TMC3    O1 6153   1.896   1.804   9.901 -0.2311  0.1871  0.6203
  408TMC3    O2 6154   2.470   1.962   9.745 -0.3491  0.0745 -0.2442
  409MPD2     C 6155   1.915   3.019  17.389 -0.0661 -0.7880  0.6656
  409MPD2    C1 6156   2.031   3.051  17.460  0.1665 -0.6005  0.6428
  409MPD2    C2 6157   2.099   3.165  17.416  0.6322  0.0090  0.1746
  409MPD2    C3 6158   2.066   3.229  17.297  0.3430 -0.0830 -0.0403
  409MPD2    C4 6159   1.949   3.195  17.231  0.2526  0.1430 -0.5949
  409MPD2    C5 6160   1.869   3.095  17.286 -0.1126 -0.3187 -0.1810
  409MPD2     H 6161   2.189   3.185  17.473  0.3165 -0.6677  0.9093
  409MPD2    H1 6162   1.906   3.243  17.144  1.4131 -0.0800 -1.2900
  409MPD2    H2 6163   1.846   2.938  17.405 -0.8714 -0.2252  0.0451
  409MPD2    H3 6164   1.779   3.063  17.234  0.8724 -0.5555 -1.7441
  409MPD2     N 6165   2.150   3.317  17.230 -0.2985  0.2738  0.1623
  409MPD2    H5 6166   2.118   3.338  17.136  2.6978  1.4667 -0.5703
  409MPD2    N1 6167   2.075   2.976  17.573 -0.0997  0.1824 -0.5244
  409MPD2    H7 6168   2.164   3.000  17.616 -0.3925 -0.7752  0.6337
  410TMC3    C1 6169   2.362   3.409  17.174 -0.2011 -0.1142  0.3836
  410TMC3    C2 6170   2.490   3.439  17.214 -0.7330 -0.5680  0.1904
  410TMC3    C3 6171   2.580   3.496  17.130 -0.4818 -0.3148 -0.4688
  410TMC3    C4 6172   2.326   3.434  17.046 -0.0471  0.9454  0.3386
  410TMC3    C5 6173   2.422   3.479  16.959  0.0075 -0.5150  0.0453
  410TMC3    C6 6174   2.544   3.529  17.003  0.1623  0.7783  1.0243
  410TMC3     C 6175   2.270   3.361  17.276 -0.1586  0.1958 -0.0651
  410TMC3     O 6176   2.311   3.364  17.390  0.1217  0.1920  0.2053
  410TMC3     H 6177   2.515   3.399  17.312 -0.4878 -1.7236 -0.3466
  410TMC3    H1 6178   2.227   3.409  17.010  0.0665  1.4677 -0.3237
  410TMC3    H2 6179   2.615   3.557  16.926 -0.3401 -1.7936 -0.3637
  410TMC3    C7 6180   2.377   3.489  16.822 -0.3435 -0.2591  0.2019
  410TMC3    C8 6181   2.722   3.489  17.162 -0.7828  0.0224  0.3511
  410TMC3    O1 6182   2.278   3.417  16.810  0.1754 -0.7488 -0.2116
  410TMC3    O2 6183   2.797   3.566  17.101  0.4079  0.1164 -0.0853
  411MPD2     C 6184   2.521   3.701  14.671 -0.0205  0.6360 -0.2813
  411MPD2    C1 6185   2.396   3.766  14.696  0.2363 -0.4315 -0.1646
  411MPD2    C2 6186   2.281   3.688  14.717 -0.2161 -0.0088 -0.4448
  411MPD2    C3 6187   2.277   3.551  14.698  0.3242  0.0841  0.7643
  411MPD2    C4 6188   2.400   3.494  14.677  0.4142  0.4180  0.7413
  411MPD2    C5 6189   2.514   3.565  14.665  0.0913 -0.5237  0.1968
  411MPD2     H 6190   2.191   3.746  14.734  0.9400  1.5283  0.4491
  411MPD2    H1 6191   2.410   3.386  14.685 -3.2800  0.0275  0.1649
  411MPD2    H2 6192   2.619   3.747  14.663  0.2932  0.2081  1.0731
  411MPD2    H3 6193   2.606   3.508  14.672 -0.8473 -1.8741  1.6753
  411MPD2     N 6194   2.168   3.467  14.705 -1.0735 -0.7574  0.5275
  411MPD2    H5 6195   2.182   3.366  14.706 -0.4557 -0.6957 -2.5059
  411MPD2    N1 6196   2.389   3.906  14.722 -0.1269  0.7626 -0.0741
  411MPD2    H7 6197   2.471   3.964  14.705  0.3529 -0.0806 -0.5996
  412TMC3    C1 6198   1.941   3.407  14.687  0.1812 -0.2202  0.8783
  412TMC3    C2 6199   1.807   3.441  14.719 -0.6861 -0.1307 -0.3418
  412TMC3    C3 6200   1.707   3.356  14.680 -0.7794 -0.4340 -0.0977
  412TMC3    C4 6201   1.969   3.300  14.608  0.0260 -0.3036  0.9080
  412TMC3    C5 6202   1.860   3.239  14.559  0.4879 -0.2475  0.4961
  412TMC3    C6 6203   1.732   3.247  14.604 -0.9737  0.1237 -0.8151
  412TMC3     C 6204   2.040   3.509  14.722 -0.1027 -0.2197 -1.0072
  412TMC3     O 6205   2.000   3.617  14.767 -0.6196 -0.1513 -0.1487
  412TMC3     H 6206   1.783   3.535  14.767 -1.3094 -1.4801  2.0140
  412TMC3    H1 6207   2.064   3.295  14.555 -1.5527 -0.9000 -1.8836
  412TMC3    H2 6208   1.649   3.185  14.573 -0.5325 -1.0569  0.3147
  412TMC3    C7 6209   1.862   3.208  14.416 -0.2133  0.0542 -0.4540
  412TMC3    C8 6210   1.594   3.433  14.628  0.2237  0.7979 -0.4692
  412TMC3    O1 6211   1.751   3.208  14.367 -0.1124 -0.4576  0.0033
  412TMC3    O2 6212   1.613   3.550  14.589 -0.0369  0.2034 -0.1639
  413MPD2     C 6213   4.312   1.416  15.841 -0.0664 -0.0250 -0.0174
  413MPD2    C1 6214   4.297   1.485  15.721  0.0320  0.4087 -0.2267
  413MPD2    C2 6215   4.390   1.440  15.613  0.1251 -0.1401  0.7522
  413MPD2    C3 6216   4.477   1.343  15.646  0.1242  0.4999 -0.2967
  413MPD2    C4 6217   4.491   1.289  15.773  0.2610 -0.4962  0.0687
  413MPD2    C5 6218   4.411   1.333  15.871 -0.2977 -0.0691  0.4640
  413MPD2     H 6219   4.389   1.484  15.514 -2.1749 -4.1432 -1.0224
  413MPD2    H1 6220   4.571   1.220  15.794  1.1964  0.1872 -1.2800
  413MPD2    H2 6221   4.243   1.436  15.922  0.7146  2.3866  0.0600
  413MPD2    H3 6222   4.422   1.301  15.974 -0.5480  0.5697  0.6896
  413MPD2     N 6223   4.558   1.303  15.535  0.4598  0.0346  0.1006
  413MPD2    H5 6224   4.550   1.362  15.452  2.1841  0.9407  0.5664
  413MPD2    N1 6225   4.192   1.583  15.711  0.7275  0.7350  0.3798
  413MPD2    H7 6226   4.147   1.614  15.796 -1.9289  0.4280 -0.9141
  414TMC3    C1 6227   4.618   1.141  15.396 -0.1360 -0.3283  0.4171
  414TMC3    C2 6228   4.585   1.014  15.372 -0.0435 -0.5949 -0.2493
  414TMC3    C3 6229   4.600   0.979  15.241  0.1415 -0.2407 -0.5795
  414TMC3    C4 6230   4.685   1.230  15.314 -0.0673  0.2400  0.1729
  414TMC3    C5 6231   4.716   1.174  15.192  0.5870  0.2028 -0.0084
  414TMC3    C6 6232   4.664   1.052  15.150  0.6625  0.6762  0.3752
  414TMC3     C 6233   4.605   1.174  15.536  0.7195  0.1956  0.4231
  414TMC3     O 6234   4.576   1.081  15.610 -0.0352  0.1129 -0.4185
  414TMC3     H 6235   4.525   0.955  15.440 -0.7714 -0.0683 -0.4341
  414TMC3    H1 6236   4.731   1.325  15.335  2.0404 -0.4828 -1.1710
  414TMC3    H2 6237   4.674   1.014  15.049 -0.2848 -1.4727  1.0957
  414TMC3    C7 6238   0.093   1.236  15.118  0.4925  0.2567 -0.4741
  414TMC3    C8 6239   4.516   0.859  15.210  0.0694 -0.6333 -0.2889
  414TMC3    O1 6240   0.121   1.348  15.158 -0.1426  0.1411  0.2016
  414TMC3    O2 6241   4.477   0.788  15.300 -0.2329 -0.3768  0.0067
  415TMC3    C1 6242   4.532   4.431  10.089 -0.1655  0.1945  0.0178
  415TMC3    C2 6243   4.606   4.367   9.987 -0.4949 -0.1580  0.0558
  415TMC3    C3 6244   4.561   4.387   9.857 -0.4777 -0.5108  0.1601
  415TMC3    C4 6245   4.428   4.516  10.058  0.1128  0.7057  0.6402
  415TMC3    C5 6246   4.397   4.531   9.926  0.6754 -0.5565  1.0958
  415TMC3    C6 6247   4.452   4.468   9.825 -0.7043  0.4754 -0.4261
  415TMC3     C 6248   4.536   4.384  10.225 -0.4080  0.0499 -0.1212
  415TMC3     O 6249   4.447   4.429  10.297 -0.2631  0.3504  0.6931
  415TMC3     H 6250   4.676   4.290  10.015  0.6320  1.3390  1.3665
  415TMC3    H1 6251   4.385   4.583  10.131 -1.9309  0.1438 -0.0665
  415TMC3    H2 6252   4.409   4.478   9.726  1.1008  1.4980 -1.0879
  415TMC3    C7 6253   4.284   4.615   9.897 -0.3849 -0.2727 -0.9511
  415TMC3    C8 6254   4.623   4.313   9.744 -0.3699 -0.4956 -0.2252
  415TMC3    O1 6255   4.283   4.668   9.785  0.0059 -0.1425  0.4281
  415TMC3    O2 6256   4.561   4.301   9.638 -0.0120  0.7035  0.6406
  416MPD2     C 6257   1.528   3.360  11.668 -0.0635 -0.1977 -0.4441
  416MPD2    C1 6258   1.401   3.314  11.656  0.3876 -0.1646 -0.3989
  416MPD2    C2 6259   1.372   3.227  11.543  0.0939 -0.3309  0.2970
  416MPD2    C3 6260   1.461   3.215  11.441 -0.2313 -0.0044 -0.6567
  416MPD2    C4 6261   1.574   3.289  11.445 -0.4305 -0.7390 -0.3961
  416MPD2    C5 6262   1.614   3.346  11.562 -0.1631 -0.6062 -0.5633
  416MPD2     H 6263   1.274   3.186  11.525  0.7940 -1.0226 -1.9955
  416MPD2    H1 6264   1.658   3.268  11.381  0.4974  0.4973  0.4038
  416MPD2    H2 6265   1.562   3.408  11.759 -0.8093 -0.0449 -0.2427
  416MPD2    H3 6266   1.717   3.380  11.562 -0.1600 -0.6039  0.7650
  416MPD2     N 6267   1.435   3.122  11.334  0.2999 -0.4809 -0.3063
  416MPD2    H5 6268   1.361   3.054  11.351 -1.0709  0.9856 -0.3891
  416MPD2    N1 6269   1.304   3.342  11.750 -0.0440 -0.3801  0.5236
  416MPD2    H7 6270   1.335   3.393  11.832 -0.2618  0.0957  0.3061
  417TMC3    C1 6271   1.083   3.372  11.835  0.2873 -1.3151  0.9993
  417TMC3    C2 6272   1.145   3.401  11.956 -0.0754  0.0029 -0.7245
  417TMC3    C3 6273   1.089   3.497  12.038 -0.4252  1.0015  0.6312
  417TMC3    C4 6274   0.963   3.428  11.808 -1.0443  0.0761 -0.4957
  417TMC3    C5 6275   0.907   3.524  11.894 -0.5913 -0.2188  0.1122
  417TMC3    C6 6276   0.971   3.560  12.011  0.0388 -0.2057 -0.2873
  417TMC3     C 6277   1.170   3.323  11.728 -0.5279  0.3136 -0.1337
  417TMC3     O 6278   1.112   3.322  11.619 -0.2900  0.2781  0.2021
  417TMC3     H 6279   1.234   3.344  11.980 -0.3143 -0.9294 -2.0637
  417TMC3    H1 6280   0.927   3.413  11.707  0.1962  0.3042 -0.9741
  417TMC3    H2 6281   0.946   3.639  12.080 -0.7480 -0.3358 -0.4155
  417TMC3    C7 6282   0.826   3.626  11.844  0.6475  0.1582  0.6811
  417TMC3    C8 6283   1.158   3.535  12.163 -0.1453 -0.4727 -0.1422
  417TMC3    O1 6284   0.869   3.738  11.856  0.1724 -0.3010 -0.2204
  417TMC3    O2 6285   1.091   3.584  12.250  0.4326  0.7983  0.1965
  418TMC3    C1 6286   0.483   0.421   0.425 -0.1858  0.1721  0.5091
  418TMC3    C2 6287   0.371   0.466   0.358 -0.9270  0.2069  0.3382
  418TMC3    C3 6288   0.257   0.387   0.361  0.4913  0.2564 -0.6255
  418TMC3    C4 6289   0.470   0.301   0.494  0.2526 -0.0694  0.1984
  418TMC3    C5 6290   0.353   0.238   0.510 -0.4545  0.4316  0.8215
  418TMC3    C6 6291   0.243   0.275   0.444 -0.0915  0.3406  0.1122
  418TMC3     C 6292   0.603   0.506   0.445  0.7174 -0.2203  0.6502
  418TMC3     O 6293   0.615   0.614   0.388  0.3810 -0.9794 -0.3431
  418TMC3     H 6294   0.370   0.567   0.320 -1.7356  0.3666  0.7684
  418TMC3    H1 6295   0.560   0.253   0.532  0.0907  0.9099  1.7954
  418TMC3    H2 6296   0.157   0.209   0.455 -0.4763  1.1349  1.9111
  418TMC3    C7 6297   0.356   0.119   0.589 -0.4521  0.7375 -0.8980
  418TMC3    C8 6298   0.152   0.407   0.259  0.0655  0.1955 -0.3655
  418TMC3    O1 6299   0.465   0.063   0.603 -0.0278 -0.5118 -0.5289
  418TMC3    O2 6300   0.121   0.521   0.215  0.1332  0.7746  0.1937
  419MPD2     C 6301   3.206   3.480  11.838 -0.3661  0.0419 -0.3749
  419MPD2    C1 6302   3.267   3.545  11.942 -0.3267 -0.4612  0.6982
  419MPD2    C2 6303   3.203   3.537  12.064  0.5928  1.2331  0.7253
  419MPD2    C3 6304   3.081   3.485  12.085 -0.3981 -0.2267 -0.0822
  419MPD2    C4 6305   3.009   3.441  11.975 -0.4471  0.2507  0.2397
  419MPD2    C5 6306   3.077   3.434  11.853 -0.5846 -0.2017 -0.5665
  419MPD2     H 6307   3.241   3.587  12.152  1.3675  1.9986 -0.0479
  419MPD2    H1 6308   2.914   3.389  11.981 -0.1140 -0.1616  2.1356
  419MPD2    H2 6309   3.261   3.475  11.744  1.8199  1.2623  0.8483
  419MPD2    H3 6310   3.032   3.391  11.765 -0.9481 -1.2355  0.1276
  419MPD2     N 6311   3.042   3.472  12.218 -0.0589 -0.2596 -0.0998
  419MPD2    H5 6312   3.117   3.475  12.287 -0.0914 -3.9555  0.0652
  419MPD2    N1 6313   3.399   3.606  11.938 -0.2067  0.6490  0.3783
  419MPD2    H7 6314   3.430   3.640  12.028  0.0605  3.1190 -0.6465
  420TMC3    C1 6315   2.883   3.486  12.394 -0.2684  0.0963 -0.3232
  420TMC3    C2 6316   2.775   3.554  12.423  0.5304 -0.3691 -0.6096
  420TMC3    C3 6317   2.761   3.587  12.560 -0.0864 -0.2043  0.0586
  420TMC3    C4 6318   2.982   3.449  12.490  0.4491 -0.0085 -0.1719
  420TMC3    C5 6319   2.963   3.488  12.623  0.5606 -0.5048  0.1534
  420TMC3    C6 6320   2.850   3.554  12.658  0.1671  0.7815 -0.0018
  420TMC3     C 6321   2.909   3.472  12.254 -0.6367  0.1457  0.4258
  420TMC3     O 6322   2.811   3.461  12.185  0.9520 -0.4850  0.0239
  420TMC3     H 6323   2.710   3.594  12.346 -0.0365  1.3021  0.7472
  420TMC3    H1 6324   3.063   3.386  12.455  1.6236  1.7782 -0.7140
  420TMC3    H2 6325   2.818   3.582  12.757  1.6940 -0.3658  0.8175
  420TMC3    C7 6326   3.059   3.449  12.730  0.2127 -0.1889  0.2976
  420TMC3    C8 6327   2.689   3.712  12.581  0.6187  0.9102  0.2954
  420TMC3    O1 6328   3.019   3.465  12.846 -0.5006 -0.1634  0.0239
  420TMC3    O2 6329   2.724   3.791  12.665  0.1686  0.0711  0.7781
  421TMC3    C1 6330   0.317   0.127  13.916  0.6116 -0.7200 -0.4955
  421TMC3    C2 6331   0.228   0.231  13.904 -0.7831  0.1788  1.0209
  421TMC3    C3 6332   0.268   0.358  13.923  0.6224 -0.0144 -0.7500
  421TMC3    C4 6333   0.442   0.157  13.965 -0.5519  0.8083 -1.0142
  421TMC3    C5 6334   0.470   0.288  13.996 -0.2961 -1.0838 -0.1788
  421TMC3    C6 6335   0.388   0.393  13.971 -0.0577  0.5736 -0.5372
  421TMC3     C 6336   0.299   0.008  13.831  0.2366  0.9319 -0.4658
  421TMC3     O 6337   0.407   4.693  13.800  0.2570  0.4785 -0.1184
  421TMC3     H 6338   0.142   0.207  13.843 -0.7535 -1.4645  1.6337
  421TMC3    H1 6339   0.517   0.079  13.959 -2.2645 -0.9982  0.8255
  421TMC3    H2 6340   0.411   0.493  14.004  2.4028  0.0618 -0.6801
  421TMC3    C7 6341   0.594   0.325  14.054  0.1800  0.1136 -0.1533
  421TMC3    C8 6342   0.169   0.460  13.950 -0.7145 -0.3380 -0.6947
  421TMC3    O1 6343   0.642   0.432  14.036  0.3350  0.2674  0.3218
  421TMC3    O2 6344   0.198   0.578  13.947 -0.4013  0.6818  0.0423
  422TMC3    C1 6345   2.279   1.835  12.831  0.7128  0.3238 -0.1214
  422TMC3    C2 6346   2.193   1.913  12.760  0.2799  0.0785  0.0246
  422TMC3    C3 6347   2.070   1.939  12.813 -0.1359 -0.1558  0.6350
  422TMC3    C4 6348   2.259   1.797  12.960 -0.4194 -0.1194  0.0454
  422TMC3    C5 6349   2.138   1.821  13.011  0.0819 -0.1832  0.9919
  422TMC3    C6 6350   2.044   1.892  12.939  0.1933  0.4159 -0.9534
  422TMC3     C 6351   2.378   1.762  12.754  0.2818 -0.4241 -0.1548
  422TMC3     O 6352   2.391   1.782  12.637  0.9508  0.1034  0.2270
  422TMC3     H 6353   2.226   1.940  12.660  3.4522 -1.6444  0.5764
  422TMC3    H1 6354   2.336   1.748  13.019  0.9034  0.9149 -0.8123
  422TMC3    H2 6355   1.948   1.916  12.983  1.0821 -4.4432  3.7117
  422TMC3    C7 6356   2.123   1.781  13.150 -0.4730  0.1088  0.0086
  422TMC3    C8 6357   2.008   2.057  12.764  0.5376 -0.0839 -0.7578
  422TMC3    O1 6358   2.224   1.740  13.209  0.5092 -0.3338  0.1901
  422TMC3    O2 6359   2.085   2.147  12.731 -0.6278  0.2354  0.6759
  423MPD2     C 6360   4.182   2.556   0.501 -0.2137 -0.2555 -0.6963
  423MPD2    C1 6361   4.183   2.418   0.520 -0.2936  0.3502 -0.2750
  423MPD2    C2 6362   4.224   2.331   0.417  0.0394  0.1825 -0.1571
  423MPD2    C3 6363   4.236   2.384   0.294  1.2372  0.3511 -0.0025
  423MPD2    C4 6364   4.214   2.514   0.274 -0.1810  0.3150 -0.2807
  423MPD2    C5 6365   4.192   2.602   0.373 -0.0395  0.2608  1.1107
  423MPD2     H 6366   4.223   2.224   0.428 -2.3518  0.1414 -0.9121
  423MPD2    H1 6367   4.194   2.547   0.173 -0.6569  1.0917  0.0681
  423MPD2    H2 6368   4.162   2.621   0.585 -0.0265 -0.0485 -0.8123
  423MPD2    H3 6369   4.179   2.708   0.355  1.4363  0.2750  0.1709
  423MPD2     N 6370   4.263   2.304   0.185 -0.3698 -0.3093  0.1223
  423MPD2    H5 6371   4.251   2.352   0.096  1.6334 -0.5529 -0.2756
  423MPD2    N1 6372   4.151   2.354   0.642 -0.2874  0.5101 -0.4533
  423MPD2    H7 6373   4.168   2.255   0.660  0.5601  0.6131 -0.6695
  424TMC3    C1 6374   4.010   2.301   0.822 -0.2601  0.2250 -0.4448
  424TMC3    C2 6375   4.101   2.221   0.886 -0.4830 -0.5908 -0.1007
  424TMC3    C3 6376   4.054   2.142   0.986 -1.1050 -0.6431  0.0010
  424TMC3    C4 6377   3.879   2.306   0.862 -0.5459  0.5929  0.8811
  424TMC3    C5 6378   3.839   2.217   0.959  0.0541 -0.3237  0.0041
  424TMC3    C6 6379   3.923   2.139   1.024 -0.2124  0.8519 -0.0235
  424TMC3     C 6380   4.060   2.407   0.737 -0.1229 -0.0477  0.0836
  424TMC3     O 6381   3.996   2.512   0.720 -0.1498  0.2128  0.1433
  424TMC3     H 6382   4.207   2.242   0.882  0.2036 -3.6098  2.4127
  424TMC3    H1 6383   3.803   2.359   0.806 -0.7350  0.2475  0.8146
  424TMC3    H2 6384   3.885   2.072   1.100 -1.3382  0.7534 -0.6612
  424TMC3    C7 6385   3.701   2.174   0.949 -0.4133 -0.0486  0.0042
  424TMC3    C8 6386   4.158   2.078   1.079  0.2881  0.3210 -0.2293
  424TMC3    O1 6387   3.658   2.176   0.833  0.1260 -0.2322 -0.1730
  424TMC3    O2 6388   4.110   2.062   1.190 -0.2317 -0.1291 -0.3202
  425MPD2     C 6389   2.762   1.465  17.477 -0.0040  0.8350  0.4920
  425MPD2    C1 6390   2.743   1.363  17.568  0.6632 -0.6993 -0.5585
  425MPD2    C2 6391   2.720   1.403  17.693  0.3923 -0.3988  0.1643
  425MPD2    C3 6392   2.717   1.537  17.736 -0.3203 -0.5171 -0.0939
  425MPD2    C4 6393   2.742   1.641  17.650  0.0845  1.0765  0.2177
  425MPD2    C5 6394   2.766   1.598  17.515 -0.0383 -0.1506 -0.4029
  425MPD2     H 6395   2.710   1.335   0.032 -1.6909 -1.2134 -0.7471
  425MPD2    H1 6396   2.743   1.748  17.669 -0.3554  1.3168 -1.0588
  425MPD2    H2 6397   2.785   1.448  17.372  0.0801 -3.3596  1.1743
  425MPD2    H3 6398   2.786   1.670  17.437  0.2694 -0.1485 -0.3198
  425MPD2     N 6399   2.673   1.560   0.120 -0.4403  0.0941  0.4374
  425MPD2    H5 6400   2.641   1.477   0.169 -2.3021  0.2716 -0.4541
  425MPD2    N1 6401   2.749   1.234  17.518  0.1652  0.7979 -0.6193
  425MPD2    H7 6402   2.749   1.220  17.418  3.6706 -0.4012 -0.4885
  426TMC3    C1 6403   2.735   0.996  17.515 -0.3326  0.3461  0.3453
  426TMC3    C2 6404   2.823   0.977  17.417  0.0778 -0.1577  0.1207
  426TMC3    C3 6405   2.865   0.853  17.388  0.4345  0.5183 -1.0166
  426TMC3    C4 6406   2.665   0.886  17.570  0.1932  0.3267  0.4004
  426TMC3    C5 6407   2.715   0.764  17.547  0.3663 -0.0520 -0.0051
  426TMC3    C6 6408   2.820   0.743  17.461 -0.4013 -0.2705 -0.2302
  426TMC3     C 6409   2.731   1.122  17.589 -0.3369 -0.0724 -0.7865
  426TMC3     O 6410   2.711   1.106  17.709 -0.3862  0.8032 -0.2025
  426TMC3     H 6411   2.870   1.063  17.370 -0.9345  1.3185  1.8316
  426TMC3    H1 6412   2.591   0.909  17.645  0.8266  1.9860  0.5399
  426TMC3    H2 6413   2.836   0.648  17.411 -0.9346 -0.1198 -0.6901
  426TMC3    C7 6414   2.659   0.644  17.605  0.5309  0.2225 -0.1136
  426TMC3    C8 6415   2.962   0.850  17.278  0.0327 -0.5005 -1.2637
  426TMC3    O1 6416   2.713   0.536  17.579  0.0406 -0.6805 -0.8957
  426TMC3    O2 6417   2.949   0.936  17.191  0.2722 -0.3387 -0.3508
  427MPD2     C 6418   1.286   3.542  14.780  0.1996 -0.5035  0.6445
  427MPD2    C1 6419   1.328   3.624  14.882  0.0987  0.4945 -0.3577
  427MPD2    C2 6420   1.275   3.748  14.889 -0.3373  0.4106  0.0761
  427MPD2    C3 6421   1.185   3.790  14.794  0.0065 -0.2451  0.7350
  427MPD2    C4 6422   1.159   3.706  14.688  0.2894  0.8539  0.2258
  427MPD2    C5 6423   1.198   3.580  14.683  0.2184 -0.6000  0.7344
  427MPD2     H 6424   1.285   3.808  14.980 -1.0833  0.9836 -0.2137
  427MPD2    H1 6425   1.086   3.725  14.611  0.2213  2.9746  0.8143
  427MPD2    H2 6426   1.305   3.435  14.778  0.5618 -0.4590  1.7457
  427MPD2    H3 6427   1.165   3.504  14.614 -0.4219 -1.1959  1.7049
  427MPD2     N 6428   1.129   3.914  14.787 -0.6833  0.1907 -0.1296
  427MPD2    H5 6429   1.056   3.924  14.717  1.5492  1.1830 -2.3170
  427MPD2    N1 6430   1.425   3.577  14.970  0.0671 -0.6740  0.1730
  427MPD2    H7 6431   1.457   3.480  14.961  0.6808 -0.3009 -1.6521
  428TMC3    C1 6432   1.621   3.607  15.108  0.4969 -0.5760 -0.0342
  428TMC3    C2 6433   1.614   3.478  15.152  0.0203  0.4719 -0.2572
  428TMC3    C3 6434   1.721   3.427  15.223 -0.4864  0.1729  0.2506
  428TMC3    C4 6435   1.730   3.690  15.140  0.2628 -0.0686 -0.7433
  428TMC3    C5 6436   1.838   3.626  15.198  0.1078 -1.0388  0.6587
  428TMC3    C6 6437   1.827   3.502  15.249 -0.5016  0.2279 -0.5263
  428TMC3     C 6438   1.506   3.668  15.044 -0.7559 -0.5255 -0.1285
  428TMC3     O 6439   1.514   3.789  15.043 -0.7634  0.4225  0.3185
  428TMC3     H 6440   1.526   3.417  15.134  0.3076 -0.4947  1.6033
  428TMC3    H1 6441   1.738   3.794  15.109  0.7726  1.2734  3.8803
  428TMC3    H2 6442   1.911   3.444  15.285 -1.4583 -1.8564 -1.6334
  428TMC3    C7 6443   1.920   3.701  15.290  0.1152 -0.9128  0.3352
  428TMC3    C8 6444   1.707   3.295  15.289  0.6130 -0.0454 -0.7439
  428TMC3    O1 6445   1.910   3.672  15.410 -0.2008 -0.1198 -0.1575
  428TMC3    O2 6446   1.777   3.204  15.251 -0.1265 -0.4075  0.7027
  429MPD2     C 6447   2.562   4.250   0.158 -0.5610 -1.7704  0.2697
  429MPD2    C1 6448   2.587   4.134   0.093  0.3286 -0.1195  0.1365
  429MPD2    C2 6449   2.654   4.138  17.716  0.4163 -0.4482 -0.3875
  429MPD2    C3 6450   2.694   4.266  17.665  0.5795 -0.4382  0.4045
  429MPD2    C4 6451   2.662   4.384  17.729 -0.2107  0.2919  0.0729
  429MPD2    C5 6452   2.598   4.368   0.105 -0.0218  0.3150  0.0867
  429MPD2     H 6453   2.686   4.049  17.664  2.1594 -0.7929  1.2479
  429MPD2    H1 6454   2.682   4.485  17.696  2.8805 -1.1018 -2.2602
  429MPD2    H2 6455   2.512   4.251   0.254 -0.0068  1.8034  0.5538
  429MPD2    H3 6456   2.577   4.460   0.159  0.8434  0.7007 -0.2312
  429MPD2     N 6457   2.757   4.263  17.544 -0.3163 -0.2169  0.2039
  429MPD2    H5 6458   2.779   4.169  17.515 -1.1843 -0.3653  0.0173
  429MPD2    N1 6459   2.549   4.018   0.157 -0.0613 -0.5035  0.3167
  429MPD2    H7 6460   2.500   4.036   0.244 -0.3709  1.5759 -0.2909
  430TMC3    C1 6461   2.842   4.344  17.349  0.7642  0.5899  0.0400
  430TMC3    C2 6462   2.869   4.448  17.263  0.4184  0.0883 -0.5547
  430TMC3    C3 6463   2.924   4.423  17.139 -0.5638 -0.1377  0.6771
  430TMC3    C4 6464   2.859   4.215  17.309  0.1446  0.7548  0.1837
  430TMC3    C5 6465   2.911   4.197  17.180  0.5021 -0.6971 -0.3218
  430TMC3    C6 6466   2.940   4.298  17.088  0.1995  0.2399 -0.1925
  430TMC3     C 6467   2.786   4.378  17.474 -0.6534  0.5576  0.3280
  430TMC3     O 6468   2.746   4.491  17.480  0.0509  0.2922  0.4166
  430TMC3     H 6469   2.853   4.554  17.281  1.4716  0.3730 -1.2511
  430TMC3    H1 6470   2.843   4.128  17.372 -0.8139  0.2945 -0.7036
  430TMC3    H2 6471   2.977   4.278  16.988  2.0227 -1.0913  0.7465
  430TMC3    C7 6472   2.951   4.058  17.154  0.1864 -0.1789  0.2319
  430TMC3    C8 6473   2.909   4.522  17.037 -0.1254 -0.1917  0.9207
  430TMC3    O1 6474   2.895   3.964  17.210  0.1208  0.8047  0.2018
  430TMC3    O2 6475   2.942   4.639  17.058  1.2302 -0.7757 -0.2591
  431MPD2     C 6476   3.414   4.144  12.540  0.2261  0.4557 -0.3379
  431MPD2    C1 6477   3.523   4.198  12.476  0.0149 -0.3112  0.2639
  431MPD2    C2 6478   3.547   4.162  12.344  0.2310 -0.2906 -0.1031
  431MPD2    C3 6479   3.477   4.057  12.288  0.0473  0.1548 -0.7677
  431MPD2    C4 6480   3.373   4.004  12.352  0.1483 -0.2510 -0.3372
  431MPD2    C5 6481   3.336   4.049  12.478  0.5327  0.3294 -0.4487
  431MPD2     H 6482   3.628   4.211  12.290 -0.2530  1.5006  0.7748
  431MPD2    H1 6483   3.315   3.922  12.313 -0.4981  0.5198 -1.0076
  431MPD2    H2 6484   3.378   4.187  12.633 -1.7124  0.1507 -0.9350
  431MPD2    H3 6485   3.253   3.998  12.526  0.0234 -1.3201 -3.0710
  431MPD2     N 6486   3.513   3.994  12.170  0.3484 -0.8533 -0.0396
  431MPD2    H5 6487   3.463   3.909  12.150 -0.0916 -1.1809  2.5420
  431MPD2    N1 6488   3.609   4.290  12.542  0.6011  0.1362 -0.4511
  431MPD2    H7 6489   3.689   4.318  12.486  0.9981 -0.9514 -0.4244
  432TMC3    C1 6490   3.647   3.913  11.990  0.7218  0.0536  0.5663
  432TMC3    C2 6491   3.771   3.909  11.934  0.1243 -0.4860  0.1487
  432TMC3    C3 6492   3.799   3.809  11.844  0.5802  0.0438 -0.0393
  432TMC3    C4 6493   3.547   3.831  11.950 -0.3418 -0.2332 -0.8090
  432TMC3    C5 6494   3.573   3.733  11.858  0.5167  0.0839 -0.1998
  432TMC3    C6 6495   3.699   3.722  11.806  0.5898  0.0875  0.4479
  432TMC3     C 6496   3.626   4.025  12.092  0.3503  0.2834 -0.1182
  432TMC3     O 6497   3.698   4.124  12.086  0.5817  0.2963  0.2030
  432TMC3     H 6498   3.836   3.995  11.942 -0.5953 -0.2813  3.5933
  432TMC3    H1 6499   3.445   3.844  11.986  0.1032 -1.1026  0.7671
  432TMC3    H2 6500   3.712   3.649  11.727 -1.6036  4.0645 -3.6414
  432TMC3    C7 6501   3.474   3.635  11.824 -0.7235  0.5585 -0.2781
  432TMC3    C8 6502   3.913   3.823  11.757  0.0326  0.2553  0.2933
  432TMC3    O1 6503   3.468   3.586  11.711  0.4001 -0.1301 -0.3701
  432TMC3    O2 6504   3.899   3.775  11.647  0.2083  0.1945  0.0810
  433MPD2     C 6505   2.244   2.957  10.839  0.0386  0.0842  0.0295
  433MPD2    C1 6506   2.209   2.832  10.893  0.3367  0.7099 -0.0816
  433MPD2    C2 6507   2.229   2.819  11.027 -0.1530  0.4499  1.1273
  433MPD2    C3 6508   2.264   2.928  11.107  0.1580 -0.5474 -0.8438
  433MPD2    C4 6509   2.297   3.051  11.045  0.5778  0.4513  0.2296
  433MPD2    C5 6510   2.279   3.068  10.911  0.2636 -0.6294 -0.2608
  433MPD2     H 6511   2.216   2.724  11.078  0.1900 -0.4466 -0.4352
  433MPD2    H1 6512   2.319   3.143  11.100  0.8119 -0.6968  2.0668
  433MPD2    H2 6513   2.236   2.978  10.733  3.0739  1.7816  0.1316
  433MPD2    H3 6514   2.298   3.165  10.866 -0.7150  0.9381  2.7149
  433MPD2     N 6515   2.278   2.901  11.243  0.1939  0.0544  0.7628
  433MPD2    H5 6516   2.255   2.804  11.261 -0.8254  0.4342  1.5403
  433MPD2    N1 6517   2.184   2.725  10.798 -0.3122  0.4488 -0.5311
  433MPD2    H7 6518   2.185   2.742  10.698 -0.9246  2.0267 -0.2774
  434TMC3    C1 6519   2.197   2.497  10.758  0.4343 -0.3300 -0.1445
  434TMC3    C2 6520   2.294   2.421  10.823  0.1066  1.0678 -0.4799
  434TMC3    C3 6521   2.299   2.285  10.812  0.6270  0.1090  0.2707
  434TMC3    C4 6522   2.099   2.437  10.685 -0.7664  0.4609  0.1165
  434TMC3    C5 6523   2.106   2.300  10.686  0.3598 -0.0609 -0.5753
  434TMC3    C6 6524   2.198   2.223  10.745 -0.5294 -0.7251 -0.0416
  434TMC3     C 6525   2.145   2.604  10.838 -0.1460 -0.5816  0.8738
  434TMC3     O 6526   2.088   2.569  10.943 -0.2298 -0.0783 -0.2149
  434TMC3     H 6527   2.352   2.473  10.898  0.7431 -1.1162  0.5548
  434TMC3    H1 6528   2.030   2.495  10.625 -1.2229  0.6183  0.7946
  434TMC3    H2 6529   2.183   2.117  10.765  0.1410 -0.1524  3.4958
  434TMC3    C7 6530   1.985   2.234  10.636 -0.9494 -0.8089 -0.0732
  434TMC3    C8 6531   2.417   2.215  10.866  0.4245 -0.7536 -0.2045
  434TMC3    O1 6532   1.894   2.310  10.619  0.2921 -0.2835 -0.1451
  434TMC3    O2 6533   2.496   2.275  10.940 -0.1927  1.0807 -0.4385
  435MPD2     C 6534   4.568   2.805  15.288  0.5243  0.3938 -0.4167
  435MPD2    C1 6535   4.567   2.826  15.425  0.5486 -0.2063  0.0990
  435MPD2    C2 6536   4.652   2.748  15.498 -0.7301 -0.4690 -1.0489
  435MPD2    C3 6537   0.005   2.667  15.437  0.0033 -0.2886 -0.1432
  435MPD2    C4 6538   0.008   2.647  15.301 -0.1560  0.3748 -0.5444
  435MPD2    C5 6539   4.663   2.725  15.228 -1.0092  0.3345 -0.7713
  435MPD2     H 6540   4.654   2.747  15.607  0.9613 -1.7937 -1.0997
  435MPD2    H1 6541   0.072   2.572  15.257 -0.0028  0.1878 -0.0125
  435MPD2    H2 6542   4.491   2.849  15.226 -0.4656 -0.1422  0.4125
  435MPD2    H3 6543   4.670   2.721  15.120  0.7313  0.2670 -0.6653
  435MPD2     N 6544   0.085   2.597  15.529 -0.1093 -0.1232  0.1122
  435MPD2    H5 6545   0.080   2.625  15.626 -3.3670 -2.0342  0.4774
  435MPD2    N1 6546   4.467   2.893  15.498 -0.2267 -0.0759 -0.4012
  435MPD2    H7 6547   4.473   2.882  15.598  0.9687 -2.8549 -0.7793
  436TMC3    C1 6548   4.044   2.966  15.602  0.3068  0.0267 -0.4597
  436TMC3    C2 6549   4.138   3.002  15.510  0.7862 -0.9205  0.5122
  436TMC3    C3 6550   4.271   2.997  15.546  0.0832 -0.6110 -0.1464
  436TMC3    C4 6551   4.084   2.898  15.714  0.3915  0.0675 -0.2403
  436TMC3    C5 6552   4.216   2.897  15.743  0.1935  0.5450  0.6725
  436TMC3    C6 6553   4.313   2.963  15.673  0.2000 -0.3784  0.1498
  436TMC3     C 6554   3.907   2.975  15.572  0.4404 -0.2242 -0.2345
  436TMC3     O 6555   3.867   2.993  15.460  0.3586 -0.0733 -0.1262
  436TMC3     H 6556   4.110   3.038  15.412  0.4052  2.0754  1.7296
  436TMC3    H1 6557   4.016   2.824  15.754 -0.3334  0.8581 -0.0182
  436TMC3    H2 6558   4.410   2.984  15.717  0.4900  0.6579 -0.9943
  436TMC3    C7 6559   4.266   2.826  15.859 -0.9193  0.5048 -0.0119
  436TMC3    C8 6560   4.366   2.964  15.445 -0.3702 -0.5439 -0.0232
  436TMC3    O1 6561   4.373   2.851  15.899 -0.5459 -0.7526  0.2769
  436TMC3    O2 6562   4.340   2.995  15.333 -0.2113  0.1622 -0.5078
  437TMC3    C1 6563   2.682   0.025  13.021  0.5610  0.5402 -0.1014
  437TMC3    C2 6564   2.560   0.055  13.072 -0.1770  0.0260  0.6738
  437TMC3    C3 6565   2.515   0.188  13.066 -0.0354 -0.5780  0.1763
  437TMC3    C4 6566   2.753   0.127  12.953  0.1889  0.6260  0.1056
  437TMC3    C5 6567   2.698   0.252  12.937  0.5064 -0.3840 -0.5646
  437TMC3    C6 6568   2.578   0.282  12.990  0.2432 -0.9351  0.0455
  437TMC3     C 6569   2.718   4.623  13.023 -0.5942  0.1761  0.1137
  437TMC3     O 6570   2.631   4.557  13.079  0.5036  0.3022 -0.1641
  437TMC3     H 6571   2.491   4.713  13.100  1.5853 -2.1881 -1.3286
  437TMC3    H1 6572   2.844   0.097  12.901 -2.2309 -0.4404 -3.5380
  437TMC3    H2 6573   2.550   0.386  13.004 -0.5043 -1.3837  1.8375
  437TMC3    C7 6574   2.780   0.368  12.905 -0.4226  0.1637  0.1713
  437TMC3    C8 6575   2.380   0.225  13.127  0.0970  0.0193 -0.2031
  437TMC3    O1 6576   2.725   0.474  12.891 -0.1274  0.1248 -0.5903
  437TMC3    O2 6577   2.327   0.328  13.084  0.2157 -0.4227  0.4820
  438MPD2     C 6578   1.128   0.758  17.234  0.1251  0.8278  0.2101
  438MPD2    C1 6579   1.112   0.623  17.280  0.1345 -0.5422  0.4527
  438MPD2    C2 6580   1.093   0.599  17.416 -0.3792  0.1082 -0.1420
  438MPD2    C3 6581   1.082   0.707  17.499  0.2914 -0.3486 -0.4399
  438MPD2    C4 6582   1.090   0.837  17.458  0.2080  0.1280 -0.2751
  438MPD2    C5 6583   1.121   0.858  17.329 -0.3311  0.1846  0.2643
  438MPD2     H 6584   1.100   0.497  17.452  1.8967 -0.1812 -1.4162
  438MPD2    H1 6585   1.074   0.928  17.515  0.1388 -0.2698  0.3400
  438MPD2    H2 6586   1.146   0.784  17.131 -2.3475  0.6227 -0.2698
  438MPD2    H3 6587   1.131   0.961  17.295 -0.7897  0.2858  0.4358
  438MPD2     N 6588   1.065   0.692  17.639 -0.4410 -0.3603 -0.3997
  438MPD2    H5 6589   1.039   0.779  17.685  0.8453 -0.3349  0.2983
  438MPD2    N1 6590   1.112   0.508  17.192 -0.1118  0.7717  0.1174
  438MPD2    H7 6591   1.103   0.416  17.235 -1.9258  0.3140 -1.2417
  439TMC3    C1 6592   1.166   0.376  16.999  0.4937  0.2905  0.9749
  439TMC3    C2 6593   1.132   0.345  16.870 -0.0204 -0.2852 -0.4250
  439TMC3    C3 6594   1.159   0.215  16.823 -0.4485  0.0730  0.4968
  439TMC3    C4 6595   1.206   0.280  17.082  0.5779 -0.0073  0.3720
  439TMC3    C5 6596   1.215   0.147  17.042 -0.3083  0.0272  0.5433
  439TMC3    C6 6597   1.204   0.116  16.909  0.1908  0.6329  0.0768
  439TMC3     C 6598   1.130   0.507  17.053  0.6384 -0.0481  0.1231
  439TMC3     O 6599   1.120   0.595  16.971  0.3765 -0.2329 -0.1844
  439TMC3     H 6600   1.097   0.430  16.813 -0.9483 -1.2634 -1.3215
  439TMC3    H1 6601   1.229   0.297  17.187 -0.1084  2.3863  0.1428
  439TMC3    H2 6602   1.233   0.019  16.868  0.4186  1.0664 -0.8009
  439TMC3    C7 6603   1.262   0.040  17.138  0.0041  0.4345 -0.0465
  439TMC3    C8 6604   1.179   0.189  16.681  0.2625  0.3307 -0.5242
  439TMC3    O1 6605   1.308   0.093  17.241 -0.0266 -0.0768 -0.2979
  439TMC3    O2 6606   1.220   0.081  16.652 -0.1786  0.0842 -0.3979
  440MPD2     C 6607   3.407   0.863  15.165  0.4071  0.8277  0.3553
  440MPD2    C1 6608   3.539   0.904  15.145 -0.1138  0.2187 -0.2384
  440MPD2    C2 6609   3.639   0.806  15.153 -0.6266 -0.6317  0.0149
  440MPD2    C3 6610   3.604   0.676  15.176  0.3762  1.0232 -0.4823
  440MPD2    C4 6611   3.475   0.637  15.183  0.1728  0.0621  0.1485
  440MPD2    C5 6612   3.380   0.736  15.167 -0.4345  0.0342  0.3166
  440MPD2     H 6613   3.739   0.832  15.121 -0.6137 -0.5300  0.1354
  440MPD2    H1 6614   3.441   0.534  15.189 -0.7952  0.1780 -3.1912
  440MPD2    H2 6615   3.323   0.927  15.143 -0.6683 -0.6918  0.0547
  440MPD2    H3 6616   3.277   0.701  15.163 -0.4233 -0.4305  4.6907
  440MPD2     N 6617   3.713   0.585  15.192  0.0726  0.0744 -0.0940
  440MPD2    H5 6618   3.806   0.623  15.176 -0.3258  0.0694 -2.4557
  440MPD2    N1 6619   3.576   1.033  15.134 -0.6582  0.1848  0.0651
  440MPD2    H7 6620   3.676   1.049  15.134 -0.1650 -2.9271  0.8331
  441TMC3    C1 6621   3.817   0.374  15.195 -0.0523 -0.0374 -0.1420
  441TMC3    C2 6622   3.915   0.422  15.118  0.1758 -0.2258  0.3951
  441TMC3    C3 6623   4.010   0.328  15.088  0.6258  0.3424 -0.1562
  441TMC3    C4 6624   3.800   0.246  15.232 -0.8166 -0.0386 -0.2153
  441TMC3    C5 6625   3.905   0.165  15.229  0.2066 -0.1662  0.7202
  441TMC3    C6 6626   4.011   0.209  15.151  0.3889 -0.5786 -0.9864
  441TMC3     C 6627   3.697   0.450  15.209  0.0818 -0.5919 -0.0305
  441TMC3     O 6628   3.594   0.384  15.203 -0.0109 -0.3290  0.3694
  441TMC3     H 6629   3.926   0.522  15.079  0.9274 -0.3640  0.2564
  441TMC3    H1 6630   3.716   0.215  15.293 -0.3553  0.6321  0.7630
  441TMC3    H2 6631   4.091   0.140  15.126  0.7136 -0.7406  0.4821
  441TMC3    C7 6632   3.948   0.098  15.359  0.0910 -0.4784 -0.6470
  441TMC3    C8 6633   4.123   0.367  15.016  0.1114  0.7521  0.2871
  441TMC3    O1 6634   3.865   0.126  15.441  0.6669 -0.4192  0.6167
  441TMC3    O2 6635   4.138   0.306  14.914  0.1520  0.5348  0.0064
  442MPD2     C 6636   2.532   1.544  16.723 -0.6579 -0.7802 -0.8031
  442MPD2    C1 6637   2.401   1.502  16.735 -0.7439  0.6877  0.5978
  442MPD2    C2 6638   2.354   1.413  16.643  0.1199  0.6196  0.4224
  442MPD2    C3 6639   2.439   1.347  16.554  0.1400 -0.0788 -0.0344
  442MPD2    C4 6640   2.570   1.384  16.556 -0.0038  0.2983  0.5900
  442MPD2    C5 6641   2.616   1.484  16.635  0.0910 -0.1124 -0.2125
  442MPD2     H 6642   2.249   1.390  16.640  0.7003 -2.0211  0.8110
  442MPD2    H1 6643   2.649   1.329  16.507 -0.9261 -0.4001 -0.1333
  442MPD2    H2 6644   2.580   1.622  16.780 -1.2204 -1.2415  0.2959
  442MPD2    H3 6645   2.723   1.502  16.638 -0.1672  1.4031  0.0476
  442MPD2     N 6646   2.400   1.245  16.468 -0.0954 -0.5958  0.1389
  442MPD2    H5 6647   2.477   1.202  16.417  0.5315  1.0962 -0.3434
  442MPD2    N1 6648   2.314   1.549  16.832  0.8355  0.0226 -0.4233
  442MPD2    H7 6649   2.216   1.528  16.814  0.4735  1.3862 -0.0653
  443TMC3    C1 6650   2.219   1.661  17.006 -0.1587 -0.1254  0.4102
  443TMC3    C2 6651   2.139   1.764  16.960  0.1842  0.1756  0.1107
  443TMC3    C3 6652   2.002   1.764  16.979 -0.4512  0.2317  0.6659
  443TMC3    C4 6653   2.170   1.557  17.071  0.1636  0.0309  0.3593
  443TMC3    C5 6654   2.037   1.569  17.109  0.1467 -0.2508  0.1341
  443TMC3    C6 6655   1.955   1.662  17.054  0.1085 -0.1717 -0.5778
  443TMC3     C 6656   2.343   1.637  16.937  0.0623  0.4180 -0.1272
  443TMC3     O 6657   2.445   1.698  16.964 -0.0865  0.8234 -0.2319
  443TMC3     H 6658   2.183   1.842  16.900  0.3174  1.7201  2.2176
  443TMC3    H1 6659   2.232   1.474  17.100 -1.7191 -1.1719  0.9758
  443TMC3    H2 6660   1.849   1.653  17.072  0.2402  0.4279  0.4810
  443TMC3    C7 6661   1.974   1.456  17.152  0.0229  0.1800 -1.2183
  443TMC3    C8 6662   1.935   1.773  16.859  0.8356  0.0936 -0.4072
  443TMC3    O1 6663   1.887   1.414  17.074  0.1552  0.1362  0.0687
  443TMC3    O2 6664   1.893   1.670  16.815 -0.0416 -0.2659  0.0061
  444MPD2     C 6665   2.363   0.927  17.399 -0.4758 -0.0706  0.5024
  444MPD2    C1 6666   2.360   0.794  17.428  0.0875  0.6258  0.7164
  444MPD2    C2 6667   2.395   0.701  17.339  0.0095 -0.6945 -0.8965
  444MPD2    C3 6668   2.450   0.731  17.219  0.0173  0.3149  0.7664
  444MPD2    C4 6669   2.458   0.870  17.190  0.4482 -0.1851 -0.4205
  444MPD2    C5 6670   2.412   0.966  17.277  0.2878  0.3792 -0.1328
  444MPD2     H 6671   2.398   0.595  17.361  3.1472  0.0831  2.6175
  444MPD2    H1 6672   2.515   0.904  17.104  0.3826  1.0722  0.0339
  444MPD2    H2 6673   2.342   1.006  17.470  0.2081 -0.0355  0.6645
  444MPD2    H3 6674   2.411   1.073  17.256 -0.0177  0.9720  2.8583
  444MPD2     N 6675   2.511   0.632  17.141 -0.2370 -0.1382 -0.3470
  444MPD2    H5 6676   2.522   0.539  17.182 -0.1985  0.5520  1.2101
  444MPD2    N1 6677   2.300   0.752  17.547  0.4407  0.0645 -0.2853
  444MPD2    H7 6678   2.278   0.652  17.547  1.4473 -0.1592 -0.8432
  445TMC3    C1 6679   2.607   0.516  16.959 -0.1530  0.4201 -0.8079
  445TMC3    C2 6680   2.561   0.397  17.014  0.4238  0.1124  0.4072
  445TMC3    C3 6681   2.575   0.294  16.929 -0.0133  0.4228  0.1519
  445TMC3    C4 6682   2.666   0.527  16.836 -0.6803  0.0064 -0.4102
  445TMC3    C5 6683   2.691   0.406  16.773 -0.2128 -0.5985  1.0579
  445TMC3    C6 6684   2.634   0.291  16.806 -0.5425 -0.8113  0.4205
  445TMC3     C 6685   2.574   0.642  17.021 -0.6980  0.5176  0.4597
  445TMC3     O 6686   2.576   0.741  16.946 -0.8499  0.3389 -0.2233
  445TMC3     H 6687   2.525   0.382  17.115 -2.0248 -0.0243 -0.4888
  445TMC3    H1 6688   2.697   0.623  16.796  1.1057 -0.8745 -1.1139
  445TMC3    H2 6689   2.673   0.205  16.753  2.0781  0.0611  0.9369
  445TMC3    C7 6690   2.819   0.404  16.705  0.1666  0.0314  0.2434
  445TMC3    C8 6691   2.539   0.170  16.995 -0.1154  0.6810  0.3203
  445TMC3    O1 6692   2.916   0.451  16.763 -0.0738 -0.6318  0.3394
  445TMC3    O2 6693   2.558   0.158  17.117 -0.2511  0.5779 -0.0956
  446MPD2     C 6694   2.072   1.921  11.057  0.0316 -0.2717 -0.4331
  446MPD2    C1 6695   2.014   2.049  11.069  0.0049  0.1864  0.5570
  446MPD2    C2 6696   2.086   2.143  11.143  0.3942 -0.5557 -0.3837
  446MPD2    C3 6697   2.205   2.109  11.199 -0.5805 -0.0833 -0.3193
  446MPD2    C4 6698   2.260   1.984  11.187 -0.3616 -0.4833 -0.4365
  446MPD2    C5 6699   2.190   1.895  11.111 -0.5745 -0.2202  0.4732
  446MPD2     H 6700   2.038   2.238  11.158 -1.4124 -1.5869  0.4057
  446MPD2    H1 6701   2.347   1.952  11.243  0.6449 -1.5736 -2.6467
  446MPD2    H2 6702   2.017   1.843  11.006 -1.6654  0.0857  0.8323
  446MPD2    H3 6703   2.217   1.790  11.106  1.6143  0.2895  1.6597
  446MPD2     N 6704   2.278   2.219  11.253 -0.2836 -0.7342 -0.4504
  446MPD2    H5 6705   2.253   2.314  11.226  2.6073 -0.0480 -0.7419
  446MPD2    N1 6706   1.883   2.079  11.026  0.2776 -0.0231 -0.0526
  446MPD2    H7 6707   1.851   2.175  11.038  1.8186  0.5855 -0.7704
  447TMC3    C1 6708   2.482   2.333  11.321  0.0353 -0.1658 -0.6687
  447TMC3    C2 6709   2.470   2.425  11.225  0.3946  0.6965  0.4214
  447TMC3    C3 6710   2.575   2.509  11.216  0.0423  1.2443  0.6319
  447TMC3    C4 6711   2.599   2.332  11.404  0.0249 -0.1873 -0.1544
  447TMC3    C5 6712   2.704   2.416  11.388  0.4889  0.4491  0.5925
  447TMC3    C6 6713   2.688   2.520  11.296 -0.6513 -0.1361  0.3208
  447TMC3     C 6714   2.404   2.210  11.307 -0.3601 -0.2234 -0.0704
  447TMC3     O 6715   2.474   2.116  11.348  0.6185  0.9284  0.3493
  447TMC3     H 6716   2.385   2.429  11.159  1.3131 -0.2972 -0.8157
  447TMC3    H1 6717   2.610   2.255  11.481  1.9425  1.4436  1.2074
  447TMC3    H2 6718   2.770   2.590  11.283  0.0598 -0.9727  0.2525
  447TMC3    C7 6719   2.838   2.380  11.412  0.0637  0.2221  0.7110
  447TMC3    C8 6720   2.565   2.599  11.102  0.1004 -0.1585 -1.2189
  447TMC3    O1 6721   2.927   2.443  11.361 -0.5903 -0.2364 -0.2910
  447TMC3    O2 6722   2.452   2.615  11.057 -0.3910 -0.1146 -0.1586
  448TMC3    C1 6723   1.742   1.768   0.179 -0.4941  0.2878  0.2399
  448TMC3    C2 6724   1.721   1.682   0.068  0.0573 -0.5676 -0.2815
  448TMC3    C3 6725   1.664   1.561   0.084  0.3280 -0.0721 -0.0476
  448TMC3    C4 6726   1.698   1.731   0.302 -0.3945 -0.1701  0.6739
  448TMC3    C5 6727   1.622   1.613   0.309 -0.2491 -0.1495 -0.5191
  448TMC3    C6 6728   1.609   1.524   0.200 -0.7148  0.0034  0.6556
  448TMC3     C 6729   1.821   1.887   0.167 -0.1422  0.2494  0.3854
  448TMC3     O 6730   1.880   1.904   0.060  0.5142  0.2775  0.0608
  448TMC3     H 6731   1.743   1.727  17.717  0.3840  0.7618  0.4206
  448TMC3    H1 6732   1.704   1.793   0.391  4.0105 -2.6313  2.0742
  448TMC3    H2 6733   1.553   1.431   0.205 -0.3878 -0.1468  1.5399
  448TMC3    C7 6734   1.587   1.567   0.439  0.6510  0.3965  0.5750
  448TMC3    C8 6735   1.641   1.466  17.718 -0.4646  0.0362 -1.0114
  448TMC3    O1 6736   1.642   1.613   0.539 -0.1164 -0.2499 -0.6757
  448TMC3    O2 6737   1.615   1.351  17.735  0.3883 -0.4646  0.8931
  449MPD2     C 6738   1.808   0.097  14.174  0.2117  0.9176 -0.1982
  449MPD2    C1 6739   1.704   0.171  14.137  0.0574  0.9071 -0.4913
  449MPD2    C2 6740   1.579   0.124  14.150  0.4100 -0.1610  0.3258
  449MPD2    C3 6741   1.556   4.732  14.192  0.1309  0.4633  0.1255
  449MPD2    C4 6742   1.667   4.660  14.229 -0.7051  0.2934  0.2404
  449MPD2    C5 6743   1.791   4.706  14.216 -0.2155 -0.1931  0.2730
  449MPD2     H 6744   1.494   0.177  14.108 -0.9093 -0.9622  2.0192
  449MPD2    H1 6745   1.656   4.556  14.259  0.4227  0.0470 -0.1784
  449MPD2    H2 6746   1.907   0.139  14.162  1.1454 -1.8283 -2.0237
  449MPD2    H3 6747   1.871   4.633  14.222  0.5142  0.7254  1.4988
  449MPD2     N 6748   1.425   4.685  14.189  0.2502 -0.3655  0.6134
  449MPD2    H5 6749   1.352   0.014  14.166  1.3109  0.3496 -0.6821
  449MPD2    N1 6750   1.707   0.296  14.075 -0.2535 -0.6874  0.1945
  449MPD2    H7 6751   1.624   0.354  14.076  0.3822  0.2197  1.4814
  450TMC3    C1 6752   1.772   0.487  13.960  0.1883 -0.3807  0.0068
  450TMC3    C2 6753   1.802   0.509  13.830  0.1305  1.0111  0.4479
  450TMC3    C3 6754   1.702   0.545  13.749 -0.2310  0.2303  0.0144
  450TMC3    C4 6755   1.654   0.527  14.015  0.6046  0.2010 -0.1796
  450TMC3    C5 6756   1.558   0.566  13.931 -0.1369  0.1908  0.4899
  450TMC3    C6 6757   1.581   0.580  13.795 -0.9699  0.6111 -0.0976
  450TMC3     C 6758   1.816   0.363  14.022  0.0523 -0.3779 -0.3420
  450TMC3     O 6759   1.912   0.299  13.981 -0.1386  0.4884 -0.3253
  450TMC3     H 6760   1.894   0.468  13.790 -0.0279  1.6328 -0.5634
  450TMC3    H1 6761   1.645   0.510  14.122 -0.9314 -2.5536 -0.7401
  450TMC3    H2 6762   1.507   0.622  13.729 -2.6926 -0.3027  1.2590
  450TMC3    C7 6763   1.427   0.510  13.968 -0.5588  0.4328  0.2670
  450TMC3    C8 6764   1.730   0.560  13.604 -0.3412  0.7486  0.3273
  450TMC3    O1 6765   1.432   0.429  14.060 -0.4176 -0.4049  0.2139
  450TMC3    O2 6766   1.630   0.552  13.528  0.4312 -0.2105  0.8592
  451MPD2     C 6767   3.179   3.337   1.300 -0.3578 -0.2923  0.5913
  451MPD2    C1 6768   3.208   3.405   1.179 -0.1986  0.2332  0.1242
  451MPD2    C2 6769   3.304   3.352   1.092 -0.0107 -0.3188  0.3433
  451MPD2    C3 6770   3.374   3.235   1.129  0.1740  0.7039  0.5142
  451MPD2    C4 6771   3.335   3.168   1.245 -0.3780  0.0882 -0.3400
  451MPD2    C5 6772   3.234   3.215   1.323 -0.5261 -0.2386 -0.3467
  451MPD2     H 6773   3.332   3.409   1.004  2.2996 -0.8513  0.7198
  451MPD2    H1 6774   3.395   3.086   1.284  0.9606  1.1397 -0.1784
  451MPD2    H2 6775   3.101   3.369   1.368 -1.1093  1.6872 -1.1902
  451MPD2    H3 6776   3.207   3.169   1.418  1.7203  1.4198  1.1107
  451MPD2     N 6777   3.479   3.185   1.049  0.4532 -0.1853 -0.1563
  451MPD2    H5 6778   3.530   3.105   1.082  2.5400  0.7619 -1.0522
  451MPD2    N1 6779   3.147   3.532   1.161 -0.1821  0.0599  1.3624
  451MPD2    H7 6780   3.074   3.550   1.229 -1.4526 -2.6285  0.7154
  452TMC3    C1 6781   3.634   3.157   0.875  0.0445  0.1994  0.3781
  452TMC3    C2 6782   3.692   3.046   0.930  0.2196  0.1951  0.3297
  452TMC3    C3 6783   3.799   2.984   0.862  0.3815  0.4442  0.1237
  452TMC3    C4 6784   3.689   3.218   0.759 -0.1474  0.4407 -1.3639
  452TMC3    C5 6785   3.795   3.151   0.700 -0.4174  0.7105  0.4107
  452TMC3    C6 6786   3.854   3.040   0.751  0.1335 -0.2280  0.4064
  452TMC3     C 6787   3.527   3.232   0.931 -0.9240  0.5780  0.2234
  452TMC3     O 6788   3.477   3.320   0.860 -0.0513  0.1947  0.3172
  452TMC3     H 6789   3.650   3.001   1.019  1.5629 -1.5509  0.0873
  452TMC3    H1 6790   3.653   3.312   0.719  1.1107  0.7064 -1.8800
  452TMC3    H2 6791   3.943   2.995   0.708 -0.1833 -1.6051  1.1730
  452TMC3    C7 6792   3.850   3.225   0.588  0.0032 -0.5280  0.0150
  452TMC3    C8 6793   3.854   2.864   0.920  0.3716  0.3835 -0.7581
  452TMC3    O1 6794   3.765   3.279   0.519 -0.0258  0.5795  0.5663
  452TMC3    O2 6795   3.947   2.815   0.850  0.3489  0.2401  0.3162
  453TMC3    C1 6796   4.651   1.324  12.194  0.7454 -0.0854  1.0302
  453TMC3    C2 6797   4.545   1.246  12.223  0.0050  0.0249  0.0810
  453TMC3    C3 6798   4.441   1.253  12.138 -1.1156  0.5549 -1.0459
  453TMC3    C4 6799   4.649   1.421  12.093  0.3411 -0.2230  0.0564
  453TMC3    C5 6800   4.535   1.420  12.012  0.2743  0.2510 -0.1507
  453TMC3    C6 6801   4.426   1.339  12.039  0.6769 -0.2514 -0.0993
  453TMC3     C 6802   0.038   1.329  12.277 -0.1031 -0.1422 -0.3218
  453TMC3     O 6803   0.077   1.443  12.303  0.2446  0.0397 -0.2161
  453TMC3     H 6804   4.544   1.200  12.321  0.1201 -1.0963 -0.4444
  453TMC3    H1 6805   0.001   1.476  12.065 -0.8685  0.5723 -2.3190
  453TMC3    H2 6806   4.341   1.339  11.972 -0.3018  0.7752  1.1317
  453TMC3    C7 6807   4.547   1.451  11.871  0.2494 -0.0644  0.2155
  453TMC3    C8 6808   4.331   1.165  12.153  0.4953  0.0603 -0.4687
  453TMC3    O1 6809   4.464   1.404  11.790 -0.4683 -0.0523  0.3054
  453TMC3    O2 6810   4.223   1.200  12.111 -0.2767 -0.2168  0.1970
  454MPD2     C 6811   3.454   0.361  15.926 -0.3809  0.0513 -0.8257
  454MPD2    C1 6812   3.324   0.390  15.923 -0.0814 -0.0260 -0.1852
  454MPD2    C2 6813   3.277   0.487  16.006  0.0042 -0.2820 -0.0262
  454MPD2    C3 6814   3.350   0.537  16.117 -0.2896  0.2764  0.0750
  454MPD2    C4 6815   3.484   0.509  16.110  0.3683  0.5461 -0.5236
  454MPD2    C5 6816   3.533   0.416  16.022 -0.0679 -0.1207 -0.0352
  454MPD2     H 6817   3.170   0.506  16.007 -0.1591 -1.3570  1.9674
  454MPD2    H1 6818   3.558   0.550  16.178 -0.7850 -1.3701  1.8864
  454MPD2    H2 6819   3.504   0.298  15.853 -1.1873 -0.7397 -0.6945
  454MPD2    H3 6820   3.641   0.408  16.027  0.1667  1.1282 -3.4007
  454MPD2     N 6821   3.300   0.619  16.218  0.3129  0.9192 -0.7490
  454MPD2    H5 6822   3.363   0.656  16.289  0.7435 -1.6526  0.2144
  454MPD2    N1 6823   3.236   0.321  15.837 -0.3772 -0.1805 -0.1592
  454MPD2    H7 6824   3.266   0.227  15.812 -0.0305 -0.0888 -0.0861
  455TMC3    C1 6825   3.138   0.708  16.365  0.2433 -0.1654  0.3775
  455TMC3    C2 6826   3.216   0.689  16.475  0.7190  0.6322  0.2544
  455TMC3    C3 6827   3.159   0.720  16.594 -0.0444  0.5382 -0.4390
  455TMC3    C4 6828   3.006   0.749  16.370 -0.7800 -0.3355 -0.1413
  455TMC3    C5 6829   2.950   0.772  16.493 -0.1984 -0.1666 -0.3818
  455TMC3    C6 6830   3.026   0.757  16.606  0.0028  0.8150 -0.3351
  455TMC3     C 6831   3.170   0.656  16.231 -0.2753  0.1347  0.4234
  455TMC3     O 6832   3.077   0.630  16.163  0.4181  0.2703 -0.1562
  455TMC3     H 6833   3.311   0.638  16.477  0.5866  0.3925  0.4596
  455TMC3    H1 6834   2.956   0.782  16.280  2.0064 -0.0928 -1.6053
  455TMC3    H2 6835   2.978   0.750  16.703  0.0455 -0.0419 -0.3672
  455TMC3    C7 6836   2.814   0.743  16.514 -0.1937 -0.0663 -0.2134
  455TMC3    C8 6837   3.235   0.678  16.709 -0.4552  0.1354 -0.1425
  455TMC3    O1 6838   2.769   0.790  16.618  0.0475  0.3577 -0.0213
  455TMC3    O2 6839   3.345   0.630  16.691 -0.5208  0.5606 -0.1357
  456MPD2     C 6840   1.492   0.375  16.689 -0.4967  0.2944  0.0385
  456MPD2    C1 6841   1.523   0.308  16.810 -0.3595  0.6251 -0.0285
  456MPD2    C2 6842   1.497   0.375  16.932  0.7968 -0.0873 -0.6241
  456MPD2    C3 6843   1.466   0.506  16.932  0.3249  0.0079 -0.3175
  456MPD2    C4 6844   1.437   0.571  16.817  0.9286  0.4248  0.4762
  456MPD2    C5 6845   1.449   0.508  16.699 -0.7255 -0.6130  0.3138
  456MPD2     H 6846   1.538   0.333  17.023 -1.4181  0.1108  0.4659
  456MPD2    H1 6847   1.411   0.676  16.821 -1.4471 -0.0927 -1.5868
  456MPD2    H2 6848   1.508   0.320  16.597 -1.2013  0.1728 -0.0111
  456MPD2    H3 6849   1.410   0.558  16.611  2.7841  0.4595 -0.6354
  456MPD2     N 6850   1.473   0.571  17.060  0.5278  0.1447  0.0596
  456MPD2    H5 6851   1.474   0.512  17.142 -1.8031 -1.7562 -1.2804
  456MPD2    N1 6852   1.598   0.190  16.800  0.4347  0.2299  0.1308
  456MPD2    H7 6853   1.633   0.152  16.713  0.3280  0.8191 -0.1655
  457TMC3    C1 6854   1.478   0.752  17.214 -0.3329 -0.2975  0.0501
  457TMC3    C2 6855   1.533   0.875  17.237  0.1167  0.0149  0.3294
  457TMC3    C3 6856   1.562   0.910  17.363 -0.2122  0.9396  0.0731
  457TMC3    C4 6857   1.459   0.655  17.308 -0.0045  0.2824 -0.3476
  457TMC3    C5 6858   1.493   0.699  17.436 -0.6796 -0.5640 -0.2719
  457TMC3    C6 6859   1.538   0.825  17.467  0.8299  0.0863 -0.0463
  457TMC3     C 6860   1.478   0.707  17.076  0.0833 -0.1885  0.0172
  457TMC3     O 6861   1.488   0.794  16.991 -0.2760  0.3786  0.1432
  457TMC3     H 6862   1.559   0.934  17.150 -1.7083  1.5548  0.8185
  457TMC3    H1 6863   1.402   0.565  17.287  0.4478 -0.0510 -0.1253
  457TMC3    H2 6864   1.572   0.842  17.568 -1.8195 -0.4419  0.9378
  457TMC3    C7 6865   1.472   0.607  17.543  0.0916  0.1859 -0.0654
  457TMC3    C8 6866   1.584   1.046  17.404  0.5733 -0.0018 -0.5748
  457TMC3    O1 6867   1.491   0.486  17.531 -0.2515 -0.6205 -0.3838
  457TMC3    O2 6868   1.625   1.060  17.517  0.0363 -0.7871  0.2680
  458MPD2     C 6869   3.246   0.537  12.769  0.2305  0.5702 -0.1091
  458MPD2    C1 6870   3.259   0.409  12.825 -0.1792  0.4285  0.5445
  458MPD2    C2 6871   3.144   0.343  12.855  1.2646 -0.4443  0.0436
  458MPD2    C3 6872   3.020   0.406  12.852  0.5995 -0.1817  0.4028
  458MPD2    C4 6873   3.008   0.538  12.825 -0.4877  0.5307 -0.9988
  458MPD2    C5 6874   3.121   0.594  12.781 -0.3438  0.2472  0.9224
  458MPD2     H 6875   3.146   0.236  12.873  0.7784 -0.6851 -1.4158
  458MPD2    H1 6876   2.914   0.592  12.819 -0.3443  0.8411 -0.5597
  458MPD2    H2 6877   3.325   0.598  12.726  1.5368 -0.4063  0.9075
  458MPD2    H3 6878   3.114   0.697  12.750  2.9090 -0.9982 -4.1108
  458MPD2     N 6879   2.914   0.326  12.897  0.4363 -0.2917 -0.5475
  458MPD2    H5 6880   2.941   0.229  12.912  2.4944  0.6186  1.5671
  458MPD2    N1 6881   3.385   0.352  12.826  0.6392 -0.9340  0.6140
  458MPD2    H7 6882   3.458   0.414  12.793 -0.2556  0.1572  0.6702
  459TMC3    C1 6883   3.556   0.196  12.880 -0.1446 -0.0982  0.2695
  459TMC3    C2 6884   3.646   0.290  12.847  0.6799  0.3295  0.3428
  459TMC3    C3 6885   3.743   0.313  12.943 -0.6297  0.1525  0.8541
  459TMC3    C4 6886   3.583   0.108  12.981  0.7901  0.2707 -0.3876
  459TMC3    C5 6887   3.689   0.120  13.064 -0.7652 -0.0313 -0.3385
  459TMC3    C6 6888   3.766   0.232  13.050  0.3708  0.0310 -0.1171
  459TMC3     C 6889   3.412   0.223  12.870  0.7517 -0.6915 -0.2263
  459TMC3     O 6890   3.332   0.137  12.904 -0.0213 -0.3003 -0.3354
  459TMC3     H 6891   3.629   0.353  12.761  1.4714  0.1143  0.0232
  459TMC3    H1 6892   3.517   0.023  12.995 -0.2508  0.9598 -1.1005
  459TMC3    H2 6893   3.842   0.255  13.123 -0.8025  3.3044  0.0511
  459TMC3    C7 6894   3.689   0.042  13.185  0.1716  0.8239 -0.1939
  459TMC3    C8 6895   3.857   0.404  12.919 -0.0333 -0.4476 -0.2450
  459TMC3    O1 6896   3.594   4.708  13.218  0.1726  0.1069  0.0211
  459TMC3    O2 6897   3.961   0.385  12.989 -0.0728 -0.1310  0.5935
  460MPD2     C 6898   2.836   2.756  10.906 -0.0691  0.0594 -0.5869
  460MPD2    C1 6899   2.708   2.736  10.944  0.8608  0.4840 -0.1211
  460MPD2    C2 6900   2.605   2.790  10.872  1.2119  1.0396  0.0746
  460MPD2    C3 6901   2.637   2.854  10.752  0.4225 -0.4544  0.2224
  460MPD2    C4 6902   2.771   2.864  10.711  0.0668  0.2149  0.0720
  460MPD2    C5 6903   2.867   2.811  10.786  0.2791 -0.0350 -0.2537
  460MPD2     H 6904   2.502   2.776  10.904  1.2923 -2.0222 -0.9940
  460MPD2    H1 6905   2.801   2.913  10.619  0.7865 -2.8758 -1.3331
  460MPD2    H2 6906   2.905   2.723  10.983  1.6538 -0.1253 -2.2109
  460MPD2    H3 6907   2.969   2.846  10.777 -0.0276  0.7039 -0.9363
  460MPD2     N 6908   2.531   2.902  10.675 -0.0372  0.2401  0.1347
  460MPD2    H5 6909   2.436   2.884  10.707  0.5611 -1.2272  1.0693
  460MPD2    N1 6910   2.690   2.654  11.055  0.2354 -0.4926 -0.3146
  460MPD2    H7 6911   2.775   2.625  11.104  0.1745  0.3095  0.2841
  461TMC3    C1 6912   2.420   2.999  10.497  0.0457  0.2815  0.6058
  461TMC3    C2 6913   2.348   2.886  10.481 -0.0631  0.0143  0.2627
  461TMC3    C3 6914   2.258   2.874  10.387 -0.0007  0.6777  0.9307
  461TMC3    C4 6915   2.416   3.103  10.407  0.0365  0.3297  0.1053
  461TMC3    C5 6916   2.324   3.089  10.306  0.2814  0.1970  0.5365
  461TMC3    C6 6917   2.237   2.984  10.302 -0.2654  0.0631 -0.2092
  461TMC3     C 6918   2.539   2.991  10.573 -0.1562 -0.1875 -0.4052
  461TMC3     O 6919   2.636   3.026  10.510  0.2041 -0.7377 -0.2184
  461TMC3     H 6920   2.373   2.800  10.543 -1.0386 -1.1943 -1.0181
  461TMC3    H1 6921   2.503   3.169  10.404  0.2206  0.0464 -0.5724
  461TMC3    H2 6922   2.159   2.977  10.227 -2.2236 -1.0433  1.9193
  461TMC3    C7 6923   2.333   3.165  10.188  0.0212  0.2522 -0.6656
  461TMC3    C8 6924   2.157   2.777  10.399  0.1091 -0.3451  0.7719
  461TMC3    O1 6925   2.282   3.127  10.083 -0.3764 -0.0564  0.5647
  461TMC3    O2 6926   2.157   2.726  10.511 -0.0141 -0.2271 -0.4181
  462TMC3    C1 6927   2.837   3.201   0.006 -0.0522  0.1155 -0.3814
  462TMC3    C2 6928   2.763   3.108  17.686 -0.5714  0.6061 -0.2822
  462TMC3    C3 6929   2.776   2.976  17.722 -0.8757  0.4252 -0.3087
  462TMC3    C4 6930   2.928   3.163   0.107 -0.2514  0.6449  0.1575
  462TMC3    C5 6931   2.925   3.028   0.139 -0.0880  0.4347 -0.3300
  462TMC3    C6 6932   2.859   2.937   0.074 -0.5002 -0.0803 -0.4502
  462TMC3     C 6933   2.847   3.337  17.703 -0.4704  0.2836 -0.9120
  462TMC3     O 6934   2.956   3.392  17.724  0.1192  0.4045 -0.3013
  462TMC3     H 6935   2.695   3.132  17.606 -0.4944  2.5755  0.2308
  462TMC3    H1 6936   2.989   3.236   0.160  0.0324 -0.5426  1.4490
  462TMC3    H2 6937   2.851   2.833   0.105  1.1331  0.7037  2.5675
  462TMC3    C7 6938   3.003   2.973   0.253  0.1052  0.0892  0.0625
  462TMC3    C8 6939   2.717   2.871  17.635 -0.2495 -0.3482  0.1661
  462TMC3    O1 6940   2.989   2.850   0.273 -0.3041  0.0338  0.1667
  462TMC3    O2 6941   2.630   2.922  17.564 -0.1456 -0.3579 -0.5364
  463MPD2     C 6942   4.200   1.534   1.571  0.2477  0.2420 -0.2196
  463MPD2    C1 6943   4.151   1.661   1.559 -0.2913 -0.0940  0.1000
  463MPD2    C2 6944   4.200   1.754   1.645 -0.2724 -0.0124  0.3295
  463MPD2    C3 6945   4.293   1.735   1.748 -0.4396  0.3083 -0.4493
  463MPD2    C4 6946   4.334   1.603   1.759  0.2017 -0.1021  0.2725
  463MPD2    C5 6947   4.286   1.507   1.673  0.0305 -0.0804  0.5983
  463MPD2     H 6948   4.166   1.856   1.638 -0.2944  0.0630  1.5061
  463MPD2    H1 6949   4.397   1.572   1.841  0.5359 -0.7842 -0.2442
  463MPD2    H2 6950   4.166   1.456   1.504 -0.9110 -0.4652  1.1952
  463MPD2    H3 6951   4.311   1.402   1.684 -3.1980 -0.7704  1.2840
  463MPD2     N 6952   4.337   1.826   1.849  0.0624 -0.2707  0.4235
  463MPD2    H5 6953   4.411   1.795   1.911  0.2132  1.6698  1.2189
  463MPD2    N1 6954   4.045   1.706   1.476  0.2391  0.6546  0.1334
  463MPD2    H7 6955   4.016   1.799   1.502 -1.1093 -0.1992  1.7214
  464TMC3    C1 6956   3.887   1.695   1.303  0.2110 -0.6287  0.4377
  464TMC3    C2 6957   3.893   1.697   1.161 -0.5383  0.9114 -0.7605
  464TMC3    C3 6958   3.782   1.724   1.086 -0.0770 -0.0587 -0.1654
  464TMC3    C4 6959   3.768   1.720   1.370 -0.3117 -0.0145  0.0073
  464TMC3    C5 6960   3.657   1.732   1.293  0.7353  0.5412 -0.0761
  464TMC3    C6 6961   3.662   1.727   1.152  0.0856  0.6562  0.2567
  464TMC3     C 6962   4.002   1.637   1.370  1.1836 -0.1340 -0.3727
  464TMC3     O 6963   4.040   1.534   1.316 -0.1401  0.2234 -0.1200
  464TMC3     H 6964   3.990   1.681   1.115 -0.6988 -1.2033 -0.3799
  464TMC3    H1 6965   3.757   1.702   1.477 -0.6878 -3.8198 -0.6753
  464TMC3    H2 6966   3.570   1.737   1.095 -0.1854  0.4915  0.6621
  464TMC3    C7 6967   3.529   1.713   1.360 -0.2193  0.5599 -0.1825
  464TMC3    C8 6968   3.787   1.764   0.950 -0.4623  0.7299  0.1122
  464TMC3    O1 6969   3.521   1.764   1.468 -0.4352  0.8566  0.1371
  464TMC3    O2 6970   3.684   1.821   0.910  0.8857  0.7720  0.3530
  465MPD2     C 6971   0.484   0.314  16.793  0.6274  0.0143 -0.1736
  465MPD2    C1 6972   0.358   0.354  16.840 -0.6738  0.2148 -0.1424
  465MPD2    C2 6973   0.276   0.415  16.745  0.8658  0.4126  0.5524
  465MPD2    C3 6974   0.317   0.438  16.613 -0.3208  0.0027  0.0842
  465MPD2    C4 6975   0.444   0.403  16.570  0.3246 -0.3168 -0.7264
  465MPD2    C5 6976   0.524   0.339  16.660  0.1759 -0.5478 -0.1358
  465MPD2     H 6977   0.174   0.437  16.775  0.4616  1.7277 -1.7514
  465MPD2    H1 6978   0.482   0.432  16.473  0.4514  1.5329 -0.1342
  465MPD2    H2 6979   0.554   0.258  16.853 -0.8413  0.1430  1.6379
  465MPD2    H3 6980   0.627   0.311  16.641  0.3232 -0.6180  0.7546
  465MPD2     N 6981   0.220   0.509  16.534 -0.1722  0.2317 -0.2315
  465MPD2    H5 6982   0.130   0.520  16.580 -0.6019 -1.1455 -0.7503
  465MPD2    N1 6983   0.309   0.339  16.968 -0.5797  0.1826  0.6266
  465MPD2    H7 6984   0.211   0.361  16.985 -0.5836  1.1398 -0.6541
  466TMC3    C1 6985   4.622   0.589  16.309  0.3096 -0.3254 -0.4050
  466TMC3    C2 6986   4.638   0.714  16.240  0.0934  0.0024 -0.2008
  466TMC3    C3 6987   0.027   0.749  16.200  1.0396 -0.3122  0.5212
  466TMC3    C4 6988   4.731   0.532  16.357  0.0760 -0.3457  0.1340
  466TMC3    C5 6989   0.116   0.583  16.334 -0.0751 -1.1529 -0.6451
  466TMC3    C6 6990   0.134   0.686  16.251  0.1691 -0.1781 -0.7647
  466TMC3     C 6991   4.504   0.568  16.396 -0.2854 -0.2169  0.3579
  466TMC3     O 6992   4.500   0.467  16.468 -0.4525  0.4077  0.4717
  466TMC3     H 6993   4.560   0.758  16.179  1.5072  3.2254  0.3084
  466TMC3    H1 6994   4.723   0.453  16.430 -2.4827  0.0748  0.3104
  466TMC3    H2 6995   0.234   0.722  16.230  0.3253 -1.6740 -2.6417
  466TMC3    C7 6996   0.238   0.542  16.402 -0.7076  0.3691  0.2937
  466TMC3    C8 6997   0.043   0.883  16.164  0.8957  0.3149  0.5468
  466TMC3    O1 6998   0.344   0.561  16.349 -0.0163 -0.3462  0.3703
  466TMC3    O2 6999   0.143   0.920  16.104 -0.0991 -0.5551  0.4468
  467TMC3    C1 7000   1.036   4.031  13.989 -0.0913 -0.2846  0.0212
  467TMC3    C2 7001   0.971   4.007  13.873  0.5791  0.7849  0.2629
  467TMC3    C3 7002   0.836   4.012  13.871  0.4101  0.4461  0.6928
  467TMC3    C4 7003   0.971   4.042  14.107 -0.8401  0.4034 -0.1718
  467TMC3    C5 7004   0.834   4.034  14.109 -0.2680  0.5545  0.2730
  467TMC3    C6 7005   0.762   4.028  13.994 -0.3839 -0.0494  0.2100
  467TMC3     C 7006   1.181   4.033  13.984  0.4860 -0.0042 -0.8312
  467TMC3     O 7007   1.242   4.105  14.066 -0.3937 -0.0699 -0.3079
  467TMC3     H 7008   1.026   4.009  13.780  1.3058 -0.1365  0.6605
  467TMC3    H1 7009   1.027   4.051  14.199 -2.5837 -1.8219  1.0907
  467TMC3    H2 7010   0.661   3.989  14.002  0.1551 -0.6049  4.2393
  467TMC3    C7 7011   0.768   4.044  14.238  0.3390  0.1231  0.5720
  467TMC3    C8 7012   0.796   4.094  13.762  0.3339 -0.6772  0.1545
  467TMC3    O1 7013   0.846   4.015  14.326  0.0313 -0.0728 -0.3605
  467TMC3    O2 7014   0.763   4.210  13.798 -0.1908 -0.0089 -0.1951
  468MPD2     C 7015   3.853   2.698  10.485 -0.4457  0.2366 -0.4493
  468MPD2    C1 7016   3.916   2.681  10.609 -0.0989 -0.3412  0.1449
  468MPD2    C2 7017   3.941   2.551  10.649  0.8099  0.5122 -0.4842
  468MPD2    C3 7018   3.904   2.445  10.571  0.0296  0.5899  0.2676
  468MPD2    C4 7019   3.851   2.456  10.442 -0.1535  0.2226 -0.3254
  468MPD2    C5 7020   3.821   2.586  10.408 -0.2034 -0.3681 -1.0521
  468MPD2     H 7021   3.987   2.537  10.746 -2.2732  0.9985  1.0744
  468MPD2    H1 7022   3.825   2.371  10.381 -2.6502  1.4501 -0.9536
  468MPD2    H2 7023   3.826   2.795  10.445 -1.0228  0.6227  0.8767
  468MPD2    H3 7024   3.772   2.605  10.313 -3.2825  1.5642  0.9102
  468MPD2     N 7025   3.917   2.305  10.609 -0.2561  0.4406  0.7555
  468MPD2    H5 7026   3.887   2.236  10.540  0.5204  0.6574  0.2031
  468MPD2    N1 7027   3.959   2.793  10.685 -0.3497 -0.3037 -0.3707
  468MPD2    H7 7028   4.014   2.774  10.768 -0.7978  0.5717  0.1393
  469TMC3    C1 7029   4.010   3.011  10.750 -0.5768 -0.2572 -1.2178
  469TMC3    C2 7030   4.135   2.972  10.775 -1.0528 -0.0756  0.1361
  469TMC3    C3 7031   4.200   3.050  10.864 -0.1745  0.0629  0.5433
  469TMC3    C4 7032   3.952   3.134  10.787  0.1408 -0.4557  0.4265
  469TMC3    C5 7033   4.018   3.208  10.879  0.0571  1.0301 -0.0265
  469TMC3    C6 7034   4.139   3.163  10.921  0.9215  0.4048 -0.3470
  469TMC3     C 7035   3.927   2.921  10.665  0.0317 -0.4641 -0.3024
  469TMC3     O 7036   3.847   2.973  10.583 -0.1399 -0.3763  0.3718
  469TMC3     H 7037   4.194   2.894  10.727 -0.2284  1.1367 -0.8299
  469TMC3    H1 7038   3.851   3.143  10.749  0.2445  1.8554  0.6546
  469TMC3    H2 7039   4.201   3.221  10.989  0.0806  1.3631 -0.3949
  469TMC3    C7 7040   3.937   3.287  10.971 -0.9226  0.3313  0.1372
  469TMC3    C8 7041   4.340   3.013  10.888 -0.5955 -0.3573  0.0669
  469TMC3    O1 7042   3.828   3.312  10.921 -0.0455  0.8432  0.1825
  469TMC3    O2 7043   4.395   2.936  10.809 -0.0837 -0.2634  0.1016
  470TMC3    C1 7044   2.405   2.804   0.782  0.6782 -0.0163  0.4596
  470TMC3    C2 7045   2.300   2.885   0.741 -0.4585  0.4100 -0.0322
  470TMC3    C3 7046   2.285   3.010   0.793  0.1241  0.1031 -0.2782
  470TMC3    C4 7047   2.497   2.844   0.873 -0.5929 -0.5289  0.6546
  470TMC3    C5 7048   2.482   2.970   0.916 -0.3792  0.4663  0.1183
  470TMC3    C6 7049   2.375   3.052   0.881  0.0447  0.4199 -0.4497
  470TMC3     C 7050   2.419   2.680   0.713  0.4728 -0.7820  0.1310
  470TMC3     O 7051   2.314   2.628   0.673  0.4160 -0.3656 -0.4003
  470TMC3     H 7052   2.229   2.851   0.667 -0.0812 -2.9483  1.1597
  470TMC3    H1 7053   2.586   2.787   0.899  0.9060  1.7445  0.5450
  470TMC3    H2 7054   2.386   3.157   0.907  2.6629 -0.1270  0.6679
  470TMC3    C7 7055   2.554   3.010   1.037  0.8450 -0.1607  0.6722
  470TMC3    C8 7056   2.149   3.054   0.800 -0.0906  0.3384  0.2523
  470TMC3    O1 7057   2.491   3.065   1.126 -0.0680 -0.1919  0.2058
  470TMC3    O2 7058   2.064   2.995   0.744  0.3783  0.6254 -0.3365
  471MPD2     C 7059   2.673   4.630  16.591  0.4510  0.1390 -0.4113
  471MPD2    C1 7060   2.633   4.506  16.627  0.1658  0.2981  0.1357
  471MPD2    C2 7061   2.685   4.451  16.741  0.1711  0.0062  0.2564
  471MPD2    C3 7062   2.775   4.528  16.817 -0.3271 -0.4542 -0.4064
  471MPD2    C4 7063   2.802   4.656  16.785  0.1875 -0.2671  0.1369
  471MPD2    C5 7064   2.754   4.706  16.673  0.7152 -0.2731 -0.0039
  471MPD2     H 7065   2.658   4.356  16.785 -2.2836  0.0589 -1.1282
  471MPD2    H1 7066   2.869   4.713  16.849 -0.0322 -0.2014  0.3100
  471MPD2    H2 7067   2.641   4.672  16.496 -0.2173  0.6330  0.0303
  471MPD2    H3 7068   2.781   0.071  16.647 -2.3662  0.0752 -1.8292
  471MPD2     N 7069   2.836   4.464  16.932  0.4004 -0.3628  0.1324
  471MPD2    H5 7070   2.804   4.371  16.956  1.6353 -0.7064  0.4418
  471MPD2    N1 7071   2.544   4.430  16.540 -0.3678 -0.8408  0.0931
  471MPD2    H7 7072   2.531   4.333  16.567 -0.3895 -0.1498  2.6054
  472TMC3    C1 7073   2.444   4.366  16.353 -0.3935 -0.0154  0.5282
  472TMC3    C2 7074   2.343   4.387  16.255 -0.0325 -0.0219 -0.2066
  472TMC3    C3 7075   2.293   4.274  16.198 -0.0711  0.4459  1.2043
  472TMC3    C4 7076   2.492   4.242  16.386  0.9542 -0.0113 -0.1389
  472TMC3    C5 7077   2.439   4.131  16.321  0.3155  0.0089 -0.3045
  472TMC3    C6 7078   2.340   4.148  16.229  0.5868  0.1724 -0.1347
  472TMC3     C 7079   2.477   4.479  16.433 -0.6652  0.3694  0.2012
  472TMC3     O 7080   2.449   4.592  16.400 -0.3539  0.4401  0.3262
  472TMC3     H 7081   2.308   4.488  16.241  1.8744  0.7239  0.3762
  472TMC3    H1 7082   2.570   4.217  16.456  0.8953 -1.3270 -0.5303
  472TMC3    H2 7083   2.303   4.059  16.180  2.1251  0.3164 -1.5522
  472TMC3    C7 7084   2.457   4.004  16.396 -0.1865 -0.5043 -0.1571
  472TMC3    C8 7085   2.154   4.254  16.163  0.1717  0.0954  0.1843
  472TMC3    O1 7086   2.536   4.004  16.488  0.9866  0.0953 -0.1432
  472TMC3    O2 7087   2.098   4.313  16.071  0.6563  0.0814 -0.1705
  473MPD2     C 7088   2.585   2.118  13.606 -0.9034 -0.1394 -0.9005
  473MPD2    C1 7089   2.492   2.078  13.696  0.1559  0.4173 -0.4693
  473MPD2    C2 7090   2.528   2.092  13.830 -0.2949 -0.5341  0.1241
  473MPD2    C3 7091   2.656   2.149  13.861 -0.0515  0.7461 -0.0321
  473MPD2    C4 7092   2.747   2.184  13.768  0.4883 -0.4323  0.6770
  473MPD2    C5 7093   2.713   2.162  13.641  0.1047 -0.3588  0.3028
  473MPD2     H 7094   2.461   2.065  13.911 -1.2398  0.3480 -0.3633
  473MPD2    H1 7095   2.844   2.221  13.800  0.5748  1.0956 -1.3881
  473MPD2    H2 7096   2.561   2.099  13.502 -2.8676 -2.6970  0.0201
  473MPD2    H3 7097   2.783   2.205  13.571 -0.9884  1.2922  0.2347
  473MPD2     N 7098   2.699   2.188  13.988 -0.1741 -0.2817 -0.4391
  473MPD2    H5 7099   2.793   2.226  13.997  0.0078 -0.9478  0.5043
  473MPD2    N1 7100   2.362   2.030  13.665  0.3059  0.1613 -0.2006
  473MPD2    H7 7101   2.307   2.006  13.747 -2.3989 -0.4615 -2.1974
  474TMC3    C1 7102   2.676   2.239  14.221 -0.2037  0.7402  0.6180
  474TMC3    C2 7103   2.588   2.276  14.321 -0.2256 -0.8356  0.2779
  474TMC3    C3 7104   2.635   2.335  14.433 -0.4166 -0.0806 -0.4059
  474TMC3    C4 7105   2.806   2.278  14.232 -0.4307 -0.1671  0.5906
  474TMC3    C5 7106   2.843   2.342  14.343  0.3181 -0.1277 -0.0701
  474TMC3    C6 7107   2.766   2.363  14.455 -0.0907 -0.2392  0.1022
  474TMC3     C 7108   2.616   2.183  14.097 -0.0074  0.3594 -0.4045
  474TMC3     O 7109   2.503   2.146  14.106 -1.1969  0.0681  0.3613
  474TMC3     H 7110   2.481   2.264  14.311 -0.8302  4.1176  0.4513
  474TMC3    H1 7111   2.877   2.261  14.151 -2.3753 -1.3296 -0.8709
  474TMC3    H2 7112   2.789   2.406  14.552 -1.7130 -3.4577  1.9034
  474TMC3    C7 7113   2.988   2.365  14.356  0.2199  0.0995 -0.1110
  474TMC3    C8 7114   2.536   2.401  14.512 -0.0780  0.9557  0.0641
  474TMC3    O1 7115   3.059   2.341  14.260  0.3743  0.2716  0.1572
  474TMC3    O2 7116   2.426   2.346  14.510 -0.3798  0.3891  0.2048
  475MPD2     C 7117   0.089   0.323  11.498  0.2285  0.6129 -0.4010
  475MPD2    C1 7118   0.165   0.394  11.407 -0.4524 -0.3884  0.3945
  475MPD2    C2 7119   0.133   0.372  11.271 -0.5996 -0.1443  0.0093
  475MPD2    C3 7120   0.029   0.288  11.237 -0.5233  0.5189  0.4795
  475MPD2    C4 7121   4.701   0.211  11.336 -0.1964  0.6742  0.4235
  475MPD2    C5 7122   4.733   0.229  11.461  0.3719  0.2580  0.0564
  475MPD2     H 7123   0.183   0.429  11.194 -1.6606 -0.6854 -1.0701
  475MPD2    H1 7124   4.631   0.132  11.309 -0.1093  0.4918  0.7360
  475MPD2    H2 7125   0.100   0.332  11.605 -3.3580 -1.7221  0.1446
  475MPD2    H3 7126   4.679   0.165  11.530 -0.5558 -0.5947 -1.4695
  475MPD2     N 7127   4.728   0.288  11.099  0.3122  0.0525  0.5710
  475MPD2    H5 7128   0.035   0.362  11.045 -2.0066 -1.3310 -3.2562
  475MPD2    N1 7129   0.269   0.480  11.437  0.4868 -0.3106  0.1973
  475MPD2    H7 7130   0.301   0.528  11.353 -1.6321  0.3601 -0.2338
  476TMC3    C1 7131   0.427   0.591  11.557  0.5097 -0.0250 -0.4391
  476TMC3    C2 7132   0.507   0.589  11.446 -0.1684 -0.2350 -0.3688
  476TMC3    C3 7133   0.609   0.679  11.430 -0.2395  0.2591 -0.0047
  476TMC3    C4 7134   0.448   0.680  11.658  0.0194 -0.4101  0.5579
  476TMC3    C5 7135   0.551   0.777  11.639  0.1816  0.0540  0.3349
  476TMC3    C6 7136   0.633   0.771  11.529  0.0312  0.4208 -0.0917
  476TMC3     C 7137   0.317   0.502  11.565 -0.4443  0.2651  0.0878
  476TMC3     O 7138   0.276   0.456  11.667 -0.0706 -0.4892  0.0832
  476TMC3     H 7139   0.497   0.504  11.379  3.3567  0.6642 -2.0046
  476TMC3    H1 7140   0.395   0.680  11.753  1.8266 -0.4670  1.5528
  476TMC3    H2 7141   0.710   0.845  11.512 -1.9137  2.1331 -1.4703
  476TMC3    C7 7142   0.618   0.828  11.758  0.2319  0.7287 -0.0188
  476TMC3    C8 7143   0.694   0.692  11.315 -0.1553 -0.9217  0.2096
  476TMC3    O1 7144   0.691   0.756  11.825 -0.4993  1.0187 -0.5736
  476TMC3    O2 7145   0.796   0.757  11.327 -0.1179 -0.4350  0.0186
  477MPD2     C 7146   3.215   1.852  11.867  0.1067  0.2893  0.1009
  477MPD2    C1 7147   3.095   1.803  11.913  0.9374 -0.0467  0.8887
  477MPD2    C2 7148   3.086   1.743  12.032  0.0730  0.2359  0.4334
  477MPD2    C3 7149   3.198   1.736  12.112  0.2080  0.0885 -0.1262
  477MPD2    C4 7150   3.317   1.784  12.073 -0.2014 -0.1230 -0.4165
  477MPD2    C5 7151   3.324   1.842  11.953  0.4109  0.2124 -0.0746
  477MPD2     H 7152   2.995   1.693  12.062 -0.8663  2.7594  1.7523
  477MPD2    H1 7153   3.410   1.777  12.129 -0.4253 -1.7320 -0.2227
  477MPD2    H2 7154   3.235   1.904  11.774  1.7149  1.3896  1.0539
  477MPD2    H3 7155   3.415   1.891  11.924 -0.8777  1.9318 -1.1907
  477MPD2     N 7156   3.186   1.668  12.232 -0.3483 -0.6552 -0.6546
  477MPD2    H5 7157   3.100   1.616  12.249  0.4717 -1.4340  1.1711
  477MPD2    N1 7158   2.982   1.810  11.831 -0.5792 -0.1159 -0.2210
  477MPD2    H7 7159   2.896   1.788  11.879 -0.5437 -0.8104 -0.4851
  478TMC3    C1 7160   2.850   1.840  11.632 -0.1730 -0.5846  0.3354
  478TMC3    C2 7161   2.744   1.892  11.706  0.2980 -0.2254  0.1412
  478TMC3    C3 7162   2.630   1.914  11.632  0.2152 -0.8915 -0.2722
  478TMC3    C4 7163   2.841   1.826  11.495  0.2589  1.1668 -0.6284
  478TMC3    C5 7164   2.721   1.845  11.433  0.2678  0.0223  1.1207
  478TMC3    C6 7165   2.608   1.879  11.497 -0.6036  0.5153  0.0395
  478TMC3     C 7166   2.981   1.828  11.695 -0.1996 -0.4079 -0.3234
  478TMC3     O 7167   3.074   1.846  11.623  0.0553 -0.4311 -0.1892
  478TMC3     H 7168   2.743   1.908  11.813 -2.6550 -3.0003  0.5538
  478TMC3    H1 7169   2.927   1.795  11.437  0.3461 -0.4026  0.3369
  478TMC3    H2 7170   2.514   1.893  11.445  0.3167  2.3750 -1.1212
  478TMC3    C7 7171   2.721   1.815  11.286  0.2094 -0.2086  0.6843
  478TMC3    C8 7172   2.522   1.973  11.708 -0.1459  0.6027 -0.2649
  478TMC3    O1 7173   2.779   1.712  11.257  0.1175 -0.4561  0.6507
  478TMC3    O2 7174   2.522   1.938  11.827 -0.1262  0.2972 -0.3716
  479MPD2     C 7175   2.123   4.011  15.217  0.1049  0.3228  0.3842
  479MPD2    C1 7176   2.076   3.905  15.298 -0.3604  0.0012  0.1545
  479MPD2    C2 7177   2.092   3.915  15.436 -0.5295  0.3103 -0.1602
  479MPD2    C3 7178   2.154   4.027  15.490  0.8720  0.3424 -0.5047
  479MPD2    C4 7179   2.209   4.120  15.403 -0.9797  0.5498 -0.4139
  479MPD2    C5 7180   2.206   4.106  15.266 -0.0768  0.0798 -0.1609
  479MPD2     H 7181   2.062   3.832  15.499 -0.7803 -0.9565 -1.9562
  479MPD2    H1 7182   2.253   4.212  15.439 -0.0520 -0.4067  0.8967
  479MPD2    H2 7183   2.100   4.001  15.112  0.6169 -0.4229  0.3466
  479MPD2    H3 7184   2.248   4.186  15.206 -0.6595  0.7055  0.2597
  479MPD2     N 7185   2.162   4.052  15.627 -0.0242 -0.3363  0.1423
  479MPD2    H5 7186   2.239   4.113  15.654  0.5335 -0.4827 -1.0826
  479MPD2    N1 7187   1.993   3.807  15.232 -0.3019  0.3802 -0.1273
  479MPD2    H7 7188   1.978   3.827  15.133  0.7374 -2.6416 -0.9043
  480TMC3    C1 7189   1.800   3.801  15.793 -0.2637 -0.8988  0.1184
  480TMC3    C2 7190   1.713   3.838  15.692 -0.3569  0.0437 -1.1963
  480TMC3    C3 7191   1.762   3.934  15.604  0.5018  0.1285 -0.2506
  480TMC3    C4 7192   1.928   3.852  15.804 -0.0283  0.4387 -0.0021
  480TMC3    C5 7193   1.975   3.943  15.709  0.5778 -0.1840 -0.0833
  480TMC3    C6 7194   1.885   3.995  15.622  0.1716  0.6853 -0.0988
  480TMC3     C 7195   1.778   3.688  15.876 -0.3390  0.3766 -0.0191
  480TMC3     O 7196   1.873   3.639  15.936 -0.8164 -0.2520 -0.5292
  480TMC3     H 7197   1.620   3.784  15.675  0.3389 -1.9790  1.4039
  480TMC3    H1 7198   1.998   3.801  15.869 -0.5502 -0.4329 -0.1346
  480TMC3    H2 7199   1.916   4.087  15.575 -2.6663  1.5697 -0.2648
  480TMC3    C7 7200   2.097   4.003  15.738  0.3348  0.1464  0.4359
  480TMC3    C8 7201   1.695   3.945  15.473 -0.0487 -0.0757 -0.7495
  480TMC3    O1 7202   2.125   4.017  15.855 -0.5986  0.4510 -0.0412
  480TMC3    O2 7203   1.610   3.861  15.451 -0.5795  0.1136  0.1534
  481MPD2     C 7204   3.952   3.403  13.704 -0.7789  0.0052  0.1448
  481MPD2    C1 7205   3.840   3.347  13.754  0.5252  0.1457  0.1597
  481MPD2    C2 7206   3.835   3.317  13.883  0.5940 -0.4725  0.1497
  481MPD2    C3 7207   3.927   3.370  13.969 -0.2951 -0.3712 -0.6247
  481MPD2    C4 7208   4.032   3.436  13.922  0.3011 -0.4314 -0.2083
  481MPD2    C5 7209   4.049   3.448  13.786  0.4231 -0.6562  0.7352
  481MPD2     H 7210   3.751   3.260  13.921 -0.2478 -1.2390 -2.8940
  481MPD2    H1 7211   4.109   3.475  13.987  1.0069  1.7464 -2.3276
  481MPD2    H2 7212   3.959   3.418  13.597  2.0607 -0.2652  0.2849
  481MPD2    H3 7213   4.140   3.494  13.750  0.3193  0.2406  1.6217
  481MPD2     N 7214   3.923   3.354  14.114  0.2906  0.1071 -0.1341
  481MPD2    H5 7215   3.998   3.401  14.164  0.7466  0.6861 -1.3666
  481MPD2    N1 7216   3.745   3.306  13.651 -0.0697  0.1134  0.1184
  481MPD2    H7 7217   3.774   3.324  13.555 -0.4631  1.4008  0.2397
  482TMC3    C1 7218   3.528   3.240  13.558  0.2680 -1.1850 -0.6591
  482TMC3    C2 7219   3.396   3.206  13.584  0.4872 -0.1340  0.2926
  482TMC3    C3 7220   3.305   3.264  13.507 -0.0208 -0.6443  0.4553
  482TMC3    C4 7221   3.558   3.316  13.445  0.3165 -0.2470 -0.2780
  482TMC3    C5 7222   3.462   3.356  13.352 -0.5753 -0.1812  0.9105
  482TMC3    C6 7223   3.333   3.326  13.383 -0.7702  0.2206 -0.6774
  482TMC3     C 7224   3.625   3.245  13.675  0.1936  0.8148  0.1960
  482TMC3     O 7225   3.584   3.200  13.782 -0.1765  0.0115 -1.0556
  482TMC3     H 7226   3.370   3.163  13.681 -0.1050  1.0406  0.6515
  482TMC3    H1 7227   3.655   3.361  13.428  0.3616 -0.3956 -0.4078
  482TMC3    H2 7228   3.253   3.354  13.315 -1.9284  0.0319  0.6162
  482TMC3    C7 7229   3.503   3.380  13.216 -0.4405  0.1134  0.8317
  482TMC3    C8 7230   3.165   3.222  13.543  0.0387 -0.1347 -0.0570
  482TMC3    O1 7231   3.617   3.409  13.200  0.8149 -0.1080  0.1518
  482TMC3    O2 7232   3.150   3.152  13.642  0.4377 -0.2938 -0.1863
  483TMC3    C1 7233   2.010   2.097   0.733  0.2190 -0.8237 -0.0201
  483TMC3    C2 7234   2.060   2.229   0.742 -0.3387 -1.1246 -0.0613
  483TMC3    C3 7235   2.074   2.288   0.860  0.6044  0.2670  0.2703
  483TMC3    C4 7236   1.953   2.036   0.836 -0.6152  0.2966  0.0597
  483TMC3    C5 7237   1.966   2.104   0.959  0.2196  1.1562  0.4175
  483TMC3    C6 7238   2.014   2.233   0.969 -0.4143  0.3033  0.2805
  483TMC3     C 7239   2.054   2.015   0.626 -0.7488  0.2373  0.0497
  483TMC3     O 7240   2.144   2.059   0.563 -0.1523  0.0739  0.2050
  483TMC3     H 7241   2.119   2.270   0.660 -0.7875  2.1561  1.2754
  483TMC3    H1 7242   1.902   1.941   0.832  1.3165 -0.7373 -0.1873
  483TMC3    H2 7243   2.034   2.274   1.067  0.6390 -1.5550  0.8456
  483TMC3    C7 7244   1.966   2.011   1.070  0.4937 -0.3026 -0.4724
  483TMC3    C8 7245   2.210   2.323   0.887  0.3182 -0.5525 -0.5647
  483TMC3    O1 7246   1.991   1.892   1.054 -0.2070 -0.0143  0.9055
  483TMC3    O2 7247   2.288   2.241   0.841 -0.1083 -0.3175 -0.6313
  484MPD2     C 7248   3.888   0.646  12.645  0.0298 -0.4576 -0.3778
  484MPD2    C1 7249   3.938   0.557  12.744 -0.0589 -0.0122  0.8065
  484MPD2    C2 7250   4.076   0.552  12.767 -0.0985 -0.3044 -0.4142
  484MPD2    C3 7251   4.165   0.637  12.701 -0.6862 -0.1932  0.1921
  484MPD2    C4 7252   4.116   0.711  12.594 -0.1345  0.6497  0.3384
  484MPD2    C5 7253   3.982   0.718  12.576 -0.5767  0.5479  0.2958
  484MPD2     H 7254   4.112   0.486  12.845  2.4591  1.2264 -0.3218
  484MPD2    H1 7255   4.173   0.779  12.531  0.1075 -0.6675 -0.8789
  484MPD2    H2 7256   3.782   0.652  12.622 -0.6942  1.0358  3.3985
  484MPD2    H3 7257   3.943   0.780  12.496  1.8689  1.4164 -0.1948
  484MPD2     N 7258   4.307   0.648  12.720  0.0511 -0.1693 -0.1631
  484MPD2    H5 7259   4.350   0.726  12.672  0.0494  1.7256  2.9011
  484MPD2    N1 7260   3.842   0.472  12.803  0.0434  0.2171  0.8970
  484MPD2    H7 7261   3.750   0.478  12.760 -0.9613  0.6265  3.0795
  485TMC3    C1 7262   4.514   0.590  12.837 -0.3564 -0.4871 -0.4549
  485TMC3    C2 7263   4.565   0.520  12.942  0.0499  0.3196  1.1821
  485TMC3    C3 7264   4.703   0.520  12.964  0.1782  0.3711 -0.4316
  485TMC3    C4 7265   4.605   0.660  12.760  0.4655 -0.0636 -0.3945
  485TMC3    C5 7266   0.001   0.669  12.789  0.2142  0.5173 -0.1309
  485TMC3    C6 7267   0.050   0.599  12.896  0.3801 -0.1140  0.2715
  485TMC3     C 7268   4.374   0.553  12.797 -0.0682  0.6932 -0.4391
  485TMC3     O 7269   4.336   0.449  12.843 -0.0581  0.3820 -0.6090
  485TMC3     H 7270   4.496   0.455  12.995 -1.0159  1.7063  1.4863
  485TMC3    H1 7271   4.573   0.719  12.674  0.3380  0.0648 -0.2600
  485TMC3    H2 7272   0.156   0.602  12.920  0.1645 -1.5611  1.4309
  485TMC3    C7 7273   0.094   0.673  12.677 -0.3642  0.1966 -0.1362
  485TMC3    C8 7274   0.028   0.390  12.983 -0.4555  0.1683 -0.0147
  485TMC3    O1 7275   0.087   0.762  12.592  1.0065 -0.4587  0.5186
  485TMC3    O2 7276   0.136   0.377  12.921  0.2811  0.3909  0.3738
  486MPD2     C 7277   1.916   3.766  13.057 -1.0985  0.2104  0.2704
  486MPD2    C1 7278   1.813   3.752  12.962  0.1252 -0.2754 -0.0177
  486MPD2    C2 7279   1.755   3.870  12.921 -0.3389 -0.3753  0.1724
  486MPD2    C3 7280   1.782   3.996  12.975 -0.7819  0.0594  0.6143
  486MPD2    C4 7281   1.886   4.005  13.064 -0.0174  0.2427  0.0432
  486MPD2    C5 7282   1.947   3.891  13.105  0.4725  0.5235 -0.3105
  486MPD2     H 7283   1.670   3.878  12.855 -1.1905  0.4327  1.3677
  486MPD2    H1 7284   1.921   4.100  13.104  0.4154  0.6423 -1.2930
  486MPD2    H2 7285   1.979   3.691  13.103 -1.1739  1.2306  2.0584
  486MPD2    H3 7286   2.024   3.895  13.180 -0.1848 -2.5095  0.4888
  486MPD2     N 7287   1.715   4.108  12.918  0.4029 -0.1153  0.1966
  486MPD2    H5 7288   1.647   4.094  12.844 -0.7136  1.0091  1.0222
  486MPD2    N1 7289   1.778   3.622  12.928 -0.7012  0.2267 -0.2257
  486MPD2    H7 7290   1.830   3.549  12.976 -1.0622 -0.3778 -0.7457
  487TMC3    C1 7291   1.655   3.428  12.835 -0.3897 -0.2746  0.8042
  487TMC3    C2 7292   1.537   3.381  12.775  0.3341 -0.4031 -0.1886
  487TMC3    C3 7293   1.513   3.245  12.765 -0.3014 -0.6467  0.5715
  487TMC3    C4 7294   1.739   3.340  12.893  0.0529 -0.5631 -0.0603
  487TMC3    C5 7295   1.694   3.206  12.901  0.5293 -0.5061  0.8985
  487TMC3    C6 7296   1.595   3.156  12.820 -0.0905  0.5968  0.0861
  487TMC3     C 7297   1.674   3.574  12.848 -0.3320 -0.0464 -0.4956
  487TMC3     O 7298   1.599   3.652  12.798 -0.2731 -0.2754  0.2759
  487TMC3     H 7299   1.469   3.453  12.732  0.0516 -0.8888 -0.5580
  487TMC3    H1 7300   1.830   3.365  12.947  0.7788  0.8094 -1.9133
  487TMC3    H2 7301   1.550   3.060  12.840  3.2036 -0.9628  0.1467
  487TMC3    C7 7302   1.691   3.173  13.041 -0.2542 -0.2538 -0.3290
  487TMC3    C8 7303   1.380   3.206  12.782 -0.1448 -0.4053  0.5565
  487TMC3    O1 7304   1.779   3.218  13.117 -0.5975  0.0159 -0.0918
  487TMC3    O2 7305   1.352   3.096  12.741  0.1507 -0.0428  0.2154
  488MPD2     C 7306   1.831   0.888  16.221  0.3692 -0.3029  0.0800
  488MPD2    C1 7307   1.856   0.990  16.316  0.3247 -0.1339  0.2729
  488MPD2    C2 7308   1.823   0.954  16.447 -0.3508  0.0741 -0.6516
  488MPD2    C3 7309   1.781   0.828  16.490 -0.2332  1.0818  0.1101
  488MPD2    C4 7310   1.764   0.728  16.397 -0.7395 -0.0541 -0.4541
  488MPD2    C5 7311   1.791   0.766  16.269 -0.8243  0.6647 -0.7061
  488MPD2     H 7312   1.845   1.029  16.523 -0.5403 -1.4170  0.8830
  488MPD2    H1 7313   1.729   0.629  16.421  1.0803 -0.5040  0.3459
  488MPD2    H2 7314   1.830   0.909  16.115  2.8096 -0.4023  0.0487
  488MPD2    H3 7315   1.775   0.684  16.200 -2.9842  0.7587 -0.3121
  488MPD2     N 7316   1.774   0.806  16.630  0.2615  0.3516  0.1491
  488MPD2    H5 7317   1.798   0.885  16.688  0.5503 -0.9113  1.7629
  488MPD2    N1 7318   1.914   1.121  16.289  0.2068  0.1613  0.2735
  488MPD2    H7 7319   1.912   1.193  16.360 -0.0157 -0.5630  1.0088
  489TMC3    C1 7320   1.774   0.689  16.840 -0.2724  0.0398  0.1822
  489TMC3    C2 7321   1.789   0.812  16.900 -0.0396 -0.4638  0.0295
  489TMC3    C3 7322   1.821   0.820  17.036  0.0485 -0.0508  0.0236
  489TMC3    C4 7323   1.795   0.579  16.911  0.1433  0.0743 -0.2672
  489TMC3    C5 7324   1.817   0.588  17.046  0.2417 -0.7770  0.2905
  489TMC3    C6 7325   1.833   0.708  17.112  0.2301  0.4657 -0.7133
  489TMC3     C 7326   1.764   0.675  16.695 -0.2666  0.2952 -0.3342
  489TMC3     O 7327   1.764   0.564  16.646  0.2574 -0.0273 -0.0617
  489TMC3     H 7328   1.788   0.906  16.846 -0.5158 -0.7361 -0.4356
  489TMC3    H1 7329   1.792   0.484  16.859  2.3162  0.6835 -1.5301
  489TMC3    H2 7330   1.838   0.717  17.220  0.2000 -1.4871 -0.5421
  489TMC3    C7 7331   1.837   0.453  17.114 -0.4880 -0.3672 -0.4838
  489TMC3    C8 7332   1.850   0.949  17.091 -0.1421 -0.6521  0.9084
  489TMC3    O1 7333   1.852   0.358  17.038 -0.5834 -0.0847 -0.0307
  489TMC3    O2 7334   1.817   1.044  17.023  0.3615 -0.2793  0.0064
  490MPD2     C 7335   2.387   4.669  17.586 -0.1746  0.1426  0.2012
  490MPD2    C1 7336   2.358   4.628  17.718  0.2509 -0.2687  0.4837
  490MPD2    C2 7337   2.447   4.676   0.072 -0.3767 -0.4136 -0.0640
  490MPD2    C3 7338   2.555   0.019   0.034  0.0926  0.4226  0.1747
  490MPD2    C4 7339   2.576   0.065  17.652 -0.4624 -0.0032  0.2485
  490MPD2    C5 7340   2.491   0.016  17.555  0.1341 -0.2857  0.3606
  490MPD2     H 7341   2.440   4.636   0.172 -0.6508 -0.9763 -0.3058
  490MPD2    H1 7342   2.658   0.128  17.622  0.4993 -1.5306 -0.3720
  490MPD2    H2 7343   2.324   4.636  17.504 -0.8647 -3.2937  2.1319
  490MPD2    H3 7344   2.503   0.046  17.452  0.6096 -0.6772  0.3014
  490MPD2     N 7345   2.658   0.058   0.120  0.0470 -0.2905  0.0319
  490MPD2    H5 7346   2.737   0.110   0.083 -1.6358  1.3452 -1.2345
  490MPD2    N1 7347   2.248   4.544   0.008 -0.2196 -0.2301  0.1895
  490MPD2    H7 7348   2.253   4.496   0.098  1.6597  0.3018  0.3819
  491TMC3    C1 7349   2.102   4.378  17.674  0.4449  0.2203 -0.5448
  491TMC3    C2 7350   2.171   4.279  17.729  0.9069 -0.2662 -0.0655
  491TMC3    C3 7351   2.132   4.152  17.727  0.2279 -0.1284 -0.8824
  491TMC3    C4 7352   1.983   4.350  17.613  0.2640 -0.1992  0.5895
  491TMC3    C5 7353   1.957   4.213  17.598  0.3020  0.6503 -0.4122
  491TMC3    C6 7354   2.025   4.109  17.662  0.3056 -0.4463 -0.7695
  491TMC3     C 7355   2.141   4.518  17.669  0.2657  0.4669  0.9497
  491TMC3     O 7356   2.102   4.587  17.576  0.1498 -0.5446 -0.0544
  491TMC3     H 7357   2.256   4.303   0.046  0.3600 -0.3627  0.7059
  491TMC3    H1 7358   1.924   4.436  17.584 -1.0512 -1.3263 -0.0462
  491TMC3    H2 7359   1.991   4.007  17.653  0.5409 -0.6651  0.8294
  491TMC3    C7 7360   1.859   4.170  17.497  0.1223  0.0808 -0.2420
  491TMC3    C8 7361   2.164   4.075   0.099 -0.1465 -0.0124 -0.5018
  491TMC3    O1 7362   1.838   4.053  17.482  0.1980 -0.2694  0.4565
  491TMC3    O2 7363   2.190   4.136   0.201  0.0385  0.1682  0.1892
  492MPD2     C 7364   2.894   0.333  10.938 -0.6207  0.2889  0.6604
  492MPD2    C1 7365   2.757   0.332  10.908 -0.3883 -0.4145  0.7368
  492MPD2    C2 7366   2.675   0.335  11.010 -0.5458 -0.1906 -0.4563
  492MPD2    C3 7367   2.713   0.361  11.138 -0.3637  1.1639 -0.2326
  492MPD2    C4 7368   2.846   0.379  11.160 -0.2643 -0.0556  0.0832
  492MPD2    C5 7369   2.938   0.364  11.063  0.6391  0.5168  0.3281
  492MPD2     H 7370   2.572   0.326  10.979 -1.1727  0.0663  1.5610
  492MPD2    H1 7371   2.883   0.404  11.259 -1.3018 -1.8078  0.9058
  492MPD2    H2 7372   2.969   0.318  10.861 -0.4288  0.6103  0.7829
  492MPD2    H3 7373   3.042   0.367  11.093  1.1272 -0.1513 -1.2871
  492MPD2     N 7374   2.615   0.357  11.241 -0.2996  0.9741  0.2458
  492MPD2    H5 7375   2.649   0.373  11.335 -3.3826 -0.2062  1.5627
  492MPD2    N1 7376   2.718   0.333  10.771 -0.3360  0.1024 -1.2434
  492MPD2    H7 7377   2.800   0.341  10.711 -0.0007  1.9400 -0.5413
  493TMC3    C1 7378   2.611   0.305  10.564  0.3941  0.3256  0.2494
  493TMC3    C2 7379   2.631   0.426  10.505  0.6434  0.4206  0.5190
  493TMC3    C3 7380   2.566   0.459  10.386  0.8450 -0.0980 -0.1314
  493TMC3    C4 7381   2.526   0.215  10.508 -0.1739 -0.3758 -0.1591
  493TMC3    C5 7382   2.464   0.241  10.394  0.4031  0.1806 -0.1767
  493TMC3    C6 7383   2.472   0.372  10.341  0.1105  0.2542 -0.4810
  493TMC3     C 7384   2.602   0.299  10.709  0.3348  0.2385 -0.0717
  493TMC3     O 7385   2.495   0.276  10.768  0.0259 -0.1723 -0.1585
  493TMC3     H 7386   2.706   0.494  10.544 -1.2099  1.8170  1.6571
  493TMC3    H1 7387   2.512   0.117  10.552  1.8572 -0.6768 -0.1796
  493TMC3    H2 7388   2.398   0.396  10.266  0.9634  0.6533 -1.1954
  493TMC3    C7 7389   2.350   0.158  10.356 -0.1727  0.0271 -0.1846
  493TMC3    C8 7390   2.604   0.577  10.312 -0.9751  0.3647  0.1203
  493TMC3    O1 7391   2.298   0.090  10.443 -0.2965 -0.4136  0.1793
  493TMC3    O2 7392   2.682   0.650  10.363 -0.0137  0.1959 -0.0772
  494TMC3    C1 7393   3.258   1.787   0.108 -0.3365 -0.4545 -0.3420
  494TMC3    C2 7394   3.320   1.665   0.126 -0.5818  0.6048 -0.1145
  494TMC3    C3 7395   3.384   1.621   0.016 -0.9121 -0.3111  0.5196
  494TMC3    C4 7396   3.265   1.859  17.737 -0.6346 -0.6025  0.2092
  494TMC3    C5 7397   3.337   1.808  17.635 -0.0309 -0.4027  0.0136
  494TMC3    C6 7398   3.401   1.691  17.645  0.6257  0.2471  0.1705
  494TMC3     C 7399   3.246   1.868   0.229 -0.0718 -0.1712 -0.1354
  494TMC3     O 7400   3.312   1.836   0.331 -0.6952  0.1689 -0.2159
  494TMC3     H 7401   3.325   1.612   0.220  1.6218  0.5983 -0.2501
  494TMC3    H1 7402   3.211   1.952  17.721  2.9518  1.5341  0.3673
  494TMC3    H2 7403   3.463   1.655  17.563 -1.3978 -2.3891 -0.2033
  494TMC3    C7 7404   3.391   1.894  17.533 -0.6032  1.2178 -0.0118
  494TMC3    C8 7405   3.441   1.486   0.019  0.3866  1.1709  0.1374
  494TMC3    O1 7406   3.426   1.857  17.422  0.4358  0.5663  0.5616
  494TMC3    O2 7407   3.531   1.453  17.685  0.5500  0.3434 -0.6293
  495TMC3    C1 7408   2.277   4.099  14.783  0.0083 -0.0992  0.0923
  495TMC3    C2 7409   2.242   4.114  14.655 -0.3480  0.0654  0.1402
  495TMC3    C3 7410   2.134   4.187  14.631  0.0298  0.3117  0.1803
  495TMC3    C4 7411   2.213   4.163  14.884 -0.0970  0.0426 -0.2421
  495TMC3    C5 7412   2.104   4.237  14.855 -0.4197  0.7101 -0.4631
  495TMC3    C6 7413   2.066   4.251  14.726 -0.4173 -0.1216 -0.1379
  495TMC3     C 7414   2.311   3.968  14.819 -0.0943 -0.3777  1.0902
  495TMC3     O 7415   2.234   3.914  14.900 -0.2630  0.4727 -0.3332
  495TMC3     H 7416   2.285   4.053  14.576  1.7607  0.4385  0.9948
  495TMC3    H1 7417   2.234   4.148  14.989 -1.1413 -1.4543 -0.2449
  495TMC3    H2 7418   1.984   4.320  14.709 -0.0459  0.8021  1.8199
  495TMC3    C7 7419   2.011   4.256  14.966 -1.0569  0.8313 -0.1544
  495TMC3    C8 7420   2.041   4.122  14.538 -0.0781 -0.0808  0.2990
  495TMC3    O1 7421   2.053   4.280  15.079  0.0620  0.2272  0.0461
  495TMC3    O2 7422   1.948   4.187  14.500 -0.0175  0.0865 -0.2762
  496MPD2     C 7423   0.041   4.093  15.801  0.3872 -0.8382 -0.1840
  496MPD2    C1 7424   4.676   4.008  15.758  0.3631 -0.5182 -0.7164
  496MPD2    C2 7425   4.566   3.987  15.834 -0.3398 -0.0258 -0.4105
  496MPD2    C3 7426   4.554   4.038  15.963 -0.0756  0.6525 -0.2764
  496MPD2    C4 7427   4.647   4.124  16.003  0.0163  0.9351  0.2952
  496MPD2    C5 7428   0.020   4.151  15.921 -0.5764 -0.7519 -0.3906
  496MPD2     H 7429   4.487   3.920  15.802 -0.3837  0.1869 -0.7521
  496MPD2    H1 7430   4.652   4.163  16.104 -0.0034  0.7997  0.3479
  496MPD2    H2 7431   0.129   4.112  15.741  0.6200 -0.0660  0.4081
  496MPD2    H3 7432   0.096   4.222  15.952 -0.8581 -0.5702 -0.1086
  496MPD2     N 7433   4.452   3.985  16.039 -0.1377 -0.3101  0.2185
  496MPD2    H5 7434   4.386   3.935  15.981  0.8757 -1.8234  0.3546
  496MPD2    N1 7435   4.699   3.945  15.630 -0.1003  0.2010  0.2327
  496MPD2    H7 7436   0.057   3.945  15.596 -0.1906  0.3397 -0.0145
  497TMC3    C1 7437   4.324   3.931  16.230 -0.0506  0.2563 -0.2380
  497TMC3    C2 7438   4.214   3.894  16.155 -0.1183 -0.0780 -0.2039
  497TMC3    C3 7439   4.121   3.823  16.216  0.4500  0.4754 -0.2484
  497TMC3    C4 7440   4.339   3.903  16.359 -0.2488  0.1629  0.2127
  497TMC3    C5 7441   4.230   3.835  16.418 -0.7266 -0.2174 -0.0865
  497TMC3    C6 7442   4.125   3.789  16.345 -0.0738 -0.1072 -0.0418
  497TMC3     C 7443   4.438   4.001  16.177  0.2985  0.2823 -0.7433
  497TMC3     O 7444   4.522   4.042  16.254 -0.0587 -0.0784  0.2701
  497TMC3     H 7445   4.212   3.924  16.051 -0.7753  1.1390  0.1552
  497TMC3    H1 7446   4.423   3.950  16.409 -0.7850  2.6013 -1.1908
  497TMC3    H2 7447   4.048   3.732  16.395  1.4297 -3.3862 -1.4869
  497TMC3    C7 7448   4.228   3.809  16.561 -0.4251 -0.4101  0.2821
  497TMC3    C8 7449   3.991   3.830  16.148  0.1169  0.5740  0.0251
  497TMC3    O1 7450   4.129   3.742  16.597 -0.0203 -0.6665  0.3819
  497TMC3    O2 7451   3.894   3.834  16.222  0.1545 -0.3836  0.0180
  498MPD2     C 7452   0.289   4.185   9.486 -0.5713 -0.6209  0.5580
  498MPD2    C1 7453   0.333   4.202   9.613 -0.3574  0.2532 -0.5575
  498MPD2    C2 7454   0.243   4.243   9.710  0.1924 -0.1562 -0.2601
  498MPD2    C3 7455   0.106   4.236   9.682 -0.8134 -0.2135 -0.0083
  498MPD2    C4 7456   0.070   4.174   9.566  0.0232  0.9636  0.0264
  498MPD2    C5 7457   0.158   4.157   9.462 -0.1003  0.4080  0.2648
  498MPD2     H 7458   0.273   4.242   9.814  0.6096 -0.3024 -0.3812
  498MPD2    H1 7459   4.704   4.147   9.544  0.3310 -0.5548  0.3904
  498MPD2    H2 7460   0.364   4.163   9.411 -1.1187 -2.1432  0.4654
  498MPD2    H3 7461   0.127   4.111   9.368 -0.5269 -0.2880  0.7441
  498MPD2     N 7462   0.017   4.281   9.777 -0.0477 -0.3199  0.1111
  498MPD2    H5 7463   0.053   4.316   9.864  0.5117  0.1099 -0.2973
  498MPD2    N1 7464   0.467   4.204   9.655 -0.7439 -1.4482 -0.1061
  498MPD2    H7 7465   0.484   4.244   9.747 -0.5183 -0.4484 -0.5783
  499TMC3    C1 7466   0.694   4.152   9.659 -0.2430  0.1098 -0.7518
  499TMC3    C2 7467   0.796   4.062   9.653  0.4575 -0.6010 -0.6580
  499TMC3    C3 7468   0.906   4.092   9.732  0.2986 -0.6452 -0.9788
  499TMC3    C4 7469   0.713   4.265   9.733 -0.0811  0.2280 -0.6148
  499TMC3    C5 7470   0.829   4.295   9.800 -0.7394  0.4565 -0.2569
  499TMC3    C6 7471   0.935   4.208   9.798 -0.3417  0.4820 -0.5189
  499TMC3     C 7472   0.567   4.139   9.592 -0.2405  0.3208  0.0114
  499TMC3     O 7473   0.571   4.085   9.482 -0.3304 -0.2855  0.2291
  499TMC3     H 7474   0.781   3.971   9.597 -1.8735  0.4694 -1.7527
  499TMC3    H1 7475   0.634   4.338   9.731  0.8943  1.2889  0.0536
  499TMC3    H2 7476   1.021   4.222   9.862 -2.1194 -0.0143  2.0281
  499TMC3    C7 7477   0.841   4.426   9.863 -0.4764  0.2953 -0.3597
  499TMC3    C8 7478   1.013   3.998   9.750 -0.1369 -0.1914 -0.4748
  499TMC3    O1 7479   0.737   4.483   9.882 -0.7125 -0.5735  0.2723
  499TMC3    O2 7480   1.071   4.001   9.857  0.3047  0.1437 -0.0261
  500MPD2     C 7481   1.498   1.175  11.007 -0.1799 -0.2852  0.5474
  500MPD2    C1 7482   1.510   1.265  10.910  0.6211  0.7549  0.1049
  500MPD2    C2 7483   1.392   1.325  10.867 -0.1861  0.2207  0.1990
  500MPD2    C3 7484   1.267   1.295  10.925 -0.1377  0.2221 -0.0439
  500MPD2    C4 7485   1.260   1.205  11.034  0.1287 -0.2243 -0.2497
  500MPD2    C5 7486   1.376   1.141  11.063  0.0249 -0.9022  0.1584
  500MPD2     H 7487   1.389   1.406  10.795 -0.9151 -0.6353 -0.7312
  500MPD2    H1 7488   1.172   1.185  11.094  1.2585 -0.6227  1.3023
  500MPD2    H2 7489   1.588   1.130  11.048  0.5870  0.0738 -0.7329
  500MPD2    H3 7490   1.363   1.081  11.153 -0.3132 -1.6131 -0.3636
  500MPD2     N 7491   1.146   1.357  10.885  0.6572  1.2624 -0.3200
  500MPD2    H5 7492   1.060   1.315  10.917  0.4150  2.6380  0.8469
  500MPD2    N1 7493   1.637   1.304  10.863 -0.0752 -0.2201 -0.7885
  500MPD2    H7 7494   1.638   1.391  10.811  2.8364 -0.3656 -1.0028
  501TMC3    C1 7495   1.854   1.299  10.797  0.9572  0.5052 -0.3550
  501TMC3    C2 7496   1.834   1.407  10.714 -0.1770 -0.5326 -0.7777
  501TMC3    C3 7497   1.936   1.440  10.626  0.3148 -1.0424 -0.2512
  501TMC3    C4 7498   1.962   1.216  10.781 -0.5955  0.8182 -0.2521
  501TMC3    C5 7499   2.046   1.245  10.672  0.0991  0.3258 -0.4323
  501TMC3    C6 7500   2.046   1.362  10.606  0.3589 -0.5098 -0.9435
  501TMC3     C 7501   1.754   1.247  10.892  0.0003  0.0205  0.1280
  501TMC3     O 7502   1.772   1.135  10.938  0.1936  0.2679 -0.1214
  501TMC3     H 7503   1.751   1.476  10.722 -0.7449 -1.8658  4.9733
  501TMC3    H1 7504   1.970   1.120  10.830 -3.8047  0.5696 -0.1828
  501TMC3    H2 7505   2.115   1.388  10.527  3.2115 -3.7474  0.4556
  501TMC3    C7 7506   2.139   1.141  10.642 -0.0355  0.0907 -0.2186
  501TMC3    C8 7507   1.955   1.580  10.598  1.2044 -0.2853 -0.0124
  501TMC3    O1 7508   2.142   1.041  10.713  0.0921 -0.2475  0.0796
  501TMC3    O2 7509   2.068   1.608  10.551 -0.5341  0.0523  0.3939
  502TMC3    C1 7510   1.866   0.238  15.211  0.8561  0.4919  0.7511
  502TMC3    C2 7511   1.851   0.367  15.173 -0.3100  0.0212 -0.1955
  502TMC3    C3 7512   1.727   0.398  15.120 -0.2890  0.2297  0.0670
  502TMC3    C4 7513   1.777   0.142  15.186  0.6925  0.1385 -0.4202
  502TMC3    C5 7514   1.658   0.172  15.131  0.3409  0.0812  0.3155
  502TMC3    C6 7515   1.629   0.303  15.106  0.3574  0.2177 -0.2765
  502TMC3     C 7516   1.951   0.213  15.331 -0.4147 -0.1263 -0.2334
  502TMC3     O 7517   2.062   0.263  15.346  0.6361 -0.1302  0.3588
  502TMC3     H 7518   1.925   0.438  15.207  0.4942  0.7207 -3.3521
  502TMC3    H1 7519   1.793   0.039  15.213  1.0406  0.8495  2.0737
  502TMC3    H2 7520   1.533   0.331  15.064  0.2267 -0.9320 -0.7285
  502TMC3    C7 7521   1.558   0.101  15.208  0.4600  0.0358  0.4577
  502TMC3    C8 7522   1.691   0.537  15.124  0.3543  0.2396 -1.0941
  502TMC3    O1 7523   1.601   0.029  15.298  0.0748  0.5884  0.3950
  502TMC3    O2 7524   1.779   0.620  15.099  0.2939  0.0504 -0.0558
  503MPD2     C 7525   3.838   0.851  17.007 -0.0455  0.4563  0.3032
  503MPD2    C1 7526   3.844   0.826  17.143 -0.0718 -0.0324 -0.2734
  503MPD2    C2 7527   3.893   0.707  17.188  0.4021 -0.4024 -0.1501
  503MPD2    C3 7528   3.947   0.610  17.100  0.2502 -0.4827  0.3483
  503MPD2    C4 7529   3.951   0.640  16.966  0.0128 -0.4400  0.4303
  503MPD2    C5 7530   3.892   0.757  16.922  0.9221  0.6012 -0.0745
  503MPD2     H 7531   3.888   0.678  17.292 -0.4434 -1.9014 -0.6114
  503MPD2    H1 7532   3.988   0.573  16.889 -1.5220  0.9713 -1.5191
  503MPD2    H2 7533   3.792   0.940  16.966 -0.7071 -0.1546 -0.2864
  503MPD2    H3 7534   3.888   0.772  16.815  1.2602  0.6724 -0.0778
  503MPD2     N 7535   4.018   0.498  17.158 -0.3424  0.3483  0.3775
  503MPD2    H5 7536   4.015   0.492  17.259 -0.8947 -0.6006  0.3010
  503MPD2    N1 7537   3.772   0.909  17.230  0.2023 -0.3134 -0.4114
  503MPD2    H7 7538   3.777   0.895  17.330 -1.0551 -1.5900 -0.5331
  504TMC3    C1 7539   4.170   0.314  17.151  0.3130  0.3074  0.0002
  504TMC3    C2 7540   4.133   0.261  17.272 -1.0088  0.8943  0.1719
  504TMC3    C3 7541   4.209   0.162  17.328 -0.5653 -0.3533  0.8029
  504TMC3    C4 7542   4.274   0.259  17.088 -0.3678  0.3632 -1.0976
  504TMC3    C5 7543   4.356   0.163  17.147  0.8701  0.3714 -0.2280
  504TMC3    C6 7544   4.309   0.102  17.260 -0.3739  0.6706 -0.3490
  504TMC3     C 7545   4.093   0.409  17.085  0.0079  0.5962 -0.4387
  504TMC3     O 7546   4.122   0.405  16.966  0.2239 -0.3084 -0.3452
  504TMC3     H 7547   4.031   0.286  17.300 -0.7600  0.5196  1.4199
  504TMC3    H1 7548   4.319   0.303  17.000  0.2216 -0.2900 -1.1276
  504TMC3    H2 7549   4.350   0.008  17.296  0.1940  1.7269  1.7801
  504TMC3    C7 7550   4.471   0.116  17.062  0.2585 -0.1787  0.2468
  504TMC3    C8 7551   4.131   0.078  17.418 -0.2495  0.2101  0.0856
  504TMC3    O1 7552   4.472   0.140  16.946 -0.6500  0.0915  0.0730
  504TMC3    O2 7553   4.010   0.089  17.403  0.1665 -0.0641  0.0692
  505MPD2     C 7554   3.688   4.559  10.797 -0.4521 -0.4858  0.7204
  505MPD2    C1 7555   3.662   4.442  10.725 -0.9715 -0.3655  0.0812
  505MPD2    C2 7556   3.741   4.329  10.762  0.4608  0.2910 -0.2186
  505MPD2    C3 7557   3.839   4.336  10.864 -0.0137  0.5246  0.5884
  505MPD2    C4 7558   3.853   4.455  10.929  0.2938  0.4818 -0.1023
  505MPD2    C5 7559   3.781   4.567  10.897 -0.0400 -0.3768  0.4681
  505MPD2     H 7560   3.739   4.241  10.699 -0.2574  0.5110 -0.5017
  505MPD2    H1 7561   3.930   4.465  11.005 -0.1690 -0.4402  0.5004
  505MPD2    H2 7562   3.623   4.640  10.766 -0.6039 -0.9792 -0.2503
  505MPD2    H3 7563   3.802   4.656  10.955  0.8051 -0.3225  0.0774
  505MPD2     N 7564   3.929   4.236  10.892  0.2991  0.2348  0.4269
  505MPD2    H5 7565   4.010   4.260  10.948  1.0206 -1.4551  0.1116
  505MPD2    N1 7566   3.584   4.445  10.603  0.5577 -0.2076 -0.4577
  505MPD2    H7 7567   3.541   4.535  10.585  1.0285  0.2194  0.5329
  506TMC3    C1 7568   3.486   4.367  10.402  0.4606 -0.3302 -0.2070
  506TMC3    C2 7569   3.543   4.469  10.328 -0.2448  0.2283 -0.0921
  506TMC3    C3 7570   3.541   4.448  10.192 -0.3159 -0.7146  0.3747
  506TMC3    C4 7571   3.453   4.255  10.344 -0.0231  0.0914 -0.5360
  506TMC3    C5 7572   3.449   4.237  10.205 -0.8857  0.0837  0.4105
  506TMC3    C6 7573   3.483   4.343  10.127  0.0800 -0.6005  0.4671
  506TMC3     C 7574   3.568   4.339  10.516  0.2737 -0.0256 -0.0247
  506TMC3     O 7575   3.603   4.221  10.520  0.2752 -0.6994  0.3430
  506TMC3     H 7576   3.571   4.567  10.364  1.5216 -0.2758 -0.1201
  506TMC3    H1 7577   3.416   4.175  10.408  0.2916  1.2869  1.1468
  506TMC3    H2 7578   3.494   4.339  10.019 -4.2329  0.0598 -0.0319
  506TMC3    C7 7579   3.532   4.125  10.168 -0.7123 -0.0939  0.2581
  506TMC3    C8 7580   3.602   4.543  10.102 -0.1017  0.4612 -0.5857
  506TMC3    O1 7581   3.549   4.111  10.049 -0.7722  0.7502 -0.5865
  506TMC3    O2 7582   3.543   4.568   9.998  0.0161  1.0285 -0.4312
  507TMC3    C1 7583   4.641   0.012  15.387 -0.1054  0.0904 -0.5487
  507TMC3    C2 7584   4.516   4.732  15.331  0.9073 -0.0367  0.3629
  507TMC3    C3 7585   4.451   0.107  15.297  0.3964  0.0515 -0.5520
  507TMC3    C4 7586   4.704   0.136  15.411  0.1671  0.8798  0.3187
  507TMC3    C5 7587   4.633   0.246  15.375  0.2343 -0.2480 -0.1358
  507TMC3    C6 7588   4.510   0.231  15.320 -0.7356 -0.7646 -0.2078
  507TMC3     C 7589   4.701   4.635  15.452  0.8191 -0.1646 -0.0122
  507TMC3     O 7590   4.673   4.521  15.406  0.3349  0.5127 -0.4039
  507TMC3     H 7591   4.478   4.637  15.296  2.7949 -1.3879  2.0644
  507TMC3    H1 7592   0.069   0.155  15.443  0.7783 -1.6292 -0.1658
  507TMC3    H2 7593   4.448   0.318  15.299  3.3443  1.6746 -2.2066
  507TMC3    C7 7594   4.702   0.355  15.308  0.5596  0.0663  0.3091
  507TMC3    C8 7595   4.389   0.094  15.165 -0.5532 -0.5976 -0.3269
  507TMC3    O1 7596   4.651   0.388  15.199 -0.3608 -0.2169 -0.0720
  507TMC3    O2 7597   4.314   0.003  15.135 -0.0652 -0.0193  0.1184
  508MPD2     C 7598   0.993   2.540  15.186  0.1007 -0.1283  0.7099
  508MPD2    C1 7599   1.010   2.642  15.274 -0.7378  0.5227  0.0695
  508MPD2    C2 7600   1.061   2.762  15.233  0.9220 -0.7712  0.1382
  508MPD2    C3 7601   1.091   2.786  15.097  0.8885 -0.1892 -0.7562
  508MPD2    C4 7602   1.067   2.686  15.007  1.3377  0.3602 -0.0844
  508MPD2    C5 7603   1.035   2.564  15.055 -0.3375 -0.4313 -0.0617
  508MPD2     H 7604   1.093   2.837  15.304 -3.2473  0.2726  0.8960
  508MPD2    H1 7605   1.089   2.699  14.902  0.9891 -0.6492 -0.2845
  508MPD2    H2 7606   0.963   2.443  15.222  0.0003 -0.7334 -0.9818
  508MPD2    H3 7607   1.024   2.491  14.976  0.8571  1.6141 -2.0892
  508MPD2     N 7608   1.137   2.919  15.064 -0.2964  0.1413  0.4941
  508MPD2    H5 7609   1.155   2.986  15.138  0.3377  0.5099  0.0028
  508MPD2    N1 7610   0.982   2.608  15.409  0.0446 -0.2713 -0.3304
  508MPD2    H7 7611   0.933   2.520  15.424 -1.7872  1.0101  1.2308
  509TMC3    C1 7612   1.027   3.326  14.911  0.3447  0.1889  0.3107
  509TMC3    C2 7613   1.116   3.374  15.011  0.3488 -0.5271  0.6263
  509TMC3    C3 7614   1.210   3.295  15.075 -0.3759 -0.9868  0.4791
  509TMC3    C4 7615   1.040   3.190  14.882  0.1555 -0.5647  0.5029
  509TMC3    C5 7616   1.139   3.115  14.936 -0.4987 -0.6872 -0.0621
  509TMC3    C6 7617   1.226   3.167  15.029 -0.5396  0.0923 -1.1885
  509TMC3     C 7618   0.888   3.366  14.902  0.1508  0.4214  0.4634
  509TMC3     O 7619   0.803   3.296  14.852 -0.1930 -0.1991  0.4387
  509TMC3     H 7620   1.096   3.471  15.055  1.3739 -0.7533  1.5750
  509TMC3    H1 7621   0.972   3.146  14.810  1.0259  0.1545 -0.7600
  509TMC3    H2 7622   1.310   3.110  15.067  0.0701  1.2118 -0.8651
  509TMC3    C7 7623   1.133   2.976  14.941  0.3585 -0.0782 -0.1863
  509TMC3    C8 7624   1.255   3.319  15.210  0.3565 -0.5245  0.3761
  509TMC3    O1 7625   1.089   2.926  14.832  0.0375  0.1793  0.1862
  509TMC3    O2 7626   1.289   3.213  15.269  0.7502  0.3970  0.0487
  510MPD2     C 7627   3.080   4.585  15.041 -0.0159  0.4317  0.0989
  510MPD2    C1 7628   3.138   4.472  15.085  0.0114 -0.1915  0.2666
  510MPD2    C2 7629   3.270   4.445  15.049 -0.9682 -0.4393  0.1796
  510MPD2    C3 7630   3.324   4.497  14.937 -0.3989 -0.1563  0.3977
  510MPD2    C4 7631   3.258   4.589  14.873  0.1417 -0.7156 -0.6254
  510MPD2    C5 7632   3.138   4.638  14.931  0.3608  0.1850 -0.5060
  510MPD2     H 7633   3.324   4.367  15.100  0.3101  1.4358  1.7020
  510MPD2    H1 7634   3.288   4.619  14.773  0.5788  1.0826  0.0541
  510MPD2    H2 7635   2.979   4.616  15.065 -0.9809 -1.7024 -1.2301
  510MPD2    H3 7636   3.074   4.698  14.866 -0.7342  1.3308  1.6312
  510MPD2     N 7637   3.456   4.458  14.900 -0.3698 -0.0283 -0.2486
  510MPD2    H5 7638   3.491   4.379  14.953  2.3317  0.2194 -1.6813
  510MPD2    N1 7639   3.072   4.387  15.179 -0.4591 -0.1982  0.7505
  510MPD2    H7 7640   2.991   4.431  15.224  0.3285 -0.4613  2.4355
  511TMC3    C1 7641   3.010   4.188  15.288  0.3592  0.0130 -0.0254
  511TMC3    C2 7642   2.921   4.264  15.362 -0.2014  0.3287  0.4954
  511TMC3    C3 7643   2.819   4.198  15.424  0.0924 -0.3578 -0.0148
  511TMC3    C4 7644   2.991   4.059  15.260 -0.4119  0.5548 -0.1361
  511TMC3    C5 7645   2.897   4.000  15.330 -0.0158  0.3864 -0.7629
  511TMC3    C6 7646   2.798   4.060  15.408 -0.0556  0.7318  0.7675
  511TMC3     C 7647   3.100   4.255  15.197  0.1312 -0.4745  0.1001
  511TMC3     O 7648   3.168   4.184  15.125 -0.6002 -0.5023 -0.2049
  511TMC3     H 7649   2.948   4.365  15.392 -0.6824  0.4705  0.4544
  511TMC3    H1 7650   3.063   3.999  15.205 -0.0182  0.7713  0.1359
  511TMC3    H2 7651   2.737   3.996  15.471 -0.7737 -0.7709 -1.4695
  511TMC3    C7 7652   2.887   3.854  15.330  0.1199 -0.4565 -0.4178
  511TMC3    C8 7653   2.723   4.272  15.507 -0.3918 -0.1433  0.4685
  511TMC3    O1 7654   2.774   3.814  15.339  0.4245 -0.3230 -0.0838
  511TMC3    O2 7655   2.747   4.392  15.517 -0.2275 -0.1567 -0.0164
  512TMC3    C1 7656   2.083   4.067  12.750  0.1861 -0.3595 -0.3151
  512TMC3    C2 7657   2.208   4.031  12.805  0.2988 -0.6907 -0.0119
  512TMC3    C3 7658   2.244   3.900  12.809 -0.7807  0.6175 -0.0765
  512TMC3    C4 7659   1.998   3.966  12.705  0.3025  0.1663  0.8835
  512TMC3    C5 7660   2.042   3.837  12.714  0.0721  0.4753  0.0101
  512TMC3    C6 7661   2.164   3.796  12.765  0.1726 -0.1561 -1.1253
  512TMC3     C 7662   2.047   4.204  12.752 -0.0206 -0.1831  0.0856
  512TMC3     O 7663   2.120   4.263  12.827  0.5323  0.1302  0.4147
  512TMC3     H 7664   2.279   4.101  12.847  0.4920 -0.5494 -0.5805
  512TMC3    H1 7665   1.893   3.983  12.683  0.8396  1.9761 -0.3273
  512TMC3    H2 7666   2.197   3.693  12.758  1.5876  0.1654  1.0317
  512TMC3    C7 7667   1.967   3.758  12.616  0.2643  0.4575  0.4882
  512TMC3    C8 7668   2.373   3.857  12.877 -0.1503  0.5091 -0.1411
  512TMC3    O1 7669   1.896   3.809  12.530 -0.0331 -0.3985  0.2976
  512TMC3    O2 7670   2.394   3.737  12.883  0.1255  0.1992 -0.3143
  513MPD2     C 7671   4.276   3.569  13.556  0.1436  0.1981  0.5129
  513MPD2    C1 7672   4.390   3.517  13.491  0.7185  0.6443  0.2176
  513MPD2    C2 7673   4.513   3.579  13.510 -0.0766 -0.1164 -0.5145
  513MPD2    C3 7674   4.522   3.685  13.592 -0.2107 -0.3447 -0.2487
  513MPD2    C4 7675   4.408   3.729  13.661 -0.0945  0.1031  0.3525
  513MPD2    C5 7676   4.286   3.676  13.639 -0.3712 -0.4066  0.5236
  513MPD2     H 7677   4.602   3.541  13.460 -0.1203 -1.7834  0.6764
  513MPD2    H1 7678   4.409   3.808  13.735  0.9265  0.0765  0.3672
  513MPD2    H2 7679   4.175   3.534  13.534  0.6615  0.8219 -2.8215
  513MPD2    H3 7680   4.199   3.722  13.685 -0.0450 -0.3915  1.1198
  513MPD2     N 7681   4.651   3.748  13.595  0.0091  0.2942 -0.3079
  513MPD2    H5 7682   4.725   3.723  13.530 -0.0097 -2.3764  0.6992
  513MPD2    N1 7683   4.394   3.413  13.388 -0.2751 -0.1922  0.6259
  513MPD2    H7 7684   4.484   3.406  13.341 -0.1067 -0.5949  1.0026
  514TMC3    C1 7685   4.327   3.287  13.202 -0.1298 -0.0621  0.4118
  514TMC3    C2 7686   4.255   3.335  13.098  0.0289 -0.0701  0.0472
  514TMC3    C3 7687   4.324   3.370  12.982  1.1940 -0.1515 -0.2225
  514TMC3    C4 7688   4.453   3.243  13.196  0.2127  0.3019 -0.0110
  514TMC3    C5 7689   4.526   3.284  13.086  0.6460  0.0806 -0.4032
  514TMC3    C6 7690   4.464   3.358  12.982 -0.2692  1.3200 -0.2796
  514TMC3     C 7691   4.287   3.358  13.324 -0.4587  0.7364  0.3763
  514TMC3     O 7692   4.169   3.368  13.350 -0.4528 -0.1240 -0.4598
  514TMC3     H 7693   4.154   3.371  13.110  0.0943 -0.3516  1.5324
  514TMC3    H1 7694   4.503   3.195  13.280  0.8444  2.1049  0.6370
  514TMC3    H2 7695   4.524   3.388  12.896  0.4171  0.8011  0.0278
  514TMC3    C7 7696   4.649   3.343  13.135  0.5339  0.3209  0.9450
  514TMC3    C8 7697   4.256   3.454  12.888 -0.2723  0.0041  0.0161
  514TMC3    O1 7698   4.639   3.390  13.248 -0.0653 -0.5989 -0.2353
  514TMC3    O2 7699   4.151   3.496  12.926 -0.4386 -0.5184 -0.2740
  515MPD2     C 7700   2.054   1.148  14.753  0.1256  0.3285  0.0980
  515MPD2    C1 7701   2.122   1.032  14.741 -0.3287  0.0524 -0.2753
  515MPD2    C2 7702   2.235   1.025  14.826  0.0807  0.0201 -0.0140
  515MPD2    C3 7703   2.280   1.125  14.910 -0.5967 -0.8639 -0.6087
  515MPD2    C4 7704   2.207   1.241  14.915  0.9327 -0.8408 -0.1608
  515MPD2    C5 7705   2.101   1.245  14.832  0.4038  0.4983 -0.7046
  515MPD2     H 7706   2.280   0.926  14.827 -0.0612 -0.0258  1.9707
  515MPD2    H1 7707   2.240   1.325  14.976  0.2953  0.5379 -1.7451
  515MPD2    H2 7708   1.962   1.164  14.697 -0.4031 -1.2157  0.5135
  515MPD2    H3 7709   2.042   1.336  14.829 -0.4910 -0.0561  0.1442
  515MPD2     N 7710   2.394   1.127  14.995  0.6975  0.0851 -0.4308
  515MPD2    H5 7711   2.409   1.212  15.048  3.0632 -0.5440 -0.1089
  515MPD2    N1 7712   2.095   0.925  14.655  1.1130 -0.2775  0.1725
  515MPD2    H7 7713   2.161   0.848  14.656  2.2152  0.7068  1.9943
  516TMC3    C1 7714   1.976   0.799  14.496 -0.0629  0.3658 -1.3024
  516TMC3    C2 7715   1.913   0.808  14.379  0.6741 -0.0296  0.3524
  516TMC3    C3 7716   1.918   0.699  14.302  0.3915  0.3682  0.1528
  516TMC3    C4 7717   2.047   0.693  14.540  0.6350  0.0935 -0.5855
  516TMC3    C5 7718   2.051   0.581  14.458 -0.3899 -0.8084  0.7803
  516TMC3    C6 7719   1.974   0.577  14.347 -0.2117  0.0675  0.0053
  516TMC3     C 7720   1.978   0.911  14.585 -0.2025 -0.1582 -0.7072
  516TMC3     O 7721   1.881   0.984  14.578  0.0507 -0.2621  0.7306
  516TMC3     H 7722   1.881   0.909  14.354 -1.2853 -0.5732  0.6971
  516TMC3    H1 7723   2.089   0.690  14.640 -1.4917 -1.5991  0.2501
  516TMC3    H2 7724   1.969   0.483  14.294  2.9525 -0.7122  1.0254
  516TMC3    C7 7725   2.075   0.451  14.523  0.0870  0.1112  0.1848
  516TMC3    C8 7726   1.910   0.733  14.158  0.2894 -0.6166 -0.6389
  516TMC3    O1 7727   2.159   0.449  14.612 -0.2874  0.1379 -0.6734
  516TMC3    O2 7728   1.834   0.823  14.133  0.2863 -0.2664  0.3977
  517MPD2     C 7729   2.784   1.758   0.892  0.1636  0.1753  0.7416
  517MPD2    C1 7730   2.798   1.820   0.769 -0.1404  0.4901 -0.6959
  517MPD2    C2 7731   2.876   1.934   0.762  0.1941  0.1493 -0.1590
  517MPD2    C3 7732   2.936   1.991   0.875  0.3294 -0.7987 -0.2661
  517MPD2    C4 7733   2.925   1.923   0.993 -0.2255  0.1439  0.5393
  517MPD2    C5 7734   2.850   1.807   1.000  0.4008 -0.0106 -0.1216
  517MPD2     H 7735   2.898   1.978   0.665 -0.9562  2.1964  0.5094
  517MPD2    H1 7736   2.983   1.964   1.075  0.0935  0.0013  0.3858
  517MPD2    H2 7737   2.715   1.677   0.914  0.3597 -0.2888 -0.3610
  517MPD2    H3 7738   2.855   1.746   1.090 -2.8828 -1.1008 -0.6755
  517MPD2     N 7739   3.012   2.109   0.884  0.2566  0.2169  0.3310
  517MPD2    H5 7740   3.044   2.143   0.975  1.5839 -1.7297  0.5891
  517MPD2    N1 7741   2.727   1.777   0.649  0.1890  0.2986 -0.3651
  517MPD2    H7 7742   2.728   1.840   0.570 -0.9694 -0.3315 -0.8902
  518TMC3    C1 7743   2.589   1.640   0.512 -0.2106 -0.0495 -0.6623
  518TMC3    C2 7744   2.473   1.568   0.513  0.3608 -0.0487 -0.1890
  518TMC3    C3 7745   2.422   1.542   0.391 -0.4179  0.4642  0.3107
  518TMC3    C4 7746   2.644   1.704   0.405  0.2025  0.8126  1.1947
  518TMC3    C5 7747   2.588   1.678   0.288 -0.8226 -0.1922  0.1597
  518TMC3    C6 7748   2.475   1.598   0.278 -0.3412 -0.0116 -0.0665
  518TMC3     C 7749   2.645   1.667   0.643 -0.7087 -0.0849 -0.3370
  518TMC3     O 7750   2.650   1.573   0.721  0.1327  0.0150  0.9663
  518TMC3     H 7751   2.455   1.518   0.607 -0.1732  0.2763 -0.1135
  518TMC3    H1 7752   2.738   1.758   0.409  0.4713  0.4424 -0.2125
  518TMC3    H2 7753   2.420   1.589   0.185  0.6965  1.4401 -0.8294
  518TMC3    C7 7754   2.678   1.683   0.179 -0.1144 -0.2152  0.2101
  518TMC3    C8 7755   2.322   1.439   0.367 -0.4721 -0.3106 -0.2417
  518TMC3    O1 7756   2.725   1.789   0.138  0.0613  0.6892 -0.9814
  518TMC3    O2 7757   2.311   1.389   0.257 -0.4870  0.0093 -0.8160
  519MPD2     C 7758   3.649   0.734  14.387  0.0952 -0.1067 -0.0365
  519MPD2    C1 7759   3.547   0.637  14.383 -0.3173  0.1112  0.1725
  519MPD2    C2 7760   3.574   0.505  14.416 -0.1403 -0.3764 -0.7300
  519MPD2    C3 7761   3.698   0.462  14.452 -0.7821  0.4217 -0.0104
  519MPD2    C4 7762   3.796   0.560  14.459 -0.3735  0.0119  0.1201
  519MPD2    C5 7763   3.771   0.692  14.435  0.1170  0.1587 -0.3565
  519MPD2     H 7764   3.491   0.436  14.415 -0.3364 -0.1828  1.0234
  519MPD2    H1 7765   3.898   0.538  14.490 -0.1844  0.7386  0.0088
  519MPD2    H2 7766   3.623   0.836  14.362 -1.1046 -0.5499 -0.5971
  519MPD2    H3 7767   3.849   0.766  14.445  0.3261  0.0559 -1.1842
  519MPD2     N 7768   3.733   0.331  14.478  0.0181  0.1151 -0.1955
  519MPD2    H5 7769   3.833   0.315  14.491 -0.4751 -2.7967 -0.1127
  519MPD2    N1 7770   3.416   0.678  14.343 -0.0224  0.1059 -0.3274
  519MPD2    H7 7771   3.402   0.768  14.299  0.3797  0.8885  1.1392
  520TMC3    C1 7772   3.719   0.093  14.475 -0.2939  0.2630 -0.1393
  520TMC3    C2 7773   3.643   0.002  14.405  0.0374 -0.4023  0.5134
  520TMC3    C3 7774   3.709   4.639  14.330 -0.0229 -0.4040  0.2924
  520TMC3    C4 7775   3.855   0.091  14.469  0.3600 -0.0329 -0.3177
  520TMC3    C5 7776   3.914   4.731  14.394  0.2043  0.0593 -0.6346
  520TMC3    C6 7777   3.847   4.634  14.326 -0.3647  0.5795  0.0299
  520TMC3     C 7778   3.653   0.225  14.480  0.2731  0.1095  0.6831
  520TMC3     O 7779   3.531   0.221  14.494  0.1900 -0.3963 -0.1982
  520TMC3     H 7780   3.535   0.005  14.395  0.1291  0.4941 -0.1551
  520TMC3    H1 7781   3.922   0.153  14.527 -0.6711 -1.1981  2.1211
  520TMC3    H2 7782   3.904   4.554  14.281 -1.6724  0.7730 -1.9458
  520TMC3    C7 7783   4.055   0.018  14.353 -0.4151  0.0069  0.1630
  520TMC3    C8 7784   3.637   4.560  14.234 -0.2075 -0.3992 -0.1081
  520TMC3    O1 7785   4.132   0.062  14.435 -0.0914 -0.5714  0.4507
  520TMC3    O2 7786   3.706   4.478  14.169 -0.2930 -0.2583  0.0573
  521MPD2     C 7787   0.216   3.121  17.233  0.1167  0.1010 -0.1869
  521MPD2    C1 7788   0.167   3.102  17.103  0.3660 -0.2281 -0.1311
  521MPD2    C2 7789   0.244   3.143  16.996  0.5691 -0.3275 -0.6147
  521MPD2    C3 7790   0.362   3.198  17.015 -0.3209  0.3367  0.4572
  521MPD2    C4 7791   0.421   3.202  17.146 -0.2369  0.6275  0.6782
  521MPD2    C5 7792   0.346   3.167  17.255 -0.2084 -0.4215  0.7107
  521MPD2     H 7793   0.197   3.128  16.899 -0.6833  2.7122 -0.4704
  521MPD2    H1 7794   0.520   3.245  17.163 -1.6144  2.8622  3.0338
  521MPD2    H2 7795   0.161   3.081  17.318 -1.2049  0.7909 -0.7095
  521MPD2    H3 7796   0.397   3.159  17.350 -0.4611  0.0229  0.8826
  521MPD2     N 7797   0.442   3.224  16.903  0.0195 -0.3487 -0.2381
  521MPD2    H5 7798   0.397   3.207  16.813 -0.8718 -2.5095  0.6153
  521MPD2    N1 7799   0.037   3.040  17.094  0.8637 -0.1469 -0.0498
  521MPD2    H7 7800   0.003   2.995  17.179  0.5097 -0.7488 -0.5075
  522TMC3    C1 7801   0.614   3.267  16.765 -0.9993 -0.0676  0.3845
  522TMC3    C2 7802   0.742   3.218  16.736  0.0839 -0.3420 -0.5671
  522TMC3    C3 7803   0.769   3.192  16.601  0.7461  0.1950  0.4414
  522TMC3    C4 7804   0.525   3.298  16.663 -0.0162  0.5633 -0.2272
  522TMC3    C5 7805   0.569   3.287  16.534 -0.2378  0.6966 -0.3191
  522TMC3    C6 7806   0.683   3.228  16.501  0.1725 -0.0028  0.0838
  522TMC3     C 7807   0.577   3.253  16.903  0.1528 -0.3178  0.3430
  522TMC3     O 7808   0.667   3.226  16.985  0.0506 -0.2883 -0.4512
  522TMC3     H 7809   0.814   3.194  16.814  1.2255 -0.3880 -1.6242
  522TMC3    H1 7810   0.428   3.341  16.685 -0.6228 -0.6091 -0.6333
  522TMC3    H2 7811   0.692   3.198  16.397 -0.9186  2.6622 -0.7822
  522TMC3    C7 7812   0.495   3.348  16.424  0.0242  0.3328 -0.3947
  522TMC3    C8 7813   0.855   3.078  16.580  0.2114 -0.7893  0.1874
  522TMC3    O1 7814   0.555   3.409  16.341 -0.2332 -0.2453 -0.4531
  522TMC3    O2 7815   0.908   3.038  16.684 -0.1002 -0.0236 -0.3326
  523MPD2     C 7816   2.449   3.501  10.166 -0.7756  0.6117  0.3768
  523MPD2    C1 7817   2.416   3.385  10.115  0.1752 -0.4228 -0.3384
  523MPD2    C2 7818   2.404   3.366   9.980  0.6581  0.7743 -0.6285
  523MPD2    C3 7819   2.427   3.475   9.897 -0.4177  0.8710 -0.2078
  523MPD2    C4 7820   2.464   3.595   9.948  0.0028  0.2970 -0.1581
  523MPD2    C5 7821   2.472   3.607  10.081 -0.4365  0.5004 -0.0096
  523MPD2     H 7822   2.385   3.272   9.931 -2.3660  1.2422 -0.3065
  523MPD2    H1 7823   2.493   3.674   9.880  0.2971 -1.0783 -1.6356
  523MPD2    H2 7824   2.480   3.509  10.270 -1.0887 -1.2409  0.6048
  523MPD2    H3 7825   2.510   3.699  10.124  0.2171  0.7140 -1.0328
  523MPD2     N 7826   2.417   3.467   9.753  0.3754 -0.1744 -0.0125
  523MPD2    H5 7827   2.414   3.551   9.696 -2.3299  0.5925  1.2699
  523MPD2    N1 7828   2.404   3.279  10.205  0.0137 -0.4202 -0.4710
  523MPD2    H7 7829   2.414   3.307  10.302 -0.9148  1.8363 -1.0489
  524TMC3    C1 7830   2.408   3.373   9.536 -0.0174 -0.3561 -0.3519
  524TMC3    C2 7831   2.498   3.302   9.471 -0.7797  0.1970  0.4390
  524TMC3    C3 7832   2.542   3.354   9.353 -0.7770  0.6446 -0.3045
  524TMC3    C4 7833   2.360   3.493   9.496  0.4694  0.1179 -0.9657
  524TMC3    C5 7834   2.408   3.538   9.378 -0.6877  0.3332  0.5162
  524TMC3    C6 7835   2.497   3.470   9.303 -0.1440  0.0289  0.8598
  524TMC3     C 7836   2.420   3.355   9.680 -0.6239  1.1365  0.4236
  524TMC3     O 7837   2.449   3.240   9.714  0.6102 -0.2062  0.3005
  524TMC3     H 7838   2.559   3.228   9.522 -0.2204  0.4297  0.1100
  524TMC3    H1 7839   2.298   3.553   9.561 -0.8067 -2.1864 -0.0289
  524TMC3    H2 7840   2.530   3.518   9.212  0.4384 -2.3021 -0.1626
  524TMC3    C7 7841   2.367   3.661   9.319  0.2792  0.1424 -0.7875
  524TMC3    C8 7842   2.622   3.280   9.264 -0.0619 -0.3260  0.3640
  524TMC3    O1 7843   2.451   3.738   9.281 -0.3175 -0.0611 -0.2509
  524TMC3    O2 7844   2.665   3.323   9.158 -0.1062 -0.2295 -0.0161
  525MPD2     C 7845   0.351   0.275  14.385 -0.2908 -0.5319  0.0961
  525MPD2    C1 7846   0.473   0.315  14.435  0.3827  0.0480  0.1887
  525MPD2    C2 7847   0.526   0.436  14.400 -0.1377  0.1112  0.4153
  525MPD2    C3 7848   0.456   0.526  14.330  0.0208  0.0285  0.2603
  525MPD2    C4 7849   0.326   0.494  14.290 -0.0288  0.7626  0.7918
  525MPD2    C5 7850   0.276   0.367  14.314 -0.2282 -0.0904 -0.6036
  525MPD2     H 7851   0.624   0.472  14.429  0.5262 -0.9880 -0.4855
  525MPD2    H1 7852   0.255   0.562  14.245  0.4023  0.6035 -0.1174
  525MPD2    H2 7853   0.307   0.176  14.394  3.0271 -1.9912  0.0697
  525MPD2    H3 7854   0.177   0.336  14.283  0.5823 -3.3931  0.1536
  525MPD2     N 7855   0.504   0.655  14.304  0.2432 -0.7171 -0.7422
  525MPD2    H5 7856   0.432   0.723  14.284 -0.0829  0.3603  4.0208
  525MPD2    N1 7857   0.555   0.218  14.499  0.1461 -0.5089  0.2585
  525MPD2    H7 7858   0.651   0.231  14.530 -0.2822 -0.1217  1.4277
  526TMC3    C1 7859   0.598   0.024  14.630  0.2247  0.6958 -0.2544
  526TMC3    C2 7860   0.548   4.657  14.711 -0.0763  0.1931  0.6885
  526TMC3    C3 7861   0.637   4.592  14.797 -0.3734 -0.0728 -0.8158
  526TMC3    C4 7862   0.728   0.055  14.630 -0.1901 -0.7012  0.1875
  526TMC3    C5 7863   0.812   4.722  14.708 -0.3269  0.0828  0.5512
  526TMC3    C6 7864   0.772   4.618  14.785 -0.0181 -0.8871  0.4484
  526TMC3     C 7865   0.498   0.108  14.564 -0.5537  0.0529 -0.2718
  526TMC3     O 7866   0.381   0.082  14.580  0.3432 -0.5928  0.4477
  526TMC3     H 7867   0.442   4.640  14.708  0.1867 -1.3397  0.4801
  526TMC3    H1 7868   0.767   0.145  14.583  2.8710 -1.6706  0.8605
  526TMC3    H2 7869   0.844   4.582  14.858  0.3825 -2.2420 -0.6193
  526TMC3    C7 7870   0.949   4.732  14.669  0.6440  0.0962 -0.1546
  526TMC3    C8 7871   0.587   4.558  14.928  0.9718  0.3002  0.5415
  526TMC3    O1 7872   1.008   0.102  14.647  0.4014  0.2456  0.3331
  526TMC3    O2 7873   0.661   4.579  15.020  0.1244 -0.1858 -0.3711
  527MPD2     C 7874   3.273   1.954   1.134  0.5492  0.1419 -0.6102
  527MPD2    C1 7875   3.343   2.010   1.241  0.8410 -0.3117 -0.5189
  527MPD2    C2 7876   3.468   2.068   1.216  0.6355 -0.5891  0.0258
  527MPD2    C3 7877   3.512   2.085   1.081 -0.7645  0.2303 -0.6391
  527MPD2    C4 7878   3.425   2.048   0.979 -0.2173 -0.0510  0.7456
  527MPD2    C5 7879   3.314   1.978   1.008 -0.1117 -0.1381  0.3657
  527MPD2     H 7880   3.534   2.089   1.299  1.1637  0.1098 -0.5706
  527MPD2    H1 7881   3.452   2.052   0.874 -1.0387  1.6997  0.5882
  527MPD2    H2 7882   3.172   1.920   1.149  0.8238 -0.0865  0.7023
  527MPD2    H3 7883   3.263   1.939   0.920 -0.8496  0.3213  0.5833
  527MPD2     N 7884   3.639   2.144   1.064  0.2236 -0.1068  0.3201
  527MPD2    H5 7885   3.684   2.166   1.152  1.9562  0.8740 -0.8129
  527MPD2    N1 7886   3.287   2.030   1.370 -0.1878 -0.3697  0.9638
  527MPD2    H7 7887   3.335   2.087   1.438  0.4637  0.8537 -0.5118
  528TMC3    C1 7888   3.116   2.083   1.517  0.2273 -0.1200  0.0363
  528TMC3    C2 7889   3.196   2.188   1.557  0.0425 -0.5125 -0.5618
  528TMC3    C3 7890   3.143   2.272   1.651  0.8092 -0.2066 -0.0513
  528TMC3    C4 7891   2.987   2.068   1.562  0.2720  0.2559 -0.3270
  528TMC3    C5 7892   2.930   2.158   1.649 -0.3515 -0.8071  0.0121
  528TMC3    C6 7893   3.009   2.265   1.693  0.1662 -0.6729 -0.3761
  528TMC3     C 7894   3.157   2.006   1.399 -0.1510 -0.1094 -0.7893
  528TMC3     O 7895   3.055   1.955   1.344 -0.0880  0.2320  0.1215
  528TMC3     H 7896   3.303   2.170   1.561 -0.0581 -0.8510  0.5901
  528TMC3    H1 7897   2.932   1.976   1.544  0.0774  0.0867  1.1530
  528TMC3    H2 7898   2.961   2.334   1.761  2.0663 -1.1907  1.4768
  528TMC3    C7 7899   2.788   2.157   1.684  0.4732 -0.4106 -0.2242
  528TMC3    C8 7900   3.237   2.375   1.704 -0.8794  0.2167  0.5138
  528TMC3    O1 7901   2.748   2.236   1.769  0.8393  0.0875 -0.3288
  528TMC3    O2 7902   3.346   2.387   1.649 -0.3992 -0.4059  0.6574
  529MPD2     C 7903   0.387   0.461   1.025  0.0299  0.1354 -0.0712
  529MPD2    C1 7904   0.522   0.468   1.058  0.1184 -0.5744 -0.1697
  529MPD2    C2 7905   0.603   0.546   0.976 -0.1995 -0.5515  0.1339
  529MPD2    C3 7906   0.560   0.614   0.863  0.4061 -0.2283  0.2695
  529MPD2    C4 7907   0.426   0.601   0.830 -0.5763 -0.8359  0.0358
  529MPD2    C5 7908   0.343   0.522   0.904 -0.1738  0.4488 -0.0906
  529MPD2     H 7909   0.706   0.551   1.009  0.1676 -1.1563 -0.9082
  529MPD2    H1 7910   0.390   0.662   0.748  0.5332  0.2200  0.3365
  529MPD2    H2 7911   0.313   0.395   1.069 -0.7702  0.9120 -0.2551
  529MPD2    H3 7912   0.241   0.516   0.867  0.0820  1.8685 -1.0504
  529MPD2     N 7913   0.634   0.705   0.789  0.1100 -0.9253 -0.4364
  529MPD2    H5 7914   0.589   0.746   0.708 -1.1199  1.1301  1.2781
  529MPD2    N1 7915   0.572   0.408   1.171 -0.2112  0.4749 -0.1869
  529MPD2    H7 7916   0.672   0.422   1.185 -0.2609  1.6833 -0.9932
  530TMC3    C1 7917   0.594   0.292   1.376 -0.3941  0.5956  0.0317
  530TMC3    C2 7918   0.644   0.394   1.444  0.0145 -0.7228 -0.1573
  530TMC3    C3 7919   0.705   0.368   1.564  0.6534 -0.0349  0.7101
  530TMC3    C4 7920   0.597   0.166   1.425  0.1413  0.8891  0.4274
  530TMC3    C5 7921   0.653   0.142   1.547  0.2331  0.8947 -0.6993
  530TMC3    C6 7922   0.712   0.238   1.619  0.1338  0.0533 -0.1824
  530TMC3     C 7923   0.514   0.317   1.254 -0.4100  0.0974  0.0522
  530TMC3     O 7924   0.433   0.230   1.229  0.0043  0.1018 -0.0026
  530TMC3     H 7925   0.641   0.493   1.400 -1.1870 -0.3092  0.8735
  530TMC3    H1 7926   0.573   0.090   1.351 -0.0799 -0.0969  1.5174
  530TMC3    H2 7927   0.755   0.216   1.717 -1.6410 -3.2575 -0.1595
  530TMC3    C7 7928   0.664   0.007   1.589 -0.5081  0.3948 -0.0382
  530TMC3    C8 7929   0.801   0.468   1.614  0.1075  0.0606 -0.1599
  530TMC3    O1 7930   0.747   4.719   1.681  0.8706  0.1489 -0.5225
  530TMC3    O2 7931   0.781   0.582   1.577 -0.8660 -0.0916  0.1182
  531MPD2     C 7932   0.374   3.609  13.080  0.2824  0.0868  0.2635
  531MPD2    C1 7933   0.277   3.613  13.175 -0.1960 -0.5461  0.2641
  531MPD2    C2 7934   0.168   3.522  13.158  0.1492  0.0770  0.2242
  531MPD2    C3 7935   0.140   3.447  13.050  0.0970  0.2694  0.0187
  531MPD2    C4 7936   0.232   3.463  12.946 -0.2784  0.2134  0.1705
  531MPD2    C5 7937   0.352   3.536  12.964  0.3925 -0.3114  0.0056
  531MPD2     H 7938   0.097   3.521  13.240 -0.4224 -0.9037 -0.2902
  531MPD2    H1 7939   0.225   3.409  12.852 -0.8744 -0.2728  0.4956
  531MPD2    H2 7940   0.456   3.680  13.089 -0.8443  1.4784 -0.3439
  531MPD2    H3 7941   0.425   3.535  12.884  0.1495  0.7766 -0.2177
  531MPD2     N 7942   0.018   3.362  13.039  0.8943  0.1693 -0.4962
  531MPD2    H5 7943   4.734   3.315  12.951  1.0584 -0.5034 -0.1757
  531MPD2    N1 7944   0.285   3.699  13.288 -0.3986  0.1604 -0.3803
  531MPD2    H7 7945   0.366   3.756  13.307 -2.3348  2.5491  0.6825
  532TMC3    C1 7946   0.202   3.815  13.481 -0.0192  0.4048  0.4576
  532TMC3    C2 7947   0.100   3.889  13.535  0.0163  0.9517  0.1647
  532TMC3    C3 7948   0.066   3.891  13.668 -0.0834  0.4916 -0.5419
  532TMC3    C4 7949   0.275   3.742  13.575  0.2086 -0.4190 -0.4263
  532TMC3    C5 7950   0.239   3.748  13.707 -0.0164 -0.4389 -0.2199
  532TMC3    C6 7951   0.142   3.827  13.759  0.1836 -0.5151  0.6278
  532TMC3     C 7952   0.170   3.750  13.360 -0.1401  0.1946  0.6173
  532TMC3     O 7953   0.050   3.740  13.335  0.1098 -0.3546 -0.2049
  532TMC3     H 7954   0.036   3.946  13.468  0.7090  2.0552  0.4382
  532TMC3    H1 7955   0.354   3.673  13.544  1.6085  0.3598  1.4768
  532TMC3    H2 7956   0.111   3.816  13.862 -1.0103 -2.3244  0.0684
  532TMC3    C7 7957   0.296   3.651  13.799 -0.5145 -0.9616  0.2413
  532TMC3    C8 7958   4.670   3.852  13.681 -0.1797  0.3037 -0.3980
  532TMC3    O1 7959   0.338   3.679  13.912 -0.5716  0.1113  0.0141
  532TMC3    O2 7960   4.601   3.900  13.767 -0.4464 -0.0627  0.3737
  533TMC3    C1 7961   0.647   0.849  14.297  0.0689  0.2535 -0.4255
  533TMC3    C2 7962   0.774   0.898  14.265  1.4051 -0.0234  0.2103
  533TMC3    C3 7963   0.796   1.029  14.275  0.4705  0.6922 -0.1682
  533TMC3    C4 7964   0.561   0.920  14.370 -0.2369  0.3289  0.0630
  533TMC3    C5 7965   0.604   1.037  14.421 -0.4259  0.1984  0.2051
  533TMC3    C6 7966   0.723   1.091  14.373  0.0061 -0.0281  0.1142
  533TMC3     C 7967   0.638   0.704  14.304 -0.7623 -0.2847 -0.6188
  533TMC3     O 7968   0.748   0.657  14.321 -0.4752 -0.6937 -0.9505
  533TMC3     H 7969   0.845   0.836  14.213  0.8758 -0.1012 -0.4211
  533TMC3    H1 7970   0.470   0.880  14.411 -1.0001  1.8355 -0.1372
  533TMC3    H2 7971   0.754   1.191  14.400 -0.7035  0.1998  0.0788
  533TMC3    C7 7972   0.620   1.007  14.560  0.2302  0.5340  0.3629
  533TMC3    C8 7973   0.934   1.056  14.297 -0.4367 -0.2186 -0.0382
  533TMC3    O1 7974   0.537   0.933  14.613 -0.2867 -0.2091 -0.2556
  533TMC3    O2 7975   1.004   0.986  14.370  0.1859 -0.2035  0.0120
  534MPD2     C 7976   3.260   1.625   1.458  0.3114  0.0791 -0.2326
  534MPD2    C1 7977   3.299   1.621   1.328 -0.5212 -0.2217  0.2868
  534MPD2    C2 7978   3.213   1.577   1.227  0.1583  1.1607  0.2014
  534MPD2    C3 7979   3.086   1.543   1.260  0.0574 -0.5793  0.3934
  534MPD2    C4 7980   3.048   1.553   1.397  0.1459 -0.9250  0.0417
  534MPD2    C5 7981   3.130   1.593   1.492 -0.5728  0.0992 -1.1428
  534MPD2     H 7982   3.242   1.576   1.122 -1.0339  0.4967 -0.1365
  534MPD2    H1 7983   2.950   1.515   1.425 -0.6890  0.9322 -0.3928
  534MPD2    H2 7984   3.330   1.655   1.534 -1.7682  1.4422  1.1442
  534MPD2    H3 7985   3.107   1.588   1.598 -0.3114 -0.6643 -1.1181
  534MPD2     N 7986   2.993   1.489   1.172  0.1998 -0.4359 -0.3434
  534MPD2    H5 7987   2.904   1.456   1.208 -0.1536 -0.0786 -0.8949
  534MPD2    N1 7988   3.431   1.656   1.286  0.4987  0.1930 -0.0952
  534MPD2    H7 7989   3.449   1.636   1.188  1.0686 -0.5212  0.1595
  535TMC3    C1 7990   2.908   1.413   0.958  0.0431 -0.8603  0.6668
  535TMC3    C2 7991   2.839   1.306   1.016  0.1427  0.1990 -0.0701
  535TMC3    C3 7992   2.778   1.212   0.928  0.8807 -0.5500  0.0224
  535TMC3    C4 7993   2.922   1.418   0.820 -0.1390  0.4905  0.1616
  535TMC3    C5 7994   2.845   1.335   0.749 -0.0339  0.7313  0.2779
  535TMC3    C6 7995   2.777   1.218   0.794  0.0095  0.2125 -0.7756
  535TMC3     C 7996   3.010   1.491   1.037  0.0132 -0.5962  0.5567
  535TMC3     O 7997   3.089   1.556   0.967  0.4498 -0.0486 -0.5291
  535TMC3     H 7998   2.845   1.288   1.123 -0.6538 -0.4985 -0.1384
  535TMC3    H1 7999   2.974   1.506   0.783 -1.3400  1.4203  0.6869
  535TMC3    H2 8000   2.734   1.147   0.723  0.2866 -1.8747  1.1459
  535TMC3    C7 8001   2.856   1.347   0.605  0.0083  1.0608 -0.9918
  535TMC3    C8 8002   2.738   1.086   0.994 -0.2392 -0.8150  0.1004
  535TMC3    O1 8003   2.802   1.267   0.527 -0.0407 -0.3700 -0.0348
  535TMC3    O2 8004   2.711   1.087   1.112 -0.3540  0.8420 -0.0418
  536MPD2     C 8005   1.439   3.903  16.223  0.6785 -0.0505  0.0514
  536MPD2    C1 8006   1.520   3.962  16.321  0.6998  0.1288 -0.2398
  536MPD2    C2 8007   1.582   4.081  16.281  0.4619 -0.2123 -0.3163
  536MPD2    C3 8008   1.549   4.155  16.166 -0.8746 -1.3498 -0.2785
  536MPD2    C4 8009   1.456   4.097  16.079  0.5044  0.3942  0.5777
  536MPD2    C5 8010   1.409   3.971  16.109  0.0328 -0.3312  0.6429
  536MPD2     H 8011   1.668   4.121  16.333  0.1607  3.2307 -2.4633
  536MPD2    H1 8012   1.420   4.152  15.993  0.7300 -0.0094  0.2251
  536MPD2    H2 8013   1.387   3.809  16.241  0.3888 -0.1595 -1.3819
  536MPD2    H3 8014   1.337   3.929  16.039 -0.9683  1.9974  0.2580
  536MPD2     N 8015   1.606   4.282  16.131  0.5137 -1.3409 -0.1469
  536MPD2    H5 8016   1.574   4.326  16.046 -0.0092 -1.3157  0.0641
  536MPD2    N1 8017   1.535   3.900  16.448 -0.1765  0.2054  0.9447
  536MPD2    H7 8018   1.492   3.812  16.474  0.0876  0.1012  1.0369
  537TMC3    C1 8019   1.632   3.876  16.665 -0.0094  1.0375  0.2737
  537TMC3    C2 8020   1.697   3.931  16.771  0.2926 -0.1586  0.6841
  537TMC3    C3 8021   1.713   3.867  16.892 -0.4886 -0.3930  0.7814
  537TMC3    C4 8022   1.579   3.746  16.680  0.0757  0.1252  0.2504
  537TMC3    C5 8023   1.611   3.678  16.796  0.0401  1.0060 -0.3585
  537TMC3    C6 8024   1.673   3.733  16.904  0.0873  0.2763  0.4399
  537TMC3     C 8025   1.609   3.960  16.545  0.0874  0.3300 -0.0360
  537TMC3     O 8026   1.632   4.081  16.559  0.2995  0.1273 -0.2814
  537TMC3     H 8027   1.741   4.029  16.756 -0.8230  0.1142 -0.8448
  537TMC3    H1 8028   1.539   3.685  16.599 -0.0386  0.2280  0.2296
  537TMC3    H2 8029   1.696   3.689  17.001  0.0350 -0.8255 -0.0533
  537TMC3    C7 8030   1.608   3.534  16.788 -0.0870  0.1712  0.4176
  537TMC3    C8 8031   1.720   3.938  17.015 -0.3643 -0.2176 -0.2027
  537TMC3    O1 8032   1.611   3.483  16.675 -0.4020 -0.3182 -0.0208
  537TMC3    O2 8033   1.750   3.880  17.117 -0.1803 -0.1176 -0.2526
  538TMC3    C1 8034   2.763   2.940  11.294  0.3487  0.0322  0.0902
  538TMC3    C2 8035   2.898   2.945  11.287  0.1960  0.1721 -0.3593
  538TMC3    C3 8036   2.961   3.009  11.184 -0.0572 -0.0877 -0.6331
  538TMC3    C4 8037   2.693   2.998  11.190  0.0044  0.7987  0.2419
  538TMC3    C5 8038   2.762   3.047  11.080 -0.7702  0.0680  0.2269
  538TMC3    C6 8039   2.897   3.066  11.082  0.8323  0.2197  0.7374
  538TMC3     C 8040   2.695   2.868  11.395 -0.5826  0.3907 -0.1883
  538TMC3     O 8041   2.584   2.830  11.363  0.1580  0.2402  0.1595
  538TMC3     H 8042   2.962   2.887  11.353  1.7257  0.0273 -1.9606
  538TMC3    H1 8043   2.588   2.971  11.185  0.0655  0.8576 -1.6413
  538TMC3    H2 8044   2.940   3.136  11.011  0.9932 -1.4115 -0.8110
  538TMC3    C7 8045   2.685   3.135  10.996  0.1661  0.5782 -0.1405
  538TMC3    C8 8046   3.097   3.030  11.208  0.1488 -0.0899  0.6123
  538TMC3    O1 8047   2.585   3.187  11.041 -0.0680  0.2862 -0.2227
  538TMC3    O2 8048   3.137   3.008  11.323 -0.3692  0.1163 -0.0862
  539MPD2     C 8049   2.319   2.119  11.851  0.0474 -0.0743 -0.3029
  539MPD2    C1 8050   2.366   2.156  11.730  0.1208  0.0726 -0.4876
  539MPD2    C2 8051   2.330   2.278  11.676 -1.3978 -0.5290 -0.1345
  539MPD2    C3 8052   2.246   2.363  11.744  0.0541 -0.4515  0.3294
  539MPD2    C4 8053   2.183   2.324  11.860 -0.7087 -0.4692 -0.9428
  539MPD2    C5 8054   2.234   2.208  11.909 -0.0541  0.2574  0.0462
  539MPD2     H 8055   2.378   2.310  11.584 -1.3104  0.3516  0.2111
  539MPD2    H1 8056   2.116   2.384  11.921  0.1408 -0.8244  0.3477
  539MPD2    H2 8057   2.336   2.028  11.906  0.3629 -0.4102 -0.9646
  539MPD2    H3 8058   2.188   2.177  12.002  0.1332 -0.1314  0.0095
  539MPD2     N 8059   2.220   2.495  11.696 -0.1549  0.3586 -0.0523
  539MPD2    H5 8060   2.161   2.550  11.758 -0.7695 -1.6539  1.1424
  539MPD2    N1 8061   2.458   2.080  11.657 -0.1070  0.3499 -0.6829
  539MPD2    H7 8062   2.493   2.126  11.573 -0.1254  0.6836 -0.5069
  540TMC3    C1 8063   2.214   2.694  11.564 -0.9710  0.0625 -0.2784
  540TMC3    C2 8064   2.284   2.772  11.472 -0.7318 -0.0573 -0.4057
  540TMC3    C3 8065   2.274   2.908  11.466  0.5484 -0.1210  0.0267
  540TMC3    C4 8066   2.134   2.759  11.650  0.1348  0.6625 -0.4577
  540TMC3    C5 8067   2.120   2.894  11.643 -0.1399  0.4759 -0.9928
  540TMC3    C6 8068   2.183   2.974  11.548 -0.2390 -0.1591  0.1106
  540TMC3     C 8069   2.266   2.559  11.582  0.6939  0.0609  0.0035
  540TMC3     O 8070   2.354   2.518  11.501 -0.6282  0.3801  0.7012
  540TMC3     H 8071   2.363   2.726  11.414 -0.3247 -2.3901  2.0194
  540TMC3    H1 8072   2.084   2.710  11.733 -0.6316  2.1140 -0.0532
  540TMC3    H2 8073   2.170   3.081  11.544 -1.3873 -0.2917  0.4262
  540TMC3    C7 8074   1.997   2.949  11.700 -0.3921  0.4307 -0.2767
  540TMC3    C8 8075   2.318   2.982  11.344 -0.3842 -0.3433 -0.6530
  540TMC3    O1 8076   1.891   2.896  11.670 -0.2366 -0.1027 -0.0647
  540TMC3    O2 8077   2.340   3.102  11.351 -0.0711 -0.0321  0.2617
  541MPD2     C 8078   1.193   3.897  13.553 -0.2393 -0.3186  0.6094
  541MPD2    C1 8079   1.189   3.799  13.461  0.6609  0.9390  0.2470
  541MPD2    C2 8080   1.255   3.819  13.346 -0.1034 -0.1796 -0.1348
  541MPD2    C3 8081   1.323   3.934  13.315 -0.1094  0.1549 -0.2271
  541MPD2    C4 8082   1.333   4.035  13.407  0.2715  0.1691 -0.1756
  541MPD2    C5 8083   1.269   4.010  13.530 -0.1775  1.0698  0.0893
  541MPD2     H 8084   1.250   3.740  13.272 -0.3974 -0.2186 -0.0728
  541MPD2    H1 8085   1.380   4.130  13.383  0.2307 -0.4502 -2.6901
  541MPD2    H2 8086   1.135   3.887  13.644  0.1007  1.9619  1.0862
  541MPD2    H3 8087   1.268   4.089  13.605  0.6329  1.8527 -0.7150
  541MPD2     N 8088   1.369   3.961  13.180 -0.8176  0.4586 -0.2301
  541MPD2    H5 8089   1.401   4.056  13.168 -1.3849  0.9077  1.8310
  541MPD2    N1 8090   1.132   3.673  13.485 -0.5776 -0.0601 -1.0678
  541MPD2    H7 8091   1.137   3.609  13.406 -0.4479 -1.3926  0.0127
  542TMC3    C1 8092   1.344   3.939  12.947 -0.9860  0.1696 -0.5459
  542TMC3    C2 8093   1.352   3.857  12.840  0.1914  0.8590  0.4243
  542TMC3    C3 8094   1.285   3.891  12.723  0.1161  0.3204 -0.2565
  542TMC3    C4 8095   1.265   4.057  12.939 -0.0052  0.4709 -1.1150
  542TMC3    C5 8096   1.192   4.075  12.822  0.0955 -0.2212 -0.4395
  542TMC3    C6 8097   1.209   4.002  12.713  0.4748  0.1525  0.4419
  542TMC3     C 8098   1.376   3.874  13.075 -0.7912  0.9124 -0.6818
  542TMC3     O 8099   1.391   3.755  13.081  0.4320  0.0886  0.4712
  542TMC3     H 8100   1.395   3.760  12.860  0.8845  1.2383  0.7831
  542TMC3    H1 8101   1.230   4.097  13.033  0.4497 -0.6077 -0.4919
  542TMC3    H2 8102   1.146   4.012  12.626  1.9743 -1.0241 -0.7688
  542TMC3    C7 8103   1.102   4.194  12.825 -0.3876  1.2777 -0.6858
  542TMC3    C8 8104   1.280   3.796  12.612  0.9198 -0.0810 -0.1570
  542TMC3    O1 8105   1.113   4.261  12.927  0.3728 -0.9981  0.4045
  542TMC3    O2 8106   1.179   3.799  12.542 -0.4654 -0.3644  0.4186
  543TMC3    C1 8107   0.993   0.574   0.082 -0.1735  0.7087 -0.9761
  543TMC3    C2 8108   1.019   0.449   0.141  0.0724 -0.0109  1.0001
  543TMC3    C3 8109   0.907   0.374   0.171  1.2880 -0.8219  0.0136
  543TMC3    C4 8110   0.866   0.616   0.056  0.0365  0.7757 -0.0357
  543TMC3    C5 8111   0.762   0.533   0.088 -0.1263 -0.3313  0.0940
  543TMC3    C6 8112   0.782   0.403   0.136  0.5270 -0.1037  0.2340
  543TMC3     C 8113   1.070   0.576  17.706 -0.1251 -0.1902 -0.6700
  543TMC3     O 8114   1.131   0.474  17.675 -0.3283  0.1200 -0.0245
  543TMC3     H 8115   1.118   0.409   0.156 -0.0927 -2.0802 -3.4427
  543TMC3    H1 8116   0.841   0.707   0.004  0.1785  0.7386 -0.1689
  543TMC3    H2 8117   0.699   0.335   0.150  1.7305 -1.8734 -1.2356
  543TMC3    C7 8118   0.654   0.540  17.740  0.6836  0.2312  0.1428
  543TMC3    C8 8119   0.930   0.245   0.245 -0.1108 -0.0646  0.3430
  543TMC3    O1 8120   0.560   0.463   0.015  0.4372 -0.0318 -0.0649
  543TMC3    O2 8121   0.863   0.151   0.204 -0.6259 -0.2410 -0.6331
  544MPD2     C 8122   1.163   4.681   0.589  0.3737  0.1672 -0.4586
  544MPD2    C1 8123   1.073   4.655   0.492  0.2774 -0.0059 -0.6654
  544MPD2    C2 8124   1.020   0.018   0.406  0.0091  0.1620  0.6923
  544MPD2    C3 8125   1.069   0.148   0.424  0.0041 -0.1943  0.0423
  544MPD2    C4 8126   1.155   0.172   0.534 -0.0521  1.0108  0.6613
  544MPD2    C5 8127   1.204   0.068   0.607 -0.0293  0.4360 -0.0153
  544MPD2     H 8128   0.960   4.731   0.319  0.8114 -0.5578  0.3282
  544MPD2    H1 8129   1.180   0.274   0.562 -0.6857  1.2337  0.4231
  544MPD2    H2 8130   1.195   4.600   0.655 -1.0684 -1.4175 -1.7241
  544MPD2    H3 8131   1.265   0.090   0.695  1.5716  1.6821 -1.4290
  544MPD2     N 8132   1.022   0.254   0.343 -0.0147 -0.1680  0.0125
  544MPD2    H5 8133   1.056   0.349   0.356  1.4946 -0.5624 -1.0051
  544MPD2    N1 8134   1.041   4.514   0.483 -0.0261 -0.5863  0.1285
  544MPD2    H7 8135   1.107   4.451   0.526 -0.0804 -1.0011 -0.3970
  545TMC3    C1 8136   0.978   4.316   0.397 -0.7925  0.0520 -0.4988
  545TMC3    C2 8137   0.948   4.239   0.287  0.2607  0.0673  0.4513
  545TMC3    C3 8138   0.964   4.102   0.293 -0.4856  0.7928 -0.1944
  545TMC3    C4 8139   1.035   4.263   0.505  0.1709  0.7328 -0.3100
  545TMC3    C5 8140   1.053   4.128   0.517  0.1681  0.4942  0.8261
  545TMC3    C6 8141   1.015   4.045   0.412 -0.4324  0.0097 -0.5545
  545TMC3     C 8142   0.951   4.461   0.402  0.0240  0.2533 -0.4809
  545TMC3     O 8143   0.870   4.511   0.322  0.1457  0.1768  0.4815
  545TMC3     H 8144   0.915   4.288   0.197  2.3105 -0.0569 -0.3782
  545TMC3    H1 8145   1.052   4.320   0.595  0.6166  1.0631 -0.6029
  545TMC3    H2 8146   1.018   3.937   0.416  0.6850  0.0542 -0.3278
  545TMC3    C7 8147   1.101   4.067   0.636  0.0088  0.5838 -0.2360
  545TMC3    C8 8148   0.933   4.031   0.177 -0.4591  0.1629  0.4236
  545TMC3    O1 8149   1.168   4.147   0.700 -0.1455 -0.4209 -0.3326
  545TMC3    O2 8150   0.890   4.099   0.083  0.0435 -0.3636  0.3226
  546MPD2     C 8151   2.123   4.692   0.340  0.3135 -0.9982  0.4581
  546MPD2    C1 8152   2.042   0.010   0.247 -0.1650 -0.5996  0.2408
  546MPD2    C2 8153   2.073   0.138   0.215  0.0162 -0.0956 -0.1704
  546MPD2    C3 8154   2.181   0.218   0.266  0.9843  0.3385 -0.1859
  546MPD2    C4 8155   2.256   0.160   0.364 -0.4735  0.5521 -0.6862
  546MPD2    C5 8156   2.219   0.031   0.396 -0.3594  0.0335  0.5359
  546MPD2     H 8157   2.003   0.178   0.142  1.2773 -0.9263 -1.8366
  546MPD2    H1 8158   2.336   0.214   0.413  0.1173 -3.4700  2.7182
  546MPD2    H2 8159   2.107   4.593   0.381 -0.5496 -0.8875  0.3841
  546MPD2    H3 8160   2.259   4.721   0.484  0.3882 -0.2539  0.0409
  546MPD2     N 8161   2.191   0.355   0.229  0.3075  0.0434 -0.1786
  546MPD2    H5 8162   2.222   0.410   0.308  0.3740 -1.6287  0.9555
  546MPD2    N1 8163   1.929   4.671   0.200  0.0374  0.4805 -0.9410
  546MPD2    H7 8164   1.929   4.574   0.231  1.6037  0.9505  0.4949
  547TMC3    C1 8165   1.728   4.611   0.087 -0.0943  0.3298  0.5584
  547TMC3    C2 8166   1.653   4.630  17.719  0.5861  0.1106  0.9714
  547TMC3    C3 8167   1.575   4.524  17.668  0.1806 -0.2249 -0.1498
  547TMC3    C4 8168   1.723   4.491   0.153 -0.0179 -1.0226 -0.0950
  547TMC3    C5 8169   1.645   4.386   0.106  0.8143  0.3149 -0.3469
  547TMC3    C6 8170   1.576   4.399  17.731 -0.4769  0.1038  0.4666
  547TMC3     C 8171   1.818   4.713   0.123  0.1468  0.4454 -0.9911
  547TMC3     O 8172   1.790   0.088   0.087  0.3263  0.1071 -0.7776
  547TMC3     H 8173   1.659   4.717  17.655  1.7802 -1.3164 -0.8412
  547TMC3    H1 8174   1.760   4.476   0.253 -0.3523  0.8217  0.2966
  547TMC3    H2 8175   1.519   4.313  17.696 -0.9678  0.4746  0.3522
  547TMC3    C7 8176   1.676   4.251   0.153  0.2417 -0.0920 -0.0108
  547TMC3    C8 8177   1.490   4.553  17.556 -0.6512 -0.5273  0.7873
  547TMC3    O1 8178   1.746   4.246   0.258  0.2554 -0.4261 -0.3587
  547TMC3    O2 8179   1.452   4.667  17.545 -0.3455 -0.1844  0.0468
  548MPD2     C 8180   2.006   0.914  12.870  0.4240 -0.1060  0.3995
  548MPD2    C1 8181   1.919   0.846  12.788 -0.3230 -0.1561  0.5239
  548MPD2    C2 8182   1.965   0.784  12.671  0.4055  0.0261  0.6289
  548MPD2    C3 8183   2.092   0.819  12.625  0.5051 -0.4477 -0.1818
  548MPD2    C4 8184   2.175   0.894  12.704 -0.1973  0.0493 -0.2414
  548MPD2    C5 8185   2.133   0.938  12.824 -0.0949  0.3642 -0.0528
  548MPD2     H 8186   1.905   0.738  12.594  2.5416 -0.1897 -0.9147
  548MPD2    H1 8187   2.273   0.926  12.670  0.2658 -1.4705 -0.3175
  548MPD2    H2 8188   1.984   0.939  12.973 -0.8260 -1.3111  0.4269
  548MPD2    H3 8189   2.207   0.993  12.880 -0.6985  0.6546  0.4583
  548MPD2     N 8190   2.139   0.769  12.506 -0.7579  0.1499 -0.2313
  548MPD2    H5 8191   2.061   0.722  12.461 -0.9981  0.2218  0.1097
  548MPD2    N1 8192   1.782   0.834  12.831 -0.6872  0.3327 -0.4459
  548MPD2    H7 8193   1.750   0.893  12.908 -0.2876  1.0741 -0.8410
  549TMC3    C1 8194   1.564   0.755  12.843  0.0747 -0.2029  0.4974
  549TMC3    C2 8195   1.509   0.877  12.862  0.0701 -0.5914 -0.3822
  549TMC3    C3 8196   1.392   0.892  12.925 -0.0887 -0.2848  0.1323
  549TMC3    C4 8197   1.505   0.638  12.884 -0.9686 -0.0361  0.5050
  549TMC3    C5 8198   1.379   0.662  12.942 -0.6186 -0.2510  0.4395
  549TMC3    C6 8199   1.322   0.788  12.966 -0.2560 -0.0545  0.1408
  549TMC3     C 8200   1.693   0.747  12.778 -0.4914 -0.4523 -0.1000
  549TMC3     O 8201   1.714   0.653  12.702  0.3106 -0.4423  0.9659
  549TMC3     H 8202   1.563   0.965  12.831 -1.2899 -0.4834 -2.4684
  549TMC3    H1 8203   1.542   0.539  12.860 -1.9364 -0.7295  1.8517
  549TMC3    H2 8204   1.228   0.799  13.018  0.2042 -2.2447  1.4535
  549TMC3    C7 8205   1.292   0.548  12.978  0.4183 -0.9018 -0.2009
  549TMC3    C8 8206   1.335   1.021  12.947  0.7503  0.1765  0.2824
  549TMC3    O1 8207   1.172   0.570  12.992 -0.3178  0.3705 -0.0790
  549TMC3    O2 8208   1.215   1.029  12.965  0.3483  0.6968  0.3733
  550TMC3    C1 8209   0.024   3.066  12.236  0.3599 -0.0371 -0.3287
  550TMC3    C2 8210   0.065   3.113  12.363 -0.0960 -0.6503 -0.0395
  550TMC3    C3 8211   0.194   3.143  12.382 -0.5805  0.1253 -0.0855
  550TMC3    C4 8212   0.118   3.037  12.142  0.7374  1.0236 -0.2772
  550TMC3    C5 8213   0.242   3.074  12.167 -0.6058 -0.0889 -0.2927
  550TMC3    C6 8214   0.286   3.133  12.285  0.3275  0.8058 -0.2332
  550TMC3     C 8215   4.628   3.102  12.196  0.1344 -0.1813 -0.8842
  550TMC3     O 8216   4.542   3.128  12.280  0.7213 -1.0741  0.0804
  550TMC3     H 8217   4.723   3.131  12.435 -0.2006 -1.0171 -0.0608
  550TMC3    H1 8218   0.091   2.987  12.050  1.3376  0.9086 -0.3894
  550TMC3    H2 8219   0.390   3.139  12.314 -0.0377 -1.0000  1.5033
  550TMC3    C7 8220   0.342   3.046  12.064 -0.8405 -0.4463 -0.5533
  550TMC3    C8 8221   0.210   3.260  12.469 -0.4766  0.6474 -0.0078
  550TMC3    O1 8222   0.312   2.959  11.983 -0.2991  0.2931 -0.4395
  550TMC3    O2 8223   0.112   3.304  12.532 -0.1542  0.0603  0.5798
  551TMC3    C1 8224   2.522   1.367  13.803 -0.3557  0.1244 -0.4659
  551TMC3    C2 8225   2.641   1.329  13.750 -0.3030  0.5749 -0.1559
  551TMC3    C3 8226   2.755   1.404  13.769 -0.2982 -0.1261  0.4870
  551TMC3    C4 8227   2.516   1.475  13.888 -0.1040 -0.3819 -0.3668
  551TMC3    C5 8228   2.628   1.545  13.901  0.6519  0.0005 -0.3359
  551TMC3    C6 8229   2.748   1.517  13.841 -0.1424  0.2594 -0.2122
  551TMC3     C 8230   2.402   1.310  13.739  0.2326  0.1319  0.1466
  551TMC3     O 8231   2.428   1.252  13.636  0.4842  0.3125  0.3522
  551TMC3     H 8232   2.646   1.251  13.674 -0.8987  0.4837 -0.1013
  551TMC3    H1 8233   2.420   1.506  13.927  0.3317 -1.7087  1.7637
  551TMC3    H2 8234   2.831   1.582  13.863 -1.4854  1.0355  2.5471
  551TMC3    C7 8235   2.630   1.650  14.001 -0.0955 -0.0196 -0.2370
  551TMC3    C8 8236   2.871   1.380  13.683  0.1503 -0.0731 -0.0830
  551TMC3    O1 8237   2.528   1.703  14.048 -0.0659 -0.1605 -0.1486
  551TMC3    O2 8238   2.886   1.267  13.645  0.0663 -0.2912 -0.3155
  552MPD2     C 8239   4.616   3.541  14.061  0.0918 -0.1422 -0.2949
  552MPD2    C1 8240   4.623   3.404  14.071 -0.5034  0.2369 -0.7796
  552MPD2    C2 8241   4.725   3.344  14.149  0.0583  0.1957 -0.1118
  552MPD2    C3 8242   0.072   3.427  14.224  0.1081  0.4340  0.0339
  552MPD2    C4 8243   0.053   3.563  14.218  0.5476  0.0708  0.2197
  552MPD2    C5 8244   4.696   3.623  14.139  0.1766 -0.3282  0.0662
  552MPD2     H 8245   4.734   3.236  14.149  1.0334  0.2763 -1.3166
  552MPD2    H1 8246   0.119   3.630  14.270 -1.0661  0.3851  1.8459
  552MPD2    H2 8247   4.546   3.588  13.993  1.3003 -1.4190 -2.4203
  552MPD2    H3 8248   4.688   3.731  14.133  0.8490 -0.2197  1.1095
  552MPD2     N 8249   0.182   3.380  14.294 -0.0211 -0.1190  0.9138
  552MPD2    H5 8250   0.254   3.448  14.314 -0.8793  1.5090 -1.6134
  552MPD2    N1 8251   4.529   3.319  14.014  0.3548 -0.1051 -1.0469
  552MPD2    H7 8252   4.553   3.222  14.000  1.8270  0.3688 -1.7678
  553TMC3    C1 8253   4.343   3.248  13.893  0.3840 -0.0162  0.6033
  553TMC3    C2 8254   4.307   3.277  13.762 -0.5325 -0.0903  0.0829
  553TMC3    C3 8255   4.233   3.183  13.692 -0.7059 -0.2634  0.0022
  553TMC3    C4 8256   4.310   3.131  13.959  0.0547 -1.1114  0.1772
  553TMC3    C5 8257   4.230   3.042  13.900  0.1913 -0.0564 -0.3872
  553TMC3    C6 8258   4.192   3.078  13.768  0.4583  0.4559 -0.3157
  553TMC3     C 8259   4.413   3.353  13.957 -0.3492  0.8393  0.3820
  553TMC3     O 8260   4.348   3.458  13.971  0.3970 -0.1873  0.2315
  553TMC3     H 8261   4.351   3.357  13.703  2.3967 -0.1548  2.1812
  553TMC3    H1 8262   4.344   3.125  14.062  4.3228 -0.7257 -1.1926
  553TMC3    H2 8263   4.127   3.010  13.715  0.4821 -0.4596  0.8480
  553TMC3    C7 8264   4.233   2.900  13.934 -0.0084  0.5080 -0.0755
  553TMC3    C8 8265   4.301   3.132  13.574  0.0554 -0.9021 -0.1799
  553TMC3    O1 8266   4.126   2.843  13.939 -0.1670  0.0763  0.0379
  553TMC3    O2 8267   4.420   3.156  13.573 -0.5951 -0.0569  0.0853
  554TMC3    C1 8268   1.829   2.503  11.504  0.3563  0.1087 -0.2441
  554TMC3    C2 8269   1.797   2.401  11.417 -0.1636 -0.7029 -1.1723
  554TMC3    C3 8270   1.790   2.436  11.281 -0.4360  0.7140 -0.4149
  554TMC3    C4 8271   1.844   2.636  11.467 -0.1226 -0.0563 -0.2875
  554TMC3    C5 8272   1.821   2.665  11.332  0.3084  0.4760 -0.0330
  554TMC3    C6 8273   1.820   2.562  11.236 -0.2077 -0.0281 -0.3286
  554TMC3     C 8274   1.848   2.470  11.643  0.1354  0.1182  0.1745
  554TMC3     O 8275   1.869   2.567  11.715 -0.3239 -0.3554  0.3873
  554TMC3     H 8276   1.763   2.302  11.446 -0.9674 -0.4817 -1.3532
  554TMC3    H1 8277   1.869   2.711  11.541 -0.0965 -0.0345 -0.3184
  554TMC3    H2 8278   1.799   2.584  11.132 -0.2909  0.0759 -0.2894
  554TMC3    C7 8279   1.857   2.801  11.268 -0.0563 -0.7001  0.2828
  554TMC3    C8 8280   1.720   2.353  11.190 -0.8223 -0.2661  0.2890
  554TMC3    O1 8281   1.862   2.815  11.147  0.5054 -0.0791  0.6137
  554TMC3    O2 8282   1.773   2.335  11.082  0.0585  0.3370  0.1345
  555TMC3    C1 8283   1.005   2.120  14.924 -0.1688 -0.2284  0.6238
  555TMC3    C2 8284   1.011   2.162  15.052  0.4814 -0.1793 -0.2283
  555TMC3    C3 8285   1.034   2.063  15.146  0.4957  0.2015  0.1533
  555TMC3    C4 8286   1.025   1.987  14.881 -0.8688  0.0886 -0.4158
  555TMC3    C5 8287   1.046   1.901  14.979  0.7603 -0.4351  0.1007
  555TMC3    C6 8288   1.061   1.935  15.110 -0.3887 -1.2204  0.1740
  555TMC3     C 8289   0.957   2.207  14.820  0.1447  0.1381  0.0225
  555TMC3     O 8290   1.005   2.207  14.706  0.2154 -0.4028  0.1450
  555TMC3     H 8291   1.009   2.266  15.082  0.0411 -0.6557  1.4019
  555TMC3    H1 8292   1.008   1.959  14.778 -0.0214  1.3474 -0.9030
  555TMC3    H2 8293   1.067   1.850  15.178 -2.4732 -1.0335  0.5769
  555TMC3    C7 8294   1.004   1.765  14.954  0.3925 -0.3844 -0.0134
  555TMC3    C8 8295   1.020   2.097  15.287 -0.3598 -0.2708  0.3025
  555TMC3    O1 8296   0.949   1.711  15.054 -0.3599 -0.7010  0.0500
  555TMC3    O2 8297   0.944   2.190  15.312 -0.5504 -0.9911 -0.0364
  556MPD2     C 8298   4.224   3.657  10.973 -0.2214 -0.1639 -0.3220
  556MPD2    C1 8299   4.092   3.700  10.995  0.4386 -0.1069  0.7088
  556MPD2    C2 8300   3.992   3.643  10.928 -0.2428  0.7962  0.4051
  556MPD2    C3 8301   4.023   3.579  10.804  0.3698 -0.1581 -0.4450
  556MPD2    C4 8302   4.154   3.558  10.768  0.0245  0.5673 -0.4426
  556MPD2    C5 8303   4.252   3.592  10.853  0.9172 -0.2429  0.2203
  556MPD2     H 8304   3.891   3.679  10.939 -1.3622 -1.1516 -3.4972
  556MPD2    H1 8305   4.184   3.515  10.673 -3.2662  0.4895 -1.4472
  556MPD2    H2 8306   4.313   3.694  11.022  0.2050 -1.1025 -0.3955
  556MPD2    H3 8307   4.351   3.563  10.822  1.3856  0.1858  1.3220
  556MPD2     N 8308   3.906   3.546  10.727 -0.3075  0.1570  0.4235
  556MPD2    H5 8309   3.823   3.555  10.784 -1.0612 -2.7415 -0.1955
  556MPD2    N1 8310   4.064   3.791  11.093 -0.2997 -0.3696 -0.0216
  556MPD2    H7 8311   3.967   3.820  11.093  0.4603  2.1474 -1.8434
  557TMC3    C1 8312   3.785   3.418  10.563  0.3769  0.8418 -0.5888
  557TMC3    C2 8313   3.768   3.399  10.430  0.3681 -0.2055 -0.0611
  557TMC3    C3 8314   3.658   3.319  10.402 -0.1441  0.0073 -0.6027
  557TMC3    C4 8315   3.697   3.376  10.663 -0.4172  0.0355 -0.2440
  557TMC3    C5 8316   3.587   3.310  10.624  0.3587 -0.2168  0.2852
  557TMC3    C6 8317   3.556   3.295  10.493 -0.0190  0.3386 -0.0814
  557TMC3     C 8318   3.907   3.482  10.605  0.0724  0.5451  0.0863
  557TMC3     O 8319   3.995   3.483  10.522  0.1077 -0.0863  0.9368
  557TMC3     H 8320   3.838   3.431  10.354  0.2591 -1.0179 -0.5060
  557TMC3    H1 8321   3.701   3.398  10.769  0.2868 -2.1261  0.1796
  557TMC3    H2 8322   3.459   3.262  10.461 -0.5136  0.8790  0.8567
  557TMC3    C7 8323   3.493   3.257  10.722 -0.3879  0.9773 -0.1338
  557TMC3    C8 8324   3.631   3.305  10.257 -0.2828 -0.0653  0.5920
  557TMC3    O1 8325   3.389   3.212  10.673 -0.1659 -0.0226 -0.0887
  557TMC3    O2 8326   3.727   3.325  10.182  0.1702  0.3078  0.3611
  558TMC3    C1 8327   0.988   1.406  10.730 -0.3541  0.0198  0.3160
  558TMC3    C2 8328   0.891   1.412  10.831  0.4299 -0.0219 -0.3619
  558TMC3    C3 8329   0.776   1.344  10.816 -0.2433 -0.2521 -0.2608
  558TMC3    C4 8330   0.973   1.333  10.615  0.0776  0.0011 -0.4884
  558TMC3    C5 8331   0.853   1.265  10.602  0.1658 -0.0995  0.2832
  558TMC3    C6 8332   0.755   1.268  10.702 -0.1268 -0.4137  0.2853
  558TMC3     C 8333   1.121   1.429  10.773 -0.0828  0.0296  0.3704
  558TMC3     O 8334   1.197   1.458  10.683 -0.1337 -0.6226 -0.2084
  558TMC3     H 8335   0.924   1.454  10.925  0.2629  0.4702 -0.5214
  558TMC3    H1 8336   1.046   1.329  10.535 -0.2782  0.5402 -0.8371
  558TMC3    H2 8337   0.657   1.226  10.684 -0.0785 -0.6500  0.5708
  558TMC3    C7 8338   0.817   1.216  10.469 -0.3956  0.2729 -0.0053
  558TMC3    C8 8339   0.659   1.378  10.895  1.1181 -0.0046  0.0306
  558TMC3    O1 8340   0.860   1.280  10.370 -0.0017 -0.4890  0.0381
  558TMC3    O2 8341   0.552   1.340  10.853 -0.0533 -0.0234 -0.1466
  559MPD2     C 8342   0.912   2.122  10.556 -0.5143  0.7730 -0.4381
  559MPD2    C1 8343   0.903   2.026  10.659 -0.1937  0.1731  0.1380
  559MPD2    C2 8344   1.016   1.989  10.729 -0.1126  0.1179 -0.0948
  559MPD2    C3 8345   1.140   2.045  10.696  0.8626 -0.0827  0.1184
  559MPD2    C4 8346   1.149   2.134  10.590 -0.7606  0.6590  0.6315
  559MPD2    C5 8347   1.037   2.169  10.519  0.1160  0.1687 -0.3169
  559MPD2     H 8348   1.009   1.927  10.817  1.1522  2.8540  1.9521
  559MPD2    H1 8349   1.246   2.160  10.549 -1.4725 -0.1835 -1.5442
  559MPD2    H2 8350   0.820   2.148  10.506 -1.1268  1.5630  1.1066
  559MPD2    H3 8351   1.040   2.226  10.426 -1.3568  0.1283 -0.3902
  559MPD2     N 8352   1.255   2.024  10.782  0.0097 -0.0545  0.5745
  559MPD2    H5 8353   1.231   1.972  10.866  0.9970 -1.6780 -0.1497
  559MPD2    N1 8354   0.769   1.990  10.696  0.0434  0.2886  0.3815
  559MPD2    H7 8355   0.692   2.027  10.642  2.2268  2.6672 -1.0767
  560TMC3    C1 8356   1.449   2.068  10.892  0.3200 -0.5906 -0.0633
  560TMC3    C2 8357   1.382   2.030  11.009 -0.3493  0.3623  0.0927
  560TMC3    C3 8358   1.457   1.991  11.113  0.4978 -0.8028 -0.1131
  560TMC3    C4 8359   1.578   2.076  10.881 -0.3516  0.6727  0.3058
  560TMC3    C5 8360   1.649   2.048  10.995 -0.0275 -0.2594  0.1442
  560TMC3    C6 8361   1.595   2.003  11.109  0.3190 -0.2752 -0.7156
  560TMC3     C 8362   1.380   2.079  10.771  0.5179 -0.0940  0.9742
  560TMC3     O 8363   1.444   2.118  10.676  0.3152 -0.5062 -0.1091
  560TMC3     H 8364   1.276   2.041  11.028 -0.8000 -1.1385 -1.5639
  560TMC3    H1 8365   1.635   2.094  10.790 -3.1609  1.8011 -1.2222
  560TMC3    H2 8366   1.662   1.973  11.189 -1.8299 -0.4295  1.0299
  560TMC3    C7 8367   1.784   1.991  10.980 -0.0600 -0.2714 -0.6075
  560TMC3    C8 8368   1.384   1.936  11.228 -0.3613  0.0942 -0.8064
  560TMC3    O1 8369   1.783   1.878  10.943  0.1079 -0.5667 -0.8494
  560TMC3    O2 8370   1.261   1.943  11.221 -0.1599 -0.9061 -0.3676
  561TMC3    C1 8371   3.801   1.140  11.309 -0.7500 -0.9128  0.6296
  561TMC3    C2 8372   3.722   1.079  11.397 -0.3101  0.0070 -0.2802
  561TMC3    C3 8373   3.678   1.147  11.505 -0.4027 -0.4810 -0.9295
  561TMC3    C4 8374   3.824   1.274  11.320 -0.5275  0.6001  0.1476
  561TMC3    C5 8375   3.766   1.342  11.421  0.3347 -0.3051 -0.2329
  561TMC3    C6 8376   3.702   1.284  11.529 -0.1140  0.5739  0.1754
  561TMC3     C 8377   3.897   1.064  11.238 -0.4780  0.1147  0.4703
  561TMC3     O 8378   3.865   0.955  11.206 -0.6066 -0.3520  0.4491
  561TMC3     H 8379   3.708   0.973  11.381 -1.0406 -0.0621  0.7819
  561TMC3    H1 8380   3.879   1.323  11.240  1.1705 -0.7538  0.4865
  561TMC3    H2 8381   3.657   1.338  11.611  1.8122 -0.0248  1.6316
  561TMC3    C7 8382   3.797   1.478  11.446  0.3168 -0.9679  0.2878
  561TMC3    C8 8383   3.582   1.067  11.588 -0.6722  0.3458  0.1175
  561TMC3    O1 8384   3.778   1.513  11.558 -0.5934  0.1049 -0.4324
  561TMC3    O2 8385   3.541   0.959  11.555  0.5014 -0.2257 -0.1720
  562TMC3    C1 8386   0.851   1.914  16.175 -1.0249  0.0721 -0.3571
  562TMC3    C2 8387   0.859   2.046  16.171 -0.5944  0.7667 -0.8476
  562TMC3    C3 8388   0.771   2.124  16.096  0.1211  0.3554  0.2099
  562TMC3    C4 8389   0.741   1.854  16.114 -0.6033 -0.2063 -0.3434
  562TMC3    C5 8390   0.660   1.929  16.031  0.0006 -0.0776  0.0583
  562TMC3    C6 8391   0.670   2.071  16.017 -0.5639  0.4768 -0.0567
  562TMC3     C 8392   0.915   1.846  16.284  0.3568  0.0132  0.1704
  562TMC3     O 8393   1.016   1.897  16.328  0.1728  0.1496  0.2746
  562TMC3     H 8394   0.944   2.091  16.222  0.1795  0.0854 -1.5526
  562TMC3    H1 8395   0.720   1.749  16.131  0.3721 -0.1093  1.4312
  562TMC3    H2 8396   0.591   2.126  15.969 -1.4194 -1.4180 -0.8244
  562TMC3    C7 8397   0.584   1.861  15.921 -0.7850 -0.3170  0.4191
  562TMC3    C8 8398   0.767   2.265  16.115 -0.3430 -0.2905  0.2486
  562TMC3    O1 8399   0.513   1.939  15.863 -0.5553 -0.1870 -0.1918
  562TMC3    O2 8400   0.834   2.301  16.210  0.2101 -0.4611  0.1331
  563MPD2     C 8401   2.943   3.905  15.755 -0.5097 -0.2899  0.4442
  563MPD2    C1 8402   2.922   3.779  15.806  0.4531  0.6335 -0.1277
  563MPD2    C2 8403   3.014   3.687  15.759 -0.2986 -0.3122  0.6007
  563MPD2    C3 8404   3.124   3.722  15.685  0.7350  0.2752  0.0231
  563MPD2    C4 8405   3.156   3.851  15.664 -0.0998  0.8508  0.1071
  563MPD2    C5 8406   3.058   3.942  15.687  0.4639  0.2713  0.4001
  563MPD2     H 8407   3.007   3.583  15.791 -0.8403 -0.6593 -0.6288
  563MPD2    H1 8408   3.238   3.892  15.607 -0.6625  0.8918 -0.6754
  563MPD2    H2 8409   2.872   3.982  15.781 -1.3338 -1.5406  1.8967
  563MPD2    H3 8410   3.082   4.042  15.651 -0.9453  0.6657  0.5689
  563MPD2     N 8411   3.219   3.621  15.660 -0.3223  1.0987 -0.1441
  563MPD2    H5 8412   3.194   3.528  15.692 -0.9245  2.5675  3.6880
  563MPD2    N1 8413   2.804   3.756  15.885  0.0859 -0.2629 -0.0602
  563MPD2    H7 8414   2.756   3.841  15.912  0.4545  0.5899 -2.1119
  564TMC3    C1 8415   2.642   3.615  15.997  0.2081 -0.1594  0.2435
  564TMC3    C2 8416   2.580   3.494  15.989  0.5512  0.2033 -0.0746
  564TMC3    C3 8417   2.503   3.458  16.096 -0.2569 -0.5414 -0.1602
  564TMC3    C4 8418   2.635   3.689  16.120 -0.1697 -0.0415  0.1396
  564TMC3    C5 8419   2.566   3.644  16.225 -0.3358  0.2636  0.0184
  564TMC3    C6 8420   2.486   3.534  16.203 -1.0259 -0.2554  0.0279
  564TMC3     C 8421   2.763   3.625  15.921 -0.4291 -0.5403 -0.8581
  564TMC3     O 8422   2.814   3.519  15.890 -0.0313 -0.0783 -0.1981
  564TMC3     H 8423   2.584   3.433  15.899 -1.7043 -0.6155  0.3779
  564TMC3    H1 8424   2.707   3.769  16.133  0.6819 -0.9010  0.6556
  564TMC3    H2 8425   2.417   3.499  16.280 -1.2804  1.5677  0.6218
  564TMC3    C7 8426   2.662   3.603  16.329  0.0034 -0.6276  0.0933
  564TMC3    C8 8427   2.455   3.324  16.106  0.3380  0.8577 -0.4445
  564TMC3    O1 8428   2.655   3.482  16.363 -0.1114  0.1269 -0.1570
  564TMC3    O2 8429   2.351   3.314  16.163  0.2279  0.8117  0.2983
  565TMC3    C1 8430   3.303   0.423  10.097 -0.0809  0.3858 -0.3991
  565TMC3    C2 8431   3.313   0.315  10.185  0.1874 -0.3482  0.0977
  565TMC3    C3 8432   3.242   0.203  10.146 -0.2652 -0.7363  0.0346
  565TMC3    C4 8433   3.226   0.421   9.985 -0.1105  0.3476  0.3209
  565TMC3    C5 8434   3.147   0.313   9.957  0.0487 -0.5867 -0.6271
  565TMC3    C6 8435   3.170   0.198  10.027 -0.1502  0.4620 -0.1030
  565TMC3     C 8436   3.377   0.545  10.118 -0.6469  0.3636 -0.5106
  565TMC3     O 8437   3.386   0.616  10.018  0.0195  0.3562 -0.3007
  565TMC3     H 8438   3.379   0.308  10.271 -0.0055 -2.3250  0.0933
  565TMC3    H1 8439   3.206   0.507   9.923 -0.4914  1.2209  1.6639
  565TMC3    H2 8440   3.105   0.112  10.015  1.4788 -0.8681  0.5162
  565TMC3    C7 8441   3.072   0.307   9.832 -0.3398 -0.3170  0.4606
  565TMC3    C8 8442   3.221   0.089  10.239 -0.3699  0.0351 -0.4269
  565TMC3    O1 8443   3.066   0.412   9.772 -0.2633  0.1574  0.1104
  565TMC3    O2 8444   3.238   0.116  10.357  0.4936 -0.1480  0.7561
  566MPD2     C 8445   0.402   2.286  14.519 -0.5584  0.2051  0.3027
  566MPD2    C1 8446   0.422   2.236  14.394 -0.1494 -0.0516 -0.1324
  566MPD2    C2 8447   0.395   2.100  14.367 -0.6435 -0.0858 -0.3293
  566MPD2    C3 8448   0.361   2.011  14.472  0.0775 -0.2583 -0.4534
  566MPD2    C4 8449   0.331   2.068  14.591  0.2025 -0.3339  0.4838
  566MPD2    C5 8450   0.354   2.206  14.617  0.0435  0.3069  0.1739
  566MPD2     H 8451   0.403   2.055  14.269  1.2595  1.2911 -0.7930
  566MPD2    H1 8452   0.289   2.019  14.678  0.6691 -0.9575  0.3654
  566MPD2    H2 8453   0.412   2.392  14.542 -3.9338  0.7991 -1.0291
  566MPD2    H3 8454   0.343   2.246  14.717 -1.2050 -1.0474  0.5739
  566MPD2     N 8455   0.333   1.873  14.455 -0.1143  0.0173  0.2317
  566MPD2    H5 8456   0.295   1.819  14.531  0.3493 -1.5014 -0.6146
  566MPD2    N1 8457   0.473   2.307  14.284 -0.6381  0.4814 -0.6976
  566MPD2    H7 8458   0.474   2.259  14.194 -0.9634  0.5879 -0.7617
  567TMC3    C1 8459   0.626   2.449  14.179 -0.2917  0.0614  0.2696
  567TMC3    C2 8460   0.553   2.456  14.062  0.3510  0.2865  0.2150
  567TMC3    C3 8461   0.610   2.411  13.944 -0.2384  1.1920 -0.6889
  567TMC3    C4 8462   0.742   2.371  14.184  0.1978  0.0129 -0.0970
  567TMC3    C5 8463   0.799   2.327  14.070 -0.1704  0.4796  0.8838
  567TMC3    C6 8464   0.737   2.360  13.950 -0.0159  0.0236 -0.6166
  567TMC3     C 8465   0.545   2.427  14.298  0.2716  0.1139 -0.2262
  567TMC3     O 8466   0.573   2.490  14.400  0.8722 -0.8195  0.7829
  567TMC3     H 8467   0.464   2.517  14.058 -0.0997 -0.3181  1.0571
  567TMC3    H1 8468   0.797   2.352  14.275  0.9557 -1.1953 -0.8105
  567TMC3    H2 8469   0.778   2.322  13.857 -0.7577  2.3728 -1.9001
  567TMC3    C7 8470   0.841   2.190  14.086  0.0743 -0.2733  0.4776
  567TMC3    C8 8471   0.557   2.442  13.809 -0.4672 -0.6149 -0.2499
  567TMC3    O1 8472   0.884   2.130  13.990 -0.0535 -0.5942 -0.0350
  567TMC3    O2 8473   0.636   2.479  13.724 -0.0808  0.4432 -0.2326
  568MPD2     C 8474   2.382   1.877  16.714  0.3545 -0.4281 -0.0770
  568MPD2    C1 8475   2.432   1.986  16.782 -0.6153 -0.0039 -0.1083
  568MPD2    C2 8476   2.403   2.111  16.738 -0.5749 -0.2822  0.4776
  568MPD2    C3 8477   2.328   2.135  16.624 -0.4238 -0.1607 -0.2842
  568MPD2    C4 8478   2.281   2.022  16.556 -0.7642 -0.1383 -0.5134
  568MPD2    C5 8479   2.320   1.897  16.593  0.9620  0.2339  0.4785
  568MPD2     H 8480   2.432   2.192  16.803 -1.4279 -0.5482  1.2020
  568MPD2    H1 8481   2.228   2.029  16.461  1.9964 -1.2147 -2.1302
  568MPD2    H2 8482   2.394   1.772  16.738 -0.5437 -0.9246 -1.8082
  568MPD2    H3 8483   2.290   1.806  16.541 -0.1831  0.2950  1.0325
  568MPD2     N 8484   2.302   2.266  16.583 -0.7404  0.3043  0.4182
  568MPD2    H5 8485   2.318   2.334  16.657 -0.0449  0.4070  0.1690
  568MPD2    N1 8486   2.509   1.955  16.887  0.5827  0.5775  0.5027
  568MPD2    H7 8487   2.527   1.855  16.891  1.1010  0.6061 -1.0546
  569TMC3    C1 8488   2.208   2.449  16.460 -0.5014 -0.4917 -0.3104
  569TMC3    C2 8489   2.200   2.518  16.575 -0.4342  0.3258 -0.3879
  569TMC3    C3 8490   2.223   2.654  16.566 -0.0319  0.5621  0.6096
  569TMC3    C4 8491   2.242   2.510  16.344 -0.0646 -0.6858  0.0220
  569TMC3    C5 8492   2.281   2.635  16.344 -0.3559  0.1095  0.1126
  569TMC3    C6 8493   2.281   2.717  16.457 -0.4819 -0.1448 -0.0226
  569TMC3     C 8494   2.229   2.304  16.471 -0.2723 -0.5624  0.4454
  569TMC3     O 8495   2.197   2.247  16.367  0.0031 -0.7994  0.2039
  569TMC3     H 8496   2.163   2.463  16.660  1.7950  0.0699  0.3910
  569TMC3    H1 8497   2.248   2.446  16.256  4.4334 -1.1577  0.7057
  569TMC3    H2 8498   2.323   2.817  16.460 -1.9900  0.4928 -0.2243
  569TMC3    C7 8499   2.363   2.678  16.230 -0.2719  0.2016  0.1039
  569TMC3    C8 8500   2.235   2.710  16.691 -0.4005  0.6603  0.5489
  569TMC3    O1 8501   2.409   2.598  16.142  0.0430  0.9244 -0.2303
  569TMC3    O2 8502   2.146   2.693  16.774 -0.2698 -0.4034 -0.1341
  570TMC3    C1 8503   2.047   1.274  16.175  0.4333 -0.7262  0.4721
  570TMC3    C2 8504   2.128   1.305  16.073 -0.4570  0.3061  0.3707
  570TMC3    C3 8505   2.184   1.430  16.070  0.0380  0.0716  0.2279
  570TMC3    C4 8506   2.016   1.368  16.268 -0.6308 -0.7933 -0.6048
  570TMC3    C5 8507   2.081   1.487  16.268  0.6706 -0.1751  0.6292
  570TMC3    C6 8508   2.166   1.521  16.166 -0.3926 -0.1408 -0.0856
  570TMC3     C 8509   1.976   1.151  16.170 -0.0109 -0.7456 -0.0671
  570TMC3     O 8510   2.005   1.080  16.069  0.2131  0.0176  0.1263
  570TMC3     H 8511   2.161   1.236  15.995 -0.6346  0.3746  0.2352
  570TMC3    H1 8512   1.953   1.343  16.353  0.6136 -1.3344  0.1514
  570TMC3    H2 8513   2.221   1.614  16.161  1.0960 -1.2093 -3.1222
  570TMC3    C7 8514   2.034   1.585  16.368 -0.8107  0.6104 -0.2432
  570TMC3    C8 8515   2.269   1.476  15.968  0.1655  0.1867  0.4051
  570TMC3    O1 8516   2.008   1.534  16.478  0.2893  0.1288  0.4577
  570TMC3    O2 8517   2.377   1.522  16.005  0.9126  0.0548 -0.4840
  571MPD2     C 8518   4.604   2.123  17.446 -0.2520  0.0533 -0.6071
  571MPD2    C1 8519   4.650   2.068  17.563 -0.1281  0.4921 -0.2677
  571MPD2    C2 8520   4.661   2.152  17.680  0.0935 -0.3678  0.3577
  571MPD2    C3 8521   4.615   2.282  17.678  0.1928 -0.2464 -0.2941
  571MPD2    C4 8522   4.569   2.330  17.557 -0.1845 -0.4712 -0.1557
  571MPD2    C5 8523   4.557   2.253  17.447  0.0721 -0.4788 -0.1420
  571MPD2     H 8524   4.687   2.104   0.028  0.1527 -0.4262  0.3108
  571MPD2    H1 8525   4.534   2.432  17.548  3.1824  0.8228  1.5580
  571MPD2    H2 8526   4.574   2.067  17.358 -0.0708  0.3010 -0.8242
  571MPD2    H3 8527   4.512   2.303  17.362 -2.9449 -1.0583  1.0943
  571MPD2     N 8528   4.618   2.365   0.050  0.2251  0.3972 -0.0027
  571MPD2    H5 8529   4.581   2.458   0.033 -1.2626 -0.2334 -0.2119
  571MPD2    N1 8530   4.675   1.927  17.558 -0.2303 -0.1737  0.4992
  571MPD2    H7 8531   4.678   1.878  17.469 -1.1157  1.2895 -0.3343
  572TMC3    C1 8532   4.611   2.420   0.271  0.0755 -0.1453 -0.0548
  572TMC3    C2 8533   4.600   2.373   0.396 -0.9734 -0.1599 -0.7538
  572TMC3    C3 8534   4.568   2.464   0.492  0.7917 -0.3763 -0.4850
  572TMC3    C4 8535   4.613   2.557   0.242 -0.1811 -0.1074  0.2899
  572TMC3    C5 8536   4.581   2.640   0.337  0.1646  0.5294  1.2478
  572TMC3    C6 8537   4.549   2.600   0.462 -0.4362  0.7748 -0.4208
  572TMC3     C 8538   4.660   2.326   0.175 -0.8692 -0.0721  0.3256
  572TMC3     O 8539   4.722   2.226   0.207  0.2284 -0.3068  1.0679
  572TMC3     H 8540   4.584   2.266   0.405 -1.4204 -0.0421 -0.2028
  572TMC3    H1 8541   4.644   2.595   0.145 -1.6609  2.7394  0.9156
  572TMC3    H2 8542   4.526   2.673   0.539  2.8498  1.0604  0.2834
  572TMC3    C7 8543   4.593   2.782   0.307 -0.1231  0.5343  0.5752
  572TMC3    C8 8544   4.536   2.394   0.613  0.3199 -0.3911 -0.6093
  572TMC3    O1 8545   4.569   2.815   0.190 -0.4535  0.2420 -0.6930
  572TMC3    O2 8546   4.576   2.280   0.623  0.5644 -0.0665 -0.1087
  573MPD2     C 8547   0.954   2.961   1.648 -0.1121  0.2109  0.3187
  573MPD2    C1 8548   1.044   2.939   1.548  0.7579 -0.3362  0.1876
  573MPD2    C2 8549   1.008   2.953   1.413  0.7384  0.1363 -0.6166
  573MPD2    C3 8550   0.884   3.011   1.382  0.6568 -0.0561 -0.9201
  573MPD2    C4 8551   0.798   3.037   1.484  0.2401  0.0422 -0.4429
  573MPD2    C5 8552   0.824   3.006   1.615  0.7454 -0.6114 -0.4971
  573MPD2     H 8553   1.077   2.940   1.331  1.2364  1.4799 -0.4088
  573MPD2    H1 8554   0.707   3.086   1.454 -0.8698 -0.5544  1.9890
  573MPD2    H2 8555   0.986   2.944   1.751  1.5844 -1.2625 -0.4393
  573MPD2    H3 8556   0.750   3.026   1.692  2.5472 -0.7615  1.2772
  573MPD2     N 8557   0.843   3.056   1.258 -0.1225 -0.4981 -0.9697
  573MPD2    H5 8558   0.775   3.132   1.258  0.7930  0.3183 -1.6952
  573MPD2    N1 8559   1.175   2.904   1.578 -0.5931  0.4197  0.1843
  573MPD2    H7 8560   1.183   2.888   1.678 -1.5928  1.3132  0.4076
  574TMC3    C1 8561   0.870   3.103   1.033  0.8390  0.5274  0.1434
  574TMC3    C2 8562   0.871   3.235   1.064 -0.3218 -0.2484  0.1265
  574TMC3    C3 8563   0.917   3.321   0.974  0.0439 -0.1041  0.4902
  574TMC3    C4 8564   0.898   3.055   0.914 -0.1524 -0.0694 -0.0297
  574TMC3    C5 8565   0.952   3.139   0.824 -0.2091 -1.1297 -0.0430
  574TMC3    C6 8566   0.954   3.277   0.846  0.2073 -0.4362  0.0939
  574TMC3     C 8567   0.892   3.008   1.142 -0.3408 -0.8793  0.3883
  574TMC3     O 8568   0.969   2.912   1.125  0.3964  0.1600  0.0150
  574TMC3     H 8569   0.837   3.267   1.161  1.5498  0.5535  0.5317
  574TMC3    H1 8570   0.871   2.951   0.902  1.9199 -0.6379  0.4206
  574TMC3    H2 8571   1.014   3.326   0.770 -0.9225 -2.6293 -2.2446
  574TMC3    C7 8572   1.050   3.088   0.733  0.1740  0.3268 -0.5818
  574TMC3    C8 8573   0.964   3.452   1.022 -0.6369  0.1446 -0.6761
  574TMC3    O1 8574   1.086   3.159   0.643 -0.2243 -0.0727 -0.0924
  574TMC3    O2 8575   1.003   3.465   1.138  0.0553  0.4273 -0.5538
  575TMC3    C1 8576   3.278   4.397  11.006 -0.0850  0.1297  0.3991
  575TMC3    C2 8577   3.326   4.264  11.007 -0.1323 -0.0459  0.0990
  575TMC3    C3 8578   3.331   4.202  10.889  0.0950 -0.1149 -0.4832
  575TMC3    C4 8579   3.244   4.468  10.892  0.2109 -0.2758 -0.1969
  575TMC3    C5 8580   3.246   4.395  10.777 -0.1699 -0.3823  0.5362
  575TMC3    C6 8581   3.282   4.265  10.771  0.1015 -0.7178  0.4130
  575TMC3     C 8582   3.316   4.482  11.121 -0.3390 -0.4025  0.3451
  575TMC3     O 8583   3.376   4.426  11.209 -0.1161  0.4206 -0.0181
  575TMC3     H 8584   3.389   4.224  11.086 -1.4345  0.2230  1.2770
  575TMC3    H1 8585   3.196   4.565  10.893 -1.3885 -1.0678 -0.2924
  575TMC3    H2 8586   3.272   4.207  10.680 -0.2719 -0.3681  0.2309
  575TMC3    C7 8587   3.216   4.470  10.657  0.1628 -0.6144  0.1793
  575TMC3    C8 8588   3.377   4.066  10.873 -0.7104  0.4075  0.4352
  575TMC3    O1 8589   3.226   4.593  10.665  0.0221  0.0017  0.4680
  575TMC3    O2 8590   3.392   4.036  10.757  0.1205  0.0438 -0.2126
  576MPD2     C 8591   3.240   1.302  12.996 -0.0838  0.5080 -0.0468
  576MPD2    C1 8592   3.192   1.402  12.916 -0.4126  0.8239  0.8476
  576MPD2    C2 8593   3.094   1.482  12.972  0.0832 -0.0742 -0.4262
  576MPD2    C3 8594   3.030   1.461  13.091 -0.0166 -0.0539 -0.5234
  576MPD2    C4 8595   3.085   1.363  13.163 -0.2080 -0.1216 -0.1567
  576MPD2    C5 8596   3.186   1.282  13.116  0.3272 -0.4530 -0.4926
  576MPD2     H 8597   3.058   1.563  12.910  1.8772 -1.4103 -3.2074
  576MPD2    H1 8598   3.059   1.333  13.264  0.9094 -3.8461 -0.9489
  576MPD2    H2 8599   3.325   1.242  12.965  1.4171  3.0026 -0.7441
  576MPD2    H3 8600   3.226   1.203  13.178  0.5308 -1.2329 -1.6270
  576MPD2     N 8601   2.917   1.541  13.123 -0.2105  0.0852  0.0155
  576MPD2    H5 8602   2.912   1.632  13.079  3.8518 -0.3819 -1.4145
  576MPD2    N1 8603   3.241   1.432  12.786  0.6432 -0.5537 -0.3623
  576MPD2    H7 8604   3.190   1.508  12.742  1.9937  1.0198  0.7629
  577TMC3    C1 8605   3.315   1.381  12.565 -0.2727 -0.2932  0.4676
  577TMC3    C2 8606   3.309   1.270  12.487 -0.0524  0.3872  1.1325
  577TMC3    C3 8607   3.283   1.302  12.355 -0.0186  0.0290  0.0941
  577TMC3    C4 8608   3.298   1.513  12.526  0.7679 -0.7668 -0.0747
  577TMC3    C5 8609   3.270   1.528  12.396  0.1599  0.2456  0.4620
  577TMC3    C6 8610   3.261   1.426  12.312 -0.2543  0.9122 -0.9770
  577TMC3     C 8611   3.311   1.349  12.704  0.0731  0.1459  0.4435
  577TMC3     O 8612   3.352   1.234  12.727  0.3400  0.5023  0.2897
  577TMC3     H 8613   3.335   1.169  12.516 -0.1709 -0.0055 -0.1061
  577TMC3    H1 8614   3.332   1.595  12.588  1.6673 -0.9074 -0.3899
  577TMC3    H2 8615   3.248   1.445  12.206 -1.8786  0.6101 -0.8283
  577TMC3    C7 8616   3.287   1.650  12.326  0.2140 -1.0926  0.1337
  577TMC3    C8 8617   3.288   1.187  12.256  0.6202 -0.5083  1.0577
  577TMC3    O1 8618   3.383   1.720  12.345 -0.2991  0.1680  0.9519
  577TMC3    O2 8619   3.247   1.077  12.293  0.5053 -0.1316  0.1382
  578MPD2     C 8620   1.812   1.248   1.011  0.1707  0.0043  1.0185
  578MPD2    C1 8621   1.786   1.140   0.934 -0.2180 -0.0102  0.5552
  578MPD2    C2 8622   1.837   1.019   0.974  0.1486  0.1904  0.3868
  578MPD2    C3 8623   1.916   1.014   1.090 -1.0283 -0.7140 -0.0139
  578MPD2    C4 8624   1.931   1.127   1.165 -0.0999  0.0591  0.4013
  578MPD2    C5 8625   1.879   1.247   1.124  0.1696 -0.6172 -0.3578
  578MPD2     H 8626   1.826   0.929   0.915 -2.5879  0.6477  0.1895
  578MPD2    H1 8627   1.979   1.135   1.262  0.8588 -0.0724 -0.0616
  578MPD2    H2 8628   1.774   1.342   0.974  2.8981  0.9533  0.5953
  578MPD2    H3 8629   1.894   1.338   1.181 -0.1438 -0.9716  0.2818
  578MPD2     N 8630   1.976   0.895   1.130 -0.4084 -0.0030 -0.0850
  578MPD2    H5 8631   1.974   0.831   1.051  1.4857 -0.9277  0.6174
  578MPD2    N1 8632   1.722   1.159   0.808  0.3442 -0.2126 -0.4382
  578MPD2    H7 8633   1.694   1.252   0.779  0.7341 -0.0794 -0.3903
  579TMC3    C1 8634   2.068   0.730   1.256  0.1755  0.0747  0.0071
  579TMC3    C2 8635   2.183   0.709   1.182 -0.7260  0.0722 -0.3612
  579TMC3    C3 8636   2.237   0.587   1.194  0.0324  0.2012 -0.2579
  579TMC3    C4 8637   2.005   0.628   1.321  0.3048 -0.4026 -0.0433
  579TMC3    C5 8638   2.068   0.507   1.333 -0.2275  0.1490  0.2540
  579TMC3    C6 8639   2.181   0.480   1.261 -0.2385 -0.2041  0.2919
  579TMC3     C 8640   2.015   0.861   1.257 -0.4461  0.4178  0.3226
  579TMC3     O 8641   1.975   0.910   1.361 -0.6167 -0.0411  0.3428
  579TMC3     H 8642   2.215   0.790   1.119 -0.0927 -0.2320 -0.4315
  579TMC3    H1 8643   1.917   0.657   1.376  0.4185  0.2611 -0.2107
  579TMC3    H2 8644   2.221   0.380   1.247 -0.9802 -0.6785  1.5238
  579TMC3    C7 8645   1.988   0.392   1.371 -0.6302 -0.1140 -0.0877
  579TMC3    C8 8646   2.365   0.556   1.130 -0.4968 -0.2944 -0.2212
  579TMC3    O1 8647   2.044   0.286   1.386 -0.2869 -0.4055 -0.0812
  579TMC3    O2 8648   2.390   0.442   1.095 -0.1167 -0.4037 -0.4229
  580TMC3    C1 8649   0.800   0.408  12.366 -0.4318 -0.1825  0.0131
  580TMC3    C2 8650   0.836   0.438  12.230 -0.2024 -0.7331  0.6431
  580TMC3    C3 8651   0.932   0.372  12.168 -0.5036 -0.1856  0.1585
  580TMC3    C4 8652   0.857   0.306  12.434 -0.1130  0.0824 -0.2455
  580TMC3    C5 8653   0.942   0.230  12.359 -0.8807 -0.1551  1.1095
  580TMC3    C6 8654   0.984   0.263  12.230  0.2224 -0.2315  1.0095
  580TMC3     C 8655   0.785   0.535  12.433  0.3675  0.2426 -0.0564
  580TMC3     O 8656   0.720   0.621  12.373  0.0310 -0.1055  0.3221
  580TMC3     H 8657   0.797   0.525  12.178 -0.1477  0.0292  1.8893
  580TMC3    H1 8658   0.818   0.279  12.531  2.9254  1.1468  1.2906
  580TMC3    H2 8659   1.071   0.212  12.190 -0.8070 -0.4256 -0.9733
  580TMC3    C7 8660   0.996   0.109  12.424 -0.4133  0.1354 -0.5028
  580TMC3    C8 8661   1.031   0.460  12.121 -0.0717 -0.7763  0.1337
  580TMC3    O1 8662   1.026   0.123  12.541 -0.3575 -0.3146  0.2000
  580TMC3    O2 8663   0.985   0.563  12.073 -0.0741  0.4955 -0.2629
  581MPD2     C 8664   4.025   4.577  15.057 -0.4002 -0.2404 -0.0443
  581MPD2    C1 8665   3.912   4.572  15.136 -0.5565  0.0217 -0.1776
  581MPD2    C2 8666   3.802   4.637  15.085 -0.1708  0.0606  0.0026
  581MPD2    C3 8667   3.815   4.722  14.974 -0.0210 -0.2560 -0.4906
  581MPD2    C4 8668   3.926   4.712  14.900 -0.4043  0.0651 -0.1683
  581MPD2    C5 8669   4.035   4.653  14.947  0.5824 -0.0371  0.2243
  581MPD2     H 8670   3.703   4.639  15.130 -0.2374  2.2776 -0.2044
  581MPD2    H1 8671   3.935   0.029  14.806  1.7008 -1.5115 -0.8842
  581MPD2    H2 8672   4.116   4.522  15.080 -0.0282  0.0789 -0.7723
  581MPD2    H3 8673   4.123   4.640  14.886  1.5333  3.7967  0.7621
  581MPD2     N 8674   3.709   0.072  14.930  0.1581 -0.3374 -1.6119
  581MPD2    H5 8675   3.620   0.055  14.976  0.9579  0.8567  0.3306
  581MPD2    N1 8676   3.915   4.504  15.260  0.1917  0.1910 -0.0523
  581MPD2    H7 8677   4.003   4.471  15.297 -0.6373  0.1848  1.8949
  582TMC3    C1 8678   3.813   4.374  15.432 -0.1468  0.3366 -0.6327
  582TMC3    C2 8679   3.902   4.429  15.523 -0.7875 -0.1103  0.1015
  582TMC3    C3 8680   3.856   4.417  15.654  0.3235  0.2011 -0.1947
  582TMC3    C4 8681   3.700   4.310  15.466 -0.6942 -0.2778  0.5985
  582TMC3    C5 8682   3.664   4.296  15.594 -0.5609 -0.4642  0.8014
  582TMC3    C6 8683   3.737   4.356  15.692 -0.5239 -0.0880 -0.3092
  582TMC3     C 8684   3.800   4.451  15.305 -0.7185 -0.3652  0.2569
  582TMC3     O 8685   3.693   4.452  15.251  0.1099  0.1317  0.1761
  582TMC3     H 8686   4.002   4.466  15.503 -0.6344  0.6344  2.2419
  582TMC3    H1 8687   3.651   4.255  15.386  0.7366 -1.0734  0.2788
  582TMC3    H2 8688   3.701   4.361  15.794  0.5325  1.0346  0.0223
  582TMC3    C7 8689   3.525   4.294  15.620  0.3099  0.5630 -0.2983
  582TMC3    C8 8690   3.939   4.459  15.763  0.6902 -0.9995  0.3264
  582TMC3    O1 8691   3.497   4.271  15.740  0.3911 -0.5308  0.1017
  582TMC3    O2 8692   4.059   4.437  15.762 -0.1452  0.4025  0.6291
  583MPD2     C 8693   4.114   1.571  16.474  0.3131 -0.1459  0.2449
  583MPD2    C1 8694   4.113   1.696  16.422  0.1862 -0.0273  0.3993
  583MPD2    C2 8695   4.068   1.796  16.503  0.4601 -0.6211  0.5247
  583MPD2    C3 8696   4.018   1.779  16.629  0.2702 -0.0703  0.2995
  583MPD2    C4 8697   4.004   1.649  16.678  0.1886  0.2553  0.2715
  583MPD2    C5 8698   4.064   1.549  16.603  0.5861 -0.1305  0.1514
  583MPD2     H 8699   4.070   1.896  16.461 -1.5181 -0.2677  1.2837
  583MPD2    H1 8700   3.970   1.624  16.777  1.0038 -0.7410  0.2990
  583MPD2    H2 8701   4.160   1.487  16.423  1.6566  0.1967  0.8698
  583MPD2    H3 8702   4.072   1.448  16.640  2.0041 -0.1656 -0.2497
  583MPD2     N 8703   3.961   1.892  16.698 -0.0346  0.6092  0.2290
  583MPD2    H5 8704   3.972   1.982  16.652  1.5184  0.2052 -0.2016
  583MPD2    N1 8705   4.179   1.728  16.302  0.2435  0.2052  0.2131
  583MPD2    H7 8706   4.165   1.822  16.266  0.1728  0.1352  0.0569
  584TMC3    C1 8707   3.846   2.018  16.871 -0.2941  1.0535 -0.4781
  584TMC3    C2 8708   3.888   2.140  16.813 -0.1411  0.4935 -0.1256
  584TMC3    C3 8709   3.816   2.255  16.844 -0.3434  0.4014 -0.6805
  584TMC3    C4 8710   3.755   2.011  16.979  0.7681  0.9719  0.3910
  584TMC3    C5 8711   3.703   2.139  17.011 -0.3775  0.5613 -0.0259
  584TMC3    C6 8712   3.724   2.256  16.944 -0.1488 -0.4560  0.1407
  584TMC3     C 8713   3.891   1.894  16.819 -0.6335  0.3038  0.2007
  584TMC3     O 8714   3.856   1.794  16.884 -0.1536 -0.0893 -0.1605
  584TMC3     H 8715   3.971   2.142  16.743  0.0663 -0.0904  0.0942
  584TMC3    H1 8716   3.737   1.922  17.038 -0.1433  0.2669 -0.9667
  584TMC3    H2 8717   3.661   2.342  16.965 -1.0940 -0.9395 -0.7009
  584TMC3    C7 8718   3.616   2.137  17.114 -0.7614 -0.0560 -0.2315
  584TMC3    C8 8719   3.871   2.387  16.824 -0.5624  1.5246  0.1387
  584TMC3    O1 8720   3.550   2.033  17.128  0.2576  0.6297  0.5353
  584TMC3    O2 8721   3.871   2.454  16.926  0.0862  0.2337  0.2430
  585MPD2     C 8722   2.768   0.826   0.400 -0.2893 -0.2262  0.2477
  585MPD2    C1 8723   2.848   0.774   0.303 -0.2956  0.0431  0.1519
  585MPD2    C2 8724   2.883   0.637   0.317 -0.1757 -0.6911  0.1681
  585MPD2    C3 8725   2.830   0.559   0.419 -0.3769 -0.3069 -0.3591
  585MPD2    C4 8726   2.756   0.622   0.521 -0.0737  0.4902 -0.1581
  585MPD2    C5 8727   2.726   0.755   0.505  0.0016 -0.0471 -0.2589
  585MPD2     H 8728   2.953   0.597   0.245  1.5998  0.8215  1.0635
  585MPD2    H1 8729   2.716   0.558   0.599 -0.0056  0.2455 -0.3231
  585MPD2    H2 8730   2.736   0.930   0.402  0.3848 -0.0285  0.6611
  585MPD2    H3 8731   2.670   0.812   0.578 -1.2447 -1.3277 -0.2242
  585MPD2     N 8732   2.860   0.422   0.442  0.6749  0.2330  0.1708
  585MPD2    H5 8733   2.816   0.371   0.517  3.5348 -2.1681  0.1795
  585MPD2    N1 8734   2.894   0.866   0.198  0.0295  0.0074  0.3362
  585MPD2    H7 8735   2.863   0.962   0.207 -2.3860 -0.3622 -3.9328
  586TMC3    C1 8736   2.942   0.203   0.425 -0.2553 -0.1292 -0.4093
  586TMC3    C2 8737   3.036   0.137   0.348  0.2470  0.4585  0.3916
  586TMC3    C3 8738   3.011   0.043   0.255  0.4654  0.0799 -0.0067
  586TMC3    C4 8739   2.808   0.164   0.402  0.1555 -0.3832 -1.1220
  586TMC3    C5 8740   2.785   0.058   0.315 -0.2231  0.4779 -1.2334
  586TMC3    C6 8741   2.881   0.005   0.242 -0.3798 -0.0266  0.0019
  586TMC3     C 8742   2.955   0.343   0.387  1.1553  0.4825  0.2156
  586TMC3     O 8743   3.049   0.378   0.314  0.2465  0.0644  0.1979
  586TMC3     H 8744   3.142   0.142   0.366  0.1735  1.5820  0.5260
  586TMC3    H1 8745   2.723   0.209   0.451 -1.2881 -4.0531 -0.2578
  586TMC3    H2 8746   2.854   4.668   0.168  0.6158 -0.5068  0.1204
  586TMC3    C7 8747   2.652   0.047   0.260  0.5000 -0.0830  0.2629
  586TMC3    C8 8748   3.090   0.042   0.136 -0.0081  0.3200 -0.0180
  586TMC3    O1 8749   2.554   0.030   0.331  0.0758  0.4550  0.0100
  586TMC3    O2 8750   3.117   4.668   0.088  0.0020 -0.3146  0.7684
  587TMC3    C1 8751   0.993   4.093  16.323 -0.3983 -0.4228 -0.5274
  587TMC3    C2 8752   1.049   4.181  16.232  0.7247 -0.3319 -0.7038
  587TMC3    C3 8753   1.173   4.243  16.258  0.1731 -0.0833  0.2853
  587TMC3    C4 8754   1.067   4.067  16.434 -0.4083  0.2898 -0.2581
  587TMC3    C5 8755   1.200   4.116  16.455 -0.3727  0.2466 -0.1102
  587TMC3    C6 8756   1.251   4.212  16.369  0.0406 -0.6763 -0.3059
  587TMC3     C 8757   0.858   4.131  16.345 -0.2395  1.0384  0.0912
  587TMC3     O 8758   0.824   4.213  16.266 -0.2909  0.3461 -0.4171
  587TMC3     H 8759   0.998   4.203  16.138  0.0631 -0.2254 -0.3198
  587TMC3    H1 8760   1.025   3.990  16.497 -1.9201  0.2427 -1.3454
  587TMC3    H2 8761   1.350   4.252  16.384  0.1882 -0.3840 -2.1098
  587TMC3    C7 8762   1.264   4.106  16.583 -0.2691 -0.3870 -0.4500
  587TMC3    C8 8763   1.166   4.384  16.228 -0.4754  0.8670  0.1222
  587TMC3    O1 8764   1.331   4.206  16.608 -0.0620  0.6571 -0.2693
  587TMC3    O2 8765   1.274   4.443  16.217 -0.4997 -0.2470  0.2590
  588TMC3    C1 8766   2.556   2.422  10.161  0.5550 -0.4613 -0.0074
  588TMC3    C2 8767   2.494   2.303  10.133 -0.3267 -0.0648  0.3906
  588TMC3    C3 8768   2.562   2.190  10.158 -1.0265 -0.0717 -0.0967
  588TMC3    C4 8769   2.692   2.426  10.203  0.2604  0.1911 -0.0111
  588TMC3    C5 8770   2.755   2.309  10.233 -0.9375 -0.0179  0.2316
  588TMC3    C6 8771   2.689   2.193  10.209 -0.7305 -0.6696 -0.1394
  588TMC3     C 8772   2.494   2.537  10.106  0.1923 -0.0328 -0.2920
  588TMC3     O 8773   2.438   2.520   9.995 -0.5685  0.2406  0.2794
  588TMC3     H 8774   2.389   2.296  10.103 -0.1142  0.8027 -0.5576
  588TMC3    H1 8775   2.742   2.515  10.240 -0.8995  1.8364 -2.3990
  588TMC3    H2 8776   2.739   2.100  10.236  1.6961  0.6158 -0.2076
  588TMC3    C7 8777   2.878   2.308  10.313  0.5276 -0.0169 -0.5202
  588TMC3    C8 8778   2.490   2.065  10.128  0.3640  0.9972  0.5267
  588TMC3    O1 8779   2.896   2.214  10.389  0.3732  0.3877 -0.2070
  588TMC3    O2 8780   2.369   2.074  10.094  0.4614 -0.6122  0.0367
  589TMC3    C1 8781   1.982   3.557   1.653  0.6780  0.1606 -0.4765
  589TMC3    C2 8782   2.109   3.574   1.708 -0.2774 -0.2960  0.0210
  589TMC3    C3 8783   2.218   3.554   1.635 -0.5152 -0.1071  0.0434
  589TMC3    C4 8784   1.961   3.527   1.517  0.3565  0.1974  0.2685
  589TMC3    C5 8785   2.083   3.506   1.446  0.5277  0.4501  0.0289
  589TMC3    C6 8786   2.206   3.518   1.501 -0.0007 -0.1041 -0.7400
  589TMC3     C 8787   1.861   3.609   1.719  0.3495 -0.1121 -0.1466
  589TMC3     O 8788   1.756   3.602   1.652  0.0510  0.2191  0.1210
  589TMC3     H 8789   2.123   3.626   1.802 -1.9659 -3.2140  1.8954
  589TMC3    H1 8790   1.864   3.503   1.473  0.3739 -0.2257  0.4620
  589TMC3    H2 8791   2.294   3.493   1.444  0.9352  1.1252  0.1778
  589TMC3    C7 8792   2.080   3.449   1.311 -0.2884 -0.3608 -0.2047
  589TMC3    C8 8793   2.333   3.631   1.678 -0.9183 -0.4847 -0.4668
  589TMC3    O1 8794   2.192   3.435   1.255 -0.0303 -0.2268  1.0645
  589TMC3    O2 8795   2.334   3.679   1.789 -0.2126 -0.0243  0.3115
  590MPD2     C 8796   1.499   2.364  15.920 -0.0998 -0.5214  0.2792
  590MPD2    C1 8797   1.447   2.489  15.947 -0.0555  0.2456  0.2137
  590MPD2    C2 8798   1.527   2.577  16.015 -0.0120  0.1717 -0.3547
  590MPD2    C3 8799   1.653   2.543  16.072  0.3132  0.2564 -0.8228
  590MPD2    C4 8800   1.698   2.417  16.045  0.1992  0.2936  0.0007
  590MPD2    C5 8801   1.618   2.330  15.973  0.2543 -0.1145  0.4029
  590MPD2     H 8802   1.491   2.679  16.011  0.5811  0.4349  1.1872
  590MPD2    H1 8803   1.799   2.393  16.077  0.4862  1.5814  0.0278
  590MPD2    H2 8804   1.450   2.296  15.851 -0.0091  0.0587 -0.3489
  590MPD2    H3 8805   1.664   2.232  15.961 -1.1100 -0.7311  0.2451
  590MPD2     N 8806   1.728   2.643  16.122  0.0720  0.6160  0.6168
  590MPD2    H5 8807   1.681   2.731  16.104  0.2758  0.6406  0.1999
  590MPD2    N1 8808   1.321   2.525  15.899 -0.3350  0.2315 -0.5898
  590MPD2    H7 8809   1.283   2.614  15.931 -0.1151  1.3985 -3.5432
  591TMC3    C1 8810   1.894   2.780  16.187 -0.3213  0.4214 -0.0161
  591TMC3    C2 8811   2.014   2.800  16.123 -0.2921 -0.5896  0.5290
  591TMC3    C3 8812   2.019   2.904  16.037 -0.7189 -0.3324 -0.2338
  591TMC3    C4 8813   1.792   2.872  16.182  0.1095 -0.4682  0.1874
  591TMC3    C5 8814   1.809   2.979  16.093  0.3582  0.2045 -0.7857
  591TMC3    C6 8815   1.919   3.000  16.023 -0.3596 -0.8674 -0.0811
  591TMC3     C 8816   1.852   2.640  16.169  0.9200 -0.0758  0.0875
  591TMC3     O 8817   1.924   2.543  16.189  0.2340  0.4199 -0.0582
  591TMC3     H 8818   2.083   2.719  16.101  0.5531  0.5978 -1.1795
  591TMC3    H1 8819   1.709   2.871  16.252  0.1418  1.5115  0.2446
  591TMC3    H2 8820   1.923   3.071  15.941  0.8634 -0.0557  0.6701
  591TMC3    C7 8821   1.694   3.068  16.076 -0.3415 -0.4238  0.3595
  591TMC3    C8 8822   2.142   2.919  15.957 -0.1455  0.3644 -0.3946
  591TMC3    O1 8823   1.596   3.031  16.143  0.0276  0.3648  0.1522
  591TMC3    O2 8824   2.197   2.806  15.938  0.0397  0.7760 -0.6215
  592MPD2     C 8825   1.742   0.361  11.409 -0.1239  1.1522 -0.1574
  592MPD2    C1 8826   1.757   0.401  11.539 -0.3768  0.0979  0.6323
  592MPD2    C2 8827   1.702   0.321  11.633 -0.4495  0.1880  0.8390
  592MPD2    C3 8828   1.625   0.208  11.595 -0.3977 -0.4092  0.3242
  592MPD2    C4 8829   1.607   0.179  11.465  0.6238 -0.1547 -0.7567
  592MPD2    C5 8830   1.670   0.252  11.374  0.2497 -0.3569 -0.3965
  592MPD2     H 8831   1.710   0.344  11.738  4.0542 -0.5174  0.6285
  592MPD2    H1 8832   1.559   0.089  11.430  0.5887  0.1782 -1.5771
  592MPD2    H2 8833   1.784   0.411  11.322  0.4429  0.1963 -0.4286
  592MPD2    H3 8834   1.668   0.224  11.269  1.7298  0.0224 -0.5143
  592MPD2     N 8835   1.568   0.131  11.702 -0.1462  0.2930  0.5014
  592MPD2    H5 8836   1.595   0.160  11.795 -1.8776  0.7075  0.8802
  592MPD2    N1 8837   1.844   0.511  11.572  0.4898  0.0683 -0.1282
  592MPD2    H7 8838   1.882   0.559  11.491  0.3732  0.1170 -0.1544
  593TMC3    C1 8839   1.975   0.661  11.694 -0.5852  0.2794  1.3461
  593TMC3    C2 8840   1.984   0.726  11.815  0.4217  0.3920  0.4138
  593TMC3    C3 8841   2.084   0.817  11.832 -0.5428  0.5450 -0.7398
  593TMC3    C4 8842   2.082   0.648  11.612  0.1636  0.4483 -0.6222
  593TMC3    C5 8843   2.181   0.744  11.630  0.2696 -0.2258  0.2946
  593TMC3    C6 8844   2.174   0.834  11.732  0.1707  0.0005  0.1334
  593TMC3     C 8845   1.879   0.557  11.699 -0.2187  0.0587  0.2660
  593TMC3     O 8846   1.855   0.505  11.809 -0.0644 -0.0657  0.1155
  593TMC3     H 8847   1.897   0.721  11.879  1.0084  0.0197  1.1743
  593TMC3    H1 8848   2.078   0.590  11.520 -1.0882 -0.8834  0.2870
  593TMC3    H2 8849   2.250   0.910  11.748  1.0976 -1.0646  0.8351
  593TMC3    C7 8850   2.302   0.721  11.549  0.5047  0.0143 -0.1932
  593TMC3    C8 8851   2.069   0.922  11.935  0.6497 -0.1266 -0.1513
  593TMC3    O1 8852   2.280   0.659  11.444 -0.0798  0.2381 -0.3847
  593TMC3    O2 8853   2.121   1.031  11.904  0.7172  0.0139  0.0210
  594MPD2     C 8854   0.749   3.578  14.106 -0.0029 -0.8602  0.0047
  594MPD2    C1 8855   0.749   3.567  14.242 -0.0347 -0.1494  0.0351
  594MPD2    C2 8856   0.859   3.623  14.314  0.2008 -0.6479  0.8919
  594MPD2    C3 8857   0.965   3.676  14.237  1.0761  0.1310 -0.1342
  594MPD2    C4 8858   0.950   3.690  14.105  0.4046  0.4087  0.0248
  594MPD2    C5 8859   0.839   3.651  14.032 -0.3509 -0.3052 -0.8757
  594MPD2     H 8860   0.862   3.609  14.422 -0.6267  1.1007  1.1517
  594MPD2    H1 8861   1.031   3.723  14.041  0.0325  0.0064 -0.6586
  594MPD2    H2 8862   0.657   3.552  14.053  0.9376 -2.8381 -0.6509
  594MPD2    H3 8863   0.826   3.669  13.926 -0.0998 -1.0404 -1.0323
  594MPD2     N 8864   1.080   3.720  14.308 -0.1815 -0.1595 -0.1196
  594MPD2    H5 8865   1.078   3.727  14.410  0.4212 -0.0062 -0.1178
  594MPD2    N1 8866   0.644   3.496  14.304 -0.1323 -0.0305 -0.1887
  594MPD2    H7 8867   0.577   3.458  14.238 -1.4046  1.2315  0.3853
  595TMC3    C1 8868   1.478   3.960  14.266  0.0809  0.2517  0.1482
  595TMC3    C2 8869   1.416   3.841  14.278  0.3104 -0.1258  0.2340
  595TMC3    C3 8870   1.291   3.831  14.329 -0.2602  0.7472 -0.0935
  595TMC3    C4 8871   1.419   4.076  14.309  0.2965  0.1358  0.0646
  595TMC3    C5 8872   1.286   4.068  14.372  0.4236  0.3348 -0.3177
  595TMC3    C6 8873   1.224   3.943  14.380 -0.0428  0.1803 -0.1051
  595TMC3     C 8874   1.623   3.965  14.248 -0.5555 -0.7856  0.5088
  595TMC3     O 8875   1.675   4.075  14.264 -0.6992  0.2446  0.7212
  595TMC3     H 8876   1.460   3.748  14.244  1.1929 -0.9877  3.8138
  595TMC3    H1 8877   1.467   4.172  14.297 -2.9129  1.3710 -2.9659
  595TMC3    H2 8878   1.125   3.934  14.423 -0.3216  2.6043 -0.2719
  595TMC3    C7 8879   1.220   4.179  14.438 -0.7790 -0.3427 -0.1164
  595TMC3    C8 8880   1.205   3.747  14.251 -0.3322 -0.7924  0.4152
  595TMC3    O1 8881   1.098   4.163  14.457 -0.5431  0.1918  0.0988
  595TMC3    O2 8882   1.247   3.732  14.138  0.0267  1.3917  0.0587
  596MPD2     C 8883   0.155   1.473  16.516 -0.0065 -0.0377  0.8142
  596MPD2    C1 8884   0.153   1.597  16.449 -0.4156 -0.1657 -0.3066
  596MPD2    C2 8885   0.186   1.605  16.312 -0.3915  0.4943  0.7062
  596MPD2    C3 8886   0.199   1.489  16.235 -0.4076 -0.0738  0.3963
  596MPD2    C4 8887   0.201   1.373  16.308  0.3950 -0.1310  0.6621
  596MPD2    C5 8888   0.176   1.358  16.441 -0.1862  0.4776  0.2286
  596MPD2     H 8889   0.191   1.706  16.274  1.6250  0.6443  1.3725
  596MPD2    H1 8890   0.222   1.282  16.253 -0.2875 -0.5617  1.1045
  596MPD2    H2 8891   0.136   1.459  16.622 -2.6114 -1.7244  0.0976
  596MPD2    H3 8892   0.184   1.259  16.483  0.9173  0.6560  0.4353
  596MPD2     N 8893   0.218   1.485  16.095  0.6497  0.0561  0.1117
  596MPD2    H5 8894   0.205   1.401  16.040 -1.5637  1.6558 -1.8178
  596MPD2    N1 8895   0.116   1.719  16.511  0.1502  0.4260  0.3700
  596MPD2    H7 8896   0.142   1.804  16.462 -0.1429  0.8108  0.8754
  597TMC3    C1 8897   0.046   1.852  16.676 -0.6564  0.0790  0.7848
  597TMC3    C2 8898   0.118   1.955  16.618  0.4876  0.4141 -0.5220
  597TMC3    C3 8899   0.103   2.079  16.666 -1.1111 -0.5603  1.2605
  597TMC3    C4 8900   4.709   1.879  16.787  0.5654 -0.4261  0.5572
  597TMC3    C5 8901   4.685   2.003  16.824 -0.1830 -0.7654 -0.1877
  597TMC3    C6 8902   0.019   2.103  16.765 -1.0465  0.1255  0.3386
  597TMC3     C 8903   0.064   1.722  16.635 -0.2798  0.0291  0.1474
  597TMC3     O 8904   0.008   1.632  16.700  0.0583  0.4647  0.0529
  597TMC3     H 8905   0.201   1.940  16.550  0.1703 -0.1595 -0.7783
  597TMC3    H1 8906   4.656   1.798  16.837 -0.3921 -1.2596 -1.8104
  597TMC3    H2 8907   4.737   2.206  16.794 -0.0907 -0.2865  2.3720
  597TMC3    C7 8908   4.601   2.016  16.940  0.0856  0.0932 -0.0622
  597TMC3    C8 8909   0.164   2.190  16.608 -0.4457  0.4874  0.1450
  597TMC3    O1 8910   4.581   1.915  17.004  0.3516 -0.1545 -0.2784
  597TMC3    O2 8911   0.153   2.301  16.665  0.3989 -0.3883 -0.4605
  598TMC3    C1 8912   2.527   2.993  15.181 -0.1255  0.4354 -0.7162
  598TMC3    C2 8913   2.415   3.055  15.238  0.3533 -0.2017 -0.0578
  598TMC3    C3 8914   2.442   3.175  15.304  0.1031 -0.7591  0.3440
  598TMC3    C4 8915   2.652   3.042  15.189  0.5780  0.8318 -0.1517
  598TMC3    C5 8916   2.668   3.159  15.252  0.0369 -0.0337  0.0982
  598TMC3    C6 8917   2.568   3.237  15.304 -0.4714 -0.0984  0.0462
  598TMC3     C 8918   2.503   2.877  15.097  0.1700  0.9630 -0.0751
  598TMC3     O 8919   2.384   2.842  15.103 -0.6187  0.6041  0.5430
  598TMC3     H 8920   2.312   3.024  15.226 -0.3288  2.1904 -0.2905
  598TMC3    H1 8921   2.734   3.005  15.129 -0.7505  0.2680 -1.6466
  598TMC3    H2 8922   2.592   3.329  15.356  0.7023 -0.3867 -0.0090
  598TMC3    C7 8923   2.795   3.219  15.234 -0.1031 -0.7529  0.4649
  598TMC3    C8 8924   2.327   3.246  15.362  0.4453  0.0407  0.3144
  598TMC3    O1 8925   2.879   3.157  15.169 -0.6421  0.2088 -0.2407
  598TMC3    O2 8926   2.307   3.361  15.330 -0.6423  0.6086 -0.0604
  599MPD2     C 8927   2.911   0.778  15.962 -0.0395  0.4884 -0.2281
  599MPD2    C1 8928   2.810   0.684  15.977  0.0198 -0.2967 -0.3595
  599MPD2    C2 8929   2.691   0.719  16.044  0.5248  0.3147  0.3322
  599MPD2    C3 8930   2.687   0.842  16.105  0.5364  1.0543 -0.3629
  599MPD2    C4 8931   2.792   0.931  16.091 -0.4138 -0.2850  0.1759
  599MPD2    C5 8932   2.904   0.904  16.020  0.4281 -0.5343  0.7940
  599MPD2     H 8933   2.603   0.657  16.054  0.9382 -0.2092  0.7312
  599MPD2    H1 8934   2.787   1.029  16.135  3.0188  0.7921 -1.8758
  599MPD2    H2 8935   2.991   0.746  15.897 -1.0444 -1.4585 -0.5204
  599MPD2    H3 8936   2.991   0.967  16.016 -0.1070  0.1426 -0.1738
  599MPD2     N 8937   2.570   0.888  16.173  0.0631 -0.4598 -0.7538
  599MPD2    H5 8938   2.591   0.965  16.236 -0.5736  1.4953 -2.9119
  599MPD2    N1 8939   2.842   0.553  15.924  0.6756  0.5395 -0.2692
  599MPD2    H7 8940   2.934   0.538  15.883  1.8033  0.9414  2.1323
  600TMC3    C1 8941   2.351   0.889  16.259  0.0470 -0.2113  0.0295
  600TMC3    C2 8942   2.254   0.805  16.300  0.1037  0.1356 -0.1268
  600TMC3    C3 8943   2.166   0.843  16.396 -0.1561  0.1853 -0.1625
  600TMC3    C4 8944   2.360   1.022  16.298  0.3681  0.1892  0.3805
  600TMC3    C5 8945   2.265   1.059  16.393  0.2328 -0.0078  0.2090
  600TMC3    C6 8946   2.178   0.971  16.443 -0.6534  0.2022 -0.3575
  600TMC3     C 8947   2.447   0.830  16.171  0.0110 -0.3792 -0.0818
  600TMC3     O 8948   2.412   0.746  16.089 -0.2662 -0.5457 -0.0652
  600TMC3     H 8949   2.260   0.702  16.267  0.4003  0.4751 -1.1246
  600TMC3    H1 8950   2.435   1.089  16.259  0.1196  0.0442 -0.3423
  600TMC3    H2 8951   2.112   1.000  16.525  0.0964  3.5841 -0.9668
  600TMC3    C7 8952   2.275   1.191  16.468 -0.9180 -0.3788 -0.6253
  600TMC3    C8 8953   2.133   0.737  16.494  0.0221  0.0315  0.4602
  600TMC3    O1 8954   2.174   1.221  16.528  0.8040 -0.0631  0.0942
  600TMC3    O2 8955   2.101   0.628  16.442 -0.1875  0.0758  0.1535
  601MPD2     C 8956   4.652   3.277   0.458 -0.0077 -0.1442  0.4215
  601MPD2    C1 8957   4.629   3.218   0.332 -0.1392 -0.0019  0.4567
  601MPD2    C2 8958   4.610   3.089   0.318 -0.7097 -0.1697 -0.5501
  601MPD2    C3 8959   4.634   3.006   0.426 -0.0712 -0.1950 -0.0383
  601MPD2    C4 8960   4.662   3.064   0.548  0.3137  0.1008 -0.0115
  601MPD2    C5 8961   4.670   3.197   0.566  0.6809 -0.0126  0.8467
  601MPD2     H 8962   4.598   3.045   0.220  2.1558  1.2664 -1.5564
  601MPD2    H1 8963   4.681   3.013   0.642 -0.5269 -2.1640 -1.0860
  601MPD2    H2 8964   4.659   3.385   0.468 -0.6221 -0.2217  1.6318
  601MPD2    H3 8965   4.696   3.240   0.662 -1.1467  1.6112  0.6410
  601MPD2     N 8966   4.620   2.865   0.419  0.2699 -0.0909  0.2329
  601MPD2    H5 8967   4.645   2.812   0.502  2.3750 -0.1892 -0.4632
  601MPD2    N1 8968   4.622   3.287   0.210  0.5558 -0.2851  0.5097
  601MPD2    H7 8969   4.605   3.231   0.127 -0.1081 -1.9771  1.8056
  602TMC3    C1 8970   4.629   3.477   0.060 -0.2545  0.2183  0.8328
  602TMC3    C2 8971   4.726   3.556  17.742  0.0636 -0.1857  1.0540
  602TMC3    C3 8972   4.694   3.587  17.608 -0.0897  0.0426 -0.3408
  602TMC3    C4 8973   4.513   3.435   0.007  0.0827 -0.0881  0.0642
  602TMC3    C5 8974   4.489   3.470  17.624 -0.7061 -0.0471  0.0493
  602TMC3    C6 8975   4.568   3.553  17.553 -0.0606  0.1802 -0.3408
  602TMC3     C 8976   4.669   3.417   0.187  0.0529 -0.0421  0.0827
  602TMC3     O 8977   0.009   3.485   0.249 -0.0964 -0.2861 -0.2707
  602TMC3     H 8978   0.080   3.594   0.042  0.4858 -0.2701  0.2871
  602TMC3    H1 8979   4.444   3.374   0.063 -0.6685 -0.3027 -1.0915
  602TMC3    H2 8980   4.562   3.556  17.445 -0.3301  0.2822 -0.3248
  602TMC3    C7 8981   4.352   3.465  17.584  0.2432 -0.2782 -0.4365
  602TMC3    C8 8982   0.030   3.692  17.543  0.8348 -0.1087 -0.9415
  602TMC3    O1 8983   4.281   3.377  17.636 -0.2375 -0.3862 -0.2690
  602TMC3    O2 8984   0.149   3.700  17.567  0.5002 -0.2579  0.2517
  603TMC3    C1 8985   2.791   4.371  11.187  0.1512  0.4927  0.6534
  603TMC3    C2 8986   2.814   4.416  11.314 -0.1626 -1.0301 -0.2152
  603TMC3    C3 8987   2.862   4.543  11.330 -0.2848  0.0386 -0.8340
  603TMC3    C4 8988   2.806   4.451  11.081 -0.0271 -0.4581  0.2155
  603TMC3    C5 8989   2.860   4.576  11.103 -1.1365  0.5694 -0.1210
  603TMC3    C6 8990   2.892   4.625  11.222 -0.4973 -0.2427 -1.1916
  603TMC3     C 8991   2.777   4.229  11.168 -0.3370 -0.3911  0.3012
  603TMC3     O 8992   2.793   4.186  11.051  0.7350  0.3002  0.3395
  603TMC3     H 8993   2.810   4.354  11.402 -0.5741 -0.7153 -0.0161
  603TMC3    H1 8994   2.782   4.415  10.982  1.8834  2.9379 -1.4801
  603TMC3    H2 8995   2.946   4.717  11.241 -2.1801  0.4838  0.0344
  603TMC3    C7 8996   2.886   4.658  10.985 -0.4521  0.6494  0.3183
  603TMC3    C8 8997   2.962   4.552  11.436  0.3503 -0.3221  0.2684
  603TMC3    O1 8998   3.000   4.700  10.974  0.2476  0.7551 -0.4355
  603TMC3    O2 8999   2.997   4.443  11.481 -0.2301  0.2998 -0.5429
  604MPD2     C 9000   3.439   2.931  15.783  0.8316  0.5983  0.0017
  604MPD2    C1 9001   3.525   2.960  15.884 -0.0727 -0.1679 -0.2330
  604MPD2    C2 9002   3.662   2.968  15.851 -0.7099  0.2339  0.4122
  604MPD2    C3 9003   3.704   2.956  15.718 -0.0210 -0.1579  0.5765
  604MPD2    C4 9004   3.614   2.934  15.616  0.3524  0.2543  0.8178
  604MPD2    C5 9005   3.486   2.923  15.654  0.2745 -0.1031 -0.0586
  604MPD2     H 9006   3.735   2.985  15.930 -1.0016  0.7890  0.5680
  604MPD2    H1 9007   3.657   2.923  15.517  1.9720  2.0239  1.3239
  604MPD2    H2 9008   3.333   2.912  15.793  1.0537  0.9005  2.8916
  604MPD2    H3 9009   3.415   2.909  15.573  0.6864  2.3722 -0.8433
  604MPD2     N 9010   3.847   2.973  15.691  0.6318 -0.4445 -0.4229
  604MPD2    H5 9011   3.897   2.975  15.779  0.1226 -0.7661 -0.1252
  604MPD2    N1 9012   3.487   2.992  16.015 -0.4683  0.1394 -0.3629
  604MPD2    H7 9013   3.561   3.021  16.078  0.1498  1.1850 -1.5544
  605TMC3    C1 9014   3.342   3.070  16.188  0.2060  0.2012  0.8807
  605TMC3    C2 9015   3.433   3.054  16.293 -0.0982  0.6779 -0.1561
  605TMC3    C3 9016   3.402   3.126  16.407  0.0916 -0.0798 -0.1509
  605TMC3    C4 9017   3.252   3.175  16.185  0.9319 -0.4958 -0.2218
  605TMC3    C5 9018   3.234   3.245  16.304 -0.8366 -0.4643 -0.1809
  605TMC3    C6 9019   3.309   3.223  16.415  0.3618  0.1845 -0.6426
  605TMC3     C 9020   3.359   3.004  16.060  0.1617 -0.9967 -0.6004
  605TMC3     O 9021   3.254   2.982  16.000 -0.2666 -0.1597 -0.7980
  605TMC3     H 9022   3.513   2.981  16.289 -0.6963  0.1036 -1.3961
  605TMC3    H1 9023   3.181   3.181  16.103 -0.7481  1.1980  1.3844
  605TMC3    H2 9024   3.300   3.274  16.510  1.5025 -0.4358 -0.1989
  605TMC3    C7 9025   3.137   3.356  16.303  0.5113 -0.0922 -0.1315
  605TMC3    C8 9026   3.504   3.140  16.519 -0.0152 -0.8280  0.0471
  605TMC3    O1 9027   3.063   3.359  16.202  0.2257 -0.3796 -0.0094
  605TMC3    O2 9028   3.467   3.197  16.623 -0.3718 -0.0932 -0.2550
  606TMC3    C1 9029   0.866   1.123  17.287  0.3366  0.4578  0.2476
  606TMC3    C2 9030   0.849   1.103  17.419 -0.3985 -0.3057  0.2475
  606TMC3    C3 9031   0.755   1.005  17.443 -0.3744  0.6703  0.4835
  606TMC3    C4 9032   0.788   1.073  17.183 -0.1042  0.3218 -0.6492
  606TMC3    C5 9033   0.681   0.998  17.225 -0.2939  1.0618 -0.5353
  606TMC3    C6 9034   0.661   0.962  17.358 -0.0681  0.7764 -0.6070
  606TMC3     C 9035   0.964   1.221  17.254  0.3532  0.5466  0.0316
  606TMC3     O 9036   1.000   1.290  17.350  0.4821 -0.5040  0.4664
  606TMC3     H 9037   0.911   1.147  17.495  1.4681 -1.7676 -0.4200
  606TMC3    H1 9038   0.801   1.101  17.080  0.4018  1.9585 -0.1479
  606TMC3    H2 9039   0.597   0.878  17.384 -2.6374  2.3456 -1.8284
  606TMC3    C7 9040   0.587   0.955  17.118 -0.2940 -0.2295  0.3260
  606TMC3    C8 9041   0.735   0.980  17.587 -0.1990 -0.0473 -0.8416
  606TMC3    O1 9042   0.631   0.968  17.005 -0.4158  0.4345  0.0406
  606TMC3    O2 9043   0.839   0.992  17.653  0.4031  0.7050  0.9334
  607MPD2     C 9044   1.906   4.693  11.492  0.7792 -0.2300 -0.1020
  607MPD2    C1 9045   1.987   0.018  11.586 -0.5979  0.3232  0.3499
  607MPD2    C2 9046   1.994   4.692  11.712 -0.4151 -0.4835  0.4058
  607MPD2    C3 9047   1.931   4.578  11.741 -0.0346 -0.2185 -0.1685
  607MPD2    C4 9048   1.846   4.515  11.644 -0.5587  0.3204 -0.0067
  607MPD2    C5 9049   1.845   4.578  11.519 -0.1947  0.2510 -0.2801
  607MPD2     H 9050   2.056   0.008  11.784  0.7550 -0.4842 -0.6082
  607MPD2    H1 9051   1.793   4.423  11.664  1.1826 -0.7294 -0.2311
  607MPD2    H2 9052   1.892   0.004  11.396  0.2831 -0.5325 -0.1794
  607MPD2    H3 9053   1.780   4.537  11.443 -0.3914  0.5690 -0.2815
  607MPD2     N 9054   1.953   4.518  11.870 -0.0889 -0.1834  0.0100
  607MPD2    H5 9055   2.020   4.571  11.924 -0.4085 -0.4873  0.6973
  607MPD2    N1 9056   2.073   0.128  11.562  0.1861  0.6209  0.2586
  607MPD2    H7 9057   2.126   0.153  11.645 -0.2358  2.3682 -0.0100
  608TMC3    C1 9058   2.186   0.293  11.438  0.3299  0.4301 -0.0230
  608TMC3    C2 9059   2.238   0.338  11.555  0.2019 -0.1144  0.8441
  608TMC3    C3 9060   2.363   0.379  11.580  0.3398  0.6741 -0.4075
  608TMC3    C4 9061   2.269   0.300  11.329 -0.4546 -0.7015  0.2682
  608TMC3    C5 9062   2.400   0.347  11.356  0.2540 -0.5195 -0.3335
  608TMC3    C6 9063   2.451   0.386  11.478 -0.1760  0.4839  0.0347
  608TMC3     C 9064   2.090   0.181  11.433 -0.0824 -0.2718 -0.1478
  608TMC3     O 9065   2.056   0.130  11.329 -0.2586  0.0496  0.3330
  608TMC3     H 9066   2.164   0.345  11.634  2.2705 -3.1613  3.0823
  608TMC3    H1 9067   2.237   0.267  11.231 -1.8857  2.0585 -0.2161
  608TMC3    H2 9068   2.551   0.418  11.504 -1.3750  2.3103  2.3938
  608TMC3    C7 9069   2.476   0.360  11.231 -0.2266  0.3036  0.0345
  608TMC3    C8 9070   2.416   0.376  11.723 -0.2467 -0.2775 -0.2890
  608TMC3    O1 9071   2.413   0.337  11.128  0.4134  0.2366 -0.4998
  608TMC3    O2 9072   2.523   0.429  11.747  0.6470  0.5467  0.0133
  609TMC3    C1 9073   0.365   3.442   9.746 -0.0570 -0.4829 -0.1115
  609TMC3    C2 9074   0.277   3.429   9.644  0.0789 -0.7016 -0.5364
  609TMC3    C3 9075   0.298   3.335   9.547  0.4541 -0.3430 -0.0034
  609TMC3    C4 9076   0.478   3.358   9.755  0.7644  0.0206  0.6943
  609TMC3    C5 9077   0.504   3.271   9.652 -0.0730 -0.5804  0.6399
  609TMC3    C6 9078   0.412   3.256   9.550 -0.4877 -0.2200 -0.0585
  609TMC3     C 9079   0.336   3.531   9.859 -0.3088 -0.2007 -0.3842
  609TMC3     O 9080   0.398   3.507   9.963  0.3376 -0.1770  0.1476
  609TMC3     H 9081   0.177   3.471   9.654 -1.0417 -3.0484 -1.8225
  609TMC3    H1 9082   0.548   3.370   9.838  2.3479 -0.1478 -0.6197
  609TMC3    H2 9083   0.437   3.173   9.485 -2.3128 -0.9124  0.1220
  609TMC3    C7 9084   0.611   3.180   9.666  1.0785 -0.0926 -0.4418
  609TMC3    C8 9085   0.215   3.341   9.429  0.2941  0.5333  0.1170
  609TMC3    O1 9086   0.638   3.166   9.786  0.0995  0.0723 -0.2381
  609TMC3    O2 9087   0.132   3.435   9.426  0.4893  0.4199  0.4671
  610TMC3    C1 9088   2.494   4.568  12.726  0.6559 -0.2507  0.2090
  610TMC3    C2 9089   2.605   4.644  12.705 -0.0081  0.0982 -0.6607
  610TMC3    C3 9090   2.708   4.601  12.623  0.7167  0.2827  0.7603
  610TMC3    C4 9091   2.478   4.443  12.682 -0.1932  0.6834  0.7738
  610TMC3    C5 9092   2.590   4.396  12.604 -0.8853  0.8662  0.1213
  610TMC3    C6 9093   2.701   4.469  12.580 -0.0373 -0.1848  0.1126
  610TMC3     C 9094   2.378   4.604  12.806 -0.6070  0.4221  0.1653
  610TMC3     O 9095   2.321   4.522  12.875  0.0492  0.6610 -0.1124
  610TMC3     H 9096   2.623   0.002  12.754  1.2610  0.3834 -1.6808
  610TMC3    H1 9097   2.384   4.391  12.695 -0.2357  0.5155 -0.2174
  610TMC3    H2 9098   2.779   4.426  12.517 -0.7396 -0.1949 -0.7528
  610TMC3    C7 9099   2.593   4.254  12.558 -0.3573  0.2761  0.0032
  610TMC3    C8 9100   2.834   4.679  12.633 -0.7300 -0.3789  0.4775
  610TMC3    O1 9101   2.707   4.205  12.549 -0.5891 -0.5162 -0.2077
  610TMC3    O2 9102   2.820   0.063  12.658 -0.0409 -0.1226  0.2873
  611MPD2     C 9103   1.873   4.623  10.717 -0.0488  0.3187 -0.0365
  611MPD2    C1 9104   1.826   4.558  10.602  0.1259  0.1345  0.4340
  611MPD2    C2 9105   1.919   4.540  10.496  0.0713  0.0948 -0.3554
  611MPD2    C3 9106   2.052   4.579  10.521 -0.7391  0.0952 -0.0641
  611MPD2    C4 9107   2.091   4.643  10.636 -0.8994 -1.1037  1.0606
  611MPD2    C5 9108   2.000   4.651  10.732  0.7429 -1.1866  0.1556
  611MPD2     H 9109   1.899   4.505  10.396  1.0803 -1.3377 -0.0477
  611MPD2    H1 9110   2.190   4.684  10.654 -1.0176  0.1693 -1.1677
  611MPD2    H2 9111   1.807   4.645  10.800 -0.7754 -0.2028 -0.4821
  611MPD2    H3 9112   2.034   4.695  10.825 -1.3168 -1.0449  0.8540
  611MPD2     N 9113   2.160   4.565  10.429 -0.1749  0.6064 -0.4134
  611MPD2    H5 9114   2.246   4.611  10.457  0.3005 -0.9050  0.6315
  611MPD2    N1 9115   1.699   4.513  10.616 -0.1091  0.0252 -0.0583
  611MPD2    H7 9116   1.648   4.528  10.703 -0.6164 -0.8815 -0.1957
  612TMC3    C1 9117   2.277   4.541  10.228 -0.9246  0.2784 -0.4869
  612TMC3    C2 9118   2.400   4.550  10.293  0.3823  0.2368  0.9256
  612TMC3    C3 9119   2.508   4.591  10.224 -1.2219 -0.1279 -0.0083
  612TMC3    C4 9120   2.273   4.574  10.095 -0.8375  0.0410 -0.3832
  612TMC3    C5 9121   2.381   4.624  10.036 -0.5385 -0.8599  0.6765
  612TMC3    C6 9122   2.500   4.635  10.095  0.0358 -0.1531  0.0998
  612TMC3     C 9123   2.158   4.512  10.299  0.3008  0.2042  0.3257
  612TMC3     O 9124   2.060   4.466  10.240  0.2347 -0.6824  0.2706
  612TMC3     H 9125   2.394   4.525  10.399 -2.3159 -0.6280  0.5525
  612TMC3    H1 9126   2.177   4.569  10.045 -0.0480 -1.2387 -1.7735
  612TMC3    H2 9127   2.583   4.677  10.039 -1.2610  0.9066 -1.0404
  612TMC3    C7 9128   2.351   4.660   9.897 -0.3323 -0.1985  0.1288
  612TMC3    C8 9129   2.626   4.623  10.299  0.4899  0.0296 -0.4251
  612TMC3    O1 9130   2.258   4.597   9.841 -0.0183  0.6639 -0.3483
  612TMC3    O2 9131   2.706   4.672  10.227  0.5295  0.1348  0.3530
  613MPD2     C 9132   0.981   1.318  16.287 -0.2627  0.4438 -0.7236
  613MPD2    C1 9133   1.063   1.294  16.177  0.4026  0.6724  0.3858
  613MPD2    C2 9134   1.017   1.206  16.081 -0.4230  0.2758 -0.0770
  613MPD2    C3 9135   0.892   1.153  16.083 -0.3616 -0.5109 -0.4435
  613MPD2    C4 9136   0.818   1.171  16.195 -0.6039 -0.2096  0.1218
  613MPD2    C5 9137   0.869   1.243  16.298  0.3463  0.4284  0.8738
  613MPD2     H 9138   1.073   1.187  15.990  1.9560  0.3065  1.3908
  613MPD2    H1 9139   0.718   1.130  16.203  0.0281 -1.9628 -1.0065
  613MPD2    H2 9140   1.006   1.380  16.372 -1.3091 -2.0132  1.3805
  613MPD2    H3 9141   0.809   1.251  16.388  1.2078  2.9044  1.2325
  613MPD2     N 9142   0.852   1.073  15.973  0.5356 -0.0661 -0.1907
  613MPD2    H5 9143   0.924   1.057  15.903  1.0939  0.1203  0.3397
  613MPD2    N1 9144   1.185   1.354  16.147  0.0884  0.4382 -0.0430
  613MPD2    H7 9145   1.217   1.335  16.052  0.4994 -2.5823  0.7115
  614TMC3    C1 9146   1.329   1.543  16.131  0.1079 -0.0936 -0.7158
  614TMC3    C2 9147   1.383   1.463  16.041  0.6586  0.4847 -0.0293
  614TMC3    C3 9148   1.394   1.494  15.910  0.1666  0.1575  0.0582
  614TMC3    C4 9149   1.273   1.659  16.091  0.3944 -0.4134 -0.3479
  614TMC3    C5 9150   1.294   1.695  15.961 -0.1834 -0.8818  0.0644
  614TMC3    C6 9151   1.363   1.617  15.867 -0.0168 -0.4160 -0.3276
  614TMC3     C 9152   1.239   1.463  16.210 -0.1586  0.2602  0.6466
  614TMC3     O 9153   1.198   1.517  16.312 -0.3159  0.4161  0.3250
  614TMC3     H 9154   1.425   1.370  16.077  1.1176  0.2761 -1.0835
  614TMC3    H1 9155   1.213   1.724  16.153  0.9979  0.8285 -1.0565
  614TMC3    H2 9156   1.363   1.640  15.761 -0.9695  0.6357 -0.0959
  614TMC3    C7 9157   1.216   1.804  15.919 -0.2418  0.6845 -0.4776
  614TMC3    C8 9158   1.347   1.386  15.832  0.5037  0.2122 -0.0368
  614TMC3    O1 9159   1.191   1.884  16.007  0.1753  0.3549 -0.0101
  614TMC3    O2 9160   1.278   1.302  15.896 -0.0345  0.4261 -0.0756
  615MPD2     C 9161   1.226   2.944  15.746 -0.0683 -0.1203  0.7431
  615MPD2    C1 9162   1.161   3.030  15.836 -0.7483 -0.0612  0.0531
  615MPD2    C2 9163   1.078   3.135  15.787  1.6843  0.7037 -0.7079
  615MPD2    C3 9164   1.062   3.155  15.647 -0.3396  0.1588 -0.7456
  615MPD2    C4 9165   1.135   3.071  15.565 -0.1884 -0.0407  0.2473
  615MPD2    C5 9166   1.203   2.971  15.612 -0.1865  0.8360  0.4568
  615MPD2     H 9167   1.018   3.191  15.858 -0.9301 -0.3524 -2.0793
  615MPD2    H1 9168   1.124   3.075  15.457  1.1862 -1.3679  0.0607
  615MPD2    H2 9169   1.292   2.862  15.773 -0.9532 -0.3476  2.2174
  615MPD2    H3 9170   1.254   2.902  15.546 -2.1104  0.3758 -0.5632
  615MPD2     N 9171   0.979   3.255  15.587  0.7019 -0.2898 -0.0845
  615MPD2    H5 9172   0.982   3.269  15.486 -1.2126 -1.0735 -0.2452
  615MPD2    N1 9173   1.174   3.011  15.975  0.1169  0.4576 -0.0473
  615MPD2    H7 9174   1.134   3.089  16.026  1.3564  0.6260  0.6564
  616TMC3    C1 9175   1.261   2.928  16.186  0.7614  0.0275  0.2995
  616TMC3    C2 9176   1.318   2.820  16.261  0.6417 -0.0336 -0.0861
  616TMC3    C3 9177   1.343   2.836  16.392 -0.2745  0.4380 -0.4281
  616TMC3    C4 9178   1.215   3.043  16.246  0.4149  0.7343  0.1985
  616TMC3    C5 9179   1.240   3.054  16.379 -0.1988  0.8865 -0.1125
  616TMC3    C6 9180   1.292   2.951  16.456  0.5606  0.9319  0.3594
  616TMC3     C 9181   1.250   2.918  16.038 -0.0857  0.1921  0.2602
  616TMC3     O 9182   1.293   2.811  15.996 -0.0188  0.4682  0.1839
  616TMC3     H 9183   1.353   2.733  16.206  2.2968  0.4711  0.1426
  616TMC3    H1 9184   1.172   3.124  16.188 -2.1937 -1.7734 -1.3670
  616TMC3    H2 9185   1.284   2.964  16.563 -0.8090 -1.0212  0.4784
  616TMC3    C7 9186   1.207   3.170  16.454 -0.0302  0.9464  0.0359
  616TMC3    C8 9187   1.478   2.793  16.428 -0.2426  0.8197  0.5668
  616TMC3    O1 9188   1.263   3.186  16.563  0.2481  0.2484  0.0853
  616TMC3    O2 9189   1.517   2.686  16.396  0.1063 -0.1863 -0.0390
  617MPD2     C 9190   3.328   1.181  13.624  0.1233 -0.1097  0.4211
  617MPD2    C1 9191   3.353   1.241  13.746  0.3484  0.2745 -0.1624
  617MPD2    C2 9192   3.267   1.226  13.850  0.4235 -0.2779  0.4360
  617MPD2    C3 9193   3.162   1.134  13.839 -0.1409  0.1100 -0.5841
  617MPD2    C4 9194   3.153   1.053  13.728  0.1018 -0.0716 -1.0230
  617MPD2    C5 9195   3.231   1.082  13.616  0.6922 -0.2987  0.8223
  617MPD2     H 9196   3.274   1.272  13.948 -0.9289  0.4174  0.2055
  617MPD2    H1 9197   3.070   0.986  13.707  1.0189 -1.9009  1.1952
  617MPD2    H2 9198   3.389   1.200  13.537 -1.7606 -0.0401 -0.8960
  617MPD2    H3 9199   3.209   1.027  13.525 -1.7024  0.9118  0.6777
  617MPD2     N 9200   3.077   1.092  13.944 -0.5721 -0.2737  0.0851
  617MPD2    H5 9201   3.017   1.011  13.927  0.0755 -1.0066  1.2440
  617MPD2    N1 9202   3.473   1.310  13.746  0.2399  0.5372  0.0181
  617MPD2    H7 9203   3.525   1.313  13.659  2.1756  0.5400  1.1900
  618TMC3    C1 9204   3.669   1.395  13.843 -0.2614 -0.1112  0.9126
  618TMC3    C2 9205   3.750   1.366  13.948  0.1648  0.4535  0.1802
  618TMC3    C3 9206   3.887   1.358  13.919  0.0399  0.3307 -0.4236
  618TMC3    C4 9207   3.716   1.410  13.713  0.2326  0.3358  0.1458
  618TMC3    C5 9208   3.846   1.403  13.693  0.0043  0.3023  0.7241
  618TMC3    C6 9209   3.934   1.380  13.794  0.0336  0.2281  0.2169
  618TMC3     C 9210   3.529   1.372  13.859 -1.1636  0.0415 -0.4090
  618TMC3     O 9211   3.491   1.388  13.977  0.1285 -0.5624 -0.4163
  618TMC3     H 9212   3.717   1.346  14.050  0.0175 -0.1587  0.0141
  618TMC3    H1 9213   3.646   1.442  13.637  0.2871 -0.4647 -0.2470
  618TMC3    H2 9214   4.041   1.392  13.776 -0.0510 -2.0805 -1.7533
  618TMC3    C7 9215   3.883   1.351  13.565 -0.5787 -0.0174 -0.2654
  618TMC3    C8 9216   3.950   1.250  13.997  0.0314  0.4565  0.0094
  618TMC3    O1 9217   3.789   1.355  13.487  0.1207  0.3614 -0.1509
  618TMC3    O2 9218   3.880   1.201  14.089  0.5080  0.4932  0.0775
  619MPD2     C 9219   4.526   2.511  13.903  0.5920  0.5762 -0.1932
  619MPD2    C1 9220   4.499   2.575  13.785  0.2334 -0.3047 -0.5109
  619MPD2    C2 9221   4.375   2.576  13.739 -0.4565 -0.4734  0.4699
  619MPD2    C3 9222   4.270   2.513  13.816 -0.3102  0.4920  0.2966
  619MPD2    C4 9223   4.299   2.442  13.932  0.7814  0.3701 -0.5774
  619MPD2    C5 9224   4.431   2.439  13.972  0.2739  0.3528 -0.2591
  619MPD2     H 9225   4.359   2.622  13.642  2.7033  0.4539  0.3951
  619MPD2    H1 9226   4.233   2.389  13.999 -0.6918  2.0354 -0.7030
  619MPD2    H2 9227   4.622   2.522  13.952  0.2543 -0.6729  0.7359
  619MPD2    H3 9228   4.462   2.399  14.067 -1.9798  1.8284  1.1076
  619MPD2     N 9229   4.137   2.522  13.775  0.0047  0.7656 -0.6567
  619MPD2    H5 9230   4.071   2.478  13.838 -0.2396 -0.8629 -2.0742
  619MPD2    N1 9231   4.595   2.645  13.706 -0.4837  1.1902 -0.0684
  619MPD2    H7 9232   4.566   2.686  13.618  0.1393 -1.2426 -1.3886
  620TMC3    C1 9233   0.056   2.724  13.619 -0.0270  0.5642 -0.6318
  620TMC3    C2 9234   4.730   2.725  13.495 -0.4895  0.8892 -0.5851
  620TMC3    C3 9235   0.048   2.814  13.395  0.4185  0.3408 -0.0545
  620TMC3    C4 9236   0.147   2.823  13.650 -0.5743 -0.0554  0.0574
  620TMC3    C5 9237   0.192   2.903  13.552 -0.3543 -0.2963 -0.5897
  620TMC3    C6 9238   0.148   2.903  13.425 -0.2130  0.3436 -0.3993
  620TMC3     C 9239   4.731   2.659  13.733  0.3288  0.1177 -0.2694
  620TMC3     O 9240   0.066   2.639  13.831  0.2975  0.0890 -0.1731
  620TMC3     H 9241   4.666   2.643  13.462  1.0677 -0.9706  0.9967
  620TMC3    H1 9242   0.167   2.841  13.755 -0.1436  0.8826 -0.1843
  620TMC3    H2 9243   0.193   2.960  13.345 -1.3769  2.2348  0.2963
  620TMC3    C7 9244   0.247   3.038  13.583 -0.0471  0.4995 -0.7145
  620TMC3    C8 9245   4.683   2.886  13.331  0.9756  0.8159  0.2842
  620TMC3    O1 9246   0.234   3.122  13.498  0.0049 -0.6016  0.1398
  620TMC3    O2 9247   4.688   3.004  13.333 -0.1156 -0.5113  0.6724
  621MPD2     C 9248   4.701   3.249   9.800 -0.1734  0.1612 -0.0339
  621MPD2    C1 9249   0.079   3.169   9.801  0.3191 -0.9414  0.0368
  621MPD2    C2 9250   0.170   3.185   9.905 -0.0333  0.3263  0.4186
  621MPD2    C3 9251   0.144   3.272  10.010  0.2335 -0.4916  0.2068
  621MPD2    C4 9252   0.028   3.352  10.007 -0.4790 -0.3481 -0.1943
  621MPD2    C5 9253   4.683   3.335   9.903  0.4514 -0.8547 -0.0526
  621MPD2     H 9254   0.257   3.121   9.916  0.9095  1.0823 -2.7151
  621MPD2    H1 9255   0.010   3.433  10.077  0.7248 -0.8828  0.7475
  621MPD2    H2 9256   4.620   3.238   9.729 -2.1563  0.3598  2.2008
  621MPD2    H3 9257   4.592   3.394   9.910  1.2540  0.2749  0.9041
  621MPD2     N 9258   0.236   3.271  10.121  0.0779  0.5630  0.2987
  621MPD2    H5 9259   0.320   3.216  10.113 -1.7739 -2.0297 -1.3113
  621MPD2    N1 9260   0.107   3.068   9.713  0.0739 -0.1815  0.4125
  621MPD2    H7 9261   0.193   3.015   9.721  2.0982  3.3235  2.0661
  622TMC3    C1 9262   0.086   2.926   9.526 -0.4477 -0.0443 -0.2325
  622TMC3    C2 9263   0.143   2.823   9.592 -0.0914 -0.1601  0.5192
  622TMC3    C3 9264   0.171   2.703   9.526 -0.1217  0.0891 -0.5327
  622TMC3    C4 9265   0.055   2.911   9.396  1.2079  0.0067 -0.0200
  622TMC3    C5 9266   0.078   2.787   9.336  0.6643  0.4910 -0.3081
  622TMC3    C6 9267   0.145   2.683   9.395  0.5601 -0.1275 -0.2136
  622TMC3     C 9268   0.032   3.033   9.607  0.6569  0.0447 -0.0467
  622TMC3     O 9269   4.688   3.108   9.549  0.3645 -0.8356  0.0990
  622TMC3     H 9270   0.172   2.836   9.696  0.6777  2.4293 -0.0191
  622TMC3    H1 9271   0.007   2.990   9.341  0.6454 -0.5334 -0.3083
  622TMC3    H2 9272   0.146   2.585   9.350  0.8658  0.0561 -0.6147
  622TMC3    C7 9273   0.003   2.766   9.208  0.1568 -0.1406  0.3692
  622TMC3    C8 9274   0.204   2.583   9.612 -0.1037  0.0447  0.9505
  622TMC3    O1 9275   0.042   2.675   9.136  0.2684 -0.3423 -0.3149
  622TMC3    O2 9276   0.231   2.474   9.555 -0.5141 -0.1452 -0.1853
  623MPD2     C 9277   4.040   3.367  15.523 -0.3895 -0.3382  0.1939
  623MPD2    C1 9278   3.959   3.336  15.631 -0.1668  0.2135 -0.3807
  623MPD2    C2 9279   4.015   3.303  15.754 -0.3072 -0.0684  0.4851
  623MPD2    C3 9280   4.147   3.293  15.771 -0.0435  0.2077 -0.2592
  623MPD2    C4 9281   4.234   3.325  15.670  0.4676 -0.2396 -0.7047
  623MPD2    C5 9282   4.176   3.364  15.551  0.2405  0.5565 -1.0598
  623MPD2     H 9283   3.948   3.293  15.839 -0.4875 -0.6297  0.2759
  623MPD2    H1 9284   4.341   3.305  15.676 -0.0387 -1.7529  2.7522
  623MPD2    H2 9285   3.996   3.396  15.428  2.7033  0.7300 -0.8952
  623MPD2    H3 9286   4.239   3.385  15.466 -1.7557  1.1969 -2.3834
  623MPD2     N 9287   4.199   3.244  15.893  0.0336  0.7366 -0.1451
  623MPD2    H5 9288   4.135   3.194  15.954  0.8969 -1.3463 -0.9505
  623MPD2    N1 9289   3.815   3.327  15.631 -0.7675  0.3503 -0.0919
  623MPD2    H7 9290   3.774   3.299  15.720 -0.0805 -1.9451 -0.4820
  624TMC3    C1 9291   4.475   3.170  16.268 -0.4619  0.1479  0.2730
  624TMC3    C2 9292   4.377   3.135  16.348  0.2613 -0.0577 -0.7210
  624TMC3    C3 9293   4.261   3.118  16.280  0.0799  0.2457 -0.7842
  624TMC3    C4 9294   4.466   3.213  16.137 -0.5631 -0.0065 -0.1708
  624TMC3    C5 9295   4.351   3.193  16.070  0.1747  0.3046  0.6636
  624TMC3    C6 9296   4.242   3.147  16.148  0.1023  0.1592 -0.3797
  624TMC3     C 9297   4.593   3.206  16.333 -0.1467 -0.5353 -0.4466
  624TMC3     O 9298   4.609   3.180  16.451  0.4755  0.5576 -0.4065
  624TMC3     H 9299   4.380   3.119  16.455  1.0941  1.5730 -0.4987
  624TMC3    H1 9300   4.556   3.220  16.077  1.0036  1.3575  2.3470
  624TMC3    H2 9301   4.146   3.120  16.105  0.9186  0.8293 -2.6298
  624TMC3    C7 9302   4.327   3.250  15.935 -0.3348 -0.8937 -0.0463
  624TMC3    C8 9303   4.140   3.081  16.353 -0.1913 -0.0657 -0.3432
  624TMC3    O1 9304   4.424   3.303  15.887 -0.3653 -0.4925  0.2876
  624TMC3    O2 9305   4.059   3.012  16.291 -0.6577  0.1908 -0.0404
  625MPD2     C 9306   0.388   4.200   0.236  0.0244 -0.2319 -0.1968
  625MPD2    C1 9307   0.297   4.177   0.342 -0.3365  0.0154 -0.4535
  625MPD2    C2 9308   0.347   4.161   0.467  0.0639  0.1351  0.1623
  625MPD2    C3 9309   0.482   4.160   0.490  0.0880 -1.0835  0.8772
  625MPD2    C4 9310   0.564   4.176   0.382  0.6747 -0.7438  0.1503
  625MPD2    C5 9311   0.524   4.197   0.255  0.5094 -0.5283 -0.2800
  625MPD2     H 9312   0.272   4.143   0.543 -0.9569  0.7289 -0.7060
  625MPD2    H1 9313   0.672   4.178   0.397  0.6672 -0.0687  0.1177
  625MPD2    H2 9314   0.356   4.214   0.133 -2.8082 -0.8259  0.6018
  625MPD2    H3 9315   0.595   4.228   0.180  0.9511 -0.9345 -0.0310
  625MPD2     N 9316   0.523   4.136   0.621  0.2578 -0.4764 -0.2196
  625MPD2    H5 9317   0.450   4.129   0.692 -0.5103  0.2413 -0.9425
  625MPD2    N1 9318   0.159   4.164   0.326 -0.3621 -0.2408 -0.1998
  625MPD2    H7 9319   0.108   4.122   0.403 -0.4360 -0.0398 -0.1410
  626TMC3    C1 9320   4.681   4.185   0.227 -0.2214 -0.4425  0.7767
  626TMC3    C2 9321   4.611   4.275   0.149  0.3789  0.1995 -0.8410
  626TMC3    C3 9322   4.482   4.291   0.175 -0.6344 -0.4868  0.2450
  626TMC3    C4 9323   4.621   4.113   0.322 -0.7820 -0.5934  0.5737
  626TMC3    C5 9324   4.486   4.123   0.339 -0.1333  0.2661  0.2601
  626TMC3    C6 9325   4.409   4.219   0.269 -0.5913  0.3572 -0.4241
  626TMC3     C 9326   0.091   4.195   0.213  0.1965  1.0220  0.4171
  626TMC3     O 9327   0.131   4.248   0.107 -0.2115  0.0417  0.4956
  626TMC3     H 9328   4.656   4.349   0.084 -1.2077  2.8774  1.1478
  626TMC3    H1 9329   4.674   4.030   0.367 -0.0584  0.0953  0.9977
  626TMC3    H2 9330   4.303   4.226   0.288 -0.9854  1.6123 -3.0800
  626TMC3    C7 9331   4.441   4.070   0.464 -0.5049  0.2585 -0.2478
  626TMC3    C8 9332   4.412   4.393   0.096  0.4316 -0.2334 -0.5127
  626TMC3    O1 9333   4.522   4.009   0.538 -0.2637  0.4856 -0.1533
  626TMC3    O2 9334   4.481   4.488   0.062  0.0484  0.3772 -0.3940
  627MPD2     C 9335   3.200   0.199  14.387  0.2768 -0.1933 -0.5270
  627MPD2    C1 9336   3.168   0.172  14.515  0.1064  0.4806  0.8618
  627MPD2    C2 9337   3.054   0.101  14.551  1.0354 -0.0612 -0.2042
  627MPD2    C3 9338   2.986   0.034  14.454 -0.4065  0.2268 -0.4509
  627MPD2    C4 9339   3.026   0.052  14.325 -0.2283 -0.5403  0.3900
  627MPD2    C5 9340   3.129   0.131  14.291  0.7092  0.6296  0.2276
  627MPD2     H 9341   3.030   0.090  14.656 -3.2566  0.0391 -1.1585
  627MPD2    H1 9342   2.978   4.732  14.246  1.4238  0.0678 -1.0379
  627MPD2    H2 9343   3.292   0.253  14.368  0.1906 -0.3681 -1.4434
  627MPD2    H3 9344   3.171   0.138  14.191 -2.1005  1.7068 -0.8921
  627MPD2     N 9345   2.881   4.684  14.489  0.1892 -0.2021  0.4952
  627MPD2    H5 9346   2.830   4.707  14.573 -0.1849  1.3338 -0.1559
  627MPD2    N1 9347   3.269   0.223  14.605  0.0833  0.2854  0.0605
  627MPD2    H7 9348   3.354   0.267  14.571 -1.9297  2.9294 -1.6820
  628TMC3    C1 9349   3.383   0.284  14.801  0.3190  0.3519 -0.2081
  628TMC3    C2 9350   3.491   0.211  14.831 -0.0866  0.5231  0.3381
  628TMC3    C3 9351   3.610   0.272  14.843 -0.3642 -0.9608 -0.5204
  628TMC3    C4 9352   3.396   0.418  14.759  0.3802 -0.6578 -0.9180
  628TMC3    C5 9353   3.522   0.475  14.775 -0.2118 -0.6283 -0.0048
  628TMC3    C6 9354   3.626   0.406  14.821  0.3907  0.4861 -0.0138
  628TMC3     C 9355   3.272   0.210  14.739 -0.8412 -0.1660  0.3626
  628TMC3     O 9356   3.190   0.156  14.815  0.2301 -0.0102  0.3252
  628TMC3     H 9357   3.476   0.104  14.832  0.2502  0.4851  1.4472
  628TMC3    H1 9358   3.303   0.468  14.736  0.5164 -0.3315 -0.7513
  628TMC3    H2 9359   3.724   0.452  14.830  0.8419 -0.8272  1.8936
  628TMC3    C7 9360   3.528   0.622  14.787 -0.9728  0.3382 -0.1864
  628TMC3    C8 9361   3.725   0.189  14.857 -0.2682  0.0652  0.2478
  628TMC3    O1 9362   3.631   0.670  14.832  0.0624  0.2452  0.4617
  628TMC3    O2 9363   3.831   0.237  14.812  0.0230 -0.2030 -0.1846
  629MPD2     C 9364   1.928   2.940  16.604 -0.2771 -0.2912 -0.3867
  629MPD2    C1 9365   1.851   3.051  16.587 -0.0927 -0.0564 -0.1057
  629MPD2    C2 9366   1.724   3.024  16.543  0.2280  0.2388 -0.5689
  629MPD2    C3 9367   1.677   2.901  16.519  0.2980 -0.4454 -0.1884
  629MPD2    C4 9368   1.757   2.793  16.537  0.0016  0.2192 -1.0060
  629MPD2    C5 9369   1.879   2.812  16.576  0.2681 -0.2398  0.0647
  629MPD2     H 9370   1.650   3.102  16.530 -1.8296 -1.7839 -1.0468
  629MPD2    H1 9371   1.726   2.691  16.517  2.1857 -0.3267 -1.6622
  629MPD2    H2 9372   2.028   2.955  16.643 -0.4410  0.9034 -0.4325
  629MPD2    H3 9373   1.941   2.726  16.597 -0.5325 -1.4219 -2.4458
  629MPD2     N 9374   1.544   2.902  16.470  0.1269  0.4886 -0.4736
  629MPD2    H5 9375   1.502   2.994  16.457 -2.5855 -0.8277 -1.1275
  629MPD2    N1 9376   1.902   3.181  16.608 -0.5040 -0.0816 -0.4689
  629MPD2    H7 9377   1.992   3.181  16.654 -0.5477 -0.7015 -0.3759
  630TMC3    C1 9378   1.918   3.412  16.612 -0.5494  0.2668 -0.3680
  630TMC3    C2 9379   1.923   3.531  16.547 -0.1198 -1.1020 -0.1487
  630TMC3    C3 9380   1.972   3.643  16.618  0.3807 -0.0375 -0.5877
  630TMC3    C4 9381   1.950   3.400  16.745  0.3237 -0.4533  0.1384
  630TMC3    C5 9382   1.980   3.515  16.813 -0.6826  0.0328  0.2072
  630TMC3    C6 9383   2.005   3.638  16.754  0.0063  0.0090 -0.4810
  630TMC3     C 9384   1.852   3.295  16.554  0.4206 -0.2613 -0.3168
  630TMC3     O 9385   1.779   3.313  16.458  0.0209  0.1516 -0.3886
  630TMC3     H 9386   1.893   3.537  16.443 -1.6313  0.4207  0.3688
  630TMC3    H1 9387   1.924   3.314  16.805  1.4434 -0.0383  1.2197
  630TMC3    H2 9388   2.021   3.735  16.799 -0.8251 -0.1466  0.1432
  630TMC3    C7 9389   1.974   3.507  16.951 -0.2687 -0.3492  0.6665
  630TMC3    C8 9390   1.959   3.774  16.559  0.9328  0.2180 -0.2987
  630TMC3    O1 9391   1.910   3.413  16.997 -0.0576 -1.1050 -0.2095
  630TMC3    O2 9392   1.992   3.877  16.618 -0.3879 -0.1279 -0.0651
  631MPD2     C 9393   0.257   3.376  15.080  0.7095 -0.0897  0.2107
  631MPD2    C1 9394   0.274   3.483  15.171  0.1718  0.4118  0.3162
  631MPD2    C2 9395   0.396   3.494  15.233  0.1574  0.1846  0.2188
  631MPD2    C3 9396   0.505   3.413  15.207  0.1670 -0.4292  0.2699
  631MPD2    C4 9397   0.487   3.303  15.131 -0.2210  0.5747  0.4751
  631MPD2    C5 9398   0.366   3.293  15.060  0.2573  0.0804 -0.0841
  631MPD2     H 9399   0.413   3.574  15.304  3.3378  0.3945 -0.7952
  631MPD2    H1 9400   0.572   3.239  15.114 -0.4332  0.2681  0.5801
  631MPD2    H2 9401   0.165   3.368  15.023 -1.1749  1.4911  3.0574
  631MPD2    H3 9402   0.360   3.214  14.987  0.3607 -0.6190  0.6589
  631MPD2     N 9403   0.635   3.432  15.250 -0.0220 -0.6720 -0.1930
  631MPD2    H5 9404   0.704   3.361  15.225 -0.3786 -0.7993 -0.8262
  631MPD2    N1 9405   0.159   3.564  15.193 -0.2705  0.0640 -0.0330
  631MPD2    H7 9406   0.078   3.542  15.136 -0.1936  0.6366 -0.3597
  632TMC3    C1 9407   0.014   3.715  15.298 -0.9612  0.8747  0.7245
  632TMC3    C2 9408   4.726   3.762  15.427  0.3415 -0.5787 -0.1977
  632TMC3    C3 9409   4.617   3.849  15.433 -0.5141 -0.0166 -1.2080
  632TMC3    C4 9410   4.675   3.732  15.183  0.2253  0.2723 -0.6097
  632TMC3    C5 9411   4.573   3.821  15.201  0.4980 -0.6549  0.1387
  632TMC3    C6 9412   4.537   3.868  15.327 -0.5199  0.1223  0.7044
  632TMC3     C 9413   0.152   3.657  15.296 -0.2213 -0.5486  0.0611
  632TMC3     O 9414   0.236   3.672  15.384  0.8109  0.2083 -0.2715
  632TMC3     H 9415   0.059   3.732  15.504  0.1869 -0.2606  0.0644
  632TMC3    H1 9416   4.710   3.699  15.086  1.4009  1.0489 -0.4497
  632TMC3    H2 9417   4.468   3.949  15.346 -1.2163 -0.1552 -0.6834
  632TMC3    C7 9418   4.576   3.928  15.101 -0.2722 -0.0611  0.3006
  632TMC3    C8 9419   4.582   3.906  15.558  0.0264  0.2803  0.7981
  632TMC3    O1 9420   4.595   3.889  14.982 -0.5370 -0.1113  0.6128
  632TMC3    O2 9421   4.468   3.936  15.582 -0.1392 -0.2715  0.0812
  633MPD2     C 9422   4.259   1.462  17.203  0.0928 -0.3561 -0.0338
  633MPD2    C1 9423   4.288   1.372  17.099  0.9976 -0.2851  0.4729
  633MPD2    C2 9424   4.312   1.239  17.122  0.0595  0.4969  0.2597
  633MPD2    C3 9425   4.288   1.186  17.251  0.5028  0.0491 -0.5905
  633MPD2    C4 9426   4.259   1.279  17.348 -0.9179 -0.8237 -0.6050
  633MPD2    C5 9427   4.251   1.414  17.329  0.5576  0.1290 -0.6738
  633MPD2     H 9428   4.352   1.178  17.042  0.3266  1.9435 -0.6933
  633MPD2    H1 9429   4.234   1.247  17.448 -2.6390 -0.8399 -1.0383
  633MPD2    H2 9430   4.236   1.564  17.172  1.4560  0.3737  1.3145
  633MPD2    H3 9431   4.242   1.481  17.413 -0.3117  0.6305 -1.1682
  633MPD2     N 9432   4.310   1.048  17.279  0.1492 -1.0450  0.2664
  633MPD2    H5 9433   4.316   1.015  17.375 -2.0556  0.0200  0.7787
  633MPD2    N1 9434   4.325   1.409  16.964  0.3629 -0.0221  0.2522
  633MPD2    H7 9435   4.335   1.325  16.908 -1.8318  0.3856 -0.7431
  634TMC3    C1 9436   4.391   1.552  16.792 -0.1799 -0.1921 -0.1357
  634TMC3    C2 9437   4.465   1.453  16.734  0.1662  0.1224  0.0831
  634TMC3    C3 9438   4.507   1.471  16.606 -0.0144 -0.1265  0.6659
  634TMC3    C4 9439   4.371   1.669  16.734  0.7654 -0.0508  0.6084
  634TMC3    C5 9440   4.429   1.690  16.614 -0.6148 -0.0583 -0.2636
  634TMC3    C6 9441   4.502   1.594  16.539 -0.0601  0.4959 -0.4148
  634TMC3     C 9442   4.353   1.534  16.927  0.6772  0.2058  0.2949
  634TMC3     O 9443   4.331   1.641  16.984  0.2246 -0.1258  0.2714
  634TMC3     H 9444   4.482   1.354  16.773 -2.5270 -0.0484  0.7783
  634TMC3    H1 9445   4.297   1.732  16.781  3.8843  3.6534  0.5451
  634TMC3    H2 9446   4.557   1.626  16.451 -1.4605  0.1658 -1.4237
  634TMC3    C7 9447   4.419   1.822  16.545  0.1758 -0.2233  0.1488
  634TMC3    C8 9448   4.543   1.353  16.530 -0.4189  0.4405 -0.3996
  634TMC3    O1 9449   4.495   1.840  16.452  0.5907  0.1539  0.3740
  634TMC3    O2 9450   4.577   1.254  16.598  0.1901  0.8787 -0.3339
  635TMC3    C1 9451   4.694   1.710  17.641  0.3979 -0.0024 -0.4916
  635TMC3    C2 9452   4.630   1.661  17.532  0.1599 -0.2688  0.2020
  635TMC3    C3 9453   4.640   1.520  17.507 -0.4371 -0.4070  0.2952
  635TMC3    C4 9454   0.037   1.635  17.720  0.1976 -0.3626  0.2957
  635TMC3    C5 9455   0.051   1.506  17.687 -0.5233  0.2731  0.3324
  635TMC3    C6 9456   4.719   1.437  17.588 -0.3715 -0.6889  0.0396
  635TMC3     C 9457   4.698   1.852  17.669  0.4135 -0.6425 -0.0283
  635TMC3     O 9458   4.720   1.884   0.039  0.0970 -0.6459  0.5181
  635TMC3     H 9459   4.573   1.728  17.470  0.0550  0.1373  0.7383
  635TMC3    H1 9460   0.104   1.677   0.048  1.0229  0.4826 -0.9520
  635TMC3    H2 9461   0.007   1.335  17.563  3.1709  0.8814 -2.8474
  635TMC3    C7 9462   0.112   1.428   0.047  0.9458 -0.2161  0.0074
  635TMC3    C8 9463   4.626   1.481  17.362  1.0116 -0.1585 -0.6031
  635TMC3    O1 9464   0.187   1.485   0.126 -0.2032 -0.3157 -0.0598
  635TMC3    O2 9465   4.606   1.577  17.290 -0.0125 -0.4642 -0.5584
  636MPD2     C 9466   0.524   1.717  15.679  0.5141 -0.0015 -0.3198
  636MPD2    C1 9467   0.573   1.654  15.797  0.0152 -0.7931 -0.0961
  636MPD2    C2 9468   0.577   1.517  15.813  0.8596  0.3718  0.2247
  636MPD2    C3 9469   0.558   1.442  15.695 -0.5226  0.1675 -0.4329
  636MPD2    C4 9470   0.511   1.505  15.586  0.0220 -0.2170  0.2511
  636MPD2    C5 9471   0.482   1.639  15.579 -0.2554 -0.3221 -0.7351
  636MPD2     H 9472   0.614   1.468  15.902  0.5230  1.1466  0.7862
  636MPD2    H1 9473   0.483   1.447  15.499 -2.4454  0.4251  0.6281
  636MPD2    H2 9474   0.517   1.825  15.674 -0.7286 -0.1082 -0.9094
  636MPD2    H3 9475   0.421   1.681  15.500 -0.6306  0.0125 -0.2630
  636MPD2     N 9476   0.583   1.302  15.699 -0.1836  0.0528  0.3792
  636MPD2    H5 9477   0.591   1.249  15.785 -0.0283  1.0144  0.9569
  636MPD2    N1 9478   0.603   1.728  15.912 -0.3941  0.3732 -0.1093
  636MPD2    H7 9479   0.638   1.674  15.991 -0.2598 -1.7853 -1.6633
  637TMC3    C1 9480   0.661   1.096  15.626  0.0416 -0.5703  0.0321
  637TMC3    C2 9481   0.628   1.043  15.745 -0.9211  0.3059  0.0544
  637TMC3    C3 9482   0.720   0.966  15.809  0.1601  0.1663 -0.5672
  637TMC3    C4 9483   0.780   1.065  15.568 -0.5792  0.4318 -0.2618
  637TMC3    C5 9484   0.871   0.985  15.629 -0.1219 -0.0027  0.4947
  637TMC3    C6 9485   0.842   0.935  15.754 -0.5518 -0.1687 -0.2689
  637TMC3     C 9486   0.613   1.231  15.593 -0.6607 -0.1562 -0.5218
  637TMC3     O 9487   0.629   1.278  15.484  0.8983 -0.0872 -0.1550
  637TMC3     H 9488   0.542   1.086  15.795 -0.4162  1.6362 -0.2236
  637TMC3    H1 9489   0.803   1.123  15.479 -1.6921 -0.8035 -1.3538
  637TMC3    H2 9490   0.905   0.853  15.784 -0.7107 -0.9853 -2.1423
  637TMC3    C7 9491   1.003   1.038  15.631  0.9673  0.1259 -0.3127
  637TMC3    C8 9492   0.737   1.006  15.948 -0.7034 -0.1037 -0.4913
  637TMC3    O1 9493   1.026   1.083  15.745  0.6585  0.0975  0.3284
  637TMC3    O2 9494   0.638   1.016  16.021 -0.1032 -0.4398 -0.3072
  638MPD2     C 9495   0.954   0.995  14.725 -0.3504 -0.0485  0.1415
  638MPD2    C1 9496   0.826   0.956  14.696  0.1620  0.1947  0.3751
  638MPD2    C2 9497   0.766   0.852  14.769  0.5129  0.3919  0.6167
  638MPD2    C3 9498   0.843   0.780  14.860  0.5083 -0.0449 -0.1026
  638MPD2    C4 9499   0.974   0.814  14.876  0.0675  0.1692 -0.8694
  638MPD2    C5 9500   1.031   0.913  14.806  0.2986 -0.0184  0.3851
  638MPD2     H 9501   0.661   0.825  14.764  0.7788 -0.4365 -0.5831
  638MPD2    H1 9502   1.048   0.759  14.932  1.1819  0.6826 -1.8451
  638MPD2    H2 9503   1.011   1.077  14.683  1.4092 -0.6568  1.3561
  638MPD2    H3 9504   1.137   0.925  14.822  0.5837  1.1926 -2.4074
  638MPD2     N 9505   0.782   0.662  14.908  0.4733 -0.0075  0.3125
  638MPD2    H5 9506   0.682   0.650  14.898  0.1296  2.1049  1.3332
  638MPD2    N1 9507   0.753   1.027  14.593  0.0640 -0.1497 -0.2981
  638MPD2    H7 9508   0.812   1.078  14.528 -0.9150  1.6437  0.2158
  639TMC3    C1 9509   0.754   0.483  15.051 -0.0232 -1.1977 -0.5963
  639TMC3    C2 9510   0.684   0.400  14.968  0.6610  0.1081 -0.7131
  639TMC3    C3 9511   0.629   0.289  15.030 -0.4599 -0.4482  0.5443
  639TMC3    C4 9512   0.795   0.446  15.177 -0.1991  0.5112 -0.1496
  639TMC3    C5 9513   0.749   0.322  15.221 -0.3822 -0.2036  0.2064
  639TMC3    C6 9514   0.664   0.244  15.154 -0.3060  0.2028  0.1599
  639TMC3     C 9515   0.845   0.585  15.000 -0.3711 -0.3302 -0.1663
  639TMC3     O 9516   0.943   0.607  15.065 -0.4594  0.0644 -0.2285
  639TMC3     H 9517   0.652   0.430  14.869 -1.4073 -0.1035 -0.1100
  639TMC3    H1 9518   0.857   0.501  15.248  1.3695 -0.8467 -0.4790
  639TMC3    H2 9519   0.630   0.149  15.194 -1.3306  0.4074 -0.2206
  639TMC3    C7 9520   0.849   0.251  15.299  0.1653 -0.3204 -0.7297
  639TMC3    C8 9521   0.523   0.222  14.960  0.8164 -1.1661 -0.0540
  639TMC3    O1 9522   0.812   0.168  15.379 -0.2133  0.1302  0.6968
  639TMC3    O2 9523   0.521   0.248  14.838  0.2438 -0.1660  0.2288
  640MPD2     C 9524   1.105   4.308  10.299 -0.0348  0.0585 -0.5073
  640MPD2    C1 9525   0.967   4.301  10.275 -0.0088 -0.2377 -0.0049
  640MPD2    C2 9526   0.880   4.396  10.314  0.5079 -0.4926  0.0130
  640MPD2    C3 9527   0.929   4.505  10.386 -0.0920  0.7648 -0.2173
  640MPD2    C4 9528   1.065   4.509  10.408 -0.1177  0.5012  0.2693
  640MPD2    C5 9529   1.147   4.414  10.366  0.1922 -0.6281 -0.4899
  640MPD2     H 9530   0.774   4.384  10.295  0.2404  2.4654 -0.4012
  640MPD2    H1 9531   1.108   4.599  10.451  0.3605  1.0865 -1.4686
  640MPD2    H2 9532   1.168   4.230  10.258  1.0424  0.7708 -0.2355
  640MPD2    H3 9533   1.253   4.423  10.386  0.8533 -1.2430 -3.8104
  640MPD2     N 9534   0.855   4.608  10.437 -0.2516  0.3147 -0.1016
  640MPD2    H5 9535   0.899   4.669  10.506 -1.2737  1.1282 -0.1774
  640MPD2    N1 9536   0.924   4.176  10.215  0.0196  0.3735 -0.2550
  640MPD2    H7 9537   0.999   4.108  10.206 -0.4699 -0.3905  1.3781
  641TMC3    C1 9538   0.790   4.010  10.122 -0.9664  0.3768  0.7391
  641TMC3    C2 9539   0.899   3.934  10.117  0.0055  0.3244  0.4289
  641TMC3    C3 9540   0.896   3.827  10.025  0.2815  0.4554  0.1381
  641TMC3    C4 9541   0.680   3.988  10.037 -0.1580 -0.1214  0.2645
  641TMC3    C5 9542   0.683   3.886   9.948  0.4054 -0.3212  0.1819
  641TMC3    C6 9543   0.789   3.801   9.945  0.2491 -0.5040 -0.3431
  641TMC3     C 9544   0.794   4.144  10.178 -0.8238 -0.2219 -0.1584
  641TMC3     O 9545   0.694   4.217  10.174  0.3012  0.1300 -0.5585
  641TMC3     H 9546   0.983   3.948  10.185  0.3784  2.5564 -0.4793
  641TMC3    H1 9547   0.594   4.054  10.033 -1.0912 -1.4569 -1.5183
  641TMC3    H2 9548   0.796   3.710   9.886  1.9183  0.3143 -1.3619
  641TMC3    C7 9549   0.569   3.875   9.859 -0.5538 -0.4386  0.1058
  641TMC3    C8 9550   0.997   3.725  10.038 -0.1109  0.5516  0.0705
  641TMC3    O1 9551   0.492   3.973   9.858 -0.3458 -0.0536 -0.5083
  641TMC3    O2 9552   0.966   3.622   9.985 -0.0360 -0.4277  0.1443
  642TMC3    C1 9553   2.276   0.701  12.329  0.1699 -0.3758 -0.2906
  642TMC3    C2 9554   2.380   0.731  12.242  0.0728  0.5813  0.1431
  642TMC3    C3 9555   2.381   0.659  12.127  0.2609  0.3307 -0.2254
  642TMC3    C4 9556   2.193   0.593  12.311 -0.4080  0.0505 -0.4045
  642TMC3    C5 9557   2.202   0.528  12.185 -0.4075  0.1470  0.0322
  642TMC3    C6 9558   2.288   0.564  12.087 -0.1004 -0.3917  1.1198
  642TMC3     C 9559   2.262   0.777  12.452  0.5600  0.2340 -0.1013
  642TMC3     O 9560   2.358   0.848  12.480  0.4063  0.5528  0.1695
  642TMC3     H 9561   2.447   0.815  12.258  1.0435 -0.6191  2.3100
  642TMC3    H1 9562   2.116   0.560  12.379  0.0179 -0.6300 -0.2458
  642TMC3    H2 9563   2.291   0.505  11.996 -3.1626  0.0887  0.6879
  642TMC3    C7 9564   2.103   0.419  12.162  0.1344  0.5846  0.9421
  642TMC3    C8 9565   2.465   0.712  12.022 -0.2794  0.2027 -0.5059
  642TMC3    O1 9566   2.076   0.390  12.049  0.0757 -0.1368 -0.0893
  642TMC3    O2 9567   2.419   0.714  11.910  0.2146  0.3843 -0.4587
  643TMC3    C1 9568   1.494   3.820   0.637  0.2760  0.5223  0.6039
  643TMC3    C2 9569   1.393   3.827   0.542 -0.0774 -0.5941  0.1934
  643TMC3    C3 9570   1.418   3.770   0.422  0.2735 -0.2506  0.2379
  643TMC3    C4 9571   1.619   3.772   0.617  0.4779  0.4061 -0.4270
  643TMC3    C5 9572   1.643   3.729   0.492 -0.0159  0.1462  0.0236
  643TMC3    C6 9573   1.543   3.723   0.403 -0.2085  0.8747  0.1691
  643TMC3     C 9574   1.507   3.942   0.711  0.0372 -0.0118 -0.7180
  643TMC3     O 9575   1.488   4.040   0.642  0.2510 -0.0470 -0.2745
  643TMC3     H 9576   1.304   3.878   0.577  0.0864  0.5256 -1.0533
  643TMC3    H1 9577   1.700   3.796   0.684  0.4523 -1.5349  0.2793
  643TMC3    H2 9578   1.559   3.687   0.302 -2.4396 -3.5154  1.4088
  643TMC3    C7 9579   1.769   3.786   0.440 -0.2324 -0.6705  0.7395
  643TMC3    C8 9580   1.372   3.844   0.308 -0.0209 -0.0792 -0.1157
  643TMC3    O1 9581   1.800   3.887   0.498 -0.1750  0.3245  0.3784
  643TMC3    O2 9582   1.386   3.787   0.197 -0.1140 -0.5271  0.4406
  644MPD2     C 9583   1.226   4.339   9.606 -0.4031 -0.1851 -0.1111
  644MPD2    C1 9584   1.193   4.258   9.507  0.9175  0.3603 -0.5754
  644MPD2    C2 9585   1.065   4.279   9.445 -0.0939  0.0373 -0.2737
  644MPD2    C3 9586   0.988   4.383   9.484 -0.0489  0.5285 -0.5168
  644MPD2    C4 9587   1.030   4.466   9.585  0.3118 -0.4280  0.0057
  644MPD2    C5 9588   1.150   4.442   9.645 -0.1550  0.5859 -1.0566
  644MPD2     H 9589   1.030   4.223   9.360  0.5063 -0.0379 -0.4754
  644MPD2    H1 9590   0.962   4.544   9.618 -0.1497 -0.2490 -1.3541
  644MPD2    H2 9591   1.311   4.314   9.670  0.4566  0.9004 -0.8249
  644MPD2    H3 9592   1.167   4.506   9.731 -0.5462  1.7035 -1.8041
  644MPD2     N 9593   0.854   4.402   9.426 -0.3767  0.2645 -0.3885
  644MPD2    H5 9594   0.817   4.325   9.370 -0.2717  0.9697 -1.4345
  644MPD2    N1 9595   1.283   4.151   9.482 -0.4106 -0.0862 -0.5715
  644MPD2    H7 9596   1.372   4.148   9.531 -0.8866  0.2667  0.3031
  645TMC3    C1 9597   0.642   4.488   9.395 -0.2391 -0.1957  0.1509
  645TMC3    C2 9598   0.538   4.561   9.445 -0.6171  0.1160 -0.0687
  645TMC3    C3 9599   0.416   4.550   9.382 -0.2979  0.0623 -0.4365
  645TMC3    C4 9600   0.635   4.417   9.278  0.3260 -0.4236  0.7606
  645TMC3    C5 9601   0.509   4.403   9.223 -0.3518 -0.0550 -0.3572
  645TMC3    C6 9602   0.399   4.465   9.274  0.1234 -0.9018 -0.3343
  645TMC3     C 9603   0.768   4.506   9.459  0.3362  0.5464 -0.2234
  645TMC3     O 9604   0.773   4.602   9.537 -0.1324  0.1520  0.0376
  645TMC3     H 9605   0.544   4.627   9.531  0.5369  2.6236 -2.1026
  645TMC3    H1 9606   0.723   4.368   9.238 -1.6354 -1.4901 -2.2847
  645TMC3    H2 9607   0.299   4.455   9.234 -0.4930  0.7794  0.8116
  645TMC3    C7 9608   0.485   4.347   9.094  0.3492  0.6532  0.1554
  645TMC3    C8 9609   0.298   4.574   9.461  0.7216  0.0819  0.2699
  645TMC3    O1 9610   0.385   4.387   9.038  0.0175  0.1123  0.0062
  645TMC3    O2 9611   0.205   4.596   9.392 -0.5387  0.3434  0.1835
  646MPD2     C 9612   0.846   4.361  14.373 -0.0451 -0.6052  0.4649
  646MPD2    C1 9613   0.778   4.357  14.489 -0.0286 -0.0469 -0.6687
  646MPD2    C2 9614   0.653   4.427  14.498  0.0146  0.2528 -0.2474
  646MPD2    C3 9615   0.599   4.492  14.389 -0.2541  0.2626  0.4636
  646MPD2    C4 9616   0.677   4.497  14.277  1.3560 -0.2530  0.2681
  646MPD2    C5 9617   0.808   4.450  14.275 -0.3917 -0.0400  0.0070
  646MPD2     H 9618   0.599   4.431  14.592 -1.7086  0.4183 -1.2373
  646MPD2    H1 9619   0.642   4.552  14.191 -0.7362 -0.3497  1.0675
  646MPD2    H2 9620   0.937   4.306  14.351  0.3251 -0.4262  1.5482
  646MPD2    H3 9621   0.872   4.459  14.188 -0.3752  1.8959  0.2171
  646MPD2     N 9622   0.466   4.542  14.395  0.3066 -0.5379  0.2468
  646MPD2    H5 9623   0.413   4.509  14.476  1.5936 -1.3738  0.7506
  646MPD2    N1 9624   0.824   4.270  14.586  0.4290  0.1575 -0.2168
  646MPD2    H7 9625   0.917   4.231  14.576  1.0352  1.2376  1.3095
  647TMC3    C1 9626   0.839   4.148  14.790  0.4842 -0.1575  0.1373
  647TMC3    C2 9627   0.780   4.125  14.913  0.1231  0.1258 -0.1236
  647TMC3    C3 9628   0.860   4.107  15.022 -0.5973  0.0969 -0.0134
  647TMC3    C4 9629   0.971   4.141  14.765 -0.1907 -0.1645 -0.4531
  647TMC3    C5 9630   1.051   4.122  14.881  0.5120 -0.1378  0.4969
  647TMC3    C6 9631   0.994   4.131  15.006 -0.3404  0.0884  0.0175
  647TMC3     C 9632   0.755   4.223  14.692  0.6447 -0.2878 -0.1104
  647TMC3     O 9633   0.633   4.237  14.715 -0.1044  0.4770 -0.1060
  647TMC3     H 9634   0.672   4.129  14.923  0.2031 -1.0593  1.1743
  647TMC3    H1 9635   1.012   4.127  14.666 -0.7147 -0.1075 -0.6767
  647TMC3    H2 9636   1.050   4.104  15.095 -1.7035 -0.9276  0.5673
  647TMC3    C7 9637   1.158   4.020  14.872  0.4145 -1.6628  0.1234
  647TMC3    C8 9638   0.831   3.975  15.075 -1.1104 -0.5175 -0.8150
  647TMC3    O1 9639   1.245   4.038  14.958  0.1663 -0.0883 -0.7347
  647TMC3    O2 9640   0.928   3.920  15.127  0.4981  0.2245  0.1083
  648TMC3    C1 9641   0.221   1.567  15.883  0.1005  0.2284  0.7949
  648TMC3    C2 9642   0.230   1.437  15.838 -0.3575 -0.1898  0.5667
  648TMC3    C3 9643   0.194   1.423  15.708 -0.6118 -0.1782  0.1862
  648TMC3    C4 9644   0.190   1.675  15.804  0.3558  0.4445  0.1465
  648TMC3    C5 9645   0.153   1.651  15.673 -0.3575 -0.3997 -0.1286
  648TMC3    C6 9646   0.154   1.525  15.628  0.3003  1.5960 -0.6700
  648TMC3     C 9647   0.247   1.592  16.023 -1.1552  0.0467  0.2989
  648TMC3     O 9648   0.284   1.699  16.058 -0.4168  0.1008 -0.1181
  648TMC3     H 9649   0.272   1.351  15.887 -3.4539 -0.7579  2.2190
  648TMC3    H1 9650   0.202   1.776  15.842  1.9656  1.5399 -3.2001
  648TMC3    H2 9651   0.124   1.507  15.525 -0.1885 -3.4233  0.3490
  648TMC3    C7 9652   0.085   1.748  15.595  0.7149  0.9020 -0.0765
  648TMC3    C8 9653   0.185   1.290  15.663  0.0513  0.7615 -0.1202
  648TMC3    O1 9654   0.110   1.735  15.474 -0.4349  0.1631 -0.4082
  648TMC3    O2 9655   0.166   1.209  15.756 -0.3516  0.6708 -0.1272
  649TMC3    C1 9656   3.277   3.041  12.653 -0.5689 -0.2799  0.6664
  649TMC3    C2 9657   3.410   3.058  12.662 -0.1151 -0.2682  0.3586
  649TMC3    C3 9658   3.478   2.999  12.764  0.5849 -0.2176 -0.1995
  649TMC3    C4 9659   3.217   2.944  12.723 -0.6414 -0.3723 -0.7287
  649TMC3    C5 9660   3.290   2.875  12.817  0.2832  0.5363 -0.5338
  649TMC3    C6 9661   3.423   2.912  12.843 -0.8868 -0.4389  0.2862
  649TMC3     C 9662   3.203   3.090  12.538  0.1297  0.6206 -0.2731
  649TMC3     O 9663   3.086   3.109  12.562 -0.4775 -0.2302 -0.2486
  649TMC3     H 9664   3.444   3.144  12.605 -0.7957 -0.1946  0.0673
  649TMC3    H1 9665   3.116   2.914  12.699 -0.7780 -0.4296 -0.0963
  649TMC3    H2 9666   3.487   2.855  12.910  0.2929  0.8906  0.2887
  649TMC3    C7 9667   3.219   2.793  12.909  0.6033 -0.9704  0.0781
  649TMC3    C8 9668   3.623   3.012  12.768 -0.1620  0.3534  0.3234
  649TMC3    O1 9669   3.096   2.803  12.902  0.0586 -0.1335  0.0250
  649TMC3    O2 9670   3.682   2.962  12.860  0.1768 -0.0830 -0.1172
  650TMC3    C1 9671   1.644   4.332  12.897 -0.2917 -0.0179 -0.9784
  650TMC3    C2 9672   1.649   4.463  12.946 -0.6673  0.8417 -1.0886
  650TMC3    C3 9673   1.550   4.553  12.912 -0.1610 -0.9050 -0.9779
  650TMC3    C4 9674   1.534   4.295  12.817 -0.4786  0.0902 -0.9525
  650TMC3    C5 9675   1.438   4.390  12.784 -0.0350 -1.2101 -0.0510
  650TMC3    C6 9676   1.447   4.516  12.831  0.7696  0.0057  0.7328
  650TMC3     C 9677   1.732   4.236  12.962 -0.3429  0.6075  0.8770
  650TMC3     O 9678   1.790   4.281  13.060  0.4752  0.1464  0.0171
  650TMC3     H 9679   1.720   4.507  13.014  0.1171  0.9283 -1.9606
  650TMC3    H1 9680   1.538   4.198  12.769 -0.8562 -0.7026  0.6403
  650TMC3    H2 9681   1.382   4.596  12.799 -0.6741 -0.8131  1.6663
  650TMC3    C7 9682   1.360   4.355  12.659 -0.0548  0.0856 -0.1896
  650TMC3    C8 9683   1.538   4.675  12.982  0.3406 -0.6199 -0.2445
  650TMC3    O1 9684   1.375   4.245  12.607  0.5030  0.5879  0.2663
  650TMC3    O2 9685   1.632   0.016  12.989 -0.0949 -0.1980  0.0201
  651MPD2     C 9686   4.545   1.899  10.450  0.5201 -0.7554  1.0742
  651MPD2    C1 9687   4.522   1.908  10.585  0.6806  0.5461  0.2549
  651MPD2    C2 9688   4.637   1.918  10.656  0.4020 -0.2050  0.2539
  651MPD2    C3 9689   0.030   1.907  10.606  0.6269 -0.6901  0.0266
  651MPD2    C4 9690   0.038   1.879  10.477  0.1486 -0.3160 -0.8052
  651MPD2    C5 9691   4.667   1.878  10.400  0.5772 -0.4400  0.0415
  651MPD2     H 9692   4.626   1.940  10.761 -0.0876  0.0204  0.1547
  651MPD2    H1 9693   0.127   1.879  10.415  1.0943  0.9857  0.5299
  651MPD2    H2 9694   4.465   1.900  10.376 -0.0558 -2.8010  1.6858
  651MPD2    H3 9695   4.681   1.855  10.295  1.7650 -2.5527  0.6560
  651MPD2     N 9696   0.138   1.923  10.696 -0.0620  0.5993 -0.8259
  651MPD2    H5 9697   0.116   1.938  10.794 -3.8200 -0.3769 -1.5261
  651MPD2    N1 9698   4.395   1.934  10.647  0.7120 -0.6807 -0.0473
  651MPD2    H7 9699   4.392   1.954  10.747  1.2547  1.4013 -0.4584
  652TMC3    C1 9700   0.589   1.906  10.826  0.0520 -0.0817 -0.7148
  652TMC3    C2 9701   0.496   1.890  10.728 -0.2910 -0.3827 -0.4995
  652TMC3    C3 9702   0.367   1.904  10.765 -0.6808  0.2797  0.7561
  652TMC3    C4 9703   0.558   1.914  10.961  0.3287  0.2135 -0.3394
  652TMC3    C5 9704   0.424   1.927  10.994  0.1858  0.0343  0.1240
  652TMC3    C6 9705   0.328   1.930  10.897  0.4393 -0.0358 -0.1696
  652TMC3     C 9706   0.728   1.907  10.793  0.1169  0.3033 -0.1765
  652TMC3     O 9707   0.799   1.841  10.863  0.5415 -0.4363 -0.1544
  652TMC3     H 9708   0.531   1.887  10.626 -0.9527  0.8203 -0.7550
  652TMC3    H1 9709   0.643   1.910  11.028  0.6565 -0.5371 -0.7952
  652TMC3    H2 9710   0.225   1.942  10.931  0.1392 -1.4127 -0.5675
  652TMC3    C7 9711   0.395   2.019  11.098  0.5293 -0.4449  0.0851
  652TMC3    C8 9712   0.265   1.886  10.660  0.1580 -0.5076 -0.2178
  652TMC3    O1 9713   0.288   2.002  11.156 -0.3746 -0.2461 -0.6089
  652TMC3    O2 9714   0.305   1.836  10.555 -0.6991  0.4684 -0.2289
  653MPD2     C 9715   4.139   1.538   0.074  0.0976  0.3239  0.0076
  653MPD2    C1 9716   4.119   1.600  17.695 -0.4234  0.1343  0.3167
  653MPD2    C2 9717   4.024   1.548  17.612 -0.2671  0.6648 -0.0035
  653MPD2    C3 9718   3.953   1.436  17.653  0.6926  0.0577  0.4221
  653MPD2    C4 9719   3.988   1.362   0.017  0.1034 -0.2866 -0.4117
  653MPD2    C5 9720   4.076   1.415   0.105  0.4797 -0.4025  0.2167
  653MPD2     H 9721   4.008   1.598  17.517  1.3731  1.4418  0.1368
  653MPD2    H1 9722   3.939   1.267   0.034 -1.1195  0.7306  1.7181
  653MPD2    H2 9723   4.193   1.588   0.153  2.7788  1.8534 -2.8155
  653MPD2    H3 9724   4.107   1.351   0.186  0.6960 -4.1094 -2.7854
  653MPD2     N 9725   3.863   1.390  17.555  0.2411 -0.0370  0.1614
  653MPD2    H5 9726   3.867   1.431  17.463 -1.7406 -0.8796 -0.2991
  653MPD2    N1 9727   4.190   1.714  17.657  0.0877 -0.6164  0.0994
  653MPD2    H7 9728   4.160   1.763  17.574  2.8920 -0.3545 -0.7500
  654TMC3    C1 9729   3.720   1.252  17.445  0.7650  0.4845 -0.4867
  654TMC3    C2 9730   3.632   1.350  17.404  0.7596  0.4699  0.5940
  654TMC3    C3 9731   3.531   1.313  17.317 -0.5096  0.5644  0.7425
  654TMC3    C4 9732   3.722   1.125  17.396 -0.1733  0.6688 -0.2322
  654TMC3    C5 9733   3.636   1.100  17.295 -0.5142  0.0365  0.0258
  654TMC3    C6 9734   3.540   1.194  17.247  0.0856  0.3104 -0.4767
  654TMC3     C 9735   3.793   1.272  17.565  0.3119 -0.0394 -0.7238
  654TMC3     O 9736   3.798   1.178  17.646  0.7302 -0.1061 -0.3422
  654TMC3     H 9737   3.628   1.440  17.465  4.3183  0.7623  0.4092
  654TMC3    H1 9738   3.783   1.049  17.443 -3.2040 -2.1382 -0.8519
  654TMC3    H2 9739   3.488   1.177  17.153 -0.1373 -0.8437 -0.1435
  654TMC3    C7 9740   3.675   0.997  17.196  0.0836  0.0708 -0.1450
  654TMC3    C8 9741   3.399   1.382  17.332 -0.0319 -0.5360 -0.4073
  654TMC3    O1 9742   3.614   1.007  17.087  0.3803 -0.2455 -0.1300
  654TMC3    O2 9743   3.403   1.502  17.352 -0.2045 -0.1197  0.4055
  655MPD2     C 9744   0.716   2.020  15.599 -0.2858 -0.4230 -0.7387
  655MPD2    C1 9745   0.635   2.084  15.508  0.4992  0.5355 -0.8653
  655MPD2    C2 9746   0.635   2.035  15.380  0.3161 -0.1311  0.1878
  655MPD2    C3 9747   0.719   1.929  15.345 -0.1402 -0.2238 -0.1093
  655MPD2    C4 9748   0.791   1.857  15.436 -0.1062  0.2504  0.6155
  655MPD2    C5 9749   0.793   1.914  15.560  0.5380 -0.1850 -0.1236
  655MPD2     H 9750   0.574   2.071  15.297  1.9615  0.1897 -0.8958
  655MPD2    H1 9751   0.852   1.774  15.403 -0.6835  0.7746 -1.7674
  655MPD2    H2 9752   0.707   2.033  15.706 -0.3648 -0.2797 -0.7632
  655MPD2    H3 9753   0.859   1.860  15.627  0.7374 -2.1757 -1.9258
  655MPD2     N 9754   0.720   1.879  15.211 -0.1890 -1.4327 -0.2169
  655MPD2    H5 9755   0.769   1.791  15.196 -0.3676 -1.5504 -0.1105
  655MPD2    N1 9756   0.543   2.180  15.551  0.0031  0.9913  0.1354
  655MPD2    H7 9757   0.461   2.197  15.494  0.9532 -1.3917 -1.9554
  656TMC3    C1 9758   0.445   2.340  15.693  0.2088 -0.6598 -0.4958
  656TMC3    C2 9759   0.390   2.332  15.820 -0.6105 -0.5475  0.9811
  656TMC3    C3 9760   0.260   2.370  15.844  0.1370 -0.1013  0.0361
  656TMC3    C4 9761   0.381   2.401  15.590  0.6065 -0.7625  0.1770
  656TMC3    C5 9762   0.252   2.448  15.620 -0.6329  0.1289  0.0509
  656TMC3    C6 9763   0.190   2.433  15.742  0.2127  0.4739 -0.3998
  656TMC3     C 9764   0.548   2.249  15.675  0.2544  0.0982 -0.0141
  656TMC3     O 9765   0.634   2.245  15.764  0.1264 -0.3521  0.1944
  656TMC3     H 9766   0.438   2.262  15.888 -0.0851 -1.2542 -0.1070
  656TMC3    H1 9767   0.428   2.395  15.493 -1.3862 -1.9613 -0.7246
  656TMC3    H2 9768   0.086   2.458  15.753 -0.1532 -1.6405  0.8360
  656TMC3    C7 9769   0.198   2.523  15.505 -0.2941 -0.5242 -0.1699
  656TMC3    C8 9770   0.187   2.264  15.907  0.1135  0.3216  0.9850
  656TMC3    O1 9771   0.241   2.491  15.395  0.4883  0.2419  0.3584
  656TMC3    O2 9772   0.209   2.148  15.879  0.6793  0.6073 -0.1646
  657TMC3    C1 9773   3.555   1.265  15.108 -0.1426  0.0410  0.6443
  657TMC3    C2 9774   3.525   1.365  15.198  0.4076 -0.1519  0.5353
  657TMC3    C3 9775   3.629   1.443  15.251 -0.2973  0.0867  0.2650
  657TMC3    C4 9776   3.666   1.259  15.035  0.3597 -0.0001 -0.1978
  657TMC3    C5 9777   3.764   1.336  15.088 -0.1544  0.3123 -0.1359
  657TMC3    C6 9778   3.753   1.423  15.192  0.2135 -0.3216  0.9629
  657TMC3     C 9779   3.490   1.140  15.144 -0.5593  0.5605  0.1638
  657TMC3     O 9780   3.371   1.149  15.154 -0.2758  0.5667 -0.1332
  657TMC3     H 9781   3.430   1.364  15.250 -0.3805 -0.1199 -0.9084
  657TMC3    H1 9782   3.690   1.190  14.955 -1.4448  0.7561 -1.4022
  657TMC3    H2 9783   3.831   1.496  15.207  1.4397 -1.2116 -1.0566
  657TMC3    C7 9784   3.888   1.328  15.009  0.5672  0.2418 -0.3611
  657TMC3    C8 9785   3.619   1.487  15.379 -0.1627  0.5593 -0.5296
  657TMC3    O1 9786   3.880   1.282  14.899  0.0002 -0.0114  0.5698
  657TMC3    O2 9787   3.502   1.513  15.404  0.3306 -0.4403 -0.4022
  658MPD2     C 9788   0.783   1.733  14.329 -0.4260  0.0824 -0.7632
  658MPD2    C1 9789   0.722   1.831  14.411  0.0467 -0.1720  0.3310
  658MPD2    C2 9790   0.724   1.959  14.364  0.3076 -0.5259  0.2811
  658MPD2    C3 9791   0.784   2.004  14.246 -0.0289 -0.3207  0.1463
  658MPD2    C4 9792   0.849   1.906  14.167  0.3753  0.1379  0.1795
  658MPD2    C5 9793   0.855   1.776  14.216 -0.2935  0.0719  0.1259
  658MPD2     H 9794   0.670   2.039  14.413 -0.7394 -0.7351 -0.5231
  658MPD2    H1 9795   0.898   1.925  14.073 -1.2423 -1.7344 -1.0580
  658MPD2    H2 9796   0.800   1.631  14.359 -1.8359 -0.2755 -1.1746
  658MPD2    H3 9797   0.924   1.713  14.161 -0.3881 -0.7165  0.9138
  658MPD2     N 9798   0.775   2.140  14.201  0.5417 -0.2098  0.5262
  658MPD2    H5 9799   0.743   2.203  14.274 -1.8356 -2.2574  1.2528
  658MPD2    N1 9800   0.666   1.790  14.534  0.3106  0.1142 -0.3580
  658MPD2    H7 9801   0.655   1.691  14.554  1.6208  0.8328  3.8776
  659TMC3    C1 9802   0.602   1.828  14.758  0.1341 -0.0170  0.2802
  659TMC3    C2 9803   0.628   1.915  14.862  0.1732 -0.4957  0.4560
  659TMC3    C3 9804   0.636   1.855  14.986 -0.2179  0.1695  0.2313
  659TMC3    C4 9805   0.568   1.697  14.769 -0.6473 -0.0082  0.3759
  659TMC3    C5 9806   0.564   1.649  14.898 -0.0614  0.1551 -0.7545
  659TMC3    C6 9807   0.588   1.727  15.002 -0.3113 -0.3009 -0.3438
  659TMC3     C 9808   0.638   1.883  14.630  0.2973  0.2102 -0.2897
  659TMC3     O 9809   0.685   1.994  14.630 -0.0523  0.4052 -0.3678
  659TMC3     H 9810   0.674   2.012  14.852  0.9707 -1.2878 -3.4055
  659TMC3    H1 9811   0.523   1.646  14.685 -0.4298 -2.1375  1.5524
  659TMC3    H2 9812   0.571   1.704  15.107  1.0472  1.5580  0.2765
  659TMC3    C7 9813   0.474   1.538  14.921 -0.0762  0.6917  0.2244
  659TMC3    C8 9814   0.663   1.945  15.100  0.0797  0.0970 -0.4057
  659TMC3    O1 9815   0.440   1.525  15.040 -0.1423  0.3680  0.1150
  659TMC3    O2 9816   0.634   2.063  15.082 -0.1107 -0.4306  0.2293
  660MPD2     C 9817   2.908   1.089  12.704 -0.5661  0.1478  0.0252
  660MPD2    C1 9818   2.775   1.099  12.744 -0.2635  0.3155 -0.2198
  660MPD2    C2 9819   2.730   1.013  12.842  0.3227  0.1454 -0.4292
  660MPD2    C3 9820   2.813   0.928  12.920 -0.9409 -0.4278 -0.3166
  660MPD2    C4 9821   2.946   0.924  12.876 -0.2366 -0.4935  1.0093
  660MPD2    C5 9822   2.986   1.002  12.767  0.2362 -0.0162 -0.1009
  660MPD2     H 9823   2.623   1.015  12.858  0.3341  0.4048 -0.3760
  660MPD2    H1 9824   3.021   0.855  12.913 -0.5771 -0.8319  1.0612
  660MPD2    H2 9825   2.943   1.141  12.615 -1.0965 -1.4239 -1.0946
  660MPD2    H3 9826   3.091   0.991  12.739  1.2402  2.1077  2.8072
  660MPD2     N 9827   2.761   0.837  13.017  0.0973 -0.4422  0.1065
  660MPD2    H5 9828   2.830   0.771  13.050 -0.4946 -1.2783 -0.3327
  660MPD2    N1 9829   2.691   1.185  12.672  0.3622 -0.3035  0.1542
  660MPD2    H7 9830   2.731   1.221  12.586 -0.4009 -0.0371 -0.0929
  661TMC3    C1 9831   2.504   1.305  12.604 -0.0282  0.0169 -0.5633
  661TMC3    C2 9832   2.586   1.350  12.500 -0.2630 -0.4228  0.0190
  661TMC3    C3 9833   2.520   1.392  12.386 -0.9320  0.5736 -0.0465
  661TMC3    C4 9834   2.370   1.312  12.608 -0.7347  0.0045  0.2040
  661TMC3    C5 9835   2.309   1.354  12.494  0.5020  0.1089  0.1855
  661TMC3    C6 9836   2.379   1.396  12.384 -0.1059  0.0563 -0.5927
  661TMC3     C 9837   2.560   1.220  12.704 -0.2911  0.5165  0.2558
  661TMC3     O 9838   2.488   1.183  12.797  0.0521  0.1349 -0.3081
  661TMC3     H 9839   2.694   1.352  12.510 -0.2216 -1.6565 -0.2284
  661TMC3    H1 9840   2.318   1.247  12.676 -3.0785  1.1476 -0.5139
  661TMC3    H2 9841   2.323   1.430  12.298 -0.8282 -2.0403 -0.9576
  661TMC3    C7 9842   2.184   1.282  12.466  0.2401 -1.1629  0.4504
  661TMC3    C8 9843   2.604   1.421  12.268 -0.3189 -0.0998  0.2028
  661TMC3    O1 9844   2.109   1.290  12.561 -0.2355  0.9213  0.5673
  661TMC3    O2 9845   2.726   1.414  12.285  0.0124  0.3441 -0.2463
  662MPD2     C 9846   3.329   0.295  17.503  0.2545  0.2771 -0.8113
  662MPD2    C1 9847   3.317   0.156  17.528 -0.3284 -0.6511 -0.5457
  662MPD2    C2 9848   3.259   0.113  17.653  0.4566  0.4437  0.5307
  662MPD2    C3 9849   3.222   0.213   0.003  0.2498 -0.0549  0.7916
  662MPD2    C4 9850   3.238   0.347  17.720 -0.0014  0.4446  0.4293
  662MPD2    C5 9851   3.288   0.382  17.598  0.5659 -0.5489  0.0960
  662MPD2     H 9852   3.247   0.007  17.673 -2.6010  0.7593  0.3251
  662MPD2    H1 9853   3.205   0.416   0.051 -1.1081  0.7571 -0.3407
  662MPD2    H2 9854   3.369   0.341  17.413  2.1010 -0.9061 -0.5825
  662MPD2    H3 9855   3.291   0.484  17.564 -1.0172 -0.2144  0.9813
  662MPD2     N 9856   3.146   0.169   0.115 -0.1352  0.5834 -0.4436
  662MPD2    H5 9857   3.125   0.237   0.187  0.6194 -0.9445  1.2317
  662MPD2    N1 9858   3.354   0.058  17.444  0.8376 -0.4248  0.9863
  662MPD2    H7 9859   3.329   4.699  17.466  0.1215 -0.0220  1.8920
  663TMC3    C1 9860   3.407   4.692  17.234 -0.6803 -0.5337  0.3159
  663TMC3    C2 9861   3.295   4.618  17.252  0.3410  0.6376  0.2895
  663TMC3    C3 9862   3.255   4.527  17.153 -0.1826  0.2918  0.2706
  663TMC3    C4 9863   3.499   4.679  17.129 -0.0597 -0.1933 -0.7729
  663TMC3    C5 9864   3.452   4.590  17.028 -0.3405 -0.3609  1.0169
  663TMC3    C6 9865   3.330   4.522  17.043  0.5826 -0.5803  0.6140
  663TMC3     C 9866   3.422   0.073  17.323  0.1259 -0.3612  0.2382
  663TMC3     O 9867   3.493   0.163  17.284  0.3906  0.0751 -0.3222
  663TMC3     H 9868   3.216   4.645  17.322 -1.7397 -0.3676 -1.6695
  663TMC3    H1 9869   3.576   0.013  17.103 -0.9277  0.8778 -0.4566
  663TMC3    H2 9870   3.286   4.477  16.955  0.6834  0.2946  0.1275
  663TMC3    C7 9871   3.553   4.511  16.949  0.5776  0.4483 -0.1667
  663TMC3    C8 9872   3.254   4.386  17.193 -0.1522  0.6125  0.7954
  663TMC3    O1 9873   3.654   4.569  16.910  0.4549  0.7811 -0.3178
  663TMC3    O2 9874   3.273   4.301  17.104  0.5608  0.0157 -0.1899
  664MPD2     C 9875   1.815   2.795   0.108  0.2154 -0.4368 -0.3325
  664MPD2    C1 9876   1.810   2.919   0.160 -0.0076  0.1946 -0.3298
  664MPD2    C2 9877   1.801   2.932   0.297 -0.7130  0.4609  0.5551
  664MPD2    C3 9878   1.830   2.827   0.383  0.0005  0.1258 -0.6924
  664MPD2    C4 9879   1.850   2.701   0.329  0.6025 -0.6803  0.2932
  664MPD2    C5 9880   1.836   2.686   0.194  0.2121  0.3922 -0.3283
  664MPD2     H 9881   1.791   3.026   0.350  0.8897  1.1087 -0.2828
  664MPD2    H1 9882   1.871   2.613   0.389 -2.1421 -0.5597  1.4253
  664MPD2    H2 9883   1.827   2.779   0.001 -0.6934 -0.5815 -0.4144
  664MPD2    H3 9884   1.839   2.586   0.153  0.0867 -0.0506  0.7463
  664MPD2     N 9885   1.817   2.845   0.526 -0.7641 -0.3391  0.1432
  664MPD2    H5 9886   1.773   2.932   0.554 -1.8835 -0.0847 -2.3570
  664MPD2    N1 9887   1.809   3.033   0.072 -0.7079 -0.5540 -0.3121
  664MPD2    H7 9888   1.793   3.125   0.112 -0.2522  0.1596 -1.7998
  665TMC3    C1 9889   1.816   2.787   0.754 -0.1716 -0.1516  0.0767
  665TMC3    C2 9890   1.886   2.710   0.848  0.5900  0.3838  0.1558
  665TMC3    C3 9891   1.858   2.732   0.981  0.1219  0.1678 -0.1600
  665TMC3    C4 9892   1.724   2.881   0.787  0.0054 -0.0981  0.2028
  665TMC3    C5 9893   1.700   2.898   0.918  0.0569  0.2952  0.3617
  665TMC3    C6 9894   1.771   2.829   1.018  0.4223  0.0128  0.0337
  665TMC3     C 9895   1.848   2.752   0.625 -0.6656  0.2179 -0.3186
  665TMC3     O 9896   1.877   2.631   0.608  0.4496 -0.2174 -0.2960
  665TMC3     H 9897   1.949   2.627   0.817  2.3635  1.8436 -0.1894
  665TMC3    H1 9898   1.650   2.916   0.715  1.4942 -0.6011 -1.5644
  665TMC3    H2 9899   1.755   2.854   1.123 -1.1188 -1.0516  0.0583
  665TMC3    C7 9900   1.583   2.976   0.951 -0.3406  0.5198 -0.7648
  665TMC3    C8 9901   1.876   2.624   1.076 -0.1050 -0.3052  0.5876
  665TMC3    O1 9902   1.523   3.034   0.860  0.0058 -0.0206 -0.0549
  665TMC3    O2 9903   1.973   2.550   1.075  0.6713 -0.2290 -0.7188
  666TMC3    C1 9904   0.362   3.366  10.285 -0.0079 -0.5295 -0.0043
  666TMC3    C2 9905   0.430   3.255  10.317  0.8964  0.3409  0.7388
  666TMC3    C3 9906   0.556   3.271  10.361  0.2796 -0.0633  0.7328
  666TMC3    C4 9907   0.412   3.495  10.306 -0.9486 -0.0299  0.1929
  666TMC3    C5 9908   0.549   3.508  10.334 -0.1938  0.0480 -0.0723
  666TMC3    C6 9909   0.617   3.393  10.373  0.1400  0.0256 -0.3213
  666TMC3     C 9910   0.240   3.362  10.218 -0.3657 -1.3678 -0.2308
  666TMC3     O 9911   0.160   3.446  10.248 -0.0099 -0.1515  0.2473
  666TMC3     H 9912   0.387   3.157  10.307 -0.1771  0.8455  0.4193
  666TMC3    H1 9913   0.343   3.576  10.286 -0.7329  0.2010  0.3824
  666TMC3    H2 9914   0.718   3.392  10.413  0.4424 -2.6359 -1.1631
  666TMC3    C7 9915   0.609   3.643  10.366 -0.1561 -0.2548 -0.3797
  666TMC3    C8 9916   0.625   3.165  10.422  0.1751  0.7123 -0.0400
  666TMC3    O1 9917   0.532   3.731  10.396  0.3736  0.2127 -0.4132
  666TMC3    O2 9918   0.705   3.196  10.508 -0.3405  0.1585  0.3944
  667MPD2     C 9919   2.639   3.341  14.945  1.4837 -0.7160  0.0322
  667MPD2    C1 9920   2.522   3.393  14.996  0.0901  0.0320  0.5468
  667MPD2    C2 9921   2.409   3.313  14.985  0.0052 -0.3067 -0.8282
  667MPD2    C3 9922   2.406   3.198  14.910 -0.5322 -0.1881 -0.3652
  667MPD2    C4 9923   2.526   3.146  14.872 -0.2839 -1.0687 -0.6042
  667MPD2    C5 9924   2.647   3.215  14.887  0.7267  0.6055 -0.0413
  667MPD2     H 9925   2.312   3.351  15.015 -0.1298 -2.9949  2.1276
  667MPD2    H1 9926   2.532   3.054  14.815 -1.9598 -1.0261 -0.8567
  667MPD2    H2 9927   2.729   3.402  14.947  0.7626  0.3651 -1.1410
  667MPD2    H3 9928   2.741   3.178  14.847  0.2183 -0.5535 -0.1667
  667MPD2     N 9929   2.289   3.118  14.894 -0.9290 -0.0275  0.1443
  667MPD2    H5 9930   2.291   3.027  14.851 -0.8673 -0.4530  1.0441
  667MPD2    N1 9931   2.511   3.526  15.042  0.0664 -0.2864  0.7104
  667MPD2    H7 9932   2.415   3.551  15.065 -0.4408 -2.2943  0.8233
  668TMC3    C1 9933   2.552   3.741  15.109 -0.0691 -0.3887 -0.3377
  668TMC3    C2 9934   2.612   3.850  15.061 -0.0047 -0.1103  0.1737
  668TMC3    C3 9935   2.570   3.965  15.127 -0.1416  0.4447  0.2757
  668TMC3    C4 9936   2.477   3.735  15.222  0.5875 -0.3565  0.2515
  668TMC3    C5 9937   2.460   3.849  15.293 -0.4713 -0.5782  0.1316
  668TMC3    C6 9938   2.499   3.973  15.239 -0.3093 -0.0090 -1.4654
  668TMC3     C 9939   2.612   3.622  15.061  0.1755 -0.6407  0.6919
  668TMC3     O 9940   2.728   3.619  15.027  0.6533 -0.3720 -0.1678
  668TMC3     H 9941   2.675   3.847  14.972 -0.6376  0.7157 -0.2937
  668TMC3    H1 9942   2.471   3.637  15.269 -2.4831 -0.4166 -0.2822
  668TMC3    H2 9943   2.472   4.065  15.289  2.7163  0.1434 -0.1446
  668TMC3    C7 9944   2.453   3.847  15.435  0.1738  0.0804 -1.0878
  668TMC3    C8 9945   2.617   4.097  15.084 -0.0857 -0.8567  0.4721
  668TMC3    O1 9946   2.513   3.938  15.494  0.0614 -0.1299  0.3810
  668TMC3    O2 9947   2.529   4.181  15.080  0.3598 -0.0014  0.0204
  669TMC3    C1 9948   0.431   3.216  14.610 -0.0196 -0.0769 -0.4915
  669TMC3    C2 9949   0.328   3.192  14.528 -0.3476  1.0408  0.1798
  669TMC3    C3 9950   0.328   3.255  14.413 -0.5513 -0.9161 -0.1954
  669TMC3    C4 9951   0.526   3.308  14.572 -0.0242  0.2421 -0.0405
  669TMC3    C5 9952   0.528   3.368  14.456 -0.4630  0.1874 -0.4800
  669TMC3    C6 9953   0.420   3.347  14.378  0.2875  0.3794  0.4955
  669TMC3     C 9954   0.445   3.123  14.726 -0.0241 -0.7291 -0.2445
  669TMC3     O 9955   0.341   3.093  14.784  0.0598  0.3677 -0.1244
  669TMC3     H 9956   0.247   3.124  14.551 -0.7564  0.8976 -1.6331
  669TMC3    H1 9957   0.611   3.312  14.639  0.1108 -2.0276 -0.0575
  669TMC3    H2 9958   0.431   3.379  14.275  0.6644 -1.2291  0.0360
  669TMC3    C7 9959   0.634   3.459  14.432 -0.3798  0.2115 -0.0134
  669TMC3    C8 9960   0.206   3.254  14.340  0.3428 -0.1210  0.9757
  669TMC3    O1 9961   0.698   3.497  14.529 -0.5369 -0.0748  0.3755
  669TMC3    O2 9962   0.134   3.150  14.351  0.3670  0.1978  0.2402
  670MPD2     C 9963   3.137   0.717  13.443  0.4113 -0.1750  0.4671
  670MPD2    C1 9964   3.247   0.653  13.496  0.0728 -0.2888 -0.2142
  670MPD2    C2 9965   3.258   0.622  13.627  0.0879  0.3285  0.0921
  670MPD2    C3 9966   3.158   0.659  13.716 -0.2328  0.3805  0.1634
  670MPD2    C4 9967   3.046   0.728  13.668  0.3464  0.5872  0.5800
  670MPD2    C5 9968   3.032   0.746  13.530 -0.3616  0.6358 -0.5205
  670MPD2     H 9969   3.350   0.571  13.653  0.6494  1.3419  0.1038
  670MPD2    H1 9970   2.961   0.758  13.727  0.4379 -0.1583  1.0982
  670MPD2    H2 9971   3.140   0.755  13.342  2.8177 -0.1469  0.5540
  670MPD2    H3 9972   2.941   0.789  13.493 -1.4766 -1.5118 -0.2799
  670MPD2     N 9973   3.179   0.651  13.858  0.6991  0.5082 -0.8088
  670MPD2    H5 9974   3.257   0.595  13.889  0.5011  0.7100  0.0642
  670MPD2    N1 9975   3.360   0.630  13.414 -0.8389  0.6676  0.8107
  670MPD2    H7 9976   3.439   0.586  13.459  0.2862  1.5978 -0.2397
  671TMC3    C1 9977   3.103   0.661  14.082  0.2248  0.2734 -0.2990
  671TMC3    C2 9978   3.199   0.691  14.175 -0.1517 -0.0610 -0.4970
  671TMC3    C3 9979   3.182   0.625  14.295  0.3636  0.2804 -0.3221
  671TMC3    C4 9980   3.002   0.574  14.099 -0.4328 -0.2837 -0.0789
  671TMC3    C5 9981   2.983   0.521  14.223 -0.4221  0.3018 -1.0136
  671TMC3    C6 9982   3.074   0.538  14.320 -0.1977 -0.3053 -0.5738
  671TMC3     C 9983   3.109   0.727  13.950  0.4744 -0.5198  0.3091
  671TMC3     O 9984   3.026   0.809  13.942  0.1957 -0.2013 -0.1153
  671TMC3     H 9985   3.285   0.750  14.143 -1.2284  1.4777 -0.5711
  671TMC3    H1 9986   2.926   0.566  14.022 -0.5743 -2.8658  0.3412
  671TMC3    H2 9987   3.059   0.487  14.414 -2.0303  1.4058  0.0701
  671TMC3    C7 9988   2.899   0.403  14.224  0.1612 -0.2280 -0.1901
  671TMC3    C8 9989   3.304   0.606  14.378  0.5953 -0.0237 -0.9886
  671TMC3    O1 9990   2.846   0.360  14.123 -0.1932 -0.1611  0.9226
  671TMC3    O2 9991   3.293   0.547  14.483  0.2203  0.1699  0.4668
  672MPD2     C 9992   4.342   1.235  17.714 -0.1816  0.6664  0.0316
  672MPD2    C1 9993   4.276   1.159   0.068  0.0242 -0.5147 -0.1180
  672MPD2    C2 9994   4.307   1.173   0.203 -0.0802 -0.0830  0.4770
  672MPD2    C3 9995   4.381   1.278   0.237 -1.1942 -0.1227 -0.1671
  672MPD2    C4 9996   4.445   1.353   0.138  0.1880  0.1234  0.3969
  672MPD2    C5 9997   4.431   1.327   0.009 -0.2042 -0.1947  0.7512
  672MPD2     H 9998   4.249   1.111   0.270  1.4272 -0.2666  1.6155
  672MPD2    H1 9999   4.515   1.432   0.165 -1.4845  0.3846  4.0692
  672MPD2    H210000   4.325   1.206  17.611 -1.1465 -1.5658  0.8147
  672MPD2    H310001   4.487   1.391  17.688  0.4439 -0.9315  0.5863
  672MPD2     N10002   4.429   1.297   0.370 -0.0298 -0.7681 -0.7674
  672MPD2    H510003   4.491   1.376   0.388 -0.3876 -1.3788  3.2830
  672MPD2    N110004   4.184   1.047   0.031 -0.0358  0.5120  0.0489
  672MPD2    H710005   4.145   0.997   0.110  1.3317 -0.5700  0.0442
  673TMC3    C110006   4.022   0.930  17.661  0.6603  0.1168  0.4308
  673TMC3    C210007   4.011   0.828  17.568  0.7180 -0.7009 -0.2235
  673TMC3    C310008   3.915   0.732  17.585 -0.3328 -1.5183  0.4121
  673TMC3    C410009   3.932   0.937   0.019 -0.0538 -0.1231  0.2735
  673TMC3    C510010   3.818   0.851   0.016  0.5282  0.6584 -0.3895
  673TMC3    C610011   3.814   0.744  17.678 -0.1935 -0.6343 -0.4056
  673TMC3     C10012   4.143   1.008  17.651 -0.3401 -0.1301 -1.0412
  673TMC3     O10013   4.183   1.033  17.537 -0.2107 -0.6415 -0.1080
  673TMC3     H10014   4.098   0.816  17.504 -0.6958  0.9023 -2.4495
  673TMC3    H110015   3.944   1.026   0.079  2.2262 -1.3351  1.6288
  673TMC3    H210016   3.733   0.671  17.677 -0.2274 -0.6072  1.1832
  673TMC3    C710017   3.693   0.889   0.090 -0.3055  0.1705 -0.7341
  673TMC3    C810018   3.957   0.597  17.574 -0.4406 -0.4788  0.2646
  673TMC3    O110019   3.634   0.789   0.126  0.4657 -0.2011 -0.4484
  673TMC3    O210020   4.023   0.569  17.473  0.1172 -0.3638 -0.5010
  674MPD2     C10021   3.628   0.587  17.342 -0.5245  0.1931  0.1411
  674MPD2    C110022   3.594   0.567  17.475  0.1977  0.0285  0.1257
  674MPD2    C210023   3.493   0.643  17.526  0.1415  0.4529  0.2065
  674MPD2    C310024   3.430   0.741  17.456  0.7061 -0.1762 -0.6746
  674MPD2    C410025   3.475   0.769  17.329 -0.0349  0.0015  0.0477
  674MPD2    C510026   3.565   0.687  17.272  0.4954  0.2425 -0.3879
  674MPD2     H10027   3.447   0.608  17.618  0.3249 -0.7962 -0.1700
  674MPD2    H110028   3.439   0.853  17.271  0.2927 -0.1555 -0.3815
  674MPD2    H210029   3.705   0.525  17.297 -1.1989 -1.0076  0.6485
  674MPD2    H310030   3.594   0.698  17.168  0.0903 -0.3819 -0.5652
  674MPD2     N10031   3.336   0.824  17.525  0.0957  0.7653 -0.2076
  674MPD2    H510032   3.313   0.800  17.621 -1.4552 -1.9275 -1.2558
  674MPD2    N110033   3.644   0.448  17.540 -0.6045  0.3966  0.1627
  674MPD2    H710034   3.698   0.384  17.484  0.6377 -0.8501  2.8023
  675TMC3    C110035   3.667   0.273  17.710 -0.3752 -0.0472  1.2997
  675TMC3    C210036   3.625   0.259   0.092  0.0459 -0.1812 -0.0109
  675TMC3    C310037   3.590   0.138   0.135 -0.4435 -0.5183 -1.0930
  675TMC3    C410038   3.658   0.177  17.619  0.4688 -0.1792 -0.2310
  675TMC3    C510039   3.626   0.052  17.663  0.1943  0.4700  0.5071
  675TMC3    C610040   3.589   0.027   0.052  0.5611 -0.2582  0.5869
  675TMC3     C10041   3.632   0.413  17.669 -0.2823  0.5323  1.0634
  675TMC3     O10042   3.578   0.487   0.006 -0.2543 -0.7081 -0.5890
  675TMC3     H10043   3.642   0.337   0.165 -1.4687 -1.3367  1.5663
  675TMC3    H110044   3.697   0.192  17.519  0.9123  1.8634  0.2404
  675TMC3    H210045   3.542   4.670   0.079 -0.8691  0.5520  0.9018
  675TMC3    C710046   3.652   4.679  17.568  0.2622 -0.2715 -0.0761
  675TMC3    C810047   3.512   0.142   0.253 -0.6412  0.1860  0.1447
  675TMC3    O110048   3.682   4.706  17.457 -0.0587  0.1904  0.2390
  675TMC3    O210049   3.457   0.243   0.283 -0.4598  0.2729  0.6097
  676MPD2     C10050   1.493   4.171  11.468  0.1908  0.5673  0.2541
  676MPD2    C110051   1.374   4.098  11.480 -0.9767 -0.6866 -0.5768
  676MPD2    C210052   1.376   3.962  11.443  0.0137  0.6005  0.1002
  676MPD2    C310053   1.486   3.906  11.395  0.7320  0.1927  0.3169
  676MPD2    C410054   1.602   3.970  11.386 -0.3581 -1.0457  0.0184
  676MPD2    C510055   1.609   4.103  11.425 -0.3144  0.7160 -0.9365
  676MPD2     H10056   1.283   3.906  11.436  1.1965 -1.3451  0.0006
  676MPD2    H110057   1.689   3.910  11.364  2.2651  2.9616 -0.4366
  676MPD2    H210058   1.497   4.276  11.494 -0.5213  0.1137  2.1597
  676MPD2    H310059   1.702   4.159  11.427  0.2636 -0.2114 -1.5568
  676MPD2     N10060   1.486   3.770  11.357 -0.1351 -0.0587 -0.1177
  676MPD2    H510061   1.554   3.736  11.289  1.5480 -0.1683  1.6234
  676MPD2    N110062   1.254   4.150  11.540 -0.9017 -0.4590  0.3741
  676MPD2    H710063   1.177   4.088  11.564 -2.1134  1.5714  1.7127
  677TMC3    C110064   1.082   4.301  11.624  0.2167 -0.0603  0.1703
  677TMC3    C210065   1.032   4.203  11.705  0.2129  0.0564  0.2478
  677TMC3    C310066   0.929   4.233  11.790 -0.1870  0.7253 -0.3070
  677TMC3    C410067   1.035   4.430  11.638  0.1115 -0.3473  0.0585
  677TMC3    C510068   0.933   4.454  11.729 -0.4136  0.1395  0.0996
  677TMC3    C610069   0.864   4.353  11.788 -0.2630 -0.1595 -0.4685
  677TMC3     C10070   1.219   4.284  11.560 -0.8022  0.2531  0.1953
  677TMC3     O10071   1.284   4.382  11.533  0.3376  0.4358 -0.2047
  677TMC3     H10072   1.077   4.105  11.716 -0.7970 -0.6178 -1.6460
  677TMC3    H110073   1.088   4.513  11.594 -0.2678 -0.5104 -0.7157
  677TMC3    H210074   0.785   4.372  11.860 -0.9045 -0.1432 -1.1866
  677TMC3    C710075   0.946   4.573  11.816  0.1865 -0.0855  0.5990
  677TMC3    C810076   0.868   4.131  11.873 -0.1508 -0.0857 -0.4762
  677TMC3    O110077   0.893   4.558  11.928  0.3354  0.7468  0.7661
  677TMC3    O210078   0.749   4.131  11.894  0.0099  0.0868 -0.1918
  678MPD2     C10079   2.756   3.899   1.565  0.6436 -0.4820  1.5904
  678MPD2    C110080   2.735   3.805   1.471  0.3705 -0.2033 -0.0926
  678MPD2    C210081   2.636   3.710   1.485  0.7678  1.0098 -0.1882
  678MPD2    C310082   2.539   3.724   1.581 -0.7747 -0.4463  0.1215
  678MPD2    C410083   2.561   3.822   1.673  0.6826 -0.5331  0.1450
  678MPD2    C510084   2.672   3.911   1.668 -0.8246  0.1864 -0.6394
  678MPD2     H10085   2.626   3.630   1.412 -0.3883  0.6043  0.3982
  678MPD2    H110086   2.492   3.841   1.755  0.8855  2.8553 -0.4692
  678MPD2    H210087   2.841   3.965   1.576  0.0166  0.4073  1.0876
  678MPD2    H310088   2.670   3.996   1.736 -2.5777  0.3326 -0.8551
  678MPD2     N10089   2.429   3.643   1.580 -0.2268 -0.3579 -0.8636
  678MPD2    H510090   2.416   3.589   1.495 -1.1103 -0.2492 -0.7921
  678MPD2    N110091   2.813   3.794   1.355  0.2802 -0.3464  0.1939
  678MPD2    H710092   2.800   3.710   1.300  0.8053 -1.9314  2.5047
  679TMC3    C110093   3.115   3.747   1.073 -0.4535  0.2519  0.1236
  679TMC3    C210094   3.020   3.765   1.173  0.0820 -0.3622  0.0011
  679TMC3    C310095   2.952   3.882   1.188 -0.0885  0.2714 -0.0074
  679TMC3    C410096   3.150   3.855   0.994 -0.3133  0.5953 -0.3974
  679TMC3    C510097   3.086   3.974   1.010  0.0270  0.0759  0.0912
  679TMC3    C610098   2.984   3.988   1.105 -0.2601  0.3838  0.2902
  679TMC3     C10099   3.176   3.621   1.061  0.0297 -0.4801  0.3192
  679TMC3     O10100   3.256   3.623   0.968 -0.0919 -0.0439  0.3960
  679TMC3     H10101   2.998   3.685   1.243  0.7080 -0.9176 -0.4324
  679TMC3    H110102   3.225   3.834   0.918  1.1520 -0.2429  1.3077
  679TMC3    H210103   2.921   4.075   1.112  0.0133  0.3953  2.6651
  679TMC3    C710104   3.087   4.068   0.901  0.2050  0.0026 -0.4920
  679TMC3    C810105   2.881   3.905   1.308  0.6263  0.1233 -0.3088
  679TMC3    O110106   3.140   4.025   0.798  0.6013  0.2168  0.0515
  679TMC3    O210107   2.881   4.022   1.345  0.9278  0.3745 -0.1073
  680MPD2     C10108   2.682   3.196  13.399  0.0387  0.1692 -0.4993
  680MPD2    C110109   2.770   3.110  13.457 -0.1157  0.4387 -0.8972
  680MPD2    C210110   2.897   3.147  13.477 -0.3175  0.4148  0.1979
  680MPD2    C310111   2.942   3.275  13.453 -0.0168 -0.3083  0.3334
  680MPD2    C410112   2.850   3.373  13.410  0.4804  0.2085 -0.6426
  680MPD2    C510113   2.719   3.330  13.382 -0.5012 -0.6938 -0.2316
  680MPD2     H10114   2.969   3.074  13.514  0.7958  1.1703 -0.4731
  680MPD2    H110115   2.875   3.478  13.395  1.2531  0.4334  2.2913
  680MPD2    H210116   2.580   3.169  13.372  0.1134  0.3736 -0.9972
  680MPD2    H310117   2.651   3.406  13.344 -0.1673  0.1505  0.8476
  680MPD2     N10118   3.076   3.309  13.483 -0.1143 -0.1019 -0.5401
  680MPD2    H510119   3.106   3.402  13.454  0.3034  0.4738  1.6784
  680MPD2    N110120   2.733   2.980  13.489  0.3659  0.1053  0.4995
  680MPD2    H710121   2.804   2.923  13.533  0.3562 -0.0146  0.3596
  681TMC3    C110122   2.630   2.780  13.455 -0.2897 -0.2708 -0.0942
  681TMC3    C210123   2.527   2.705  13.499  0.3283 -0.1526 -0.3519
  681TMC3    C310124   2.550   2.573  13.518  0.1238 -0.1638  0.5366
  681TMC3    C410125   2.754   2.732  13.418 -0.1797 -0.5904 -0.1208
  681TMC3    C510126   2.767   2.598  13.429 -0.1272  0.3666  0.6534
  681TMC3    C610127   2.674   2.521  13.492  0.0960 -0.3768  0.0036
  681TMC3     C10128   2.619   2.925  13.468 -0.1702 -0.8565 -0.6064
  681TMC3     O10129   2.509   2.978  13.449 -0.0919  0.1952  0.0747
  681TMC3     H10130   2.435   2.760  13.520 -0.0767 -0.5982 -0.9608
  681TMC3    H110131   2.829   2.791  13.367 -1.4727  1.0131 -0.1389
  681TMC3    H210132   2.702   2.418  13.510  0.1342 -0.3208  0.2754
  681TMC3    C710133   2.900   2.541  13.429  0.1140  0.4271  0.6255
  681TMC3    C810134   2.505   2.526  13.645 -0.0160  0.0275  0.1944
  681TMC3    O110135   2.938   2.463  13.512 -0.7032  0.5018  0.0982
  681TMC3    O210136   2.393   2.562  13.685  0.5301  0.2766 -0.1308
  682MPD2     C10137   0.687   0.063  11.068  0.6364  0.5212 -0.0990
  682MPD2    C110138   0.584   4.717  11.055 -0.0390 -0.4321  0.2219
  682MPD2    C210139   0.485   4.718  11.151  0.2765 -1.0459  0.0162
  682MPD2    C310140   0.490   0.067  11.265 -0.8611  0.7343 -0.2313
  682MPD2    C410141   0.600   0.145  11.277  0.1649 -0.3421  1.3153
  682MPD2    C510142   0.691   0.148  11.175  0.2576 -0.0509 -0.1243
  682MPD2     H10143   0.403   4.647  11.137  0.1980 -1.2945  1.8038
  682MPD2    H110144   0.615   0.214  11.359 -0.0788 -0.6925  1.6503
  682MPD2    H210145   0.774   0.065  11.003  1.0303 -1.6856  0.3544
  682MPD2    H310146   0.777   0.212  11.186  0.2619  0.3483 -2.6068
  682MPD2     N10147   0.379   0.065  11.354  0.7020  0.2432  0.1246
  682MPD2    H510148   0.385   0.099  11.449 -1.5033 -3.1123  1.4822
  682MPD2    N110149   0.570   4.613  10.962 -0.5579 -0.3169  0.7915
  682MPD2    H710150   0.489   4.554  10.978 -1.1169 -0.1043 -1.2486
  683TMC3    C110151   0.185   4.527  11.602  0.1933 -0.5120  0.0233
  683TMC3    C210152   0.062   4.477  11.560 -0.0433 -0.3658 -0.2440
  683TMC3    C310153   0.016   4.536  11.450  0.2928  0.6222  0.9616
  683TMC3    C410154   0.248   4.632  11.538 -0.9497 -0.4098  0.3007
  683TMC3    C510155   0.189   4.694  11.431 -0.0208 -0.4184 -0.8023
  683TMC3    C610156   0.068   4.643  11.390 -0.3460  0.1597 -0.2204
  683TMC3     C10157   0.238   4.485  11.728 -0.2632 -0.2309  0.1503
  683TMC3     O10158   0.343   4.537  11.766  0.3681  0.2302 -0.3296
  683TMC3     H10159   0.009   4.394  11.604  1.1648 -0.0937  1.7274
  683TMC3    H110160   0.344   4.662  11.578  0.7374  0.3431 -4.3072
  683TMC3    H210161   0.014   4.695  11.312  2.1948  0.6419 -1.6615
  683TMC3    C710162   0.261   0.013  11.313 -0.2552 -0.5496 -0.9789
  683TMC3    C810163   4.668   4.455  11.360  0.1236  0.9458 -0.1312
  683TMC3    O110164   0.215   4.730  11.205 -0.4127  0.0982 -0.1799
  683TMC3    O210165   4.610   4.525  11.274  0.1859  0.2536  0.2340
  684MPD2     C10166   3.542   3.377  16.197 -0.6078  0.2484  0.5966
  684MPD2    C110167   3.464   3.457  16.117 -0.1494  0.0108 -0.0959
  684MPD2    C210168   3.407   3.576  16.165 -0.3729 -0.1222  0.4169
  684MPD2    C310169   3.450   3.632  16.283 -0.8484 -0.0751 -0.1389
  684MPD2    C410170   3.525   3.552  16.364  0.4564 -0.3693 -0.2130
  684MPD2    C510171   3.573   3.428  16.319 -0.1355 -0.1890 -0.2567
  684MPD2     H10172   3.353   3.642  16.098 -0.3921 -0.4746  0.0843
  684MPD2    H110173   3.559   3.594  16.458 -2.2603  0.6798  0.3187
  684MPD2    H210174   3.586   3.286  16.158 -3.0855 -0.3354 -0.7843
  684MPD2    H310175   3.636   3.379  16.393  1.9257 -0.8211 -2.4006
  684MPD2     N10176   3.416   3.763  16.328  0.1608 -0.4913 -0.2159
  684MPD2    H510177   3.459   3.796  16.414 -1.4115  1.4855 -0.2055
  684MPD2    N110178   3.432   3.423  15.988 -0.3702  0.0090  0.2645
  684MPD2    H710179   3.356   3.476  15.947 -0.6852 -0.1994  0.5775
  685TMC3    C110180   3.466   3.340  15.775  0.3386 -0.1945  0.5678
  685TMC3    C210181   3.379   3.440  15.739 -0.6327  0.3368 -0.1049
  685TMC3    C310182   3.418   3.513  15.629  0.4105  0.3384 -0.1725
  685TMC3    C410183   3.573   3.311  15.693 -0.0621  0.2535 -0.1480
  685TMC3    C510184   3.601   3.382  15.582 -0.4076  0.1909  0.3270
  685TMC3    C610185   3.522   3.484  15.550 -0.7764  0.1353 -0.3296
  685TMC3     C10186   3.502   3.333  15.915  0.2099 -0.0739  0.3017
  685TMC3     O10187   3.609   3.282  15.941 -0.2800  0.6093 -0.5362
  685TMC3     H10188   3.307   3.483  15.808  1.5877 -0.4789  2.7572
  685TMC3    H110189   3.619   3.214  15.713  2.7646  1.6735  0.2313
  685TMC3    H210190   3.547   3.540  15.460  0.2860 -1.1526 -0.8290
  685TMC3    C710191   3.737   3.383  15.535  0.3257 -0.6324  0.1538
  685TMC3    C810192   3.335   3.634  15.601  0.3629 -0.6265  0.4733
  685TMC3    O110193   3.767   3.458  15.447  0.1113  0.2679 -0.1970
  685TMC3    O210194   3.383   3.729  15.536 -0.0530  0.4265 -0.0682
  686MPD2     C10195   0.471   3.957  15.809  0.4867  0.1601 -0.4518
  686MPD2    C110196   0.450   3.845  15.738 -0.2608 -0.0363 -0.6154
  686MPD2    C210197   0.545   3.800  15.650  0.3039  0.6834  0.2597
  686MPD2    C310198   0.670   3.855  15.642 -0.4569  0.5091  0.5731
  686MPD2    C410199   0.697   3.971  15.716  0.0622 -0.9908  0.1255
  686MPD2    C510200   0.595   4.016  15.798  1.0450  0.1884  0.0153
  686MPD2     H10201   0.533   3.709  15.594  1.5601  0.8134 -0.2078
  686MPD2    H110202   0.787   4.031  15.704 -0.6974 -0.1100 -1.2297
  686MPD2    H210203   0.397   4.008  15.870 -1.1240 -0.6025 -1.7920
  686MPD2    H310204   0.610   4.112  15.846 -0.3515  1.4573 -2.0628
  686MPD2     N10205   0.758   3.792  15.551  0.0855 -0.1120  0.2357
  686MPD2    H510206   0.716   3.731  15.482 -1.3447  2.1223 -0.8487
  686MPD2    N110207   0.342   3.758  15.766 -0.0971  0.2430  0.0304
  686MPD2    H710208   0.271   3.780  15.836 -1.1527  0.5397 -1.1322
  687TMC3    C110209   0.938   3.679  15.497  0.1106  0.3355 -0.2411
  687TMC3    C210210   0.874   3.656  15.378 -0.0472  0.1545  0.1510
  687TMC3    C310211   0.818   3.532  15.355 -0.1132 -0.4190  0.1099
  687TMC3    C410212   0.954   3.579  15.590 -0.1627  0.0591 -0.1871
  687TMC3    C510213   0.907   3.456  15.552 -0.7363  0.8722 -0.0773
  687TMC3    C610214   0.844   3.425  15.437  0.5132  0.1462 -0.4178
  687TMC3     C10215   0.894   3.799  15.565  0.8973  0.2104 -0.2467
  687TMC3     O10216   0.954   3.826  15.667 -0.3828 -0.2212  0.2213
  687TMC3     H10217   0.843   3.736  15.312 -0.3790  2.1301  2.6867
  687TMC3    H110218   0.992   3.602  15.689 -1.3614 -1.0778  0.5373
  687TMC3    H210219   0.789   3.333  15.418 -1.4553  0.6907  2.5952
  687TMC3    C710220   0.930   3.360  15.651  0.4481  0.0119 -0.1012
  687TMC3    C810221   0.679   3.544  15.321 -0.7662 -0.1501 -0.4196
  687TMC3    O110222   0.937   3.385  15.773 -0.1372  0.0077  0.1261
  687TMC3    O210223   0.621   3.646  15.362  1.1585 -0.8700 -0.4541
  688MPD2     C10224   4.203   2.239  17.175 -0.0679  0.6500 -0.7138
  688MPD2    C110225   4.286   2.143  17.225 -0.0423  0.0957 -0.5719
  688MPD2    C210226   4.391   2.100  17.144  0.7396 -0.7643 -0.4060
  688MPD2    C310227   4.417   2.166  17.023 -0.4407 -0.7339  0.1055
  688MPD2    C410228   4.339   2.270  16.979  0.3042  0.6280  0.6165
  688MPD2    C510229   4.235   2.306  17.055 -0.0650  0.2002 -0.5928
  688MPD2     H10230   4.459   2.024  17.181  0.3688  0.3354  2.5386
  688MPD2    H110231   4.353   2.311  16.880  1.0425 -0.5213  0.2495
  688MPD2    H210232   4.119   2.280  17.229 -0.5894 -1.4113  0.0638
  688MPD2    H310233   4.171   2.386  17.018  1.5633  1.5551 -0.5000
  688MPD2     N10234   4.531   2.136  16.935 -0.0783  0.0806  0.0734
  688MPD2    H510235   4.549   2.197  16.856 -1.8745 -1.2729 -1.3787
  688MPD2    N110236   4.280   2.088  17.354 -0.6310 -0.4629 -0.6779
  688MPD2    H710237   4.349   2.017  17.379  0.3759  0.6172 -0.4160
  689TMC3    C110238   4.249   2.089  17.583  0.4596 -0.1317 -0.1858
  689TMC3    C210239   4.263   2.169  17.691 -0.3594 -0.5781 -0.2339
  689TMC3    C310240   4.333   2.117   0.051  0.2072 -0.4091  0.3349
  689TMC3    C410241   4.267   1.956  17.580 -0.1812  0.0653 -0.5386
  689TMC3    C510242   4.332   1.906  17.688  0.3074  0.2869 -0.3073
  689TMC3    C610243   4.373   1.983   0.050 -0.5567  0.0565  0.5971
  689TMC3     C10244   4.221   2.149  17.463  0.5089 -0.1752 -0.4496
  689TMC3     O10245   4.187   2.269  17.466 -0.0219 -0.3928  0.0076
  689TMC3     H10246   4.233   2.274  17.691 -0.3929 -0.5856 -0.7597
  689TMC3    H110247   4.221   1.903  17.497  1.7700 -1.8628 -0.3978
  689TMC3    H210248   4.420   1.939   0.138 -1.6675 -2.0659  0.1324
  689TMC3    C710249   4.291   1.774  17.723 -0.3655  0.1882  0.4401
  689TMC3    C810250   4.321   2.175   0.184 -0.3838 -0.1783 -0.0845
  689TMC3    O110251   4.339   1.737   0.082  0.4148 -0.5705 -0.1561
  689TMC3    O210252   4.377   2.121   0.276  0.7474  0.3874 -0.4279
  690MPD2     C10253   1.880   4.326  15.744 -0.6283  0.1735  0.1881
  690MPD2    C110254   1.803   4.344  15.632  0.8447  0.0205 -0.3109
  690MPD2    C210255   1.868   4.394  15.519  0.0116 -0.9788  0.3418
  690MPD2    C310256   2.001   4.414  15.508 -0.5856  0.5638 -0.3856
  690MPD2    C410257   2.077   4.384  15.621 -0.4003  0.4788  0.2374
  690MPD2    C510258   2.014   4.335  15.731  0.3031  0.2413 -0.0196
  690MPD2     H10259   1.812   4.415  15.428 -2.9416 -1.2107  2.0789
  690MPD2    H110260   2.181   4.412  15.621  0.2508 -1.9736 -0.2879
  690MPD2    H210261   1.845   4.289  15.840 -1.3070 -0.0324 -0.1398
  690MPD2    H310262   2.074   4.337  15.821  1.3072  0.3080 -0.6866
  690MPD2     N10263   2.058   4.466  15.390  0.4224 -0.2200  0.0052
  690MPD2    H510264   1.996   4.486  15.312  1.8342  1.2019 -0.7526
  690MPD2    N110265   1.663   4.321  15.629 -0.0186 -0.0761 -0.1590
  690MPD2    H710266   1.618   4.315  15.538 -0.7989 -0.5841  0.2600
  691TMC3    C110267   1.470   4.209  15.684 -0.0848  0.4200  0.7362
  691TMC3    C210268   1.415   4.262  15.573  0.0503 -0.2979  0.0969
  691TMC3    C310269   1.315   4.185  15.515 -0.1043  0.1639  0.8539
  691TMC3    C410270   1.445   4.080  15.730 -0.5814  0.0649  0.2758
  691TMC3    C510271   1.347   4.005  15.662  0.5399  0.2116  0.2369
  691TMC3    C610272   1.276   4.061  15.553  0.8689  0.5929  0.1479
  691TMC3     C10273   1.598   4.270  15.731 -0.2334 -0.5640  0.4644
  691TMC3     O10274   1.635   4.240  15.842 -0.0286  0.0201 -0.1046
  691TMC3     H10275   1.428   4.365  15.541  0.3385 -0.7368 -1.2209
  691TMC3    H110276   1.498   4.039  15.815 -1.3074 -1.4504  0.0180
  691TMC3    H210277   1.185   4.014  15.519  0.6825  0.7074  0.4885
  691TMC3    C710278   1.348   3.861  15.679 -0.3229 -0.7171 -0.1287
  691TMC3    C810279   1.226   4.250  15.417  0.4622  0.0837 -0.6655
  691TMC3    O110280   1.397   3.819  15.782  0.1503 -0.5437 -0.8440
  691TMC3    O210281   1.189   4.176  15.330  0.3471 -0.0160  0.0146
  692TMC3    C110282   2.794   0.331  15.846 -0.9285 -0.2094  1.3087
  692TMC3    C210283   2.897   0.366  15.759 -0.2245 -1.3296 -0.1267
  692TMC3    C310284   3.012   0.287  15.748 -0.1231  0.4035 -0.1378
  692TMC3    C410285   2.780   0.208  15.902 -0.0646  0.2493  0.3488
  692TMC3    C510286   2.890   0.130  15.881 -0.4010  0.1181  0.1506
  692TMC3    C610287   3.007   0.166  15.817  0.0043 -0.0710  0.7202
  692TMC3     C10288   2.766   0.437  15.940 -0.4229 -0.0674 -0.3278
  692TMC3     O10289   2.671   0.407  16.010 -0.2500 -0.1490 -0.7404
  692TMC3     H10290   2.897   0.459  15.704 -0.1348 -0.8075  0.7559
  692TMC3    H110291   2.684   0.190  15.949  1.0706  0.8127  2.8391
  692TMC3    H210292   3.089   0.096  15.812  0.4462  0.5113 -0.1908
  692TMC3    C710293   2.862   4.724  15.901  0.3007 -0.0585 -0.3841
  692TMC3    C810294   3.121   0.376  15.795 -0.6158 -0.5415 -0.1496
  692TMC3    O110295   2.745   4.697  15.913  0.0144 -0.4023  0.2802
  692TMC3    O210296   3.097   0.496  15.796 -0.3530  0.4347 -0.5200
  693MPD2     C10297   2.609   3.387  10.553  1.0883 -0.2677 -0.2995
  693MPD2    C110298   2.529   3.354  10.662 -0.7800  0.9373 -0.7453
  693MPD2    C210299   2.574   3.284  10.764  0.7401 -0.0091  0.0883
  693MPD2    C310300   2.703   3.242  10.771 -0.2999 -0.9336  0.5774
  693MPD2    C410301   2.788   3.279  10.672 -0.2097 -0.3526 -0.1762
  693MPD2    C510302   2.743   3.352  10.565 -0.1604 -0.0257  0.4946
  693MPD2     H10303   2.501   3.267  10.843  2.1988  0.5271  1.5465
  693MPD2    H110304   2.893   3.255  10.667  0.0750  0.4886  2.0075
  693MPD2    H210305   2.594   3.455  10.470 -1.2355  0.9552  1.1185
  693MPD2    H310306   2.816   3.386  10.493 -0.1480 -1.4529 -0.1552
  693MPD2     N10307   2.750   3.163  10.879  0.5982  0.7991  0.2874
  693MPD2    H510308   2.838   3.115  10.862 -0.8387 -1.1692 -1.6391
  693MPD2    N110309   2.401   3.399  10.677  0.0740 -0.0464 -0.3621
  693MPD2    H710310   2.365   3.416  10.770  0.8555 -1.4508  0.1952
  694TMC3    C110311   2.183   3.447  10.633  0.3631  0.1596 -0.0995
  694TMC3    C210312   2.093   3.374  10.568  0.1492 -0.3186 -0.6293
  694TMC3    C310313   2.006   3.289  10.627 -0.0952  0.5107 -1.2702
  694TMC3    C410314   2.166   3.447  10.769 -0.4930  0.3060  0.2177
  694TMC3    C510315   2.076   3.365  10.832 -0.7037  0.2290  0.5343
  694TMC3    C610316   1.992   3.277  10.763 -0.5225 -0.6418 -0.0118
  694TMC3     C10317   2.321   3.432  10.576 -0.0177 -0.5028 -0.6264
  694TMC3     O10318   2.339   3.414  10.456  0.5029 -0.3157 -0.1362
  694TMC3     H10319   2.110   3.364  10.462 -1.9807  2.0687 -1.1701
  694TMC3    H110320   2.212   3.520  10.834 -1.2532  2.1764 -1.3263
  694TMC3    H210321   1.937   3.203  10.820  0.0922  0.3472  1.8651
  694TMC3    C710322   2.074   3.363  10.981  0.5943  0.5224 -0.6318
  694TMC3    C810323   1.977   3.164  10.564  0.2630  0.8402  0.5188
  694TMC3    O110324   2.088   3.464  11.044 -0.4113 -0.0962  0.1469
  694TMC3    O210325   1.985   3.064  10.633 -0.0874 -0.0288  0.1861
  695MPD2     C10326   3.466   4.499  14.000  0.2125  0.0143  0.5802
  695MPD2    C110327   3.425   4.571  14.108 -0.4132  0.9271 -0.4488
  695MPD2    C210328   3.291   4.624  14.107 -0.3272  0.0586 -0.2907
  695MPD2    C310329   3.206   4.598  14.005 -0.9756  0.5730 -0.1651
  695MPD2    C410330   3.257   4.535  13.890  0.5554 -0.1343  0.0924
  695MPD2    C510331   3.385   4.484  13.890 -0.3943  0.4068  0.6081
  695MPD2     H10332   3.258   4.671  14.199  3.1036  0.9198  0.5087
  695MPD2    H110333   3.188   4.519  13.808 -2.0525  2.3173  1.8057
  695MPD2    H210334   3.564   4.454  14.001 -0.7035 -2.0537 -2.0502
  695MPD2    H310335   3.413   4.427  13.802 -4.2051  0.6519 -0.7455
  695MPD2     N10336   3.077   4.654  13.999  0.2466 -0.0468  0.3249
  695MPD2    H510337   3.037   4.663  14.092  1.0592 -1.3602  0.8032
  695MPD2    N110338   3.497   4.581  14.229  0.5841  0.0952  0.0716
  695MPD2    H710339   3.456   4.630  14.308 -0.3423  0.3877 -0.5954
  696TMC3    C110340   2.862   4.682  13.901 -0.7521  0.6066  0.1234
  696TMC3    C210341   2.810   4.656  14.029 -0.0298 -0.2493 -0.1495
  696TMC3    C310342   2.704   4.733  14.074 -0.1217 -0.0077  0.0897
  696TMC3    C410343   2.812   0.051  13.827 -0.2082 -0.1091 -0.1083
  696TMC3    C510344   2.701   0.120  13.874 -0.1529 -0.4924  0.1202
  696TMC3    C610345   2.648   0.095  14.002 -0.7060 -0.6732 -0.4359
  696TMC3     C10346   3.004   4.674  13.880 -0.3948 -0.2435 -0.1043
  696TMC3     O10347   3.054   4.710  13.776 -0.1675  0.1823 -0.1641
  696TMC3     H10348   2.839   4.563  14.077  1.3167  0.6497  0.7909
  696TMC3    H110349   2.843   0.063  13.724 -0.1401 -1.1878 -0.2108
  696TMC3    H210350   2.550   0.137  14.020  0.0169 -0.0707  2.0473
  696TMC3    C710351   2.674   0.249  13.800  0.4266 -0.4513  0.8607
  696TMC3    C810352   2.611   4.659  14.158 -0.9394 -0.0095  0.0439
  696TMC3    O110353   2.697   0.258  13.680 -0.4240 -0.1111  0.0128
  696TMC3    O210354   2.588   4.545  14.116 -0.1413 -0.5300  0.3902
  697MPD2     C10355   3.026   2.194  15.702 -0.6308  0.4588  0.5105
  697MPD2    C110356   3.037   2.144  15.573 -0.0540 -1.1540 -0.0039
  697MPD2    C210357   3.068   2.235  15.475  0.3129  0.0345 -0.4747
  697MPD2    C310358   3.114   2.366  15.510  0.4192  0.3619  0.8717
  697MPD2    C410359   3.110   2.407  15.646 -0.2707  0.4164 -0.6373
  697MPD2    C510360   3.072   2.318  15.736 -0.3156  1.3016 -0.6143
  697MPD2     H10361   3.074   2.209  15.370 -0.2439  1.7291 -0.9332
  697MPD2    H110362   3.136   2.509  15.672 -0.6253  0.4003 -0.2221
  697MPD2    H210363   3.004   2.122  15.780 -1.6253 -0.3848 -0.5427
  697MPD2    H310364   3.057   2.353  15.838  0.5285  1.0444 -0.3979
  697MPD2     N10365   3.151   2.447  15.406  0.0917  0.2722 -0.1491
  697MPD2    H510366   3.132   2.407  15.315 -0.5134  0.6056 -0.1691
  697MPD2    N110367   2.972   2.018  15.552  0.3028 -0.7483  0.5819
  697MPD2    H710368   2.938   1.970  15.635 -1.5884  0.6458  0.6050
  698TMC3    C110369   3.220   2.640  15.293  0.2786  0.4990  0.1864
  698TMC3    C210370   3.312   2.743  15.294  0.1133 -0.4298  0.4894
  698TMC3    C310371   3.376   2.777  15.180 -0.5380 -0.8756  0.4336
  698TMC3    C410372   3.178   2.590  15.175 -0.6237 -0.1682  0.7427
  698TMC3    C510373   3.231   2.640  15.061 -0.4298  0.0920 -0.4520
  698TMC3    C610374   3.325   2.732  15.059 -0.3794 -0.1204  0.2054
  698TMC3     C10375   3.192   2.574  15.415 -0.3124 -0.0094 -0.1593
  698TMC3     O10376   3.214   2.650  15.507 -0.0363 -0.2807  0.5867
  698TMC3     H10377   3.354   2.787  15.384  0.6980 -0.8336  0.4134
  698TMC3    H110378   3.090   2.529  15.160 -2.3420  2.7681 -1.0396
  698TMC3    H210379   3.360   2.773  14.965 -2.7774 -0.8932 -1.0454
  698TMC3    C710380   3.178   2.581  14.935 -0.8441 -0.1683  0.0023
  698TMC3    C810381   3.489   2.866  15.188 -0.2166  0.7160 -0.4642
  698TMC3    O110382   3.095   2.495  14.946  0.3822  0.1584  0.0454
  698TMC3    O210383   3.525   2.901  15.302  0.1258 -0.0904  0.3335
  699TMC3    C110384   2.608   0.730  13.169 -0.4572  0.6656  0.7292
  699TMC3    C210385   2.681   0.614  13.169  0.0210  0.4445  0.3034
  699TMC3    C310386   2.662   0.526  13.272  0.3220  0.0517 -0.4914
  699TMC3    C410387   2.498   0.741  13.253  0.4906  0.4519  0.0164
  699TMC3    C510388   2.479   0.651  13.351 -0.1901 -0.8299  0.0910
  699TMC3    C610389   2.567   0.547  13.367 -0.2164 -0.0084 -0.6332
  699TMC3     C10390   2.644   0.844  13.083 -0.5917  0.1779  0.2891
  699TMC3     O10391   2.564   0.936  13.074  0.3380  0.9120  0.4128
  699TMC3     H10392   2.764   0.598  13.100 -0.7369 -1.5116 -0.1413
  699TMC3    H110393   2.436   0.830  13.254  1.1926  0.9440 -1.0073
  699TMC3    H210394   2.542   0.478  13.446 -0.5274  2.9063  1.8341
  699TMC3    C710395   2.350   0.617  13.394  0.0925  0.3674 -0.0096
  699TMC3    C810396   2.749   0.415  13.301 -0.3713 -0.2567  0.5154
  699TMC3    O110397   2.332   0.562  13.501 -0.0048 -0.7095 -0.6786
  699TMC3    O210398   2.695   0.324  13.360 -0.3017 -0.2369 -0.1657
  700TMC3    C110399   2.127   2.781  17.673  0.2639 -1.6427  0.6405
  700TMC3    C210400   2.174   2.659  17.638 -0.1058 -0.4191  0.4168
  700TMC3    C310401   2.296   2.623  17.693 -0.3539  0.3902 -0.3976
  700TMC3    C410402   2.176   2.864   0.025 -0.1617  0.4512  0.1351
  700TMC3    C510403   2.302   2.827   0.065 -0.2332 -0.9255  0.7573
  700TMC3    C610404   2.361   2.711   0.022  0.7634  0.0641  0.6896
  700TMC3     C10405   2.032   2.848  17.591  0.4553  0.1485  0.1375
  700TMC3     O10406   1.948   2.778  17.543  0.7778 -0.3785  0.1164
  700TMC3     H10407   2.121   2.606  17.560  1.7871  0.1683 -1.2861
  700TMC3    H110408   2.123   2.952   0.059 -2.9222 -0.5961 -1.3997
  700TMC3    H210409   2.466   2.689   0.039  0.6685 -2.5423 -2.0115
  700TMC3    C710410   2.384   2.935   0.128  0.8256  0.3670 -0.3675
  700TMC3    C810411   2.348   2.494  17.659 -0.1787 -0.5523  0.3321
  700TMC3    O110412   2.330   3.045   0.125 -0.4449 -0.2840  0.2676
  700TMC3    O210413   2.276   2.428  17.586  0.3640 -0.5488 -0.0964
  701TMC3    C110414   2.205   1.734  15.582 -0.9520 -0.1710 -0.5426
  701TMC3    C210415   2.181   1.710  15.450 -0.2055 -0.1958  0.6673
  701TMC3    C310416   2.278   1.749  15.358  0.3828  0.2465  0.5931
  701TMC3    C410417   2.321   1.785  15.635 -0.8365  0.7694  0.4430
  701TMC3    C510418   2.415   1.815  15.540  0.1379 -0.1177 -0.5177
  701TMC3    C610419   2.393   1.812  15.398  0.8850  0.3468  0.4050
  701TMC3     C10420   2.120   1.694  15.689  0.4973  0.6245 -0.4468
  701TMC3     O10421   2.135   1.743  15.801 -0.3847 -0.2985 -0.6751
  701TMC3     H10422   2.092   1.654  15.423  0.0889 -1.3317  2.0790
  701TMC3    H110423   2.353   1.775  15.738 -1.9292  1.7147  0.8690
  701TMC3    H210424   2.467   1.834  15.322  1.3559 -0.3948  0.6481
  701TMC3    C710425   2.506   1.918  15.572 -0.1790  0.0062 -0.5632
  701TMC3    C810426   2.236   1.759  15.217  0.5633  0.1721  0.5796
  701TMC3    O110427   2.565   1.977  15.478 -0.0405 -0.3179 -0.2372
  701TMC3    O210428   2.310   1.825  15.149 -0.2053 -0.2055  0.3596
  702MPD2     C10429   1.384   3.591  10.687 -0.3717 -0.9994  0.4277
  702MPD2    C110430   1.389   3.670  10.797 -0.5471 -0.0053  0.8803
  702MPD2    C210431   1.360   3.803  10.782  0.3298  0.3928 -0.5359
  702MPD2    C310432   1.341   3.861  10.662 -0.2580  0.2778 -0.1404
  702MPD2    C410433   1.362   3.785  10.548 -0.2989 -0.6887  0.0409
  702MPD2    C510434   1.383   3.653  10.564 -0.2743  0.3919 -0.0203
  702MPD2     H10435   1.352   3.870  10.867 -1.0032 -1.3009  0.6714
  702MPD2    H110436   1.368   3.829  10.450  0.0480 -0.1890  0.2872
  702MPD2    H210437   1.406   3.485  10.689 -2.2416 -1.4000 -0.8114
  702MPD2    H310438   1.393   3.592  10.475  3.4087  0.3524  0.4244
  702MPD2     N10439   1.326   4.000  10.662 -0.1050  0.5557  0.7196
  702MPD2    H510440   1.321   4.051  10.750 -1.1262  1.0456  0.3774
  702MPD2    N110441   1.398   3.618  10.929  0.2846  0.6790 -0.1987
  702MPD2    H710442   1.406   3.686  11.004  1.9659  0.1217  0.1089
  703TMC3    C110443   1.350   4.228  10.568 -0.5281  0.3874 -0.0706
  703TMC3    C210444   1.301   4.274  10.684 -0.0094  0.4622  0.1785
  703TMC3    C310445   1.331   4.401  10.719 -0.8076 -0.6711  0.2375
  703TMC3    C410446   1.449   4.293  10.497 -0.6058  0.9213 -0.2395
  703TMC3    C510447   1.497   4.411  10.549 -0.1284 -0.2003 -0.7526
  703TMC3    C610448   1.438   4.471  10.663  0.2069 -0.2332 -0.5438
  703TMC3     C10449   1.353   4.083  10.551 -0.2910  0.3842  0.3920
  703TMC3     O10450   1.401   4.043  10.446  1.1083 -0.3287 -0.1189
  703TMC3     H10451   1.216   4.225  10.730 -0.5264  1.2317  0.0549
  703TMC3    H110452   1.492   4.247  10.409  0.6773  0.8081  0.4497
  703TMC3    H210453   1.462   4.571  10.697 -1.1822  0.6940 -2.3135
  703TMC3    C710454   1.634   4.439  10.519 -0.6455 -0.0320 -0.5959
  703TMC3    C810455   1.228   4.489  10.777 -0.0096 -0.2894 -0.3131
  703TMC3    O110456   1.689   4.408  10.418  0.4598 -0.0086  0.2192
  703TMC3    O210457   1.247   4.610  10.741 -0.6809 -0.2625  0.3200
  704TMC3    C110458   3.631   2.124  12.555 -0.5834 -1.4886 -0.0335
  704TMC3    C210459   3.725   2.148  12.461 -0.7958  0.0149  0.2433
  704TMC3    C310460   3.854   2.116  12.497  0.5694 -0.9357 -0.1708
  704TMC3    C410461   3.649   2.055  12.671 -0.2714 -0.1823 -0.3749
  704TMC3    C510462   3.778   2.018  12.701  0.2981 -0.0452 -0.1213
  704TMC3    C610463   3.882   2.054  12.622  0.1584  0.1979  0.0902
  704TMC3     C10464   3.495   2.154  12.515  0.2482 -0.5367 -0.3048
  704TMC3     O10465   3.403   2.106  12.578  0.3613  0.7394 -0.0542
  704TMC3     H10466   3.709   2.198  12.366 -3.2074  0.3406  0.8334
  704TMC3    H110467   3.558   2.037  12.727 -0.6957  0.6999 -0.7806
  704TMC3    H210468   3.983   2.026  12.647 -1.2873 -1.2045  4.2892
  704TMC3    C710469   3.801   1.904  12.792 -0.6694 -0.1653  0.2690
  704TMC3    C810470   3.940   2.078  12.381  0.2563  0.6052  0.9033
  704TMC3    O110471   3.904   1.845  12.785 -0.3353  0.4948  0.7215
  704TMC3    O210472   3.871   2.062  12.280  0.3489  0.7856  0.2829
  705MPD2     C10473   3.116   0.287  16.290 -0.1107  0.2844 -0.6589
  705MPD2    C110474   3.152   0.303  16.422 -0.0015  0.0741  0.3799
  705MPD2    C210475   3.050   0.347  16.509 -0.2338  0.2858 -0.0455
  705MPD2    C310476   2.916   0.336  16.487  0.2132  0.1257  0.7658
  705MPD2    C410477   2.883   0.288  16.358  0.7721 -0.5547 -0.0660
  705MPD2    C510478   2.985   0.287  16.258  0.2974  0.3587 -0.0351
  705MPD2     H10479   3.091   0.391  16.600  0.9779 -0.3479 -0.2760
  705MPD2    H110480   2.777   0.285  16.336  1.1238 -0.8459 -1.6783
  705MPD2    H210481   3.186   0.302  16.208  1.2222 -2.1364  0.0346
  705MPD2    H310482   2.951   0.261  16.158  2.0841 -0.9350 -0.2996
  705MPD2     N10483   2.808   0.346  16.582 -0.4020  0.4315  0.6154
  705MPD2    H510484   2.717   0.313  16.550  0.6955 -1.2382 -0.7373
  705MPD2    N110485   3.285   0.301  16.460 -0.4850  0.3815 -0.0913
  705MPD2    H710486   3.302   0.339  16.553  2.2240  1.1691 -0.9173
  706TMC3    C110487   3.734   0.283  16.345 -0.4602 -0.0607 -0.7279
  706TMC3    C210488   3.747   0.412  16.373 -0.9469  0.6402  0.5158
  706TMC3    C310489   3.646   0.481  16.438  0.2373  1.3305 -0.0562
  706TMC3    C410490   3.619   0.209  16.370  0.3185  0.0554  0.1744
  706TMC3    C510491   3.516   0.288  16.424  0.2934 -0.1236  0.3996
  706TMC3    C610492   3.531   0.416  16.471 -0.6778 -0.1276 -0.1868
  706TMC3     C10493   3.851   0.225  16.279 -0.0784  0.5941  0.0372
  706TMC3     O10494   3.959   0.253  16.326  0.1037 -0.1790 -0.1209
  706TMC3     H10495   3.837   0.461  16.339 -1.0951 -0.6033 -1.6440
  706TMC3    H110496   3.594   0.114  16.325  2.2150 -1.0175  1.3880
  706TMC3    H210497   3.452   0.485  16.497 -0.1396  0.3648  0.1423
  706TMC3    C710498   3.389   0.246  16.385  0.1581 -1.3476  0.2635
  706TMC3    C810499   3.637   0.620  16.414  0.3647 -0.2657 -0.0684
  706TMC3    O110500   3.379   0.163  16.292  0.1600  0.2601  0.0355
  706TMC3    O210501   3.523   0.667  16.418  1.0720 -0.3792  0.2889
  707TMC3    C110502   1.928   2.967   2.471  0.3410  0.2512 -0.1108
  707TMC3    C210503   2.022   2.875   2.471 -0.5011  1.0074  0.2289
  707TMC3    C310504   2.126   2.890   2.553 -0.0343  0.4174  0.1255
  707TMC3    C410505   1.925   3.085   2.545 -0.5035  0.5883 -0.5599
  707TMC3    C510506   2.032   3.098   2.631 -0.0431  0.3047 -0.3744
  707TMC3    C610507   2.134   3.004   2.630  0.0201  0.3111  0.1551
  707TMC3     C10508   1.832   2.962   2.363  0.2526  1.1289 -0.0937
  707TMC3     O10509   1.863   2.899   2.264  0.3217 -0.3743  0.3237
  707TMC3     H10510   2.009   2.786   2.410  2.4265  0.1677  0.7831
  707TMC3    H110511   1.867   3.169   2.507 -2.1275 -0.2572  0.0612
  707TMC3    H210512   2.215   3.013   2.701  2.3310 -1.7946 -2.2321
  707TMC3    C710513   2.055   3.224   2.703  0.3658 -0.0118  0.5133
  707TMC3    C810514   2.257   2.838   2.509 -0.1469  0.1729 -0.0627
  707TMC3    O110515   2.171   3.263   2.710 -0.0929 -0.2143  0.0055
  707TMC3    O210516   2.354   2.884   2.573  0.4614 -0.4210  0.1650
  708MPD2     C10517   2.097   3.318  13.962 -0.2806  0.1368 -0.5942
  708MPD2    C110518   1.972   3.347  14.016  0.3837  0.1848  0.1731
  708MPD2    C210519   1.927   3.304  14.137 -0.4585  0.1802  0.0584
  708MPD2    C310520   2.012   3.237  14.219  0.3154 -0.7767  0.5541
  708MPD2    C410521   2.140   3.206  14.171 -0.8244  0.2300 -0.0745
  708MPD2    C510522   2.180   3.241  14.043 -0.0830  0.3687 -0.8883
  708MPD2     H10523   1.834   3.332  14.184  0.4048 -0.2823  2.0655
  708MPD2    H110524   2.220   3.165  14.232  0.3911  0.6898 -1.3404
  708MPD2    H210525   2.141   3.365  13.875  0.1114  1.4357  0.2967
  708MPD2    H310526   2.283   3.227  14.010 -0.0243 -1.6593  0.1404
  708MPD2     N10527   1.987   3.209  14.356  0.4530  0.2008  0.2051
  708MPD2    H510528   2.063   3.176  14.414 -1.2823 -2.4634  0.9667
  708MPD2    N110529   1.879   3.426  13.951  0.0248  0.9268  0.3977
  708MPD2    H710530   1.802   3.464  14.006  0.1143 -2.0226  2.5572
  709TMC3    C110531   1.741   3.515  13.791  0.5201 -0.1539  0.0667
  709TMC3    C210532   1.678   3.440  13.701 -0.3353  0.4862  0.1586
  709TMC3    C310533   1.549   3.395  13.731 -0.7278  0.0965 -0.4104
  709TMC3    C410534   1.670   3.554  13.907 -0.5842 -0.0897 -0.7030
  709TMC3    C510535   1.545   3.507  13.938 -1.0957  0.1057 -0.2491
  709TMC3    C610536   1.480   3.432  13.846  0.1546  0.1972  0.2257
  709TMC3     C10537   1.876   3.468  13.821 -0.1062  0.5831  0.3913
  709TMC3     O10538   1.946   3.425  13.727  0.0623 -0.7135 -0.0908
  709TMC3     H10539   1.723   3.410  13.607  1.7978 -0.9551  1.6465
  709TMC3    H110540   1.721   3.616  13.979  2.4669 -1.3056 -1.8334
  709TMC3    H210541   1.377   3.400  13.862 -0.4841  1.0637 -2.1338
  709TMC3    C710542   1.517   3.501  14.088 -0.6334 -0.1380  0.2811
  709TMC3    C810543   1.473   3.317  13.639 -0.4896 -0.2806 -0.3495
  709TMC3    O110544   1.595   3.557  14.160 -0.2255 -0.3131  0.0384
  709TMC3    O210545   1.359   3.287  13.672 -0.4594  0.4850 -0.1510
  710TMC3    C110546   2.843   4.122   0.331 -0.4200 -0.0850 -0.9118
  710TMC3    C210547   2.929   4.121   0.225  0.1678 -0.2128 -0.3704
  710TMC3    C310548   2.969   4.244   0.172  1.2856 -0.0926  0.1790
  710TMC3    C410549   2.799   4.240   0.391  0.3501  0.2629  0.0876
  710TMC3    C510550   2.841   4.355   0.335  0.1665 -0.4059  0.0572
  710TMC3    C610551   2.930   4.361   0.235  0.1899 -0.3781  0.3758
  710TMC3     C10552   2.843   3.999   0.407 -0.3598  0.0148 -0.6000
  710TMC3     O10553   2.883   3.899   0.350 -0.1921 -0.2298  0.0959
  710TMC3     H10554   2.947   4.027   0.174  0.7953 -0.0123 -0.5131
  710TMC3    H110555   2.724   4.240   0.470  0.0029  1.4060 -0.2334
  710TMC3    H210556   2.963   4.460   0.206 -1.0152  0.3858  1.6119
  710TMC3    C710557   2.884   4.439   0.443  0.4641  0.3824 -0.2653
  710TMC3    C810558   3.048   4.255   0.050 -0.4039 -0.6514  0.3298
  710TMC3    O110559   2.806   4.530   0.469  0.4365 -0.1819 -0.0550
  710TMC3    O210560   3.082   4.370   0.024  0.3840  0.3770 -0.0778
  711TMC3    C110561   2.614   1.071  15.077  0.1985  0.2467  0.3524
  711TMC3    C210562   2.604   1.120  15.204 -0.1661 -0.4488 -0.7034
  711TMC3    C310563   2.722   1.154  15.260  0.1525 -0.0876  0.5300
  711TMC3    C410564   2.733   1.047  15.014  0.3046  0.3151  0.2432
  711TMC3    C510565   2.849   1.080  15.076  0.6634 -0.2835 -0.9873
  711TMC3    C610566   2.847   1.135  15.199 -0.0249  0.6466  0.9697
  711TMC3     C10567   2.499   1.040  14.991 -0.3488  0.5842  0.2191
  711TMC3     O10568   2.504   0.949  14.916  0.1649 -0.9027  0.2683
  711TMC3     H10569   2.504   1.124  15.246  0.4023  0.5813  0.5242
  711TMC3    H110570   2.733   1.021  14.909  3.7127  2.1022 -0.2128
  711TMC3    H210571   2.939   1.180  15.235  0.6043  0.5334 -0.5268
  711TMC3    C710572   2.935   0.965  15.084 -0.4271  0.3682  0.1639
  711TMC3    C810573   2.710   1.166  15.408  0.0720 -0.2061 -0.8480
  711TMC3    O110574   2.998   0.953  15.189 -0.8118  0.5383  0.1861
  711TMC3    O210575   2.599   1.162  15.457  0.4413  0.5614 -0.3473
  712MPD2     C10576   3.730   1.819  13.666 -0.0625 -0.8735 -0.0281
  712MPD2    C110577   3.639   1.903  13.733 -0.2674 -0.6194 -0.0647
  712MPD2    C210578   3.650   2.041  13.715  0.1011  0.7824 -0.1435
  712MPD2    C310579   3.757   2.092  13.648 -0.3596  0.7085  0.8142
  712MPD2    C410580   3.854   2.009  13.601 -0.2991  0.1962  0.5781
  712MPD2    C510581   3.835   1.876  13.602 -0.4506  0.8935 -0.3735
  712MPD2     H10582   3.575   2.096  13.770 -0.7071 -0.1684 -0.2825
  712MPD2    H110583   3.938   2.054  13.549 -0.8316 -0.6690 -1.0156
  712MPD2    H210584   3.724   1.711  13.663  0.5066 -0.9200  0.5779
  712MPD2    H310585   3.915   1.818  13.558 -0.8474  1.7097 -2.1867
  712MPD2     N10586   3.780   2.225  13.632  0.2501  0.0373 -0.6415
  712MPD2    H510587   3.871   2.258  13.600  0.2358 -0.0639 -0.7859
  712MPD2    N110588   3.538   1.849  13.823 -0.7267  0.0976 -0.5672
  712MPD2    H710589   3.474   1.907  13.876  2.2642  1.9902  0.9752
  713TMC3    C110590   3.748   2.460  13.623 -0.0222 -0.1147 -0.0041
  713TMC3    C210591   3.878   2.469  13.678  1.0241  0.3201 -0.7070
  713TMC3    C310592   3.943   2.590  13.658 -0.5834 -0.5735 -0.0289
  713TMC3    C410593   3.689   2.561  13.550  0.6481  0.1871  0.2355
  713TMC3    C510594   3.753   2.680  13.535  0.2553  0.2561  0.3194
  713TMC3    C610595   3.885   2.689  13.576  0.2227  0.1352 -0.3688
  713TMC3     C10596   3.685   2.332  13.632  0.6465 -0.2472  0.0714
  713TMC3     O10597   3.565   2.328  13.643  0.0197  0.1548  0.4200
  713TMC3     H10598   3.915   2.409  13.760  1.9033 -0.2263 -1.4994
  713TMC3    H110599   3.597   2.539  13.496  2.9562  0.1711 -3.6874
  713TMC3    H210600   3.944   2.779  13.565  1.7630 -1.0632 -1.9095
  713TMC3    C710601   3.703   2.787  13.447  0.1036 -0.8525 -0.3812
  713TMC3    C810602   4.087   2.597  13.678  0.3284  0.2739  0.5971
  713TMC3    O110603   3.789   2.872  13.428 -0.0362  0.3043  0.2995
  713TMC3    O210604   4.143   2.679  13.609 -0.4747  0.4040 -0.5775
  714MPD2     C10605   1.259   0.624   1.782 -0.2832 -0.6950 -0.0374
  714MPD2    C110606   1.260   0.483   1.786 -0.3848 -0.3428  0.6461
  714MPD2    C210607   1.141   0.421   1.751  0.3445 -0.1861 -0.2083
  714MPD2    C310608   1.023   0.491   1.719  0.1573  0.2912  0.7837
  714MPD2    C410609   1.026   0.627   1.736  0.4916 -0.0806 -0.1066
  714MPD2    C510610   1.139   0.690   1.764  0.3958  0.1465 -0.7604
  714MPD2     H10611   1.133   0.314   1.765  2.4883 -0.1932  0.8953
  714MPD2    H110612   0.937   0.686   1.719 -0.5648 -1.8448 -0.7332
  714MPD2    H210613   1.350   0.679   1.806 -1.3353  0.3849  1.4494
  714MPD2    H310614   1.140   0.798   1.766 -0.3111  0.1415  0.3789
  714MPD2     N10615   0.911   0.415   1.673  0.0316  0.3463  0.0345
  714MPD2    H510616   0.919   0.314   1.678 -0.5390  0.3818  1.6404
  714MPD2    N110617   1.384   0.415   1.829 -0.5929 -0.5642  0.0562
  714MPD2    H710618   1.460   0.473   1.862 -1.3859  0.0208  0.8566
  715TMC3    C110619   1.534   0.238   1.872  0.4329  0.3016  0.5359
  715TMC3    C210620   1.546   0.106   1.921  0.2385 -0.4470  0.3345
  715TMC3    C310621   1.673   0.060   1.934  0.7036 -0.0884  0.0282
  715TMC3    C410622   1.638   0.314   1.831  0.3482 -0.1253  0.1757
  715TMC3    C510623   1.761   0.251   1.833  0.2587 -0.4862  0.2579
  715TMC3    C610624   1.782   0.127   1.891  0.1562 -0.8014 -0.4633
  715TMC3     C10625   1.399   0.278   1.838 -0.2175 -0.1456 -0.0142
  715TMC3     O10626   1.314   0.190   1.830  0.2391 -0.0217  0.1224
  715TMC3     H10627   1.460   0.046   1.950  0.6028 -2.3974 -2.6641
  715TMC3    H110628   1.623   0.405   1.775 -0.9280 -0.5807 -0.2349
  715TMC3    H210629   1.882   0.085   1.883  0.3610 -0.7934  1.9122
  715TMC3    C710630   1.893   0.309   1.786 -0.0576  0.0243  0.1904
  715TMC3    C810631   1.693   4.656   1.957  0.1652  0.1205  0.4206
  715TMC3    O110632   1.986   0.229   1.778  0.5393  0.3214 -0.1523
  715TMC3    O210633   1.790   4.618   1.889  0.4596  0.0960  0.1021
  716MPD2     C10634   1.339   3.723  10.175  0.3626 -0.9035 -0.2763
  716MPD2    C110635   1.217   3.672  10.140 -0.7334 -0.5955  0.2432
  716MPD2    C210636   1.206   3.531  10.140 -0.9875  0.1263  0.0823
  716MPD2    C310637   1.309   3.444  10.170  0.1922  1.2253 -0.5719
  716MPD2    C410638   1.431   3.492  10.205  0.1933 -0.4710  0.2065
  716MPD2    C510639   1.444   3.632  10.210  0.3437  0.6291 -0.4130
  716MPD2     H10640   1.112   3.480  10.121 -0.4830 -0.2521 -1.4275
  716MPD2    H110641   1.516   3.439  10.247  1.0574 -0.9581 -2.1831
  716MPD2    H210642   1.353   3.831  10.174  1.2603 -1.0240 -0.7839
  716MPD2    H310643   1.540   3.666  10.247  0.0228 -0.5784  1.5292
  716MPD2     N10644   1.285   3.305  10.174  0.3613 -0.5258  0.1800
  716MPD2    H510645   1.189   3.284  10.149  0.9807  0.3391 -2.9736
  716MPD2    N110646   1.112   3.761  10.104 -0.1188  0.0580 -0.3561
  716MPD2    H710647   1.125   3.861  10.116  1.2173 -0.3403  1.4055
  717TMC3    C110648   1.320   3.084  10.112  0.0499 -0.1666 -0.1191
  717TMC3    C210649   1.207   3.091  10.038  0.0431  0.4493 -0.3066
  717TMC3    C310650   1.192   2.996   9.946  0.0914  1.1983 -0.1691
  717TMC3    C410651   1.419   2.989  10.077 -0.2266  0.1144 -0.7775
  717TMC3    C510652   1.399   2.911   9.967 -0.1427 -0.1697  0.3811
  717TMC3    C610653   1.282   2.908   9.897 -0.1132 -0.2683  0.1866
  717TMC3     C10654   1.370   3.199  10.171 -0.4327  0.2124  0.4117
  717TMC3     O10655   1.490   3.204  10.179 -0.3452  0.2563 -0.3723
  717TMC3     H10656   1.128   3.164  10.054 -0.2802 -0.2600  1.3072
  717TMC3    H110657   1.507   2.972  10.138 -0.1709 -0.4497 -1.0164
  717TMC3    H210658   1.276   2.837   9.816  2.5215  1.6230 -1.6397
  717TMC3    C710659   1.494   2.810   9.950 -0.2157  0.2780  0.4578
  717TMC3    C810660   1.068   3.009   9.874 -0.2451  0.2412 -0.1322
  717TMC3    O110661   1.531   2.756  10.054  0.1673  0.6145 -0.7615
  717TMC3    O210662   0.964   3.040   9.932 -0.1848 -0.3978 -0.3039
  718MPD2     C10663   0.289   2.670  12.952 -0.0587 -0.1733 -0.1956
  718MPD2    C110664   0.228   2.620  12.838  0.0198 -0.7809  0.2448
  718MPD2    C210665   0.188   2.496  12.832  0.0760  0.3719  0.6895
  718MPD2    C310666   0.208   2.404  12.936 -0.0124  0.5749  0.7280
  718MPD2    C410667   0.279   2.451  13.049 -0.9171  0.4583 -0.0798
  718MPD2    C510668   0.319   2.581  13.057 -0.1742  0.6216  0.1590
  718MPD2     H10669   0.136   2.462  12.744  0.2214 -2.6211  1.7833
  718MPD2    H110670   0.297   2.384  13.132 -0.9762 -0.5387 -0.8714
  718MPD2    H210671   0.332   2.769  12.964 -1.3968  0.5003 -1.0469
  718MPD2    H310672   0.374   2.621  13.142  0.3842 -0.9957  0.5513
  718MPD2     N10673   0.129   2.292  12.929  0.2766  0.6253  0.0635
  718MPD2    H510674   0.073   2.287  12.844  2.5094 -0.0774 -1.3838
  718MPD2    N110675   0.215   2.704  12.723  0.2285  0.2998 -0.2126
  718MPD2    H710676   0.171   2.661  12.643 -0.8419  0.1346  0.4703
  719TMC3    C110677   0.275   2.837  12.554 -0.3606  0.2194 -0.4672
  719TMC3    C210678   0.161   2.797  12.490 -0.1222 -0.5792 -0.5310
  719TMC3    C310679   0.172   2.732  12.373  0.1449  0.1310  0.2932
  719TMC3    C410680   0.399   2.828  12.492  0.5340 -0.4202 -0.4131
  719TMC3    C510681   0.397   2.786  12.360  0.4044  0.0215  0.1339
  719TMC3    C610682   0.283   2.737  12.297  0.2298 -0.7561 -0.1629
  719TMC3     C10683   0.288   2.817  12.695 -0.3194 -0.4202  0.3060
  719TMC3     O10684   0.376   2.867  12.760  0.1772  0.8393  0.0089
  719TMC3     H10685   0.065   2.815  12.538  1.6019  2.2148  1.8418
  719TMC3    H110686   0.487   2.866  12.544 -0.1524  1.1623 -0.3911
  719TMC3    H210687   0.286   2.686  12.201  0.3379  0.2870 -0.7180
  719TMC3    C710688   0.518   2.757  12.291  0.5238  0.1517  0.2953
  719TMC3    C810689   0.120   2.606  12.394 -0.1560  0.1089 -0.1232
  719TMC3    O110690   0.531   2.782  12.171 -0.2439 -0.3021  0.0908
  719TMC3    O210691   0.103   2.586  12.515 -0.5373 -0.1116 -0.4905
  720MPD2     C10692   4.092   3.871  13.971  0.1634 -0.0915  1.1846
  720MPD2    C110693   4.043   3.984  14.036 -0.1678  0.0163  0.3210
  720MPD2    C210694   4.134   4.051  14.119 -0.0118 -0.3532  0.1249
  720MPD2    C310695   4.265   4.009  14.134  0.4529  0.4039  0.9778
  720MPD2    C410696   4.301   3.892  14.073  0.3374  0.4003 -0.2086
  720MPD2    C510697   4.215   3.816  14.001 -0.1058 -0.0103  0.2033
  720MPD2     H10698   4.106   4.148  14.157  0.2308  0.2767 -1.3099
  720MPD2    H110699   4.400   3.850  14.086  0.5890  0.6390 -1.4105
  720MPD2    H210700   4.035   3.814  13.898  2.6287  0.2064 -0.9686
  720MPD2    H310701   4.251   3.728  13.949  1.8790 -0.3595  2.1849
  720MPD2     N10702   4.355   4.092  14.209 -0.4014  0.7353 -0.2291
  720MPD2    H510703   4.323   4.185  14.233  0.7174  1.3690 -1.1639
  720MPD2    N110704   3.920   4.042  13.996  0.0208  0.3717  0.3372
  720MPD2    H710705   3.897   4.136  14.028  0.1696  0.7318 -0.6002
  721TMC3    C110706   4.546   4.183  14.297  0.2694  0.7195  0.1478
  721TMC3    C210707   4.498   4.193  14.429  0.6148  0.8357 -0.0305
  721TMC3    C310708   4.575   4.260  14.522  0.0775  0.5949  0.2716
  721TMC3    C410709   4.671   4.234  14.269 -0.6269  0.3157 -0.4730
  721TMC3    C510710   0.017   4.276  14.367 -0.0934 -0.4703 -0.2478
  721TMC3    C610711   4.704   4.301  14.492  0.3637 -0.4579  0.4847
  721TMC3     C10712   4.488   4.071  14.222  0.5635  0.0197 -0.2125
  721TMC3     O10713   4.566   3.986  14.183 -0.3380  0.0287  0.4824
  721TMC3     H10714   4.395   4.164  14.449  0.3578  0.4304 -1.9375
  721TMC3    H110715   4.707   4.211  14.169 -2.2114 -0.2293 -0.9239
  721TMC3    H210716   0.034   4.339  14.568  0.5217 -2.2963  1.2562
  721TMC3    C710717   0.154   4.242  14.344 -0.2173 -0.7008  0.1173
  721TMC3    C810718   4.539   4.231  14.659  0.1604  0.4690 -0.4580
  721TMC3    O110719   0.196   4.268  14.233  0.7963 -0.6461 -0.0466
  721TMC3    O210720   4.460   4.141  14.684 -0.1193 -0.1541 -0.2821
  722MPD2     C10721   2.513   2.627  13.104 -0.2907 -0.2649 -0.4981
  722MPD2    C110722   2.493   2.757  13.058 -0.0074 -0.0088 -0.4879
  722MPD2    C210723   2.374   2.788  12.997 -1.0449 -0.2323 -0.8463
  722MPD2    C310724   2.280   2.689  12.969 -0.5976  0.5395  0.4909
  722MPD2    C410725   2.297   2.555  13.010  0.0260 -0.4848  0.0746
  722MPD2    C510726   2.419   2.525  13.076  0.5163 -0.1865 -0.4235
  722MPD2     H10727   2.367   2.889  12.958  1.0537  0.3714  0.2960
  722MPD2    H110728   2.217   2.483  12.999  2.8572 -3.5829 -0.4839
  722MPD2    H210729   2.598   2.600  13.166 -1.3066  0.5236  1.2167
  722MPD2    H310730   2.431   2.427  13.121  1.8369  0.1331 -0.0639
  722MPD2     N10731   2.160   2.711  12.900  0.0423 -0.0219  0.3044
  722MPD2    H510732   2.107   2.632  12.865  0.9679  0.1669 -1.5162
  722MPD2    N110733   2.597   2.853  13.065 -0.3825 -0.2082 -0.4153
  722MPD2    H710734   2.571   2.950  13.050 -1.6562 -0.3990  0.6411
  723TMC3    C110735   2.009   2.855  12.781 -0.5658  1.1783  0.0550
  723TMC3    C210736   1.931   2.746  12.768  0.1043  1.0963  0.5099
  723TMC3    C310737   1.842   2.737  12.662  0.0933  0.0442 -0.0856
  723TMC3    C410738   2.001   2.952  12.685  0.1494 -0.0163  0.5152
  723TMC3    C510739   1.912   2.944  12.582 -0.0391 -0.2942 -0.6241
  723TMC3    C610740   1.830   2.839  12.571  0.2165  0.2749  0.1871
  723TMC3     C10741   2.127   2.842  12.864  0.2044 -0.6084 -0.1268
  723TMC3     O10742   2.183   2.951  12.883 -0.6111  0.2850  0.1874
  723TMC3     H10743   1.926   2.666  12.842  0.4144 -0.5553 -1.2340
  723TMC3    H110744   2.087   3.017  12.672  0.0583 -1.0856 -5.1529
  723TMC3    H210745   1.743   2.842  12.507  0.9506  2.1751 -0.7241
  723TMC3    C710746   1.885   3.056  12.506 -0.0431 -0.2101  0.4172
  723TMC3    C810747   1.758   2.622  12.644  0.0805  0.4018 -0.1278
  723TMC3    O110748   1.825   3.038  12.401 -0.1466 -0.1500  0.1214
  723TMC3    O210749   1.641   2.643  12.610 -0.0508 -0.8295 -0.0151
  724TMC3    C110750   3.169   0.814  10.381  0.5904 -0.0813  0.5948
  724TMC3    C210751   3.184   0.881  10.265  0.7767 -0.4390 -0.2831
  724TMC3    C310752   3.251   0.996  10.266  0.3001  0.1213  0.6360
  724TMC3    C410753   3.238   0.850  10.498 -0.0834  0.3379 -0.1938
  724TMC3    C510754   3.324   0.955  10.496 -0.3151 -0.5244 -0.3715
  724TMC3    C610755   3.334   1.030  10.381  0.3188  0.2115 -0.2365
  724TMC3     C10756   3.118   0.677  10.378  0.8434  0.8186 -0.4790
  724TMC3     O10757   3.152   0.607  10.474  0.1491  0.0556  0.7688
  724TMC3     H10758   3.128   0.864  10.174 -0.8375 -0.1099  0.6519
  724TMC3    H110759   3.221   0.786  10.583  2.9620  0.6784  0.6487
  724TMC3    H210760   3.403   1.113  10.375 -0.7400  1.1008 -0.0540
  724TMC3    C710761   3.332   1.040  10.621  0.0092 -0.1211  0.3673
  724TMC3    C810762   3.272   1.064  10.140  1.4261  0.5489  0.3259
  724TMC3    O110763   3.424   1.121  10.615 -0.4147  0.0747 -0.3651
  724TMC3    O210764   3.242   1.016  10.032  0.1113 -0.4687  0.0549
  725TMC3    C110765   0.143   4.147  12.695  0.2239 -0.1423  0.2310
  725TMC3    C210766   0.032   4.190  12.630 -0.1207 -0.2742  0.0021
  725TMC3    C310767   4.707   4.099  12.551  0.7731  0.0354  0.0658
  725TMC3    C410768   0.194   4.020  12.674  0.5279  0.2509  0.1137
  725TMC3    C510769   0.135   3.945  12.577  0.1072  0.3199  0.3976
  725TMC3    C610770   0.015   3.972  12.519  0.9222  0.4986 -0.1083
  725TMC3     C10771   0.217   4.245  12.768  0.3415 -0.4069  0.1919
  725TMC3     O10772   0.174   4.353  12.799 -0.2332 -0.1662 -0.2174
  725TMC3     H10773   0.002   4.294  12.639 -0.7103 -0.3995 -0.5200
  725TMC3    H110774   0.270   3.977  12.738 -0.2234 -1.5431 -0.1953
  725TMC3    H210775   4.699   3.908  12.449  0.0283 -0.3723  1.3578
  725TMC3    C710776   0.174   3.802  12.583 -0.3903 -0.2526 -0.3003
  725TMC3    C810777   4.602   4.150  12.455 -0.4192 -1.2528  0.4180
  725TMC3    O110778   0.083   3.722  12.581 -0.1326  0.2482 -0.7498
  725TMC3    O210779   4.518   4.076  12.415 -0.4874 -0.2253 -0.1929
  726MPD2     C10780   1.998   1.208  10.235  0.5316 -0.0324  0.4204
  726MPD2    C110781   1.914   1.307  10.290 -0.4018  0.9469 -0.1182
  726MPD2    C210782   1.807   1.276  10.374  0.4729 -0.4530  0.1440
  726MPD2    C310783   1.784   1.145  10.403  0.9155 -0.4708  0.0564
  726MPD2    C410784   1.865   1.046  10.356 -0.1984 -0.1546  0.4168
  726MPD2    C510785   1.970   1.075  10.271 -0.4506  0.2119  0.1811
  726MPD2     H10786   1.743   1.347  10.425 -0.1676  0.5408 -2.0473
  726MPD2    H110787   1.847   0.944  10.389 -1.4112 -0.0745 -0.0125
  726MPD2    H210788   2.090   1.218  10.179 -1.0262  1.2890 -1.8899
  726MPD2    H310789   2.033   0.992  10.243  0.0322  1.1536 -1.5597
  726MPD2     N10790   1.675   1.098  10.482  0.2665  0.0938  0.0498
  726MPD2    H510791   1.670   1.003  10.517  2.1299 -0.9541 -2.5963
  726MPD2    N110792   1.924   1.442  10.254 -0.2890  0.2127 -0.1316
  726MPD2    H710793   1.843   1.500  10.273  1.1370  2.3899 -0.6586
  727TMC3    C110794   2.012   1.654  10.201  0.8334  0.1956 -0.3484
  727TMC3    C210795   2.111   1.738  10.239 -0.5023  0.4012 -0.4094
  727TMC3    C310796   2.084   1.870  10.249  0.2326  0.1184  0.5014
  727TMC3    C410797   1.883   1.700  10.203 -0.1735  0.3252  1.1113
  727TMC3    C510798   1.858   1.828  10.227 -0.4220  0.1514  0.0150
  727TMC3    C610799   1.954   1.918  10.244  0.2850  0.4745  0.4948
  727TMC3     C10800   2.041   1.510  10.213  0.1768 -0.3876  0.6649
  727TMC3     O10801   2.156   1.462  10.214 -0.0468 -0.4111 -0.1185
  727TMC3     H10802   2.213   1.700  10.246 -0.6448 -0.1846 -1.4424
  727TMC3    H110803   1.802   1.631  10.179 -0.4734  0.1061  2.7129
  727TMC3    H210804   1.928   2.023  10.252 -3.2099 -0.2626 -1.2867
  727TMC3    C710805   1.719   1.869  10.208 -0.0417 -0.2853 -0.4164
  727TMC3    C810806   2.190   1.951  10.310  0.8631  0.5439 -0.1127
  727TMC3    O110807   1.631   1.790  10.231 -0.3462  0.2037  0.2511
  727TMC3    O210808   2.277   1.889  10.367 -0.2539 -1.0182 -0.1742
  728TMC3    C110809   2.216   4.521  15.220  0.6049 -0.7781 -0.0896
  728TMC3    C210810   2.339   4.531  15.178  0.0968  0.0126 -0.8578
  728TMC3    C310811   2.366   4.602  15.064 -0.6037 -1.0971  0.1494
  728TMC3    C410812   2.107   4.571  15.140  0.1707  0.0695 -0.0538
  728TMC3    C510813   2.136   4.647  15.033 -0.4559 -0.2030 -0.1680
  728TMC3    C610814   2.264   4.663  14.987  0.9082  0.2182  0.2125
  728TMC3     C10815   2.193   4.483  15.363 -0.5146  0.1104 -0.9585
  728TMC3     O10816   2.293   4.469  15.432 -0.0766 -0.6795  0.4112
  728TMC3     H10817   2.420   4.480  15.228  3.1239  2.6920 -2.9837
  728TMC3    H110818   2.005   4.548  15.168  0.3971  0.2694  0.9242
  728TMC3    H210819   2.283   4.709  14.891  2.3299  1.3684  1.0514
  728TMC3    C710820   2.032   4.668  14.938  0.1422 -0.4178 -0.2447
  728TMC3    C810821   2.500   4.652  15.062 -0.2481  0.6289 -0.1549
  728TMC3    O110822   1.941   4.584  14.938 -0.4337  0.4951  0.0030
  728TMC3    O210823   2.579   4.616  15.152 -0.1383 -0.3282  0.1099
  729MPD2     C10824   4.247   0.823  16.458  0.4882 -0.0613 -1.0554
  729MPD2    C110825   4.334   0.720  16.491  0.1838  0.2571  0.1988
  729MPD2    C210826   4.355   0.682  16.625  0.4129 -0.6200  0.7265
  729MPD2    C310827   4.280   0.748  16.723 -0.0727  0.1148 -0.2242
  729MPD2    C410828   4.198   0.852  16.694  0.2500  0.4410 -0.9670
  729MPD2    C510829   4.180   0.885  16.560 -0.0155  0.4448 -0.8962
  729MPD2     H10830   4.422   0.602  16.655  0.7906 -0.5087  0.1763
  729MPD2    H110831   4.150   0.909  16.773 -1.4272 -0.6743 -1.1745
  729MPD2    H210832   4.231   0.860  16.358 -0.1779  1.3174 -0.4365
  729MPD2    H310833   4.102   0.957  16.538 -1.3262 -1.1296 -1.3291
  729MPD2     N10834   4.289   0.722  16.861 -0.6273 -0.0519  0.3648
  729MPD2    H510835   4.254   0.787  16.931 -1.2167  1.1048 -1.0094
  729MPD2    N110836   4.418   0.677  16.389 -0.1370  0.0223  0.0741
  729MPD2    H710837   4.415   0.727  16.301  0.8978  0.0680  0.0619
  730TMC3    C110838   4.380   0.640  17.063  0.0704 -0.1324 -0.4292
  730TMC3    C210839   4.504   0.626  17.099 -0.3156 -0.1602 -0.4645
  730TMC3    C310840   4.547   0.711  17.196 -0.0352  0.7332  0.0062
  730TMC3    C410841   4.298   0.730  17.129 -0.2066 -0.2204  0.4031
  730TMC3    C510842   4.351   0.822  17.214  0.8081 -0.4607 -0.6490
  730TMC3    C610843   4.485   0.818  17.256 -0.1867 -0.4719 -0.2258
  730TMC3     C10844   4.364   0.618  16.916 -0.0092  0.3035  0.2809
  730TMC3     O10845   4.450   0.554  16.858 -0.1763 -0.4732  0.0714
  730TMC3     H10846   4.565   0.554  17.046 -0.1105 -0.4899  0.2120
  730TMC3    H110847   4.192   0.737  17.107 -0.0663 -0.6190 -0.4177
  730TMC3    H210848   4.543   0.894  17.306 -0.1104 -1.5855  1.3974
  730TMC3    C710849   4.306   0.951  17.179  0.0271  0.0113 -0.2269
  730TMC3    C810850   4.698   0.724  17.194 -0.3477  0.0601 -0.1513
  730TMC3    O110851   4.249   0.960  17.074 -0.2123  0.4991 -0.4451
  730TMC3    O210852   0.013   0.767  17.293 -0.0545 -0.0003  0.2060
  731MPD2     C10853   4.262   3.767  12.472 -0.4752  0.5413  0.2442
  731MPD2    C110854   4.378   3.689  12.467  0.4970  0.0566 -0.4404
  731MPD2    C210855   4.392   3.590  12.565  0.0598  0.3195  0.3924
  731MPD2    C310856   4.305   3.578  12.676  0.5204 -0.4428 -0.1038
  731MPD2    C410857   4.187   3.655  12.678  0.3018 -0.2587  0.0750
  731MPD2    C510858   4.175   3.747  12.579 -0.1759  0.5064 -0.1052
  731MPD2     H10859   4.485   3.534  12.570 -0.9150 -1.5792 -2.3192
  731MPD2    H110860   4.108   3.652  12.752  0.7692  2.5846  0.6979
  731MPD2    H210861   4.241   3.835  12.390 -1.7563 -2.5074 -1.9474
  731MPD2    H310862   4.085   3.806  12.579 -0.2926  0.3178  0.9876
  731MPD2     N10863   4.331   3.481  12.775 -0.3645  0.1145 -0.1818
  731MPD2    H510864   4.414   3.426  12.753 -1.2532 -0.9206 -0.9440
  731MPD2    N110865   4.472   3.718  12.369 -0.1866 -0.2363  0.0822
  731MPD2    H710866   4.463   3.806  12.319 -0.5423 -0.2316  0.1535
  732TMC3    C110867   4.665   3.705  12.242 -0.7517 -0.3804 -0.2364
  732TMC3    C210868   4.602   3.756  12.136  0.5221 -0.2312 -0.3380
  732TMC3    C310869   4.681   3.789  12.030  0.7933  0.3803 -0.0456
  732TMC3    C410870   0.069   3.691  12.252  0.4044  0.5601 -0.0722
  732TMC3    C510871   0.135   3.740  12.145  0.2122  0.1930 -0.3244
  732TMC3    C610872   0.082   3.790  12.033  0.1567 -0.3994 -0.6983
  732TMC3     C10873   4.579   3.642  12.335  0.7096  0.1589 -0.5185
  732TMC3     O10874   4.596   3.521  12.347  0.0961 -0.2118  0.1031
  732TMC3     H10875   4.495   3.747  12.130  0.6469 -0.2272 -2.3647
  732TMC3    H110876   0.112   3.641  12.338 -1.5443  0.4103  0.8267
  732TMC3    H210877   0.136   3.824  11.945 -0.3129 -0.4297 -0.9965
  732TMC3    C710878   0.277   3.704  12.136  0.6498 -0.0562 -0.3163
  732TMC3    C810879   4.617   3.809  11.898 -0.2618 -0.0127 -0.0753
  732TMC3    O110880   0.363   3.792  12.128  0.4331  0.0550  0.7779
  732TMC3    O210881   4.684   3.812  11.797  0.2746  0.3146 -0.6461
  733TMC3    C110882   4.571   1.961  12.936 -0.0650 -0.7100  0.3854
  733TMC3    C210883   4.657   2.038  13.013 -0.3595  0.2992 -0.5702
  733TMC3    C310884   0.032   2.087  12.955 -0.5150  1.3049  0.4422
  733TMC3    C410885   4.609   1.917  12.808  0.4733  0.1952  0.0689
  733TMC3    C510886   4.721   1.969  12.750  0.4424 -0.5754 -0.7710
  733TMC3    C610887   0.063   2.056  12.821 -0.0645 -1.0336 -0.0598
  733TMC3     C10888   4.434   1.942  12.979  0.0388  1.0103  0.6716
  733TMC3     O10889   4.383   2.030  13.047  0.0146  0.2130  0.1724
  733TMC3     H10890   4.624   2.073  13.111  0.6726 -2.9849  0.9387
  733TMC3    H110891   4.541   1.856  12.750 -0.0424 -0.9836  1.9082
  733TMC3    H210892   0.159   2.086  12.781  0.1133 -0.7629  0.5652
  733TMC3    C710893   4.716   1.992  12.610  0.3094 -0.3422 -0.1409
  733TMC3    C810894   0.119   2.187  13.020 -0.0782 -0.2706 -0.6626
  733TMC3    O110895   4.658   1.911  12.543  0.7445  0.0199 -0.2066
  733TMC3    O210896   0.145   2.179  13.145 -0.0923 -0.1281  0.4026
  734MPD2     C10897   2.442   0.174  12.195  0.1749  0.6245  0.2134
  734MPD2    C110898   2.338   0.108  12.116 -0.2082 -0.3448 -0.6020
  734MPD2    C210899   2.304   0.165  11.993 -0.1399  0.0905 -0.2912
  734MPD2    C310900   2.386   0.260  11.942  0.3412  0.0388  0.0649
  734MPD2    C410901   2.499   0.312  12.007 -0.3726 -0.4973 -0.9780
  734MPD2    C510902   2.524   0.270  12.133  0.4133 -0.1180  0.3941
  734MPD2     H10903   2.217   0.128  11.939 -0.8782  1.1378  0.1744
  734MPD2    H110904   2.554   0.396  11.967  4.0468 -2.6199  0.6122
  734MPD2    H210905   2.480   0.136  12.289  3.1194 -0.4135 -1.4142
  734MPD2    H310906   2.605   0.306  12.195  0.5576 -0.3108  0.3188
  734MPD2     N10907   2.342   0.303  11.816  0.0650 -0.4692  0.7651
  734MPD2    H510908   2.259   0.258  11.779 -0.9014  1.7552  0.2007
  734MPD2    N110909   2.282   4.720  12.167 -0.0782 -0.4399 -0.2519
  734MPD2    H710910   2.306   4.698  12.263 -2.1417  2.0693  0.8422
  735TMC3    C110911   2.146   4.526  12.144 -0.0039 -0.3339 -0.5334
  735TMC3    C210912   2.021   4.504  12.089  0.0644 -0.1179 -0.4907
  735TMC3    C310913   1.983   4.383  12.039  0.3330 -0.1844  0.3914
  735TMC3    C410914   2.236   4.428  12.150  0.7704 -0.3398 -0.1294
  735TMC3    C510915   2.197   4.302  12.108 -0.5428 -0.4918 -0.1443
  735TMC3    C610916   2.073   4.285  12.047 -0.1284 -0.2241 -0.4227
  735TMC3     C10917   2.200   4.640  12.091 -0.0708 -0.3885  0.8256
  735TMC3     O10918   2.170   4.660  11.975 -0.2572  0.2275  0.1880
  735TMC3     H10919   1.955   4.589  12.088 -0.4464 -0.5206 -1.8500
  735TMC3    H110920   2.337   4.443  12.184  0.2999  0.0183  1.1253
  735TMC3    H210921   2.033   4.192  12.006 -2.6113  0.7475 -0.2214
  735TMC3    C710922   2.283   4.190  12.129  0.6798 -0.3332  0.2082
  735TMC3    C810923   1.920   4.399  11.914  0.0548  0.4662  0.1147
  735TMC3    O110924   2.234   4.081  12.101  0.4386  0.0592  0.0814
  735TMC3    O210925   1.844   4.313  11.863  0.4561 -0.9803  0.0938
  736MPD2     C10926   2.506   3.997  12.139 -0.7731  0.3142  0.5648
  736MPD2    C110927   2.522   4.136  12.145 -0.7620 -0.5440 -0.1307
  736MPD2    C210928   2.651   4.177  12.168  0.5638  0.6573 -0.3975
  736MPD2    C310929   2.757   4.089  12.177  0.4229  1.0480  0.1154
  736MPD2    C410930   2.736   3.950  12.169  0.5142  0.4709 -0.0486
  736MPD2    C510931   2.605   3.905  12.154 -0.1219 -0.4826 -0.1534
  736MPD2     H10932   2.654   4.284  12.185 -0.2697  0.5158  0.6662
  736MPD2    H110933   2.806   3.869  12.185  1.3229  0.9307 -1.2600
  736MPD2    H210934   2.409   3.950  12.129 -0.5854 -0.3445  1.8029
  736MPD2    H310935   2.586   3.799  12.143 -0.1779 -0.5982  1.0553
  736MPD2     N10936   2.892   4.124  12.202  0.3538 -0.4516  0.1636
  736MPD2    H510937   2.954   4.047  12.223  0.6224  0.2942  2.0363
  736MPD2    N110938   2.416   4.229  12.140 -0.2982 -0.2224 -0.8258
  736MPD2    H710939   2.433   4.329  12.128  2.7711 -0.6388  0.1817
  737TMC3    C110940   3.086   4.269  12.216 -0.1672 -1.4018 -0.9265
  737TMC3    C210941   3.120   4.399  12.196 -0.3963 -0.2656  0.1614
  737TMC3    C310942   3.210   4.428  12.097  0.1732  0.3395  0.0665
  737TMC3    C410943   3.160   4.179  12.143 -0.1753  0.3560 -0.1914
  737TMC3    C510944   3.248   4.209  12.040 -0.6983 -0.0041  0.3393
  737TMC3    C610945   3.275   4.345  12.014 -0.7886  0.1792  0.3331
  737TMC3     C10946   2.942   4.253  12.212 -0.2956 -0.4468 -0.3401
  737TMC3     O10947   2.877   4.356  12.204  0.0732  0.6700 -1.0288
  737TMC3     H10948   3.065   4.482  12.239 -1.4714 -1.4188  1.0174
  737TMC3    H110949   3.137   4.075  12.161  0.1581  0.1136 -1.1961
  737TMC3    H210950   3.337   4.389  11.936 -0.0699 -1.9031 -0.2661
  737TMC3    C710951   3.273   4.100  11.948 -0.3709 -0.5377  0.5945
  737TMC3    C810952   3.184   4.559  12.041 -0.0814  0.0861 -0.2330
  737TMC3    O110953   3.223   3.992  11.973 -0.1234  0.5154 -0.5233
  737TMC3    O210954   3.153   4.645  12.124 -0.6631 -0.1008  0.3422
  738MPD2     C10955   3.691   3.077  15.145  0.0510 -0.4465  0.5122
  738MPD2    C110956   3.622   3.017  15.040  0.5890 -0.0736 -0.6352
  738MPD2    C210957   3.644   3.059  14.913  0.3225 -0.1147  0.7968
  738MPD2    C310958   3.734   3.162  14.886  0.9685 -0.6298 -0.4740
  738MPD2    C410959   3.795   3.228  14.990 -0.0765 -0.0426  0.5527
  738MPD2    C510960   3.783   3.177  15.118 -0.1128  0.2307 -0.1683
  738MPD2     H10961   3.576   3.028  14.835  0.6179 -1.2011  0.9774
  738MPD2    H110962   3.863   3.312  14.975 -0.5192  0.2270  0.0744
  738MPD2    H210963   3.674   3.045  15.247 -1.3002  2.0210  1.0565
  738MPD2    H310964   3.812   3.235  15.205 -2.2255  0.4036  0.4363
  738MPD2     N10965   3.777   3.210  14.760  0.2863  0.3361  0.0205
  738MPD2    H510966   3.848   3.282  14.756 -0.1117  0.6542 -1.4617
  738MPD2    N110967   3.522   2.924  15.068  0.4038 -0.2676  0.0024
  738MPD2    H710968   3.472   2.884  14.990  2.2941 -0.9923 -0.8278
  739TMC3    C110969   3.826   3.196  14.540 -0.0926  0.3638  0.1281
  739TMC3    C210970   3.782   3.208  14.411  0.0625 -0.7204  0.2799
  739TMC3    C310971   3.847   3.298  14.336  0.1465  0.3553 -0.8173
  739TMC3    C410972   3.951   3.241  14.576 -0.2172 -0.1656 -0.2357
  739TMC3    C510973   4.002   3.346  14.506  0.3469 -0.2560 -0.2643
  739TMC3    C610974   3.946   3.381  14.388 -0.1285  0.5028  0.0009
  739TMC3     C10975   3.729   3.174  14.639 -0.5700  0.0613  0.4889
  739TMC3     O10976   3.639   3.093  14.618 -0.5657 -0.0518  0.3037
  739TMC3     H10977   3.691   3.158  14.378  1.1480 -1.7396 -1.1724
  739TMC3    H110978   3.999   3.207  14.667  0.7391 -0.0063 -0.6778
  739TMC3    H210979   3.979   3.465  14.329 -0.0753 -0.6891 -1.6749
  739TMC3    C710980   4.102   3.425  14.564  0.3692 -0.1716  0.3534
  739TMC3    C810981   3.828   3.283  14.186  0.7118 -0.0891  0.1760
  739TMC3    O110982   4.137   3.379  14.671  0.2918  0.4456 -0.6291
  739TMC3    O210983   3.740   3.206  14.153  0.1519 -0.1414 -0.0500
  740TMC3    C110984   3.660   4.451  14.793  0.2505  0.7009  0.5488
  740TMC3    C210985   3.700   4.390  14.911 -0.3629 -0.0303 -0.5659
  740TMC3    C310986   3.819   4.328  14.908  0.0548  0.0716  0.6589
  740TMC3    C410987   3.723   4.438  14.672  0.6931 -0.5096 -0.4694
  740TMC3    C510988   3.849   4.396  14.686  0.4484  0.9689  0.5068
  740TMC3    C610989   3.899   4.338  14.799 -0.4518 -0.9127  0.3122
  740TMC3     C10990   3.532   4.510  14.792  0.6537 -0.5202 -0.2500
  740TMC3     O10991   3.498   4.571  14.697 -0.4235 -0.2702 -0.3539
  740TMC3     H10992   3.653   4.402  15.008  1.8016  0.2820  0.4494
  740TMC3    H110993   3.700   4.486  14.578 -0.3663 -3.2541 -1.6327
  740TMC3    H210994   3.998   4.293  14.794  0.2907  0.6800  0.6185
  740TMC3    C710995   3.930   4.391  14.566  0.6902 -0.3269  0.1120
  740TMC3    C810996   3.849   4.228  15.011  0.1922  0.4068 -0.3748
  740TMC3    O110997   3.865   4.391  14.462 -0.7090  0.0009  0.0295
  740TMC3    O210998   3.959   4.179  15.016  0.2718 -0.5495 -0.0943
  741TMC3    C110999   3.514   3.605  13.858  0.0192 -0.6809 -0.1680
  741TMC3    C211000   3.390   3.538  13.870  0.5316 -0.1501  0.3852
  741TMC3    C311001   3.364   3.462  13.974 -0.8647  0.3880 -0.1219
  741TMC3    C411002   3.596   3.609  13.964 -0.0094 -0.1846 -0.1598
  741TMC3    C511003   3.552   3.538  14.073  0.5920  0.3994 -0.5458
  741TMC3    C611004   3.447   3.462  14.087  0.0178 -0.2816  0.1155
  741TMC3     C11005   3.564   3.629  13.725  0.5949  0.2371  0.0191
  741TMC3     O11006   3.488   3.602  13.631  0.0995 -0.2048 -0.2735
  741TMC3     H11007   3.322   3.529  13.786 -1.0891 -2.5380  1.9688
  741TMC3    H111008   3.700   3.640  13.962  0.5515 -1.9955  1.5845
  741TMC3    H211009   3.428   3.387  14.163 -1.3260  0.5636  0.6274
  741TMC3    C711010   3.627   3.566  14.200  0.2219  0.1935  0.2648
  741TMC3    C811011   3.239   3.390  13.981  0.7431  0.3525  0.7928
  741TMC3    O111012   3.745   3.599  14.196 -0.9723 -0.0732  0.2992
  741TMC3    O211013   3.150   3.455  13.921  0.5355 -0.2368 -0.1196
  742TMC3    C111014   3.870   1.848  15.704 -0.4373 -0.1794  0.4635
  742TMC3    C211015   3.805   1.869  15.590 -0.8204  0.2677  0.4251
  742TMC3    C311016   3.841   1.800  15.479  0.1377 -0.2608 -0.2311
  742TMC3    C411017   3.967   1.756  15.714  0.5697  0.5864 -0.6187
  742TMC3    C511018   4.020   1.711  15.594 -0.4981 -0.0783 -0.2778
  742TMC3    C611019   3.954   1.732  15.475 -0.7461  0.4229  0.1089
  742TMC3     C11020   3.814   1.917  15.817 -0.5151  0.1270 -0.4641
  742TMC3     O11021   3.743   2.016  15.815 -0.3808 -0.1406  0.0065
  742TMC3     H11022   3.704   1.908  15.596 -1.1941 -0.3195 -2.2938
  742TMC3    H111023   4.022   1.741  15.807 -1.3333 -0.1363  0.3846
  742TMC3    H211024   3.987   1.701  15.377  4.0027 -0.2364  1.9057
  742TMC3    C711025   4.147   1.634  15.587 -0.0564  0.5983 -0.0737
  742TMC3    C811026   3.760   1.810  15.362  0.6163  0.3303 -0.5583
  742TMC3    O111027   4.180   1.609  15.470 -0.1254 -0.5838 -0.0297
  742TMC3    O211028   3.785   1.742  15.261  0.3011 -0.4741  0.2466
  743MPD2     C11029   2.664   2.208   1.254  0.3844  0.3596 -0.0631
  743MPD2    C111030   2.673   2.315   1.337  0.4173 -0.3702  0.1239
  743MPD2    C211031   2.800   2.371   1.357  0.3352 -0.3430  0.0650
  743MPD2    C311032   2.915   2.316   1.298 -0.5370  0.2210 -0.4850
  743MPD2    C411033   2.899   2.204   1.215  0.0541 -0.3069  0.7119
  743MPD2    C511034   2.771   2.170   1.175 -0.2550 -0.2736 -0.0970
  743MPD2     H11035   2.812   2.449   1.432  0.4146 -1.0045  0.7446
  743MPD2    H111036   2.989   2.156   1.177 -0.9458 -0.1572 -1.8693
  743MPD2    H211037   2.562   2.173   1.235  0.0795  0.1903  1.9516
  743MPD2    H311038   2.757   2.090   1.103 -0.7930  0.2277 -0.5517
  743MPD2     N11039   3.043   2.379   1.320 -0.5594  0.4479  0.8137
  743MPD2    H511040   3.057   2.459   1.380 -2.5438  0.7120  0.9222
  743MPD2    N111041   2.556   2.364   1.394 -0.1297  0.1464 -0.0519
  743MPD2    H711042   2.472   2.310   1.373  1.6235 -1.9927 -1.5996
  744TMC3    C111043   2.430   2.434   1.582 -0.0104 -0.4099  0.3498
  744TMC3    C211044   2.420   2.521   1.686  0.5557 -0.5011 -0.0229
  744TMC3    C311045   2.293   2.533   1.747  0.0528  0.5803  0.1941
  744TMC3    C411046   2.321   2.361   1.534  0.5186 -0.3399  0.5320
  744TMC3    C511047   2.198   2.388   1.583 -0.0371 -0.0732  0.1209
  744TMC3    C611048   2.185   2.473   1.688 -0.5911 -0.6855  0.2130
  744TMC3     C11049   2.557   2.437   1.513 -0.7327  0.0097 -0.6762
  744TMC3     O11050   2.643   2.503   1.563 -0.0835  0.1147  0.2466
  744TMC3     H11051   2.504   2.583   1.714 -2.0042  2.3251  1.3763
  744TMC3    H111052   2.322   2.304   1.442 -0.9198 -0.1294  0.3754
  744TMC3    H211053   2.092   2.490   1.740  0.3951  3.5239  0.6648
  744TMC3    C711054   2.089   2.382   1.494 -0.1832 -0.9233  0.4320
  744TMC3    C811055   2.277   2.606   1.876 -0.2555 -0.2688  0.1360
  744TMC3    O111056   2.110   2.357   1.380 -0.8499 -0.8997 -0.4792
  744TMC3    O211057   2.163   2.637   1.911  0.0462  0.0513 -0.0928
  745TMC3    C111058   3.386   1.689  13.904 -0.1743  0.9909  0.6533
  745TMC3    C211059   3.379   1.753  14.024  0.0449 -0.0196 -0.1137
  745TMC3    C311060   3.253   1.750  14.086 -0.0487 -0.1910 -0.0364
  745TMC3    C411061   3.273   1.647  13.840  0.0060  0.2240  0.2354
  745TMC3    C511062   3.150   1.668  13.888  0.3652 -1.1300  0.0010
  745TMC3    C611063   3.143   1.708  14.023  0.3104 -1.1711 -0.0461
  745TMC3     C11064   3.491   1.722  13.809  0.2446  0.4634  0.2447
  745TMC3     O11065   3.499   1.642  13.720  0.1239  0.1244 -0.2576
  745TMC3     H11066   3.475   1.783  14.066 -0.0432  1.2006 -0.7888
  745TMC3    H111067   3.284   1.583  13.754  1.3615  1.8956 -0.8364
  745TMC3    H211068   3.047   1.737  14.065  0.3841  0.4295 -0.9590
  745TMC3    C711069   3.088   1.781  13.816  0.9676  0.1359 -0.0819
  745TMC3    C811070   3.232   1.845  14.182 -0.1932  0.5591  0.0417
  745TMC3    O111071   3.007   1.858  13.864  0.1433 -0.3809 -0.2190
  745TMC3    O211072   3.157   1.936  14.154 -0.0604  0.2081  0.3270
  746TMC3    C111073   1.392   3.555  11.326 -0.3970 -0.9150  0.1242
  746TMC3    C211074   1.432   3.563  11.192  0.1321 -0.3300  0.0622
  746TMC3    C311075   1.378   3.476  11.105 -0.7486  0.0751  0.3683
  746TMC3    C411076   1.284   3.479  11.360  0.3139  0.1665 -0.1802
  746TMC3    C511077   1.228   3.394  11.267 -0.4534 -0.0767  0.0313
  746TMC3    C611078   1.280   3.392  11.134 -0.1406  0.5339 -0.7227
  746TMC3     C11079   1.389   3.678  11.406  0.3116  1.0891 -0.0819
  746TMC3     O11080   1.307   3.692  11.495  0.2293  0.0926  0.5144
  746TMC3     H11081   1.512   3.631  11.167  1.8256 -1.9816  1.0332
  746TMC3    H111082   1.255   3.472  11.464 -0.6270 -2.4481 -0.6191
  746TMC3    H211083   1.224   3.329  11.067  0.6150 -0.4864 -0.3837
  746TMC3    C711084   1.085   3.392  11.250 -0.3853 -0.1882  0.7095
  746TMC3    C811085   1.401   3.488  10.963 -0.0767 -0.4033  0.2608
  746TMC3    O111086   1.036   3.463  11.164 -0.5785 -0.5484 -0.4330
  746TMC3    O211087   1.355   3.394  10.904  0.0132 -0.4773 -0.3217
  747TMC3    C111088   4.087   3.931  11.287  0.0570 -0.3889 -0.1826
  747TMC3    C211089   3.956   3.902  11.317 -0.4144  0.3680 -0.5310
  747TMC3    C311090   3.898   3.988  11.405  0.3411 -0.2000  0.8216
  747TMC3    C411091   4.164   4.027  11.345 -0.4475  0.1943 -0.1088
  747TMC3    C511092   4.100   4.114  11.431 -0.0721 -0.2503  0.4261
  747TMC3    C611093   3.965   4.100  11.453  0.3366 -0.1396 -0.2191
  747TMC3     C11094   4.146   3.840  11.188  0.3600  0.5375  0.2887
  747TMC3     O11095   4.265   3.815  11.207  0.4305  0.1771  0.0002
  747TMC3     H11096   3.901   3.818  11.276 -1.5143  0.4329  0.8170
  747TMC3    H111097   4.272   4.031  11.329 -0.6668  1.8577 -1.1254
  747TMC3    H211098   3.921   4.171  11.522  1.0801  0.4564 -0.3564
  747TMC3    C711099   4.172   4.222  11.503 -0.3353  0.3557 -0.4669
  747TMC3    C811100   3.751   3.995  11.413 -0.3736 -0.1735 -0.4970
  747TMC3    O111101   4.106   4.316  11.535  0.0524  0.1986 -0.8511
  747TMC3    O211102   3.698   3.923  11.329  0.1279 -0.1644 -0.0642
  748MPD2     C11103   0.333   3.873   1.221 -0.5328 -0.0419  0.5997
  748MPD2    C111104   0.448   3.869   1.151 -0.8396  0.8549 -0.3505
  748MPD2    C211105   0.564   3.921   1.218  0.7027 -0.4956 -0.2549
  748MPD2    C311106   0.556   3.974   1.345  0.0715  0.4811  0.0295
  748MPD2    C411107   0.438   3.972   1.415  0.0762 -0.0884  0.8448
  748MPD2    C511108   0.335   3.917   1.352  0.3759  0.6925  0.8266
  748MPD2     H11109   0.666   3.911   1.184  0.4419  0.7943 -1.4136
  748MPD2    H111110   0.424   4.024   1.510  0.9875  0.4120  0.7115
  748MPD2    H211111   0.239   3.834   1.182  0.3441 -0.3012 -1.2464
  748MPD2    H311112   0.238   3.918   1.401 -0.4185  0.8714 -0.7345
  748MPD2     N11113   0.669   4.033   1.400  0.4822 -0.1182  0.3944
  748MPD2    H511114   0.741   4.057   1.333 -0.4013  1.9521  0.1985
  748MPD2    N111115   0.450   3.830   1.016  0.1565  0.0895  0.3991
  748MPD2    H711116   0.358   3.829   0.973  1.0721  1.9084 -1.5447
  749TMC3    C111117   0.806   4.123   1.552 -0.2759 -0.0379 -0.5888
  749TMC3    C211118   0.873   4.085   1.662 -0.2348  0.2997  0.2982
  749TMC3    C311119   0.941   4.184   1.726 -0.4206  0.6453 -0.1919
  749TMC3    C411120   0.812   4.249   1.496 -0.1832 -0.4080  0.6606
  749TMC3    C511121   0.897   4.341   1.551  1.0246  0.2236  0.0220
  749TMC3    C611122   0.958   4.313   1.666  0.0249  0.2860 -0.1060
  749TMC3     C11123   0.680   4.054   1.532  0.0111  0.5267  0.4519
  749TMC3     O11124   0.622   4.016   1.631  0.2450 -0.1754 -0.3851
  749TMC3     H11125   0.862   3.987   1.708  2.5745  0.3051  0.9405
  749TMC3    H111126   0.753   4.265   1.407 -0.9158  0.7340  1.3561
  749TMC3    H211127   1.028   4.375   1.720  0.4822 -1.4199  1.2687
  749TMC3    C711128   0.926   4.474   1.502 -0.1894 -0.2340  0.5526
  749TMC3    C811129   1.025   4.159   1.838  0.2437 -0.2523  0.7229
  749TMC3    O111130   0.976   4.557   1.575  0.2044  0.0140  0.1884
  749TMC3    O211131   1.028   4.245   1.923  0.2941  0.1222 -0.0898
  750MPD2     C11132   1.334   1.189  11.713 -0.3873  0.4661  0.8219
  750MPD2    C111133   1.269   1.104  11.803 -0.8881 -0.0333  0.9752
  750MPD2    C211134   1.215   0.983  11.758  0.3426 -0.2101  0.3669
  750MPD2    C311135   1.206   0.959  11.623 -0.5046  0.0220  0.0448
  750MPD2    C411136   1.263   1.050  11.534 -0.0401  0.1596 -0.3169
  750MPD2    C511137   1.328   1.163  11.576 -0.0747  0.1660 -0.1776
  750MPD2     H11138   1.175   0.912  11.830 -2.7416  0.2335 -0.8930
  750MPD2    H111139   1.273   1.025  11.429  0.1410  2.0173 -0.7361
  750MPD2    H211140   1.379   1.282  11.746  2.4768 -1.0495  1.1576
  750MPD2    H311141   1.376   1.227  11.502  1.0951 -0.2544  0.2207
  750MPD2     N11142   1.146   0.845  11.568 -0.2531  0.0589  0.2904
  750MPD2    H511143   1.116   0.846  11.471 -0.9519 -1.7107  0.4794
  750MPD2    N111144   1.262   1.153  11.932 -0.1434 -0.1501  0.7703
  750MPD2    H711145   1.314   1.240  11.940 -0.3861 -0.0972  1.8029
  751TMC3    C111146   1.063   0.622  11.531  0.4164  0.4750 -0.0329
  751TMC3    C211147   0.992   0.514  11.586 -0.6495  0.5297  0.1465
  751TMC3    C311148   0.938   0.427  11.500  0.0799 -0.4200  0.7935
  751TMC3    C411149   1.084   0.630  11.397  0.0383 -0.4418 -0.0548
  751TMC3    C511150   1.045   0.526  11.321  1.0251 -0.0347  0.0402
  751TMC3    C611151   0.967   0.430  11.365 -0.0587 -0.6466  0.4570
  751TMC3     C11152   1.125   0.726  11.627  0.5358 -0.4937 -0.9385
  751TMC3     O11153   1.149   0.693  11.741  0.6920 -0.3824  0.0737
  751TMC3     H11154   0.959   0.509  11.689 -2.2292 -2.0803 -0.4999
  751TMC3    H111155   1.148   0.709  11.360  0.9789 -0.4247  1.6154
  751TMC3    H211156   0.921   0.354  11.303  2.1377 -0.0709 -1.8598
  751TMC3    C711157   1.140   0.480  11.226 -0.5913 -0.5900  0.2668
  751TMC3    C811158   0.866   0.311  11.547 -0.5026 -0.0422  0.8244
  751TMC3    O111159   1.203   0.560  11.157  0.0939 -0.2389  0.3750
  751TMC3    O211160   0.880   0.208  11.477 -0.1891 -0.5402  0.7346
  752TMC3    C111161   0.301   0.303  17.203  0.1867  0.1057 -0.0114
  752TMC3    C211162   0.354   0.215  17.295 -0.1594 -0.0566  0.4227
  752TMC3    C311163   0.281   0.198  17.409 -0.5075 -0.3045  0.3435
  752TMC3    C411164   0.185   0.372  17.221 -1.1505 -0.2457  0.1721
  752TMC3    C511165   0.126   0.349  17.338 -0.4493 -0.0152 -0.0698
  752TMC3    C611166   0.165   0.261  17.433  0.4517  0.2858  0.2339
  752TMC3     C11167   0.379   0.302  17.079  0.4650 -1.1121  0.4088
  752TMC3     O11168   0.493   0.254  17.074 -0.7720 -0.0600  0.0707
  752TMC3     H11169   0.443   0.156  17.271 -1.3032 -1.2464 -0.9202
  752TMC3    H111170   0.152   0.433  17.137 -0.1749  1.7102  1.2069
  752TMC3    H211171   0.110   0.237  17.523 -0.5815  0.8103 -0.2665
  752TMC3    C711172   4.718   0.378  17.344 -0.3707  0.7669 -0.1474
  752TMC3    C811173   0.320   0.086  17.495  0.1537 -0.6293 -0.4377
  752TMC3    O111174   4.658   0.353  17.239 -0.0110  0.2110 -0.3622
  752TMC3    O211175   0.232   0.037  17.566  0.4257  0.0660  0.3469
  753TMC3    C111176   1.953   2.075  13.481 -0.4986 -0.4702 -0.2214
  753TMC3    C211177   2.086   2.080  13.465 -0.3613 -0.1197 -0.5156
  753TMC3    C311178   2.163   2.003  13.550  0.3963 -0.7070  0.1205
  753TMC3    C411179   1.899   1.996  13.580  0.1226 -0.4817 -0.4758
  753TMC3    C511180   1.983   1.923  13.661 -0.4293 -0.0786 -0.0125
  753TMC3    C611181   2.120   1.927  13.655  0.3124 -0.8277 -1.1484
  753TMC3     C11182   1.855   2.134  13.392 -0.3643  0.2670 -0.1977
  753TMC3     O11183   1.735   2.103  13.401 -0.0330  0.2070 -0.9459
  753TMC3     H11184   2.122   2.137  13.380 -1.7373  0.3586 -0.7687
  753TMC3    H111185   1.790   1.994  13.588  0.2814  0.1719  1.7704
  753TMC3    H211186   2.188   1.860  13.706  1.3956 -0.3573 -1.9715
  753TMC3    C711187   1.926   1.812  13.743  0.4054 -0.0025 -0.0183
  753TMC3    C811188   2.305   2.021  13.536 -0.4902  0.0073  0.4343
  753TMC3    O111189   2.005   1.750  13.816 -0.5941  0.0338 -0.0057
  753TMC3    O211190   2.349   2.072  13.431 -0.1976 -0.0273 -0.6508
  754MPD2     C11191   1.040   0.550  13.420 -0.1663 -1.0425  0.3019
  754MPD2    C111192   1.070   0.420  13.379 -0.2269  0.1895  0.0601
  754MPD2    C211193   0.969   0.341  13.330  0.5437 -0.3987 -0.2671
  754MPD2    C311194   0.838   0.390  13.323  0.1365 -0.0664  0.0924
  754MPD2    C411195   0.813   0.515  13.371  0.0864  0.6729 -0.1721
  754MPD2    C511196   0.908   0.596  13.427  0.1500  0.1139 -0.3870
  754MPD2     H11197   0.990   0.242  13.290  0.8352 -0.6307  0.4608
  754MPD2    H111198   0.709   0.543  13.369  0.4546  2.0553 -0.0793
  754MPD2    H211199   1.120   0.618  13.445 -0.5647 -0.4619 -0.0003
  754MPD2    H311200   0.871   0.689  13.469 -0.0746 -0.8806  1.6047
  754MPD2     N11201   0.717   0.318  13.292  0.2053 -0.0013 -0.2067
  754MPD2    H511202   0.631   0.372  13.293 -0.9623 -2.0205  4.3775
  754MPD2    N111203   1.207   0.365  13.396  0.0049  0.2275 -0.0592
  754MPD2    H711204   1.274   0.442  13.404  1.8073 -1.1028 -2.2502
  755MPD2     C11205   4.584   0.325  13.638 -0.3215  0.2887  0.6180
  755MPD2    C111206   4.688   0.410  13.600 -0.2283 -0.3208  0.4953
  755MPD2    C211207   0.048   0.356  13.511  0.3268  0.3070 -0.2193
  755MPD2    C311208   0.037   0.232  13.451 -0.4925 -0.3634  0.1175
  755MPD2    C411209   4.664   0.153  13.485  0.0773  0.1813  0.0141
  755MPD2    C511210   4.580   0.194  13.582  0.5623  0.0752 -0.0213
  755MPD2     H11211   0.136   0.414  13.485  0.5683  0.2314  0.4281
  755MPD2    H111212   4.654   0.052  13.446  1.5673  0.7402 -1.7988
  755MPD2    H211213   4.517   0.361  13.715 -1.0810 -0.4921  0.3145
  755MPD2    H311214   4.502   0.131  13.624 -0.1702  0.6734 -0.4921
  755MPD2     N11215   0.128   0.179  13.359 -0.0974  0.3137 -0.8359
  755MPD2    H511216   0.118   0.078  13.350  1.1460 -0.0148  1.4744
  755MPD2    N111217   4.695   0.534  13.663 -0.2976 -0.0378 -0.4032
  755MPD2    H711218   4.624   0.565  13.728 -0.5045 -2.5739  0.5714
  756MPD2     C11219   0.692   1.062  10.244  0.2366 -0.3426 -0.0282
  756MPD2    C111220   0.700   1.017  10.371  0.6442 -0.7661 -0.7474
  756MPD2    C211221   0.668   0.885  10.390 -0.6339 -0.1889 -0.2163
  756MPD2    C311222   0.609   0.807  10.293 -0.3602 -0.5053 -0.0403
  756MPD2    C411223   0.597   0.859  10.169 -0.8609  0.8083  0.1024
  756MPD2    C511224   0.635   0.987  10.148  0.2790 -0.0246 -0.1819
  756MPD2     H11225   0.682   0.845  10.490 -1.3163  2.9789  1.1669
  756MPD2    H111226   0.559   0.802  10.085  0.3050 -2.0112  1.5023
  756MPD2    H211227   0.722   1.165  10.229 -0.9991  0.1402  0.7800
  756MPD2    H311228   0.632   1.038  10.052 -0.7312  1.1529  0.4759
  756MPD2     N11229   0.583   0.674  10.320 -0.6834 -0.1211  1.0608
  756MPD2    H511230   0.624   0.633  10.404  2.2797 -1.5002 -1.0938
  756MPD2    N111231   0.754   1.096  10.478 -0.4592  0.3574 -0.1013
  756MPD2    H711232   0.756   1.057  10.572  0.9899 -0.5413 -0.5014
  757MPD2     C11233   1.095   4.601  10.050 -0.2031 -1.0263 -0.2858
  757MPD2    C111234   0.972   4.578  10.010 -0.8188  0.1713 -0.3112
  757MPD2    C211235   0.877   4.674  10.046 -0.3521 -0.1561 -0.2429
  757MPD2    C311236   0.901   0.048  10.122 -1.2778 -0.3775 -0.0385
  757MPD2    C411237   1.030   0.058  10.176 -0.3235  0.5909 -0.0644
  757MPD2    C511238   1.124   4.705  10.133 -0.3568 -0.2162  0.7347
  757MPD2     H11239   0.780   4.673   9.998 -1.1580 -2.1906  1.4405
  757MPD2    H111240   1.054   0.143  10.240  0.4091  1.2292 -1.1800
  757MPD2    H211241   1.180   4.538  10.025 -0.8047 -2.1935  0.6142
  757MPD2    H311242   1.223   4.709  10.177  0.3292 -2.3262 -0.5950
  757MPD2     N11243   0.800   0.140  10.158  1.0672 -1.0123  0.5769
  757MPD2    H511244   0.711   0.128  10.112  1.5506  4.0356 -1.6973
  757MPD2    N111245   0.961   4.463   9.924 -0.2854  0.2390  0.6240
  757MPD2    H711246   1.044   4.408   9.904 -0.9139 -1.6055  3.0425
  758MPD2     C11247   1.249   0.293  16.187  0.2182 -0.5096 -0.1477
  758MPD2    C111248   1.302   0.198  16.265  0.6422 -0.5396 -0.0313
  758MPD2    C211249   1.265   0.194  16.399 -0.0519  0.1377 -1.0081
  758MPD2    C311250   1.176   0.290  16.453  0.5211 -0.0279 -0.1623
  758MPD2    C411251   1.118   0.385  16.370 -0.0851 -0.6913  0.2831
  758MPD2    C511252   1.155   0.379  16.237 -0.2383 -0.7786 -0.7017
  758MPD2     H11253   1.299   0.109  16.458 -0.4958 -0.0872 -1.0718
  758MPD2    H111254   1.065   0.474  16.401  0.1014 -1.2950  2.3538
  758MPD2    H211255   1.267   0.289  16.080  1.7929  0.2338  0.0774
  758MPD2    H311256   1.109   0.454  16.174  0.4626 -0.5085 -0.8952
  758MPD2     N11257   1.152   0.295  16.594  0.0679 -0.2835 -0.3700
  758MPD2    H511258   1.092   0.370  16.626 -0.1168  0.5310 -2.6265
  758MPD2    N111259   1.386   0.101  16.199  0.1675 -0.0778  0.0017
  758MPD2    H711260   1.395   0.106  16.098  0.5314 -0.3654  0.0227
  759MPD2     C11261   0.188   2.913  10.671 -0.5265 -0.0264  0.4669
  759MPD2    C111262   0.059   2.944  10.624 -0.4071  0.4205 -0.6158
  759MPD2    C211263   0.023   3.077  10.604  0.0581  0.5159  0.7662
  759MPD2    C311264   0.110   3.182  10.632  0.6720 -0.1430  0.8251
  759MPD2    C411265   0.236   3.148  10.679 -0.2533  0.3948  0.5050
  759MPD2    C511266   0.273   3.015  10.703  0.0767  0.0483  0.2172
  759MPD2     H11267   4.659   3.111  10.584 -0.2546 -0.9733 -0.2309
  759MPD2    H111268   0.309   3.225  10.702 -1.4994  1.7703 -0.1401
  759MPD2    H211269   0.211   2.810  10.696 -0.2759 -0.4563 -1.5360
  759MPD2    H311270   0.375   2.985  10.725  0.2115  0.1804 -0.2344
  759MPD2     N11271   0.063   3.315  10.610  0.3554  0.0452 -0.6060
  759MPD2    H511272   4.700   3.331  10.599  0.4722  1.6565  0.7753
  759MPD2    N111273   4.697   2.850  10.590 -0.1776 -0.0204 -0.0336
  759MPD2    H711274   4.623   2.886  10.530  1.5106  1.2500 -1.3586
  760MPD2     C11275   4.179   0.909  12.176 -0.1327  0.1354 -0.7941
  760MPD2    C111276   4.307   0.925  12.219 -0.0719 -0.1680 -0.4890
  760MPD2    C211277   4.381   0.817  12.259  0.0486  0.6188  0.2607
  760MPD2    C311278   4.313   0.696  12.284  0.0155 -0.3048 -0.5541
  760MPD2    C411279   4.182   0.682  12.246 -0.6152  0.6666  0.0456
  760MPD2    C511280   4.116   0.792  12.201 -0.0213 -0.3442 -0.4853
  760MPD2     H11281   4.482   0.834  12.293  0.0474  0.6332  0.2570
  760MPD2    H111282   4.127   0.590  12.262 -0.9463  0.3485 -3.0247
  760MPD2    H211283   4.119   0.990  12.135 -1.2699 -0.1822  0.2391
  760MPD2    H311284   4.009   0.780  12.183 -0.4518  0.9177  1.1844
  760MPD2     N11285   4.377   0.585  12.344 -0.0521 -0.9497  0.0456
  760MPD2    H511286   4.325   0.498  12.348  1.1401 -1.7037 -0.7594
  760MPD2    N111287   4.379   1.046  12.203  0.8348 -0.1611  0.0945
  760MPD2    H711288   4.479   1.044  12.219  0.9352 -0.3846 -0.5431
  761MPD2     C11289   0.630   4.722  11.884 -0.2431  0.0972  0.4665
  761MPD2    C111290   0.645   4.717  11.751  0.6998 -0.2115 -0.0330
  761MPD2    C211291   0.714   0.080  11.684 -0.0467 -0.3779 -0.0684
  761MPD2    C311292   0.766   0.195  11.744  0.4076 -0.0602 -0.3732
  761MPD2    C411293   0.744   0.195  11.882  0.2952  0.0778 -0.0570
  761MPD2    C511294   0.672   0.094  11.954  0.3248 -0.3361  0.3465
  761MPD2     H11295   0.718   0.066  11.576 -1.0627  2.0745 -0.4247
  761MPD2    H111296   0.792   0.274  11.939  1.0469  0.1643 -0.8140
  761MPD2    H211297   0.574   4.655  11.949 -2.2367  2.1491  0.8362
  761MPD2    H311298   0.651   0.106  12.060  0.0739 -0.1868  0.2817
  761MPD2     N11299   0.815   0.315  11.676  0.2205  0.2629 -0.4437
  761MPD2    H511300   0.817   0.396  11.737  1.5473 -0.3840  0.3818
  761MPD2    N111301   0.588   4.611  11.681 -0.4032  0.8684  0.0999
  761MPD2    H711302   0.509   4.564  11.725  0.5707  2.1342  3.1551
  762MPD2     C11303   0.929   4.632  11.158 -0.5532  0.1997  0.0938
  762MPD2    C111304   0.910   4.493  11.144  0.5171  0.1179 -0.1764
  762MPD2    C211305   0.973   4.428  11.041 -0.3902 -0.5301  0.1415
  762MPD2    C311306   1.068   4.501  10.962  1.0073 -0.2233  0.3299
  762MPD2    C411307   1.074   4.640  10.974  0.2534  0.0424  0.1493
  762MPD2    C511308   1.005   4.707  11.071  0.2284 -0.1001 -0.2531
  762MPD2     H11309   0.960   4.320  11.042 -1.0759 -0.4555 -2.2566
  762MPD2    H111310   1.139   4.697  10.908  2.8609 -2.7381  0.3363
  762MPD2    H211311   0.885   4.691  11.238 -0.5714  0.2821  0.0235
  762MPD2    H311312   1.022   0.077  11.080  0.7020  0.0303 -2.7591
  762MPD2     N11313   1.144   4.429  10.865  0.3451  0.2607 -0.1965
  762MPD2    H511314   1.127   4.329  10.864  2.1344 -0.0340 -1.8187
  762MPD2    N111315   0.822   4.439  11.239 -0.1171 -0.0632 -0.2508
  762MPD2    H711316   0.795   4.503  11.313 -0.1277  1.1642 -1.3048
  763MPD2     C11317   2.384   0.477  16.397 -0.2963 -0.1191  0.1974
  763MPD2    C111318   2.469   0.466  16.293 -0.2023  0.3657 -0.3121
  763MPD2    C211319   2.597   0.522  16.303  0.0200 -0.0594 -0.2083
  763MPD2    C311320   2.637   0.596  16.409 -0.0625 -0.2393 -0.5445
  763MPD2    C411321   2.545   0.620  16.508  0.5249  0.4467  0.6160
  763MPD2    C511322   2.429   0.553  16.504  0.0951  0.8810  0.5182
  763MPD2     H11323   2.669   0.503  16.224  2.1703  2.1185  1.2051
  763MPD2    H111324   2.562   0.676  16.599 -0.0491 -2.5839  2.5835
  763MPD2    H211325   2.282   0.440  16.399 -0.9712  1.6683 -1.6727
  763MPD2    H311326   2.368   0.576  16.591 -0.2816 -3.9591  1.5035
  763MPD2     N11327   2.759   0.665  16.412  0.1477 -0.0104 -0.3125
  763MPD2    H511328   2.828   0.629  16.346 -1.8958 -0.9137 -1.9324
  763MPD2    N111329   2.440   0.394  16.175 -0.6051  1.0088  0.0278
  763MPD2    H711330   2.510   0.392  16.101 -0.2980 -1.6356  0.3731
  764MPD2     C11331   1.478   1.431   0.688  0.5244 -0.0517 -0.1081
  764MPD2    C111332   1.436   1.408   0.563 -0.2207  0.1000  0.0314
  764MPD2    C211333   1.331   1.320   0.542  0.5469  0.5399 -0.2388
  764MPD2    C311334   1.274   1.243   0.638  0.1030  0.2602 -0.0017
  764MPD2    C411335   1.311   1.282   0.767  0.3105 -0.1406 -0.2788
  764MPD2    C511336   1.402   1.375   0.788  0.3908  0.1665 -0.6322
  764MPD2     H11337   1.300   1.295   0.441 -0.3690  1.1454 -0.1026
  764MPD2    H111338   1.292   1.225   0.857  0.0395  0.6090  0.1255
  764MPD2    H211339   1.565   1.490   0.716  0.3669  1.4462 -2.7972
  764MPD2    H311340   1.439   1.402   0.887  0.3678  2.1234 -1.1642
  764MPD2     N11341   1.173   1.147   0.612 -0.0709  0.3518 -0.1582
  764MPD2    H511342   1.151   1.127   0.515  0.0433 -1.5759  0.2115
  764MPD2    N111343   1.493   1.468   0.444  0.0705  0.1822 -0.0166
  764MPD2    H711344   1.451   1.442   0.356  1.7474 -2.4772 -0.0091
  765MPD2     C11345   0.831   4.556  15.309  1.1645  0.3026 -0.0119
  765MPD2    C111346   0.856   4.564  15.443  0.5238  0.1467 -0.7698
  765MPD2    C211347   0.969   4.503  15.494  0.1235 -0.0615  1.1045
  765MPD2    C311348   1.045   4.423  15.417  0.7015  0.8056 -0.0913
  765MPD2    C411349   1.017   4.414  15.282  0.8080 -0.7144  1.1555
  765MPD2    C511350   0.915   4.485  15.230  0.6218 -0.3938  0.1376
  765MPD2     H11351   0.983   4.515  15.601  2.4154  0.9091  0.6777
  765MPD2    H111352   1.076   4.359  15.209 -0.0903  1.4500 -1.2151
  765MPD2    H211353   0.753   4.611  15.257  3.0390  2.0214 -1.0024
  765MPD2    H311354   0.897   4.474  15.124  2.1386  0.6810 -0.2433
  765MPD2     N11355   1.156   4.358  15.477 -0.4130  0.2716 -0.2656
  765MPD2    H511356   1.183   4.377  15.573  0.4129  1.0068 -0.6478
  765MPD2    N111357   0.765   4.639  15.514 -0.5989 -0.1889  0.1154
  765MPD2    H711358   0.692   4.687  15.462 -1.5526 -0.7029  0.9815
  766MPD2     C11359   0.236   4.494  15.286  0.1742  0.6373 -0.5401
  766MPD2    C111360   0.336   4.588  15.284  0.1823  0.4392 -0.7112
  766MPD2    C211361   0.423   4.599  15.172 -0.5535  0.2290  0.1383
  766MPD2    C311362   0.391   4.519  15.060  0.0114 -0.0318 -0.2509
  766MPD2    C411363   0.281   4.433  15.062 -0.3851 -0.6148 -0.3639
  766MPD2    C511364   0.199   4.426  15.169 -0.4556 -0.3398  0.1258
  766MPD2     H11365   0.507   4.667  15.162 -0.1261  0.0271  2.4691
  766MPD2    H111366   0.258   4.370  14.977 -1.6305 -0.4394 -0.1521
  766MPD2    H211367   0.164   4.489  15.367  3.2496 -0.8638  2.0907
  766MPD2    H311368   0.106   4.370  15.165  0.1619 -1.3376 -0.0160
  766MPD2     N11369   0.457   4.520  14.937 -0.6510 -0.0065  0.1672
  766MPD2    H511370   0.418   4.474  14.856 -1.0937  1.3563 -0.4023
  766MPD2    N111371   0.356   4.666  15.405 -0.9004 -0.3283 -0.2885
  766MPD2    H711372   0.324   4.626  15.492  0.1770  0.6189  0.5443
  767MPD2     C11373   0.198   0.092  15.098 -0.2331 -0.4038 -0.4552
  767MPD2    C111374   0.297   0.120  15.001 -0.3936  0.2448  0.3856
  767MPD2    C211375   0.264   0.084  14.872 -1.1133 -0.6141 -0.1040
  767MPD2    C311376   0.161   0.010  14.836  0.0516  0.1257 -0.8695
  767MPD2    C411377   0.069   4.719  14.931 -0.0922  0.1438  0.4541
  767MPD2    C511378   0.086   0.025  15.059 -0.3110  0.0299 -0.5173
  767MPD2     H11379   0.336   0.115  14.796 -1.3268  1.0662  0.3806
  767MPD2    H111380   4.714   4.664  14.912 -1.7181  3.2838 -0.7369
  767MPD2    H211381   0.220   0.114  15.202 -0.4948  0.4598 -0.5880
  767MPD2    H311382   0.009   0.007  15.134  0.0459  1.9248  0.3001
  767MPD2     N11383   0.152   4.709  14.699 -0.0575 -0.3138  0.1733
  767MPD2    H511384   0.224   0.011  14.639  0.4215 -1.0687  0.2532
  767MPD2    N111385   0.420   0.181  15.045 -0.5829 -0.3961  0.4523
  767MPD2    H711386   0.433   0.197  15.145 -0.9604  2.0379  0.1315
  768MPD2     C11387   1.026   3.368  10.582 -0.3763 -0.3395  0.2981
  768MPD2    C111388   0.958   3.291  10.678  0.7428 -0.2928 -0.3681
  768MPD2    C211389   1.024   3.188  10.747  0.6685 -0.0442 -0.0969
  768MPD2    C311390   1.161   3.175  10.722  0.0536 -0.0217  0.4315
  768MPD2    C411391   1.222   3.249  10.630  0.8699 -0.2150  0.3939
  768MPD2    C511392   1.155   3.339  10.553  0.3773 -0.3473  0.0870
  768MPD2     H11393   0.967   3.139  10.826  1.9928 -0.2637  0.7092
  768MPD2    H111394   1.329   3.241  10.619  0.5964 -1.3977 -1.4420
  768MPD2    H211395   0.985   3.449  10.523 -1.1129  0.5466  2.0281
  768MPD2    H311396   1.212   3.386  10.474  0.9908 -1.8218 -0.3436
  768MPD2     N11397   1.248   3.093  10.793 -0.2267 -0.4141 -0.6238
  768MPD2    H511398   1.349   3.098  10.777 -0.1257  1.4316  0.5929
  768MPD2    N111399   0.826   3.310  10.733 -0.3256 -0.3581 -0.3179
  768MPD2    H711400   0.791   3.231  10.786 -1.4747  1.0687  1.0573
  769MPD2     C11401   1.965   1.686  14.792  0.0465 -0.1684  0.4527
  769MPD2    C111402   1.929   1.585  14.883  0.0536  0.3639 -0.3670
  769MPD2    C211403   1.989   1.579  15.007  0.2295  0.8348  0.1644
  769MPD2    C311404   2.075   1.684  15.042 -0.7809 -0.9143  0.6681
  769MPD2    C411405   2.099   1.785  14.954 -0.4403 -0.3870  0.2749
  769MPD2    C511406   2.044   1.787  14.831 -0.3014  0.3466 -0.1162
  769MPD2     H11407   1.968   1.500  15.079  0.7034 -0.5744 -1.2301
  769MPD2    H111408   2.169   1.862  14.981 -1.2368  0.9210 -1.4399
  769MPD2    H211409   1.918   1.686  14.695  0.7427 -3.4340  0.1183
  769MPD2    H311410   2.070   1.855  14.750  0.0825  0.5471  0.1712
  769MPD2     N11411   2.132   1.677  15.173 -0.2470 -0.0933  0.2649
  769MPD2    H511412   2.102   1.606  15.239  0.7025  0.5452  1.3954
  769MPD2    N111413   1.830   1.490  14.843  0.4099 -0.1809  0.1667
  769MPD2    H711414   1.786   1.506  14.753  1.7750  0.4375 -0.4069
  770MPD2     C11415   1.340   0.634  15.167 -0.0589 -0.1975  0.7452
  770MPD2    C111416   1.470   0.656  15.124  0.3561 -0.2296  0.0496
  770MPD2    C211417   1.514   0.776  15.072 -0.3574 -0.0907  0.1213
  770MPD2    C311418   1.420   0.878  15.065 -0.4593 -0.0171  0.4092
  770MPD2    C411419   1.287   0.857  15.104 -0.9449 -0.2224  0.4825
  770MPD2    C511420   1.252   0.735  15.159 -0.1926 -0.7582 -0.0350
  770MPD2     H11421   1.614   0.774  15.032 -0.2379  1.6444  0.3276
  770MPD2    H111422   1.214   0.937  15.102 -0.0364  0.4590 -4.0989
  770MPD2    H211423   1.307   0.534  15.195 -2.6147  0.4675  0.0555
  770MPD2    H311424   1.148   0.725  15.190 -0.7076  1.9841 -0.8072
  770MPD2     N11425   1.465   1.000  15.012  0.0075  0.3479 -0.4507
  770MPD2    H511426   1.564   1.010  14.990  0.7166  1.0318  3.1437
  770MPD2    N111427   1.557   0.545  15.150  0.4633 -0.4696  0.0190
  770MPD2    H711428   1.518   0.463  15.194 -0.5031  0.3851  0.7637
  771MPD2     C11429   2.801   3.945  13.144 -0.0052  0.3180  0.2235
  771MPD2    C111430   2.728   4.061  13.146 -0.2372 -0.2961 -0.6392
  771MPD2    C211431   2.604   4.074  13.083  0.1168  0.0999 -0.1318
  771MPD2    C311432   2.557   3.962  13.012 -0.4721  0.1352 -0.3167
  771MPD2    C411433   2.625   3.841  13.021 -0.3992  0.2437  0.6452
  771MPD2    C511434   2.742   3.830  13.084 -0.0889  0.2694  0.2017
  771MPD2     H11435   2.551   4.167  13.096 -1.2935 -0.6944 -0.1871
  771MPD2    H111436   2.597   3.746  12.975 -2.2679  0.2040  1.8620
  771MPD2    H211437   2.895   3.939  13.198  2.2881  3.6865 -3.3306
  771MPD2    H311438   2.771   3.727  13.100  0.3060 -0.0256 -2.4229
  771MPD2     N11439   2.440   3.966  12.937  0.3230 -0.1643  0.0630
  771MPD2    H511440   2.388   4.052  12.946  0.8363  0.4236 -2.4903
  771MPD2    N111441   2.786   4.178  13.207  0.3953 -0.0786 -0.3817
  771MPD2    H711442   2.719   4.250  13.234  1.3210  0.9975 -0.9990
  772MPD2     C11443   2.516   4.679  13.642 -0.4810 -0.5746 -0.5834
  772MPD2    C111444   2.537   4.541  13.628  0.1116 -0.5930 -0.7963
  772MPD2    C211445   2.441   4.456  13.691  0.3378  0.0610  0.3393
  772MPD2    C311446   2.323   4.505  13.748 -0.0993 -0.1552  0.6320
  772MPD2    C411447   2.306   4.639  13.749 -0.6499  0.5265 -0.3651
  772MPD2    C511448   2.397   4.728  13.699 -0.5241 -0.0812 -0.3385
  772MPD2     H11449   2.467   4.351  13.694  3.6838  0.8414 -1.3656
  772MPD2    H111450   2.219   4.687  13.792  1.1016  2.4898  1.0225
  772MPD2    H211451   2.582   0.014  13.595 -2.4955 -0.3909 -3.1699
  772MPD2    H311452   2.369   0.092  13.728  0.7961  0.7256 -1.8874
  772MPD2     N11453   2.229   4.436  13.812 -0.6364  0.4066  0.4746
  772MPD2    H511454   2.154   4.496  13.843 -0.2796  0.1961  1.7538
  772MPD2    N111455   2.646   4.481  13.572 -0.0155  0.0676  0.5011
  772MPD2    H711456   2.653   4.381  13.587  1.4192  0.2008  0.7438
  773MPD2     C11457   1.685   4.569   0.944  0.5921 -0.0180  0.0406
  773MPD2    C111458   1.676   4.500   0.820  0.0320 -0.1423  0.8891
  773MPD2    C211459   1.744   4.381   0.810 -0.1324 -0.2135  0.4626
  773MPD2    C311460   1.809   4.319   0.915 -0.4208 -0.4692 -0.1558
  773MPD2    C411461   1.809   4.390   1.034  0.1282  0.4740  0.7087
  773MPD2    C511462   1.747   4.509   1.047  0.8139  0.5264  0.3178
  773MPD2     H11463   1.749   4.337   0.711  0.8119 -1.2968  0.9903
  773MPD2    H111464   1.857   4.345   1.120 -0.9614 -1.0133  0.5416
  773MPD2    H211465   1.643   4.668   0.960 -1.5428 -0.6862 -1.5530
  773MPD2    H311466   1.756   4.564   1.141  0.1873  0.2450  0.5400
  773MPD2     N11467   1.869   4.196   0.892  0.3350 -0.0961 -0.1775
  773MPD2    H511468   1.859   4.164   0.796 -0.6689  0.0784 -0.1264
  773MPD2    N111469   1.613   4.562   0.703 -0.2117  0.2211 -0.2849
  773MPD2    H711470   1.615   4.515   0.613 -2.2079 -2.9089  1.3213
  774MPD2     C11471   0.887   4.047  13.405  0.7699 -0.9061  0.0837
  774MPD2    C111472   0.879   4.106  13.533  0.1361  0.4014 -0.3109
  774MPD2    C211473   0.932   4.231  13.551 -0.2157  0.5592  0.0025
  774MPD2    C311474   0.996   4.295  13.451  0.3323 -0.2612  0.5314
  774MPD2    C411475   1.002   4.241  13.324  0.0682  0.5542  0.0628
  774MPD2    C511476   0.942   4.117  13.295  0.2122  0.6193  0.3057
  774MPD2     H11477   0.946   4.271  13.651 -1.4265 -0.2574  0.4999
  774MPD2    H111478   1.072   4.282  13.252 -0.5554  1.9247  0.2535
  774MPD2    H211479   0.858   3.945  13.386  0.4285 -0.5501 -1.2739
  774MPD2    H311480   0.962   4.077  13.196  1.5485 -0.0636  0.8518
  774MPD2     N11481   1.046   4.423  13.489  0.1304  0.1396 -0.1457
  774MPD2    H511482   1.024   4.455  13.582 -2.9380 -0.1733 -0.7555
  774MPD2    N111483   0.832   4.033  13.641  0.5329  0.9284 -0.3417
  774MPD2    H711484   0.813   3.934  13.629  0.0204  0.5793  3.4474
  775MPD2     C11485   2.262   1.349  15.622  0.9314 -0.1696 -0.3588
  775MPD2    C111486   2.313   1.417  15.731  0.2743  0.3085  0.3271
  775MPD2    C211487   2.433   1.484  15.714 -0.5690 -0.2758 -1.1200
  775MPD2    C311488   2.503   1.473  15.599 -0.1545  0.1823 -0.2655
  775MPD2    C411489   2.441   1.405  15.486 -0.5576 -0.3347  0.1615
  775MPD2    C511490   2.322   1.345  15.496  0.1668 -0.2705  0.6774
  775MPD2     H11491   2.467   1.546  15.796 -1.9982 -0.2874 -0.5174
  775MPD2    H111492   2.493   1.395  15.392 -2.5079  0.0666 -0.9465
  775MPD2    H211493   2.164   1.304  15.627  1.0472 -0.2905  0.7484
  775MPD2    H311494   2.273   1.302  15.409  2.5732 -1.4984 -0.0711
  775MPD2     N11495   2.636   1.520  15.577  0.1681 -0.1882  0.0843
  775MPD2    H511496   2.671   1.513  15.482  0.9282  1.5106  0.2413
  775MPD2    N111497   2.233   1.419  15.847 -0.2932 -0.2220  0.1480
  775MPD2    H711498   2.152   1.357  15.844  0.1820 -0.9557  2.0868
  776MPD2     C11499   0.766   1.679  12.285  1.1537  0.0334 -0.8778
  776MPD2    C111500   0.905   1.679  12.261 -0.2555  0.5411  0.3454
  776MPD2    C211501   0.965   1.779  12.186 -0.3003  0.1635 -0.1229
  776MPD2    C311502   0.874   1.877  12.129  0.0883 -0.0630  0.0114
  776MPD2    C411503   0.742   1.874  12.159 -0.1740 -0.6464  0.4011
  776MPD2    C511504   0.686   1.781  12.244  0.0738 -0.5833  0.3472
  776MPD2     H11505   1.073   1.781  12.172 -0.2964 -3.4101 -0.6927
  776MPD2    H111506   0.683   1.959  12.125  0.6859 -0.5525 -0.8507
  776MPD2    H211507   0.714   1.601  12.337  1.2636  2.2410  2.5338
  776MPD2    H311508   0.581   1.784  12.268 -0.2593 -1.1450 -1.0030
  776MPD2     N11509   0.920   1.969  12.034  0.3210 -0.1972  0.0530
  776MPD2    H511510   0.860   2.040  11.994  0.3164  0.1911  0.7502
  776MPD2    N111511   0.974   1.558  12.288 -0.2791  0.2305  0.3074
  776MPD2    H711512   0.923   1.480  12.329 -0.1130 -0.3589 -0.6060
  777MPD2     C11513   1.264   3.212   1.263  0.6259  0.0782 -0.2054
  777MPD2    C111514   1.383   3.190   1.336  0.0842  0.6042 -0.2891
  777MPD2    C211515   1.482   3.123   1.264  0.8488  0.0224  0.9225
  777MPD2    C311516   1.462   3.067   1.144 -0.0039  0.0261 -0.1015
  777MPD2    C411517   1.342   3.070   1.081 -0.1947 -0.0407  1.1012
  777MPD2    C511518   1.245   3.156   1.137 -0.4134  0.3834 -0.0512
  777MPD2     H11519   1.582   3.117   1.304  0.7658 -0.5550  1.0411
  777MPD2    H111520   1.324   3.030   0.981 -1.1328  1.0724  0.8283
  777MPD2    H211521   1.180   3.269   1.301  2.2248  1.4109  1.3026
  777MPD2    H311522   1.147   3.176   1.093 -0.2221 -1.7572 -1.4719
  777MPD2     N11523   1.571   2.997   1.089 -0.3269  0.2051  0.1609
  777MPD2    H511524   1.645   2.981   1.157  1.6192  1.4153 -1.6758
  777MPD2    N111525   1.397   3.252   1.461 -0.4477  1.2829  0.4262
  777MPD2    H711526   1.317   3.299   1.502 -0.5651 -0.3063  2.0453
  778MPD2     C11527   2.755   4.336  14.981 -0.2480 -0.1995 -0.4265
  778MPD2    C111528   2.811   4.210  14.965  0.2352  0.3321  0.2367
  778MPD2    C211529   2.918   4.196  14.876 -0.0511  0.2108  0.8000
  778MPD2    C311530   2.966   4.305  14.814  0.4094 -0.3788 -0.4266
  778MPD2    C411531   2.910   4.429  14.823 -0.3639 -0.3533  0.0820
  778MPD2    C511532   2.799   4.441  14.908  0.0840  0.0989  0.1266
  778MPD2     H11533   2.965   4.099  14.861 -0.4590  0.2425 -0.7260
  778MPD2    H111534   2.943   4.517  14.768 -1.3867 -0.6587 -1.0330
  778MPD2    H211535   2.684   4.355  15.061 -0.1462 -0.0858 -0.3621
  778MPD2    H311536   2.764   4.541  14.932 -1.9095 -0.3077 -1.0260
  778MPD2     N11537   3.076   4.283  14.724 -0.5148 -0.4478 -0.2021
  778MPD2    H511538   3.103   4.185  14.722 -1.2994 -0.6454 -1.0607
  778MPD2    N111539   2.742   4.096  15.025 -0.3339  0.2323 -0.4558
  778MPD2    H711540   2.797   4.011  15.024  2.7728  2.2449 -0.2496
  779MPD2     C11541   2.332   2.621  14.560  0.3110  0.3338  0.6826
  779MPD2    C111542   2.463   2.640  14.534  0.3818  0.6236  0.1307
  779MPD2    C211543   2.516   2.771  14.529  0.4744  0.3956 -0.0909
  779MPD2    C311544   2.429   2.878  14.532  0.0639  0.3559  0.2007
  779MPD2    C411545   2.297   2.859  14.559 -0.2346  0.4111 -0.7853
  779MPD2    C511546   2.249   2.732  14.573 -0.3939  0.1409 -0.1894
  779MPD2     H11547   2.623   2.779  14.509  0.6926  3.4703  2.3357
  779MPD2    H111548   2.221   2.935  14.574 -0.3879  0.7775 -3.4308
  779MPD2    H211549   2.288   2.524  14.581 -1.0321  0.5285 -1.2593
  779MPD2    H311550   2.146   2.721  14.602 -0.0341 -0.1015  1.0155
  779MPD2     N11551   2.480   3.005  14.501 -0.4036 -0.4491 -0.0125
  779MPD2    H511552   2.580   3.006  14.485 -0.3673 -0.0515  0.2401
  779MPD2    N111553   2.562   2.542  14.521  0.4573 -0.4691  0.9691
  779MPD2    H711554   2.660   2.569  14.511 -0.3359  1.5564 -1.3805
  780MPD2     C11555   2.319   2.569   1.135  0.3770  0.5215  0.0089
  780MPD2    C111556   2.334   2.472   1.040  0.3568 -0.0632 -0.8172
  780MPD2    C211557   2.458   2.420   1.006  0.0692 -0.0630 -0.0283
  780MPD2    C311558   2.579   2.481   1.066 -0.0446  0.2991  0.7160
  780MPD2    C411559   2.551   2.578   1.163 -0.4936 -0.1422 -0.1438
  780MPD2    C511560   2.427   2.627   1.198  0.0848  0.3794 -0.2462
  780MPD2     H11561   2.475   2.355   0.920  0.1320 -1.0307  0.7156
  780MPD2    H111562   2.627   2.638   1.213 -1.5789  1.9543 -1.0315
  780MPD2    H211563   2.223   2.607   1.166 -0.6561 -1.1725 -1.0699
  780MPD2    H311564   2.417   2.707   1.271  0.8513 -0.3927  0.7054
  780MPD2     N11565   2.707   2.452   1.011 -0.3102  0.2827 -1.0091
  780MPD2    H511566   2.719   2.383   0.938 -0.8300 -1.4557  0.5676
  780MPD2    N111567   2.215   2.421   0.988 -0.0153 -0.1486 -0.0751
  780MPD2    H711568   2.131   2.463   1.024 -0.4977 -0.5464 -0.7422
  781MPD2     C11569   3.819   0.215  12.493 -0.0555 -0.6004 -0.9186
  781MPD2    C111570   3.881   0.104  12.461  0.0837  0.1178 -0.3497
  781MPD2    C211571   3.958   0.095  12.347 -0.4798 -0.8694  0.0205
  781MPD2    C311572   3.959   0.206  12.262 -0.7167  0.5112  0.2570
  781MPD2    C411573   3.887   0.320  12.293 -0.4169 -0.3042  0.7057
  781MPD2    C511574   3.824   0.330  12.413  0.2411 -0.3995  0.4141
  781MPD2     H11575   4.013   0.005  12.323 -1.9585 -0.9339 -3.0494
  781MPD2    H111576   3.877   0.411  12.235 -1.5284 -0.1069  1.2143
  781MPD2    H211577   3.765   0.221  12.587 -1.7162 -1.5819 -1.8188
  781MPD2    H311578   3.761   0.414  12.438  0.2621  0.0154 -0.9468
  781MPD2     N11579   4.028   0.202  12.143 -0.3371 -0.1824 -0.5043
  781MPD2    H511580   4.029   0.291  12.092  2.2387  0.1581  0.1147
  781MPD2    N111581   3.888   4.727  12.539 -0.3728 -0.4076  0.2200
  781MPD2    H711582   3.927   4.642  12.500  0.8670  0.3880 -0.2338
  782MPD2     C11583   1.080   0.549  10.343  0.1933  1.1820 -0.7067
  782MPD2    C111584   1.211   0.570  10.374  0.1615  0.4688 -0.6688
  782MPD2    C211585   1.251   0.701  10.392 -0.1015  0.6951  0.3517
  782MPD2    C311586   1.159   0.805  10.395  0.2903 -0.1657 -0.0770
  782MPD2    C411587   1.020   0.779  10.378 -0.8150 -0.2706  0.0947
  782MPD2    C511588   0.986   0.652  10.346 -0.4249  0.3847 -0.2976
  782MPD2     H11589   1.353   0.712  10.425  0.8852 -1.7230 -1.9085
  782MPD2    H111590   0.938   0.849  10.378  1.5422  2.4685  0.2038
  782MPD2    H211591   1.042   0.450  10.319  0.5934  0.7307  0.4949
  782MPD2    H311592   0.883   0.625  10.330  0.2300 -2.1380 -0.1510
  782MPD2     N11593   1.210   0.935  10.418 -0.1680  0.0364 -0.5349
  782MPD2    H511594   1.311   0.943  10.414  0.0176 -1.7700  0.2552
  782MPD2    N111595   1.293   0.461  10.400 -0.1467 -0.6716 -0.2583
  782MPD2    H711596   1.245   0.372  10.404 -0.1019 -0.6264  1.1312
  783MPD2     C11597   1.302   0.147  11.265  0.2870 -0.2691 -0.7324
  783MPD2    C111598   1.258   0.263  11.200  0.7758  0.4747  0.2287
  783MPD2    C211599   1.295   0.291  11.072  0.0039 -0.3171 -0.1143
  783MPD2    C311600   1.372   0.199  11.000 -0.8545 -0.5787  0.0863
  783MPD2    C411601   1.404   0.076  11.056 -0.0915  0.0455 -0.2100
  783MPD2    C511602   1.381   0.058  11.192  0.2943 -0.2179 -0.4307
  783MPD2     H11603   1.252   0.370  11.011  4.2152  2.5190  0.5318
  783MPD2    H111604   1.455   4.735  11.000 -0.0011  0.0785 -0.1739
  783MPD2    H211605   1.270   0.113  11.363 -0.7280  1.3840 -0.5077
  783MPD2    H311606   1.416   4.706  11.243  1.7129  0.3575 -0.4108
  783MPD2     N11607   1.409   0.240  10.865 -0.3589 -0.1716 -0.1822
  783MPD2    H511608   1.380   0.330  10.829  2.3967  0.6029 -0.4427
  783MPD2    N111609   1.167   0.353  11.266  0.4648 -0.0903 -0.5137
  783MPD2    H711610   1.139   0.329  11.361  0.4363 -0.0984 -0.5242
  784MPD2     C11611   4.206   0.231   0.091  0.2738  0.6213  0.0896
  784MPD2    C111612   4.133   0.305   0.180 -0.5089  0.1034  0.0891
  784MPD2    C211613   4.047   0.403   0.132 -0.8389  0.0361  0.3420
  784MPD2    C311614   4.032   0.433  17.740  0.2298 -0.2273  0.6205
  784MPD2    C411615   4.105   0.356  17.661 -0.1753  0.5291  0.2541
  784MPD2    C511616   4.190   0.254  17.710  0.4354 -0.7705 -0.1237
  784MPD2     H11617   3.992   0.457   0.209 -1.1795  0.1655  0.0062
  784MPD2    H111618   4.092   0.355  17.553 -0.7366  0.2750  0.3221
  784MPD2    H211619   4.263   0.141   0.112  0.5120  0.3455 -1.8016
  784MPD2    H311620   4.243   0.185  17.645  1.6367 -1.5298  1.6699
  784MPD2     N11621   3.952   0.539  17.699  0.7764 -0.1277  0.4978
  784MPD2    H511622   3.900   0.591   0.024 -0.1153  0.0764 -0.3002
  784MPD2    N111623   4.137   0.284   0.322 -0.5868  0.4911 -0.1619
  784MPD2    H711624   4.082   0.353   0.372 -1.0688  1.3031 -1.7943
  785MPD2     C11625   3.982   3.896  10.255 -0.4128 -0.0004 -0.0713
  785MPD2    C111626   3.930   3.932  10.376 -0.0677 -0.6432  0.3449
  785MPD2    C211627   3.802   3.989  10.380  0.5218 -0.2929  0.1064
  785MPD2    C311628   3.725   4.011  10.266 -0.9304 -0.5584  0.0836
  785MPD2    C411629   3.779   3.953  10.152  0.0966  1.5621 -0.5703
  785MPD2    C511630   3.906   3.906  10.142  0.7276  0.2053 -0.3765
  785MPD2     H11631   3.761   4.005  10.479  2.1141  3.9872  0.0725
  785MPD2    H111632   3.725   3.948  10.058 -1.2418  1.4527  0.2070
  785MPD2    H211633   4.082   3.854  10.260 -0.0771  0.6407 -1.5096
  785MPD2    H311634   3.949   3.860  10.054  1.5722 -0.1345  0.2156
  785MPD2     N11635   3.608   4.086  10.275  0.5320  0.1796 -0.2050
  785MPD2    H511636   3.591   4.137  10.361  2.1499 -0.3003  0.3983
  785MPD2    N111637   3.995   3.909  10.502  0.4442 -0.4289 -0.7140
  785MPD2    H711638   3.953   3.963  10.578 -0.5775 -0.6965 -1.0886
  786MPD2     C11639   3.282   1.907  15.184  0.5951 -0.5504 -0.1455
  786MPD2    C111640   3.373   1.816  15.136 -0.5221 -0.0105  0.7474
  786MPD2    C211641   3.498   1.808  15.198 -0.0989 -0.3998  1.1838
  786MPD2    C311642   3.535   1.895  15.300  0.3172  0.4384  0.5711
  786MPD2    C411643   3.439   1.986  15.337 -0.6063  0.2314  0.5002
  786MPD2    C511644   3.317   1.993  15.281 -0.3309  0.6634 -0.3922
  786MPD2     H11645   3.567   1.735  15.157 -0.2647  0.7469 -1.1358
  786MPD2    H111646   3.460   2.052  15.420 -3.5469 -0.2605  1.6258
  786MPD2    H211647   3.181   1.912  15.144  0.7529  1.1443 -0.3193
  786MPD2    H311648   3.248   2.065  15.324  0.2787 -0.3452  2.2829
  786MPD2     N11649   3.654   1.899  15.373  0.6014 -0.1548  0.4041
  786MPD2    H511650   3.654   1.966  15.448 -0.2279  0.7831 -0.4402
  786MPD2    N111651   3.348   1.734  15.027 -0.1084  0.1484  0.3941
  786MPD2    H711652   3.426   1.676  14.997 -0.0561  0.6258 -0.3703
  787MPD2     C11653   3.583   1.216  14.390  0.2460  0.2393 -0.6719
  787MPD2    C111654   3.598   1.271  14.516 -0.1149  0.2743  0.3687
  787MPD2    C211655   3.697   1.222  14.595 -0.2052  0.2117 -0.3081
  787MPD2    C311656   3.780   1.122  14.552 -0.0986 -0.2551  0.5936
  787MPD2    C411657   3.767   1.076  14.425  0.2344 -0.8301  0.0906
  787MPD2    C511658   3.674   1.125  14.340 -0.2512  1.1302  1.5173
  787MPD2     H11659   3.723   1.270  14.689  2.3488 -0.7886 -0.5180
  787MPD2    H111660   3.845   1.015  14.380  0.1407 -1.4226  0.7264
  787MPD2    H211661   3.503   1.257  14.330 -0.8199 -0.7303  0.0975
  787MPD2    H311662   3.679   1.098  14.235  0.4256 -0.8523  2.0555
  787MPD2     N11663   3.884   1.092  14.642  0.4241  0.5657 -0.3432
  787MPD2    H511664   3.882   1.149  14.726  1.0618 -0.3476  0.2970
  787MPD2    N111665   3.492   1.353  14.562 -0.2141 -0.0238 -0.0065
  787MPD2    H711666   3.410   1.360  14.502  0.9753  0.0602 -1.6136
  788MPD2     C11667   0.292   4.623   1.040 -0.5212  0.0120  0.3634
  788MPD2    C111668   0.361   4.582   0.929 -0.0619  0.2797 -0.0136
  788MPD2    C211669   0.347   4.656   0.813 -0.6738 -0.5176 -0.6834
  788MPD2    C311670   0.264   0.028   0.805 -0.5064  0.2463 -0.3387
  788MPD2    C411671   0.183   0.063   0.910 -0.3411  0.6786  0.6233
  788MPD2    C511672   0.201   4.728   1.028  0.0667 -0.0947  0.1361
  788MPD2     H11673   0.397   4.623   0.722  0.8808 -0.6285  0.2083
  788MPD2    H111674   0.121   0.152   0.908  1.3889  1.8804  0.1310
  788MPD2    H211675   0.306   4.577   1.137 -0.6449 -2.8090 -0.9626
  788MPD2    H311676   0.140   0.016   1.114  1.8825 -0.9099  1.6616
  788MPD2     N11677   0.259   0.111   0.689  0.1628 -0.1143  0.3837
  788MPD2    H511678   0.187   0.182   0.695 -0.0366 -0.2264 -0.6453
  788MPD2    N111679   0.443   4.472   0.925  0.3266  0.0549  0.4023
  788MPD2    H711680   0.489   4.446   0.838  1.1220  0.4959  0.7012
  789MPD2     C11681   1.076   4.664  16.184 -0.5868 -0.1498  1.2026
  789MPD2    C111682   0.997   4.563  16.226  0.1425 -0.3558  0.6475
  789MPD2    C211683   0.864   4.591  16.267 -0.4841  0.0787 -0.1781
  789MPD2    C311684   0.818   4.722  16.271  0.8315  1.0355 -0.0426
  789MPD2    C411685   0.889   0.085  16.214  0.1279  0.3099  0.4920
  789MPD2    C511686   1.014   0.052  16.170  0.4694 -0.0607  1.1888
  789MPD2     H11687   0.807   4.503  16.293  1.4787 -1.0024  0.4602
  789MPD2    H111688   0.850   0.186  16.202 -0.6039  0.2638  2.5302
  789MPD2    H211689   1.174   4.647  16.141 -1.1218 -2.4534  0.8893
  789MPD2    H311690   1.066   0.133  16.121 -0.5976  0.5879  1.1379
  789MPD2     N11691   0.695   0.020  16.334 -0.8513  0.0840  0.2768
  789MPD2    H511692   0.668   0.118  16.338 -0.6383  0.0982  1.3650
  789MPD2    N111693   1.038   4.430  16.239  0.2561 -0.4772  0.4999
  789MPD2    H711694   0.965   4.362  16.258 -1.3312  1.3643  0.9901
  790MPD2     C11695   1.225   1.193  13.975 -0.2901 -0.0930 -0.7723
  790MPD2    C111696   1.348   1.199  13.912  0.1055 -0.3856  0.2263
  790MPD2    C211697   1.348   1.246  13.777 -0.4738  0.3741  0.6670
  790MPD2    C311698   1.231   1.280  13.716 -0.3714  0.0291 -0.0196
  790MPD2    C411699   1.114   1.268  13.778 -0.6238 -0.3585  0.2851
  790MPD2    C511700   1.111   1.217  13.904 -0.2757 -0.3851 -0.5104
  790MPD2     H11701   1.442   1.258  13.725 -1.0802  0.0805 -0.4904
  790MPD2    H111702   1.019   1.287  13.729 -1.4020  1.6172  2.5676
  790MPD2    H211703   1.225   1.162  14.079 -0.8605  0.8476 -0.4852
  790MPD2    H311704   1.023   1.200  13.965 -0.3306 -0.0997 -0.5118
  790MPD2     N11705   1.244   1.343  13.595  0.0834  0.3227  0.6259
  790MPD2    H511706   1.338   1.347  13.555  0.2929  0.7230  1.1568
  790MPD2    N111707   1.447   1.151  13.995 -0.7366 -0.2543 -0.1347
  790MPD2    H711708   1.413   1.113  14.082  0.4639 -0.8292  0.0747
  791MPD2     C11709   0.781   1.678  13.048 -0.1062  0.1323 -0.4472
  791MPD2    C111710   0.829   1.551  13.040  0.4084  0.4149 -0.0452
  791MPD2    C211711   0.742   1.445  13.004 -0.2310 -0.6605  0.4479
  791MPD2    C311712   0.613   1.472  12.961 -0.5424  0.4468 -0.3758
  791MPD2    C411713   0.566   1.604  12.952  0.6785 -0.2648  0.0729
  791MPD2    C511714   0.652   1.699  13.004  0.0103  0.4991  0.0450
  791MPD2     H11715   0.778   1.342  13.005  1.9592  0.1117  1.1359
  791MPD2    H111716   0.467   1.629  12.916 -0.5752 -1.3527  2.7804
  791MPD2    H211717   0.837   1.766  13.078  1.8555 -2.3497  3.2157
  791MPD2    H311718   0.623   1.801  13.028 -1.9147  0.4357 -2.0754
  791MPD2     N11719   0.529   1.356  12.939  0.2662  0.0734  0.1772
  791MPD2    H511720   0.575   1.266  12.948 -0.1497 -0.2999 -1.3914
  791MPD2    N111721   0.957   1.518  13.072 -0.0945 -0.4097  0.4672
  791MPD2    H711722   0.983   1.420  13.065  1.8845  0.2270 -1.3008
  792MPD2     C11723   1.510   1.700  11.488 -0.0381  0.4645 -0.1458
  792MPD2    C111724   1.417   1.785  11.421  0.3526 -0.3958  0.0718
  792MPD2    C211725   1.290   1.796  11.470  0.5708  0.0671  0.8680
  792MPD2    C311726   1.251   1.726  11.582 -0.4153  0.2438  0.1056
  792MPD2    C411727   1.335   1.648  11.644 -0.4724  0.6292  0.2806
  792MPD2    C511728   1.465   1.630  11.597 -0.6063  0.1732 -0.0476
  792MPD2     H11729   1.218   1.857  11.418 -0.1452  0.8288  2.7453
  792MPD2    H111730   1.312   1.606  11.741  0.0597  0.0730  0.1688
  792MPD2    H211731   1.615   1.696  11.461 -0.1021 -1.5923 -0.1154
  792MPD2    H311732   1.533   1.563  11.649 -0.7288 -0.1718 -0.3292
  792MPD2     N11733   1.120   1.726  11.642 -0.5462  0.2322  0.4972
  792MPD2    H511734   1.107   1.665  11.722  0.6519  0.9895  1.2686
  792MPD2    N111735   1.465   1.855  11.303  0.3769  0.1134  0.2949
  792MPD2    H711736   1.562   1.845  11.275  1.1159 -1.2024  3.2737
  793MPD2     C11737   0.475   1.527  11.086  0.9651 -0.5748  0.5799
  793MPD2    C111738   0.604   1.518  11.112  0.2464 -0.1806 -0.4986
  793MPD2    C211739   0.663   1.565  11.234 -0.4547  0.2117 -0.2578
  793MPD2    C311740   0.576   1.631  11.323 -0.2453 -0.1471  0.3870
  793MPD2    C411741   0.444   1.635  11.293  0.2833  0.0636  1.0074
  793MPD2    C511742   0.386   1.585  11.178  0.4057  0.2171 -0.1769
  793MPD2     H11743   0.768   1.556  11.260 -0.5382  0.0100  0.0173
  793MPD2    H111744   0.380   1.683  11.367 -0.4086  0.4843  0.1232
  793MPD2    H211745   0.434   1.483  10.995 -0.3195  2.4221 -0.2933
  793MPD2    H311746   0.281   1.603  11.161  0.5657  0.5166 -0.8741
  793MPD2     N11747   0.638   1.672  11.443 -0.5487  0.3645 -0.4262
  793MPD2    H511748   0.739   1.665  11.457 -0.6251 -1.0520 -0.5944
  793MPD2    N111749   0.689   1.454  11.017 -0.1322  0.4334  0.4766
  793MPD2    H711750   0.788   1.457  11.042 -0.3825  0.2700  1.5181
  794MPD2     C11751   1.345   0.559   0.292 -0.0185 -0.3004 -0.2244
  794MPD2    C111752   1.411   0.476   0.203  0.4022  0.2980 -0.1118
  794MPD2    C211753   1.436   0.512   0.076  0.1965  0.1374  0.2463
  794MPD2    C311754   1.393   0.638   0.029 -0.1678 -0.0282  0.2208
  794MPD2    C411755   1.329   0.726   0.114  0.1416 -0.1219  0.3540
  794MPD2    C511756   1.294   0.682   0.250  0.3060 -0.5708 -0.8688
  794MPD2     H11757   1.485   0.442   0.009 -0.6923  1.1927 -1.4970
  794MPD2    H111758   1.290   0.822   0.085 -0.5758 -0.6693 -0.4949
  794MPD2    H211759   1.320   0.526   0.392  0.8366 -0.5083 -0.0833
  794MPD2    H311760   1.244   0.742   0.325 -0.1484  0.9958 -2.4229
  794MPD2     N11761   1.425   0.685  17.653  0.5705 -0.5305  0.0006
  794MPD2    H511762   1.394   0.778  17.630 -2.0347 -1.3678  0.1905
  794MPD2    N111763   1.455   0.347   0.247  1.3158 -0.2341  0.3498
  794MPD2    H711764   1.487   0.284   0.174  1.6549  0.8388 -0.4397
  795MPD2     C11765   3.405   3.066  13.138 -0.4989  0.7720 -0.3582
  795MPD2    C111766   3.317   2.999  13.222  0.4299 -0.0191  0.3227
  795MPD2    C211767   3.376   2.904  13.306 -0.2301 -0.8850  0.1336
  795MPD2    C311768   3.516   2.892  13.323  0.3713 -0.9676  0.3968
  795MPD2    C411769   3.597   2.969  13.244 -0.4034  0.3413  0.6485
  795MPD2    C511770   3.543   3.047  13.145 -0.4090 -0.5508  0.4431
  795MPD2     H11771   3.317   2.850  13.379  0.5022 -0.8204  0.7736
  795MPD2    H111772   3.705   2.971  13.253 -0.3659 -1.3196  0.6599
  795MPD2    H211773   3.369   3.138  13.066  0.4645  3.7008  2.1015
  795MPD2    H311774   3.607   3.104  13.079  0.4521  0.4961  2.2045
  795MPD2     N11775   3.568   2.789  13.413  0.0301 -0.9024  0.4162
  795MPD2    H511776   3.501   2.734  13.466 -0.4874 -0.3049  0.3828
  795MPD2    N111777   3.176   3.017  13.226 -0.9940 -0.1657 -0.4122
  795MPD2    H711778   3.125   2.954  13.288 -2.1621 -0.1640 -1.3680
  796MPD2     C11779   2.952   4.229  15.957 -0.7168  0.0223  0.2410
  796MPD2    C111780   3.050   4.301  16.011 -0.6604  0.8666  0.3263
  796MPD2    C211781   3.059   4.439  15.992  0.4227  0.0591 -0.1816
  796MPD2    C311782   2.961   4.506  15.933 -0.1575 -0.5287 -0.0035
  796MPD2    C411783   2.850   4.439  15.884 -0.3369 -0.2966 -0.1557
  796MPD2    C511784   2.851   4.301  15.892  0.2500 -0.3034  0.0851
  796MPD2     H11785   3.135   4.497  16.042  1.5414 -0.5016 -1.2517
  796MPD2    H111786   2.761   4.484  15.842  0.8460 -0.3746 -2.7689
  796MPD2    H211787   2.950   4.121  15.961  0.4932 -0.0003  0.3075
  796MPD2    H311788   2.764   4.249  15.854  1.0213  0.5123 -2.7853
  796MPD2     N11789   2.971   4.644  15.926 -0.1556  0.1419  0.2022
  796MPD2    H511790   3.061   4.688  15.941 -0.1201 -0.0279  0.4893
  796MPD2    N111791   3.155   4.230  16.073  0.7323  0.6473  0.1601
  796MPD2    H711792   3.138   4.132  16.094  0.4802  0.2324 -1.8928
  797MPD2     C11793   4.107   3.470  17.407 -0.5617 -0.4858 -0.0785
  797MPD2    C111794   4.204   3.574  17.420  0.8661 -0.3256 -0.3452
  797MPD2    C211795   4.195   3.681  17.335 -0.6196 -0.2637 -0.3213
  797MPD2    C311796   4.094   3.692  17.235 -0.1686  0.8248  0.0920
  797MPD2    C411797   3.994   3.594  17.233  0.2928 -0.3078 -0.1442
  797MPD2    C511798   4.005   3.487  17.317  0.1318  0.7708 -0.0322
  797MPD2     H11799   4.263   3.764  17.348 -1.3926  0.3815 -0.4045
  797MPD2    H111800   3.926   3.594  17.149 -0.2468  0.2227  0.2937
  797MPD2    H211801   4.114   3.380  17.468 -0.3905 -0.4079  0.0172
  797MPD2    H311802   3.930   3.411  17.302  2.3803 -1.2416 -1.0917
  797MPD2     N11803   4.090   3.812  17.170 -0.2388 -0.3641 -0.2898
  797MPD2    H511804   4.163   3.871  17.209 -0.5666  0.1352 -0.4319
  797MPD2    N111805   4.319   3.565  17.501  0.3136  0.3226 -0.5733
  797MPD2    H711806   4.380   3.645  17.494  0.4916  0.1989 -0.4361
  798MPD2     C11807   4.728   4.089  17.209 -0.0746  0.0404 -0.6143
  798MPD2    C111808   4.608   4.035  17.233 -0.5040 -0.3750  0.3169
  798MPD2    C211809   4.600   3.931  17.321 -0.1734  0.0066 -0.1232
  798MPD2    C311810   4.712   3.880  17.386 -0.0974 -0.5133 -0.7437
  798MPD2    C411811   0.092   3.943  17.368 -0.0478 -0.4572 -0.4723
  798MPD2    C511812   0.103   4.053  17.285 -0.1606 -0.3502 -0.0453
  798MPD2     H11813   4.507   3.877  17.327  0.6792 -1.5701 -1.3391
  798MPD2    H111814   0.182   3.901  17.411 -0.2906 -0.5801 -0.0853
  798MPD2    H211815   0.010   4.170  17.139  0.7708  1.0348  0.7552
  798MPD2    H311816   0.200   4.098  17.269 -0.0447 -0.7996 -0.5993
  798MPD2     N11817   4.681   3.769  17.468  0.3451 -0.3616 -0.1742
  798MPD2    H511818   4.583   3.747  17.476  0.1511 -0.1167 -1.8555
  798MPD2    N111819   4.492   4.096  17.166  0.1257 -0.6917  0.2653
  798MPD2    H711820   4.494   4.189  17.124  0.0795 -0.0447  1.7106
  799MPD2     C11821   3.446   0.910  14.807  1.0490  0.7489  0.0981
  799MPD2    C111822   3.392   0.815  14.726 -0.0115 -0.3524 -0.6483
  799MPD2    C211823   3.285   0.841  14.646 -0.3064  0.1255  0.5842
  799MPD2    C311824   3.233   0.967  14.629  0.9637 -0.5384  0.5093
  799MPD2    C411825   3.310   1.067  14.686  0.1891  0.0479 -0.4506
  799MPD2    C511826   3.408   1.039  14.774  0.2684  0.1454 -0.0368
  799MPD2     H11827   3.237   0.758  14.596 -0.6541  0.8012 -0.1978
  799MPD2    H111828   3.293   1.174  14.675  1.0665  0.0594 -1.6225
  799MPD2    H211829   3.519   0.881  14.881  0.3984 -0.2226  0.3535
  799MPD2    H311830   3.457   1.120  14.827  0.0519  0.4700 -0.3338
  799MPD2     N11831   3.122   0.997  14.549  0.3959 -0.1604  0.3117
  799MPD2    H511832   3.113   1.092  14.515 -1.1866 -0.8802 -1.2576
  799MPD2    N111833   3.423   0.678  14.733 -0.2335 -0.0272  0.2400
  799MPD2    H711834   3.377   0.613  14.670 -2.4313  0.2431  1.5576
  800MPD2     C11835   3.400   2.144  14.554  0.0535 -0.6220 -0.2564
  800MPD2    C111836   3.505   2.075  14.498  0.2718 -0.1069  0.4016
  800MPD2    C211837   3.480   1.972  14.410  0.5430 -0.6258  0.4441
  800MPD2    C311838   3.356   1.945  14.374  0.1349 -0.8374  0.5041
  800MPD2    C411839   3.248   2.011  14.434  1.3295 -0.2098 -0.1368
  800MPD2    C511840   3.273   2.105  14.531 -0.0705 -0.1197 -0.4729
  800MPD2     H11841   3.561   1.938  14.346 -0.3874  0.2426 -1.2127
  800MPD2    H111842   3.153   2.001  14.382  1.7145 -2.0800 -0.4572
  800MPD2    H211843   3.410   2.233  14.615 -2.3154 -0.7824  0.3908
  800MPD2    H311844   3.202   2.184  14.553  1.0725  1.0086 -0.8501
  800MPD2     N11845   3.342   1.858  14.267 -0.3263  0.4587  0.0660
  800MPD2    H511846   3.432   1.812  14.256 -0.6162 -0.1230  0.1201
  800MPD2    N111847   3.639   2.121  14.523 -0.7593  0.0154 -0.0446
  800MPD2    H711848   3.650   2.210  14.570 -1.2496 -0.5340  1.1164
  801MPD2     C11849   3.823   2.753  14.231 -0.7597  0.4644 -0.1670
  801MPD2    C111850   3.744   2.642  14.234 -0.1167 -0.2049  0.1393
  801MPD2    C211851   3.610   2.663  14.224 -0.0224 -0.2659 -0.1469
  801MPD2    C311852   3.550   2.788  14.218 -0.0419  0.3061  0.1135
  801MPD2    C411853   3.634   2.898  14.212 -0.0570 -0.6172  0.3572
  801MPD2    C511854   3.769   2.876  14.229  0.0988  1.2165 -0.5394
  801MPD2     H11855   3.547   2.576  14.241 -1.1309  0.1203 -2.2930
  801MPD2    H111856   3.591   2.995  14.236 -0.8465 -1.1381  1.0839
  801MPD2    H211857   3.929   2.744  14.250 -0.5836  0.2309 -1.3085
  801MPD2    H311858   3.830   2.964  14.244  1.4497  0.5980 -2.4712
  801MPD2     N11859   3.416   2.813  14.233 -0.4892  0.0068  0.2267
  801MPD2    H511860   3.387   2.905  14.264 -2.6904 -1.3933  2.3783
  801MPD2    N111861   3.786   2.511  14.278 -0.5168 -0.3369 -0.2673
  801MPD2    H711862   3.712   2.449  14.312 -1.1997 -0.3786 -1.8412
  802MPD2     C11863   2.625   2.634  17.498  0.4265 -0.0260 -0.0072
  802MPD2    C111864   2.752   2.645  17.547  0.3248  0.2315  0.5066
  802MPD2    C211865   2.849   2.546  17.526 -0.2776 -0.8253  0.3635
  802MPD2    C311866   2.819   2.443  17.436 -0.1539  0.0228 -0.1338
  802MPD2    C411867   2.695   2.440  17.377  0.5781 -0.2154  0.2737
  802MPD2    C511868   2.601   2.536  17.408 -0.0495  0.4480 -1.1420
  802MPD2     H11869   2.946   2.547  17.574  0.4317  0.5978 -1.1376
  802MPD2    H111870   2.666   2.363  17.307  1.3712  0.8689 -1.2475
  802MPD2    H211871   2.551   2.713  17.505  0.7266  0.4061 -1.5693
  802MPD2    H311872   2.500   2.527  17.370 -1.8100  2.7323  3.0499
  802MPD2     N11873   2.927   2.358  17.389 -0.1453  0.2798  0.1573
  802MPD2    H511874   3.018   2.365  17.432  0.7036 -0.9588 -1.4644
  802MPD2    N111875   2.787   2.752  17.629 -0.1612 -0.5082  0.1833
  802MPD2    H711876   2.878   2.750  17.675  0.6151 -1.6310 -1.4082
  803MPD2     C11877   3.736   1.131  12.062 -0.2981 -0.2172  0.2704
  803MPD2    C111878   3.855   1.189  12.106  0.4911  0.7843 -0.3701
  803MPD2    C211879   3.899   1.155  12.232 -0.3667  0.4812 -0.3359
  803MPD2    C311880   3.819   1.081  12.315 -0.2467  0.2611  0.1409
  803MPD2    C411881   3.696   1.032  12.271  0.3791  0.5447 -0.3933
  803MPD2    C511882   3.658   1.052  12.143  0.8874 -0.3398  0.0843
  803MPD2     H11883   3.997   1.191  12.261  0.6260 -2.4930  0.1062
  803MPD2    H111884   3.631   0.977  12.337 -0.2952 -0.4922 -1.9211
  803MPD2    H211885   3.709   1.134  11.957 -0.5551 -0.2396  0.3370
  803MPD2    H311886   3.564   1.013  12.105 -0.1285  2.0160  0.1637
  803MPD2     N11887   3.842   1.075  12.454 -0.3826  0.4394 -0.0231
  803MPD2    H511888   3.767   1.046  12.516 -1.6035  2.1105 -0.7069
  803MPD2    N111889   3.923   1.283  12.029  0.6470  0.1716  0.0860
  803MPD2    H711890   4.005   1.333  12.064  0.9479  0.5361 -1.1408
  804MPD2     C11891   3.948   2.595  16.544 -0.2720  0.5658 -0.9130
  804MPD2    C111892   3.955   2.547  16.667  0.2648 -0.0175  0.0913
  804MPD2    C211893   4.037   2.617  16.757  0.3393 -0.4429  0.1131
  804MPD2    C311894   4.099   2.734  16.720  1.0399 -0.2082  0.7536
  804MPD2    C411895   4.078   2.783  16.596  0.1558  0.0264  0.1966
  804MPD2    C511896   4.008   2.711  16.506 -0.1974 -0.3655 -0.1023
  804MPD2     H11897   4.051   2.575  16.856  0.8447  1.5856  0.8858
  804MPD2    H111898   4.120   2.878  16.565  0.8866 -0.2487  0.3395
  804MPD2    H211899   3.894   2.539  16.468 -2.2551  0.3490  0.6739
  804MPD2    H311900   3.985   2.752  16.408 -2.1923 -0.8329  0.1867
  804MPD2     N11901   4.187   2.798  16.809 -0.2850  0.0179  0.4534
  804MPD2    H511902   4.192   2.762  16.904  0.2557 -2.2467 -0.4429
  804MPD2    N111903   3.898   2.426  16.694 -0.2774  1.1469  0.3298
  804MPD2    H711904   3.861   2.362  16.625  2.6591 -0.3386  0.1342
  805MPD2     C11905   2.748   1.182  15.706  0.2754  0.1088  0.5366
  805MPD2    C111906   2.850   1.200  15.614  0.2932 -0.2044 -0.7977
  805MPD2    C211907   2.975   1.232  15.658  0.6798 -0.5261 -0.1127
  805MPD2    C311908   3.006   1.229  15.793 -0.0006  0.5091 -0.0698
  805MPD2    C411909   2.908   1.218  15.887 -0.1151 -0.0078  0.0546
  805MPD2    C511910   2.779   1.187  15.841 -0.2897 -0.1696 -0.2018
  805MPD2     H11911   3.055   1.243  15.585  1.0909 -2.4616  0.0550
  805MPD2    H111912   2.929   1.225  15.993 -1.2190  3.6689  0.0124
  805MPD2    H211913   2.646   1.170  15.672 -0.1956  0.0766  1.9233
  805MPD2    H311914   2.702   1.180  15.917  0.6357 -2.4421  0.5430
  805MPD2     N11915   3.135   1.257  15.834  0.0375 -0.5174  0.2601
  805MPD2    H511916   3.205   1.287  15.766  1.8573 -1.1508  1.8448
  805MPD2    N111917   2.831   1.186  15.473 -0.5148 -0.4235 -0.2168
  805MPD2    H711918   2.916   1.192  15.417  0.0723  1.1254  0.8220
  806MPD2     C11919   3.294   4.665   0.665 -0.2871  0.3453 -0.0241
  806MPD2    C111920   3.382   4.575   0.613  0.1474  0.4717 -0.3319
  806MPD2    C211921   3.442   4.608   0.495  0.3242  0.6503 -0.1612
  806MPD2    C311922   3.434   4.734   0.439  0.1272 -0.4172 -0.0083
  806MPD2    C411923   3.355   0.087   0.505 -0.3321 -0.0887 -0.0108
  806MPD2    C511924   3.287   0.054   0.616 -0.8875  0.4224 -0.2772
  806MPD2     H11925   3.504   4.538   0.441 -1.2905 -0.2726 -0.8056
  806MPD2    H111926   3.335   0.190   0.476 -2.5203 -0.2156  1.0305
  806MPD2    H211927   3.246   4.640   0.759  0.5566  0.4545  0.4394
  806MPD2    H311928   3.238   0.133   0.672 -0.8072  0.7697 -0.6976
  806MPD2     N11929   3.506   0.023   0.319 -0.8781 -0.5260 -0.0353
  806MPD2    H511930   3.568   4.684   0.292 -0.6579  1.2567 -4.5144
  806MPD2    N111931   3.411   4.452   0.680 -0.4054 -0.4401 -0.4375
  806MPD2    H711932   3.371   4.447   0.773 -0.5287 -0.2063 -0.4767
  807MPD2     C11933   3.272   4.069   1.324  0.2590  0.1172  0.8605
  807MPD2    C111934   3.337   3.976   1.247  0.2087  0.6636  0.1851
  807MPD2    C211935   3.335   3.850   1.296 -0.0254  0.0613 -0.2918
  807MPD2    C311936   3.277   3.816   1.418 -0.3923  0.0758 -0.3789
  807MPD2    C411937   3.202   3.914   1.482 -1.0048  0.6631  0.6629
  807MPD2    C511938   3.204   4.038   1.434 -0.8451 -0.4600 -0.3618
  807MPD2     H11939   3.400   3.782   1.243 -0.9742 -1.1751  0.1296
  807MPD2    H111940   3.142   3.889   1.569 -1.1526 -2.5863 -0.3722
  807MPD2    H211941   3.275   4.174   1.299  2.1849 -0.5867 -1.8131
  807MPD2    H311942   3.144   4.112   1.487  0.5513 -0.7961  1.6808
  807MPD2     N11943   3.294   3.686   1.460 -0.1029  0.0098 -0.1527
  807MPD2    H511944   3.335   3.624   1.391 -1.2919  2.0996 -2.7472
  807MPD2    N111945   3.408   4.006   1.127  0.0283 -0.1642 -0.1181
  807MPD2    H711946   3.457   3.925   1.092  1.3252 -0.0333  1.3857
  808MPD2     C11947   3.171   2.391   9.832 -0.2489 -0.2772 -0.0507
  808MPD2    C111948   3.244   2.392   9.948 -0.2040  0.5483  0.4181
  808MPD2    C211949   3.324   2.503   9.969  0.1412 -0.2745  0.0948
  808MPD2    C311950   3.317   2.609   9.888  0.5374  0.2229 -0.2704
  808MPD2    C411951   3.226   2.611   9.782 -0.5424 -0.0449 -0.3597
  808MPD2    C511952   3.153   2.505   9.751  0.3829 -0.3543 -0.3207
  808MPD2     H11953   3.372   2.510  10.065  0.8823  1.1835 -0.3780
  808MPD2    H111954   3.207   2.699   9.722 -0.7469  0.2336  0.1196
  808MPD2    H211955   3.108   2.307   9.807  0.4472 -1.5884  2.6350
  808MPD2    H311956   3.098   2.509   9.658 -0.0028 -0.5149 -0.0976
  808MPD2     N11957   3.389   2.728   9.913  0.6616 -0.0126  0.6618
  808MPD2    H511958   3.364   2.815   9.867  2.8873  0.0794 -0.3769
  808MPD2    N111959   3.245   2.294  10.047  0.1886  0.5956 -0.2814
  808MPD2    H711960   3.308   2.313  10.124  0.8769  0.2474 -0.7655
  809MPD2     C11961   3.555   3.271   9.297 -0.0366  0.3740  0.0473
  809MPD2    C111962   3.683   3.234   9.336 -0.2604 -0.0102  0.7088
  809MPD2    C211963   3.701   3.166   9.459 -0.2023 -0.1021  0.1088
  809MPD2    C311964   3.590   3.132   9.535 -0.0575  0.0989 -0.2621
  809MPD2    C411965   3.467   3.175   9.492  0.5212  0.1700 -0.5764
  809MPD2    C511966   3.446   3.248   9.378 -0.1217 -0.0535  0.5485
  809MPD2     H11967   3.793   3.116   9.485 -0.3662 -0.3087  0.2987
  809MPD2    H111968   3.393   3.156   9.569  1.4879  1.8743  0.7739
  809MPD2    H211969   3.527   3.336   9.214  2.2800 -0.0584 -1.0751
  809MPD2    H311970   3.349   3.277   9.339  1.3964  1.6043 -1.9447
  809MPD2     N11971   3.593   3.068   9.657 -0.2140 -0.1744  0.0717
  809MPD2    H511972   3.512   3.054   9.717 -0.7983  1.5543 -0.3193
  809MPD2    N111973   3.797   3.274   9.257 -0.7982  0.3354 -0.0871
  809MPD2    H711974   3.886   3.250   9.298 -1.4309 -2.0535 -0.1114
  810MPD2     C11975   3.008   1.380  10.741  0.2440  0.0621  0.6250
  810MPD2    C111976   3.035   1.468  10.642  0.7195  0.4906  0.1162
  810MPD2    C211977   3.043   1.603  10.664  0.6898 -0.2236 -0.4297
  810MPD2    C311978   2.996   1.655  10.777 -0.2002  0.0949  0.2667
  810MPD2    C411979   2.966   1.567  10.881  0.4029  0.2557  0.0864
  810MPD2    C511980   2.971   1.434  10.860 -0.5196 -0.4096  0.1861
  810MPD2     H11981   3.059   1.668  10.579 -3.6691  2.6825  1.0092
  810MPD2    H111982   2.935   1.596  10.981  0.6879 -1.2682  0.6123
  810MPD2    H211983   3.024   1.273  10.740 -1.4248 -0.1818  0.0761
  810MPD2    H311984   2.949   1.371  10.945 -0.8974  1.0874  1.1981
  810MPD2     N11985   2.946   1.787  10.792  0.0716  0.3835 -0.0438
  810MPD2    H511986   2.939   1.807  10.891  2.8881 -0.2404  0.3021
  810MPD2    N111987   3.063   1.421  10.511 -0.9259 -0.3319 -0.3747
  810MPD2    H711988   3.095   1.489  10.443  0.9779 -0.0222  0.8258
  811MPD2     C11989   2.466   1.558  10.031 -0.0822 -0.6182  0.4595
  811MPD2    C111990   2.599   1.589  10.077  0.0760  0.3370 -0.2377
  811MPD2    C211991   2.627   1.720  10.118  0.6837  0.1941 -0.0870
  811MPD2    C311992   2.527   1.821  10.118 -0.4303  0.4399  0.1940
  811MPD2    C411993   2.398   1.780  10.083 -0.7749  0.0953  0.2680
  811MPD2    C511994   2.363   1.650  10.045  0.3284  0.4560 -0.0744
  811MPD2     H11995   2.727   1.757  10.139  2.0669 -3.5820 -0.0121
  811MPD2    H111996   2.312   1.845  10.097 -0.6885  0.8259 -2.7499
  811MPD2    H211997   2.439   1.456  10.007 -0.3712 -1.1370  3.0009
  811MPD2    H311998   2.264   1.629  10.005  1.3611 -2.7038 -0.9814
  811MPD2     N11999   2.564   1.950  10.148 -0.1721  0.9357  0.8001
  811MPD2    H512000   2.663   1.967  10.165  0.3270 -0.3471 -0.7782
  811MPD2    N112001   2.697   1.485  10.078  0.5029  0.4281  0.4569
  811MPD2    H712002   2.666   1.395  10.043 -1.7576  0.2384  3.0016
  812MPD2     C12003   1.570   1.292  12.415  0.0980  0.0294 -0.5031
  812MPD2    C112004   1.675   1.385  12.437  0.1214  0.1443 -0.3355
  812MPD2    C212005   1.751   1.373  12.550 -0.0035  0.3493  0.2753
  812MPD2    C312006   1.732   1.276  12.641  0.2999 -0.2977 -0.1863
  812MPD2    C412007   1.633   1.181  12.620 -0.7426 -0.3471 -0.1265
  812MPD2    C512008   1.550   1.197  12.515  0.0535 -0.4024 -0.1476
  812MPD2     H12009   1.822   1.450  12.578  1.8700 -0.8443 -1.1360
  812MPD2    H112010   1.632   1.092  12.681 -0.2418 -0.4035 -0.1940
  812MPD2    H212011   1.504   1.295  12.329  0.2666 -0.9483 -0.6741
  812MPD2    H312012   1.469   1.126  12.499  0.1545 -0.4405 -0.4913
  812MPD2     N12013   1.820   1.280  12.756  0.0594 -0.2039 -0.4556
  812MPD2    H512014   1.890   1.353  12.753 -2.2575  2.0771  0.3088
  812MPD2    N112015   1.702   1.479  12.338 -0.2981  0.1865 -0.1482
  812MPD2    H712016   1.632   1.502  12.269 -1.5859  1.7905  1.6682
  813MPD2     C12017   1.110   3.129  12.887 -0.5707  0.3383  0.0117
  813MPD2    C112018   1.191   3.226  12.943  0.0463  0.5328  0.2060
  813MPD2    C212019   1.150   3.280  13.057 -0.6826 -0.1795 -0.2470
  813MPD2    C312020   1.039   3.231  13.124  0.1930 -0.0874 -0.3702
  813MPD2    C412021   0.952   3.143  13.068 -0.1293  0.5891  0.1790
  813MPD2    C512022   0.989   3.093  12.947 -0.4586 -0.2776  0.0027
  813MPD2     H12023   1.216   3.352  13.104 -0.8557  2.1118 -3.4849
  813MPD2    H112024   0.858   3.118  13.116 -0.5953  1.7732 -0.1124
  813MPD2    H212025   1.130   3.096  12.786  0.0775  2.3994 -0.5333
  813MPD2    H312026   0.929   3.013  12.907 -0.4704 -0.5990  0.6635
  813MPD2     N12027   1.015   3.290  13.248  0.6036  0.1237 -0.0609
  813MPD2    H512028   1.069   3.372  13.273  0.6719  0.1364 -0.2502
  813MPD2    N112029   1.313   3.271  12.887  0.2142 -0.0092 -0.7132
  813MPD2    H712030   1.365   3.346  12.933  0.8836 -1.6553  1.2576
  814MPD2     C12031   1.890   4.735  12.354  0.0606 -0.5450 -0.8002
  814MPD2    C112032   1.863   0.062  12.233 -0.8071 -0.2941  0.0456
  814MPD2    C212033   1.937   0.173  12.204 -0.5183 -0.2835  0.3401
  814MPD2    C312034   2.028   0.223  12.295  0.0916 -0.1787  0.5789
  814MPD2    C412035   2.055   0.165  12.412 -0.0144 -0.1078  0.0444
  814MPD2    C512036   1.988   0.043  12.433  0.0433  0.0120 -0.2077
  814MPD2     H12037   1.914   0.230  12.114  0.8895  3.3126  2.2620
  814MPD2    H112038   2.130   0.198  12.482 -0.5051 -0.6995  0.8507
  814MPD2    H212039   1.841   4.640  12.371  1.9610 -1.4100 -0.1053
  814MPD2    H312040   2.023   4.731  12.523  2.1709 -0.6473 -1.3973
  814MPD2     N12041   2.102   0.336  12.275  0.1826 -0.0016  0.4831
  814MPD2    H512042   2.169   0.360  12.347 -0.3480 -0.3715  1.0969
  814MPD2    N112043   1.764   0.017  12.139 -0.1449  0.1303 -0.6044
  814MPD2    H712044   1.745   0.087  12.067  0.9736 -0.4645 -1.4672
  815MPD2     C12045   1.934   3.271  11.880 -0.0960  0.6576  0.4948
  815MPD2    C112046   1.913   3.140  11.843 -0.4252  0.2293 -0.1493
  815MPD2    C212047   1.793   3.076  11.876 -0.1696 -0.1369  0.5017
  815MPD2    C312048   1.694   3.148  11.929 -0.5970  0.5103 -0.1596
  815MPD2    C412049   1.709   3.282  11.967  0.0993 -0.3213 -0.9774
  815MPD2    C512050   1.824   3.344  11.933 -0.5948 -0.0057 -0.5592
  815MPD2     H12051   1.767   2.975  11.845  2.6191  0.2165 -2.9885
  815MPD2    H112052   1.623   3.336  12.006  1.0894 -1.1137  2.3401
  815MPD2    H212053   2.019   3.332  11.853  0.4747 -0.5796 -0.4575
  815MPD2    H312054   1.826   3.450  11.953  1.4099 -0.1792  0.1611
  815MPD2     N12055   1.574   3.073  11.945 -0.4667  0.7259  0.3550
  815MPD2    H512056   1.579   2.981  11.904  0.0647  0.5936  0.7091
  815MPD2    N112057   2.013   3.072  11.767  0.2934 -0.0052  0.1094
  815MPD2    H712058   2.103   3.118  11.770 -0.0740  0.8986 -2.3723
  816MPD2     C12059   2.614   2.315   0.068  0.0064 -0.4486 -0.1000
  816MPD2    C112060   2.529   2.346  17.711  0.3101  0.4655  0.2044
  816MPD2    C212061   2.535   2.273  17.594 -0.1550  0.0266 -0.1858
  816MPD2    C312062   2.637   2.180  17.573 -0.6978 -0.2329  0.7735
  816MPD2    C412063   2.727   2.167  17.673  0.2415  0.1399  0.0136
  816MPD2    C512064   2.719   2.230   0.047  0.0108 -0.1563 -0.1136
  816MPD2     H12065   2.472   2.290  17.507  0.5382 -1.4407 -0.9695
  816MPD2    H112066   2.803   2.089  17.672  1.2969  1.1517  2.5929
  816MPD2    H212067   2.606   2.371   0.160 -1.5511 -1.4026  0.3673
  816MPD2    H312068   2.786   2.210   0.129  0.5208  1.2386 -0.2008
  816MPD2     N12069   2.646   2.098  17.459 -0.0012 -0.0388  0.4091
  816MPD2    H512070   2.569   2.113  17.394 -0.4835 -0.9224  0.7889
  816MPD2    N112071   2.450   2.457  17.739 -0.1440 -0.3883 -0.4066
  816MPD2    H712072   2.476   2.507   0.078  0.9044  0.7351 -1.3877
  817MPD2     C12073   2.195   3.894   9.226 -0.2705  0.5102  0.0060
  817MPD2    C112074   2.158   3.804   9.318  0.0791 -0.4601 -0.2001
  817MPD2    C212075   2.032   3.807   9.367 -0.6223  0.6337  0.2555
  817MPD2    C312076   1.942   3.906   9.344  0.3036 -0.0730  0.1097
  817MPD2    C412077   1.990   4.007   9.251  1.0233 -0.6290 -0.4011
  817MPD2    C512078   2.112   3.997   9.193  0.4580  0.2227  0.5681
  817MPD2     H12079   2.000   3.726   9.432 -2.3685  0.5844 -0.6877
  817MPD2    H112080   1.939   4.099   9.224 -0.5541 -1.6789 -0.9891
  817MPD2    H212081   2.292   3.894   9.177 -0.2958 -0.0611 -0.0507
  817MPD2    H312082   2.148   4.074   9.126  0.5744 -0.5728 -0.2724
  817MPD2     N12083   1.802   3.877   9.371  0.8268 -0.5051  0.1020
  817MPD2    H512084   1.786   3.791   9.422  3.3369  1.0809  3.5887
  817MPD2    N112085   2.242   3.697   9.359  0.1184 -0.3231 -0.6234
  817MPD2    H712086   2.192   3.638   9.425  2.5192 -3.1289 -1.2995
  818MPD2     C12087   0.963   3.978  10.538 -0.4017 -0.2884  0.8168
  818MPD2    C112088   0.830   3.992  10.541  0.5327 -0.4160 -0.2653
  818MPD2    C212089   0.757   3.882  10.492  0.2799  0.0640  0.9247
  818MPD2    C312090   0.810   3.761  10.446 -0.1368  0.1529  0.1968
  818MPD2    C412091   0.947   3.753  10.446 -0.4257 -1.0170  0.1090
  818MPD2    C512092   1.017   3.858  10.496 -0.1522  0.6422 -0.1329
  818MPD2     H12093   0.651   3.902  10.501  0.3495  0.8650 -0.1593
  818MPD2    H112094   1.009   3.678  10.397  2.3488  0.8688  0.7159
  818MPD2    H212095   1.035   4.056  10.560 -0.5138  0.1144 -0.2658
  818MPD2    H312096   1.124   3.864  10.510 -0.4812  2.3107  1.6161
  818MPD2     N12097   0.742   3.648  10.400  0.1804 -0.5339  0.7252
  818MPD2    H512098   0.796   3.574  10.359 -1.0394 -1.7898  1.3755
  818MPD2    N112099   0.769   4.118  10.561 -0.0143 -0.0213 -0.0726
  818MPD2    H712100   0.669   4.133  10.550 -0.0563 -0.5039 -0.3504
  819MPD2     C12101   3.593   0.769  15.752  0.5116 -0.1159 -0.6438
  819MPD2    C112102   3.608   0.637  15.727  0.4786 -0.5369 -0.4503
  819MPD2    C212103   3.702   0.567  15.791 -0.0759 -0.2131 -0.3916
  819MPD2    C312104   3.797   0.635  15.866 -0.3272  0.0330 -0.3319
  819MPD2    C412105   3.789   0.772  15.888  0.5950  0.3437  0.0629
  819MPD2    C512106   3.680   0.833  15.836 -0.3225 -0.0401  0.6058
  819MPD2     H12107   3.707   0.459  15.791 -0.5119 -0.2273  2.0635
  819MPD2    H112108   3.852   0.827  15.957  1.5866  0.4894 -0.9540
  819MPD2    H212109   3.513   0.831  15.714  0.2392 -1.3466 -2.0693
  819MPD2    H312110   3.664   0.937  15.865  0.6541 -0.2223  1.8186
  819MPD2     N12111   3.905   0.554  15.922  0.4012  0.2491 -0.3498
  819MPD2    H512112   3.903   0.453  15.912  2.2844  0.1091  0.6187
  819MPD2    N112113   3.513   0.574  15.648  0.1062 -0.0785 -0.1200
  819MPD2    H712114   3.427   0.625  15.633 -1.5635 -2.3429  1.7007
  820MPD2     C12115   3.014   0.702  14.852 -0.3254 -0.3607  0.3190
  820MPD2    C112116   3.000   0.754  14.979 -0.2308  0.5375 -0.0811
  820MPD2    C212117   3.030   0.681  15.088  0.1231  0.2160  0.7289
  820MPD2    C312118   3.075   0.550  15.073 -0.6708  0.2455  0.4465
  820MPD2    C412119   3.099   0.499  14.949 -0.0314 -0.1390  0.5870
  820MPD2    C512120   3.071   0.579  14.836  0.0781 -0.6391  0.2457
  820MPD2     H12121   3.011   0.736  15.180 -0.6716  0.1753  0.5872
  820MPD2    H112122   3.119   0.394  14.931  0.2399  0.1855 -0.9928
  820MPD2    H212123   2.974   0.763  14.772  1.6746  1.3434  0.5959
  820MPD2    H312124   3.069   0.536  14.736  1.0789 -0.7812  0.2870
  820MPD2     N12125   3.132   0.474  15.181 -0.3189  0.6795  0.0964
  820MPD2    H512126   3.173   0.384  15.159  0.9795  0.9968  1.2518
  820MPD2    N112127   2.928   0.878  14.985 -0.0807  0.0482  0.3969
  820MPD2    H712128   2.874   0.904  14.903 -1.0017 -3.4313 -0.1337
  821MPD2     C12129   3.086   2.038  13.659  0.2047 -0.4074  0.2952
  821MPD2    C112130   3.172   1.933  13.642  0.0588  0.4061 -0.2285
  821MPD2    C212131   3.271   1.946  13.544 -0.6522  0.0220 -0.3168
  821MPD2    C312132   3.292   2.064  13.478  0.8121  0.1733 -0.7030
  821MPD2    C412133   3.209   2.179  13.500  0.9465  0.6122 -0.2232
  821MPD2    C512134   3.103   2.156  13.594 -0.1650  0.5068 -0.4994
  821MPD2     H12135   3.331   1.858  13.525  0.1384  0.5083 -0.0761
  821MPD2    H112136   3.219   2.274  13.450  0.7295  0.7466 -0.0110
  821MPD2    H212137   3.000   2.045  13.725  1.3933  1.1187  1.6938
  821MPD2    H312138   3.034   2.235  13.622  1.1119  1.5719 -0.3540
  821MPD2     N12139   3.393   2.081  13.378  0.3971  0.2842 -0.2392
  821MPD2    H512140   3.401   2.172  13.335  0.4903  0.0830 -0.6430
  821MPD2    N112141   3.168   1.808  13.708  1.2293 -0.6830  0.3158
  821MPD2    H712142   3.228   1.731  13.679  2.8378  1.5425 -2.2828
  822MPD2     C12143   0.017   2.028  15.492  0.5938 -0.5544 -0.2934
  822MPD2    C112144   4.729   1.981  15.620 -0.2046 -1.1149  0.5909
  822MPD2    C212145   4.664   2.062  15.706  0.3022 -0.2806 -0.2863
  822MPD2    C312146   4.626   2.185  15.675 -0.1159  0.1483  0.1763
  822MPD2    C412147   4.659   2.240  15.549 -0.9668 -0.2665 -0.0423
  822MPD2    C512148   4.729   2.162  15.466 -0.7066 -0.3030  0.0700
  822MPD2     H12149   4.639   2.022  15.803 -0.7446 -0.1754 -0.5129
  822MPD2    H112150   4.643   2.343  15.520 -1.8962 -0.3499  0.1698
  822MPD2    H212151   0.078   1.982  15.415  1.9641 -1.1300  1.1212
  822MPD2    H312152   0.053   2.215  15.393  0.6571  0.3568  1.7018
  822MPD2     N12153   4.553   2.259  15.774 -0.1879 -0.4817  0.1150
  822MPD2    H512154   4.550   2.217  15.866 -2.0120 -3.9896 -1.5709
  822MPD2    N112155   0.026   1.848  15.666  0.2936  0.1523 -0.1888
  822MPD2    H712156   0.035   1.840  15.767 -1.7941 -0.5592 -0.0532
  823MPD2     C12157   4.254   2.312  16.543  0.2474 -0.0962 -0.0524
  823MPD2    C112158   4.303   2.237  16.438  0.5191 -0.2836  1.1706
  823MPD2    C212159   4.338   2.104  16.455 -0.0444 -0.2118  0.5349
  823MPD2    C312160   4.315   2.049  16.585 -0.7648  0.2240  0.7010
  823MPD2    C412161   4.257   2.117  16.685 -0.7473  0.5058  0.2973
  823MPD2    C512162   4.229   2.253  16.663  0.6215 -0.4282 -0.2188
  823MPD2     H12163   4.381   2.041  16.378  0.8158 -0.9447  1.6027
  823MPD2    H112164   4.250   2.070  16.782  1.0815  0.3085  0.3384
  823MPD2    H212165   4.237   2.419  16.535 -1.0834 -0.1648  2.0274
  823MPD2    H312166   4.189   2.309  16.747  2.6843  3.2059 -1.6638
  823MPD2     N12167   4.349   1.913  16.617  0.3949 -0.0457  0.1164
  823MPD2    H512168   4.328   1.882  16.712 -1.7953 -1.5496 -0.8446
  823MPD2    N112169   4.310   2.299  16.312  0.2340  0.2506 -0.0722
  823MPD2    H712170   4.298   2.399  16.299  0.3481  0.3579  0.6479
  824MPD2     C12171   0.200   1.025  15.507 -0.4460  0.3362 -0.7092
  824MPD2    C112172   0.254   1.149  15.468  0.3420 -0.2656 -0.5504
  824MPD2    C212173   0.331   1.151  15.352 -0.1480 -0.4825 -0.3849
  824MPD2    C312174   0.359   1.035  15.282 -0.2948 -1.3012  0.9906
  824MPD2    C412175   0.299   0.921  15.313 -0.2071 -0.0775  0.1155
  824MPD2    C512176   0.215   0.907  15.428  0.7352 -0.3811  0.2704
  824MPD2     H12177   0.376   1.247  15.330 -2.1342  0.0872 -1.9317
  824MPD2    H112178   0.327   0.823  15.275 -1.9076  0.8311 -3.4447
  824MPD2    H212179   0.134   1.021  15.593  0.4864  2.3759  0.0914
  824MPD2    H312180   0.189   0.810  15.469  1.5892 -1.4113 -1.6083
  824MPD2     N12181   0.460   1.045  15.182  0.2058  0.2653 -0.4080
  824MPD2    H512182   0.499   1.138  15.178  1.7731 -0.2694  2.3003
  824MPD2    N112183   0.223   1.277  15.529 -0.1758  0.3928  0.2390
  824MPD2    H712184   0.270   1.355  15.485  0.8101  0.3393  1.2183
  825MPD2     C12185   0.874   1.357  14.657 -0.5955  0.3279 -0.3120
  825MPD2    C112186   0.867   1.381  14.795 -0.3689  0.5826 -0.3952
  825MPD2    C212187   0.910   1.501  14.846  0.7570 -0.5241  0.0708
  825MPD2    C312188   0.961   1.602  14.766  0.7828  0.0960 -0.4920
  825MPD2    C412189   0.966   1.583  14.630  0.6156 -0.4721  0.0803
  825MPD2    C512190   0.923   1.460  14.579 -0.3982  0.4143 -0.0165
  825MPD2     H12191   0.885   1.540  14.944  1.3749 -1.3013  0.5340
  825MPD2    H112192   1.014   1.646  14.556 -2.2869  1.2962 -0.3078
  825MPD2    H212193   0.838   1.266  14.609 -0.5155  1.0257 -1.6827
  825MPD2    H312194   0.932   1.440  14.473 -1.3110  1.1959 -0.2419
  825MPD2     N12195   1.008   1.724  14.824  0.3949  0.0155 -0.0417
  825MPD2    H512196   1.059   1.783  14.759 -0.6186  1.2460  0.2928
  825MPD2    N112197   0.834   1.269  14.876 -0.5692 -0.3911  0.3760
  825MPD2    H712198   0.815   1.180  14.832 -2.4845  0.6212 -0.8343
  826MPD2     C12199   0.740   1.374  13.711  0.8746  0.2895  0.0708
  826MPD2    C112200   0.616   1.315  13.722  0.0396  0.7602  0.0960
  826MPD2    C212201   0.524   1.363  13.812 -0.8696 -0.1144  0.3847
  826MPD2    C312202   0.551   1.470  13.892  0.0452  0.1767 -0.4397
  826MPD2    C412203   0.678   1.513  13.889  0.0411  0.6203 -0.0487
  826MPD2    C512204   0.773   1.470  13.802 -0.1268  0.5993 -0.1052
  826MPD2     H12205   0.431   1.308  13.804  0.4066 -2.2421  0.2410
  826MPD2    H112206   0.710   1.593  13.953 -1.2052 -0.5098  1.9754
  826MPD2    H212207   0.814   1.339  13.640 -0.5652  0.4976 -1.5462
  826MPD2    H312208   0.871   1.516  13.794 -0.2475  1.3120  2.2798
  826MPD2     N12209   0.465   1.523  13.989  0.0910 -0.2764 -0.3121
  826MPD2    H512210   0.509   1.578  14.063 -0.7978 -1.0674  0.8193
  826MPD2    N112211   0.594   1.206  13.639  0.7819  0.0748  0.5073
  826MPD2    H712212   0.670   1.170  13.581  0.2655 -0.5322  0.2026
  827MPD2     C12213   1.304   2.548   9.901 -0.3764 -0.6329  0.3770
  827MPD2    C112214   1.217   2.577  10.004  0.4537  0.0379 -0.5435
  827MPD2    C212215   1.094   2.623   9.969  0.5403  0.6999 -0.7621
  827MPD2    C312216   1.049   2.634   9.836 -0.1335  0.3159  0.1124
  827MPD2    C412217   1.143   2.603   9.740 -0.3822  0.0032 -0.5888
  827MPD2    C512218   1.272   2.570   9.769  0.2668  0.3157  0.0546
  827MPD2     H12219   1.020   2.640  10.046  0.4904  1.3274 -0.9458
  827MPD2    H112220   1.123   2.612   9.633  0.3661 -0.2752 -0.7467
  827MPD2    H212221   1.399   2.500   9.919 -0.2178 -0.8664 -1.0198
  827MPD2    H312222   1.342   2.553   9.688 -2.1487  0.2345 -2.0187
  827MPD2     N12223   0.914   2.663   9.810  0.4307  0.2004  0.8857
  827MPD2    H512224   0.857   2.681   9.892 -2.2111 -2.2144 -0.4242
  827MPD2    N112225   1.275   2.559  10.133 -0.3653 -0.8583  0.3573
  827MPD2    H712226   1.371   2.526  10.133 -0.5986 -1.5569  0.6534
  828MPD2     C12227   4.298   2.309  12.414 -1.0149 -0.2274 -0.5930
  828MPD2    C112228   4.185   2.357  12.355  0.6890 -0.1855  0.0290
  828MPD2    C212229   4.171   2.368  12.222 -0.3000 -0.3418 -1.1295
  828MPD2    C312230   4.280   2.336  12.142  0.2216  0.5930 -0.2711
  828MPD2    C412231   4.391   2.274  12.201 -0.4586 -0.1682 -0.3289
  828MPD2    C512232   4.397   2.266  12.338  0.2252  0.1668 -0.5161
  828MPD2     H12233   4.080   2.392  12.169 -1.2525  1.0333  1.1106
  828MPD2    H112234   4.477   2.232  12.151  0.5112  1.3072  0.1052
  828MPD2    H212235   4.302   2.303  12.522 -0.4930 -0.0257 -0.6030
  828MPD2    H312236   4.487   2.226  12.384 -0.6112  2.1745  2.9064
  828MPD2     N12237   4.284   2.340  12.000 -0.2180 -1.0916 -0.2903
  828MPD2    H512238   4.378   2.316  11.971 -0.5685 -0.7262 -1.7068
  828MPD2    N112239   4.074   2.414  12.432  0.5783  0.2027 -0.6371
  828MPD2    H712240   4.008   2.466  12.374  0.1067  1.8281  1.3661
  829MPD2     C12241   3.649   2.920  12.088 -0.4887 -0.0983  0.1731
  829MPD2    C112242   3.578   2.848  12.183 -0.1867 -0.3152  0.5337
  829MPD2    C212243   3.638   2.821  12.306  1.3137  0.2848  0.0871
  829MPD2    C312244   3.762   2.871  12.344 -0.6894 -0.7188 -0.1167
  829MPD2    C412245   3.826   2.947  12.251 -0.4234 -0.4267 -0.2885
  829MPD2    C512246   3.771   2.966  12.122  0.2637 -0.1323  0.4308
  829MPD2     H12247   3.590   2.758  12.380 -2.6727  4.2583  0.8959
  829MPD2    H112248   3.930   2.973  12.267  0.8154 -3.7130 -2.9099
  829MPD2    H212249   3.611   2.961  11.995  0.6804  1.5471  0.4136
  829MPD2    H312250   3.832   3.018  12.049  1.3689 -0.9578  0.7587
  829MPD2     N12251   3.826   2.831  12.467  0.4865 -0.4170  0.0474
  829MPD2    H512252   3.922   2.860  12.482  0.5193 -0.7699  0.5190
  829MPD2    N112253   3.443   2.807  12.161  0.0606 -0.5343 -0.1017
  829MPD2    H712254   3.393   2.845  12.081  0.0181  0.9348  0.6233
  830MPD2     C12255   4.294   4.654  15.697 -0.5553 -0.0279  0.2127
  830MPD2    C112256   4.197   0.015  15.703  0.0403 -0.2685  0.3245
  830MPD2    C212257   4.118   0.042  15.597  0.2353  0.9849 -0.5134
  830MPD2    C312258   4.138   4.714  15.471 -0.2401  0.3500  0.0721
  830MPD2    C412259   4.238   4.620  15.466  0.0426  0.2490 -0.5395
  830MPD2    C512260   4.304   4.585  15.579  0.4188  0.0060 -0.1037
  830MPD2     H12261   4.041   0.119  15.595 -1.1393 -0.3812  0.2428
  830MPD2    H112262   4.261   4.575  15.370  0.4763  1.0988 -0.8356
  830MPD2    H212263   4.362   4.630  15.778  1.5176 -0.7437 -1.7530
  830MPD2    H312264   4.378   4.505  15.577  0.8853  0.3918  1.5959
  830MPD2     N12265   4.066   0.029  15.359 -0.2260 -0.0272  0.1154
  830MPD2    H512266   4.097   0.008  15.265 -0.4183 -0.3953  0.1368
  830MPD2    N112267   4.198   0.085  15.828  0.2931 -0.4277 -0.2970
  830MPD2    H712268   4.263   0.057  15.901  1.4316 -0.1201 -1.2001
  831MPD2     C12269   0.019   2.301  16.233 -0.4360 -0.3377  0.6364
  831MPD2    C112270   0.050   2.242  16.115 -0.5190 -0.2361 -0.3786
  831MPD2    C212271   4.737   2.117  16.092 -0.1349  0.1672 -0.0608
  831MPD2    C312272   4.668   2.045  16.189 -0.0669 -0.1324  0.1623
  831MPD2    C412273   4.635   2.111  16.312 -0.6832 -0.6843 -0.0485
  831MPD2    C512274   4.681   2.239  16.331  0.4868  0.1317 -0.0586
  831MPD2     H12275   0.033   2.078  15.996  1.2310 -1.0515  0.9074
  831MPD2    H112276   4.586   2.053  16.389  0.3720 -0.5162  0.7574
  831MPD2    H212277   0.053   2.403  16.246  0.6177 -0.4552 -1.2146
  831MPD2    H312278   4.676   2.281  16.431 -1.3684  0.3054 -0.2300
  831MPD2     N12279   4.609   1.916  16.165 -0.5328  0.2344 -0.1209
  831MPD2    H512280   4.533   1.879  16.221  0.8071 -1.8377  0.2907
  831MPD2    N112281   0.137   2.315  16.022  0.0315  0.2329 -0.3056
  831MPD2    H712282   0.149   2.413  16.043  0.1630  0.1510  0.0009
  832MPD2     C12283   3.119   3.234  17.380 -0.1828 -0.0298  0.4246
  832MPD2    C112284   3.120   3.360  17.324  0.1734 -0.5477  0.2460
  832MPD2    C212285   3.004   3.419  17.268 -0.1645 -0.0801  0.5155
  832MPD2    C312286   2.883   3.342  17.273 -0.8504  0.2714  0.8693
  832MPD2    C412287   2.887   3.220  17.329  0.4308 -0.2441 -0.6822
  832MPD2    C512288   3.005   3.160  17.376 -0.2102 -0.4665 -0.3797
  832MPD2     H12289   2.995   3.521  17.233  0.3825 -0.9073 -2.0309
  832MPD2    H112290   2.790   3.178  17.352  0.7580 -0.0419  1.0775
  832MPD2    H212291   3.207   3.182  17.415 -0.4530 -0.0448  1.0910
  832MPD2    H312292   3.001   3.054  17.399  0.9314 -0.6391 -0.9917
  832MPD2     N12293   2.753   3.382  17.239 -0.3478 -0.3203 -0.1140
  832MPD2    H512294   2.678   3.315  17.250 -0.2973 -0.2708  0.5529
  832MPD2    N112295   3.242   3.419  17.315 -0.4814 -0.0852 -0.0101
  832MPD2    H712296   3.328   3.367  17.332 -1.0602 -0.4807  1.6213
  833MPD2     C12297   4.612   0.068  13.068 -0.3861  0.3034 -0.1997
  833MPD2    C112298   4.705   0.150  13.013  0.3494  0.8328  0.7640
  833MPD2    C212299   0.066   0.092  12.937 -0.2898 -0.4392  0.2082
  833MPD2    C312300   0.082   4.688  12.913 -1.1532  0.0937 -0.0225
  833MPD2    C412301   4.713   4.613  12.965 -0.0825  0.5826  0.3573
  833MPD2    C512302   4.620   4.667  13.050 -0.2466 -0.1503 -0.3238
  833MPD2     H12303   0.137   0.155  12.886 -0.4535 -0.4789 -0.0704
  833MPD2    H112304   4.717   4.505  12.954  1.9124  0.4599  2.1460
  833MPD2    H212305   4.537   0.098  13.139  1.1063  0.1769  1.4418
  833MPD2    H312306   4.548   4.600  13.096  1.1653 -1.6548 -0.2843
  833MPD2     N12307   0.193   4.630  12.842  0.1186 -0.5595 -0.5834
  833MPD2    H512308   0.183   4.529  12.840 -1.0391 -0.4550  0.2842
  833MPD2    N112309   4.679   0.291  13.023 -0.2928  0.5399  0.4260
  833MPD2    H712310   4.593   0.323  13.066 -0.2862 -1.8184  2.1560
  834MPD2     C12311   0.158   4.200  11.953 -0.0676  0.7720  0.0425
  834MPD2    C112312   0.199   4.330  11.923 -0.3321 -0.2584 -0.6785
  834MPD2    C212313   0.243   4.412  12.026 -0.4910 -0.3448  0.4768
  834MPD2    C312314   0.233   4.370  12.155 -0.1279 -0.1837 -0.1323
  834MPD2    C412315   0.172   4.251  12.180 -0.5070 -0.3876  0.0457
  834MPD2    C512316   0.147   4.161  12.081  0.1760  0.0722  0.6131
  834MPD2     H12317   0.288   4.509  12.007 -1.4022  0.1807  1.0514
  834MPD2    H112318   0.149   4.223  12.282  0.7646 -1.7466 -0.0467
  834MPD2    H212319   0.138   4.142  11.863 -1.6123  3.4166 -1.3208
  834MPD2    H312320   0.107   4.063  12.104 -0.5120 -0.3047 -2.1826
  834MPD2     N12321   0.281   4.460  12.247 -0.1782  0.2654  0.3168
  834MPD2    H512322   0.330   4.545  12.220 -0.7393  0.6663  0.5684
  834MPD2    N112323   0.187   4.371  11.785  0.1394 -0.4995 -0.2743
  834MPD2    H712324   0.139   4.303  11.728 -1.3610 -1.6474  2.3397
  835MPD2     C12325   4.631   2.977  10.969 -0.5193 -0.0027 -0.9974
  835MPD2    C112326   4.528   3.017  11.051 -0.8102  0.6303 -0.0529
  835MPD2    C212327   4.556   3.035  11.188  0.1466 -0.3177 -0.2208
  835MPD2    C312328   4.685   3.009  11.234  0.0088 -0.1145 -0.0848
  835MPD2    C412329   0.050   2.970  11.153 -0.0846 -0.3416 -0.6856
  835MPD2    C512330   0.023   2.954  11.016 -0.2021 -0.9407 -0.4974
  835MPD2     H12331   4.472   3.064  11.250  0.8650 -0.1177  0.6667
  835MPD2    H112332   0.151   2.961  11.192 -0.4476  0.4343  0.4171
  835MPD2    H212333   4.607   2.971  10.863  0.1685  1.6535 -1.2463
  835MPD2    H312334   0.102   2.927  10.947  0.2084 -0.0290 -0.3815
  835MPD2     N12335   4.705   3.020  11.374  0.4797  0.3228 -0.5708
  835MPD2    H512336   0.062   2.995  11.405 -0.2054 -2.3641 -0.6723
  835MPD2    N112337   4.390   3.044  11.012 -0.6752 -0.0913 -0.2757
  835MPD2    H712338   4.325   3.094  11.072 -2.2809 -0.7620 -1.4861
  836MPD2     C12339   4.234   2.787  11.955  0.4068 -0.4017 -0.2546
  836MPD2    C112340   4.366   2.787  11.994  0.0394 -0.8025 -0.6532
  836MPD2    C212341   4.395   2.751  12.130 -0.6625 -0.7148  0.6853
  836MPD2    C312342   4.288   2.731  12.217  0.3049 -0.4945  0.2222
  836MPD2    C412343   4.162   2.744  12.176 -0.0901  0.0686  0.1679
  836MPD2    C512344   4.129   2.763  12.041 -0.0143 -0.2390  0.1140
  836MPD2     H12345   4.492   2.767  12.176 -0.8500 -1.3467  1.2913
  836MPD2    H112346   4.084   2.717  12.247  1.0066 -1.9358  0.6020
  836MPD2    H212347   4.207   2.822  11.857  0.6279  0.5015  0.0083
  836MPD2    H312348   4.025   2.766  12.011 -0.1462  1.2774  0.7037
  836MPD2     N12349   4.306   2.689  12.349  0.3086 -0.3233 -0.0642
  836MPD2    H512350   4.220   2.685  12.403  0.2411  0.9181 -0.0752
  836MPD2    N112351   4.460   2.822  11.898 -0.6280 -0.0446  0.3857
  836MPD2    H712352   4.428   2.864  11.812 -1.4712 -1.4591  0.0093
  837MPD2     C12353   3.023   2.465  10.514 -0.2136 -0.1367  0.1551
  837MPD2    C112354   3.004   2.504  10.382 -0.3883 -0.7133  0.2861
  837MPD2    C212355   3.037   2.641  10.357 -0.0953  0.3814  0.6684
  837MPD2    C312356   3.071   2.732  10.453  0.9045  0.1004 -0.2538
  837MPD2    C412357   3.091   2.683  10.582  0.4520 -0.7311 -0.3205
  837MPD2    C512358   3.070   2.553  10.608 -0.2402  0.3656  0.7816
  837MPD2     H12359   3.018   2.685  10.259  0.0432 -1.6337 -0.2655
  837MPD2    H112360   3.149   2.737  10.655 -2.3405  0.5865  0.9355
  837MPD2    H212361   3.003   2.365  10.551 -2.9645  0.0384 -0.8795
  837MPD2    H312362   3.087   2.519  10.710 -0.3206  0.2410  0.7529
  837MPD2     N12363   3.097   2.862  10.416  0.0070 -0.0161  0.1811
  837MPD2    H512364   3.084   2.889  10.319 -2.0998 -0.7566  0.2541
  837MPD2    N112365   2.946   2.424  10.286 -0.6233  0.1451  0.0767
  837MPD2    H712366   2.921   2.469  10.199  0.6912 -2.5150 -1.6858
  838MPD2     C12367   1.509   0.636  12.081  0.4029 -0.1790  0.1429
  838MPD2    C112368   1.394   0.650  11.997 -0.2493  0.8794 -0.1714
  838MPD2    C212369   1.279   0.581  12.029  0.3198 -0.4168 -0.3754
  838MPD2    C312370   1.270   0.517  12.149 -0.5693 -0.2074 -0.1021
  838MPD2    C412371   1.377   0.505  12.235 -0.1818 -0.4977 -0.0182
  838MPD2    C512372   1.492   0.572  12.200  0.0152 -0.5620 -1.3799
  838MPD2     H12373   1.200   0.602  11.958 -2.1362 -0.1871  2.4145
  838MPD2    H112374   1.376   0.459  12.333 -0.1540 -2.0709 -0.7551
  838MPD2    H212375   1.605   0.682  12.059 -0.5605  0.8596 -1.8277
  838MPD2    H312376   1.576   0.570  12.269  1.9695 -0.0271 -3.7328
  838MPD2     N12377   1.153   0.455  12.189 -0.3345  0.1883  0.7141
  838MPD2    H512378   1.163   0.399  12.273  2.6400 -1.5568 -0.8043
  838MPD2    N112379   1.389   0.716  11.873  0.7128 -0.8905  0.0826
  838MPD2    H712380   1.311   0.688  11.815 -1.1097  0.1189  2.0219
  839MPD2     C12381   1.121   0.016  11.963  0.7475  0.3588  0.2741
  839MPD2    C112382   1.095   0.038  11.829 -0.3119 -0.4473  0.4551
  839MPD2    C212383   1.146   0.154  11.765 -0.3893 -0.1297  0.1150
  839MPD2    C312384   1.225   0.247  11.832 -0.1092 -0.4627 -0.1441
  839MPD2    C412385   1.252   0.216  11.967 -0.5077  0.4972 -0.5361
  839MPD2    C512386   1.206   0.100  12.030 -1.0684 -0.1457 -0.0867
  839MPD2     H12387   1.115   0.164  11.661  1.5807 -0.3243 -0.4956
  839MPD2    H112388   1.328   0.279  12.012 -1.2806  1.9673 -1.2898
  839MPD2    H212389   1.084   4.665  12.016 -1.0975  1.1816  0.3376
  839MPD2    H312390   1.235   0.073  12.131 -0.4255  0.7354 -0.0342
  839MPD2     N12391   1.302   0.347  11.780 -0.1017 -0.4797  0.1047
  839MPD2    H512392   1.359   0.404  11.842  0.0013  1.0655 -1.4188
  839MPD2    N112393   1.028   4.674  11.758 -0.1131  0.5785 -0.3257
  839MPD2    H712394   1.019   4.690  11.658 -0.0848 -0.0733 -0.4299
  840MPD2     C12395   1.808   2.897  10.171 -0.0717  0.0636 -0.9520
  840MPD2    C112396   1.771   2.892  10.305 -0.1728  0.7795  0.4747
  840MPD2    C212397   1.824   2.979  10.399 -0.0696 -0.2252 -0.4731
  840MPD2    C312398   1.884   3.090  10.350 -0.1045  0.6034 -0.3830
  840MPD2    C412399   1.904   3.111  10.215 -1.2656 -0.4189 -0.7293
  840MPD2    C512400   1.878   3.003  10.130 -0.3080  0.3069  0.1958
  840MPD2     H12401   1.796   2.965  10.502 -0.2950  0.7093 -0.4109
  840MPD2    H112402   1.965   3.183  10.161 -1.5957  0.9405  0.6866
  840MPD2    H212403   1.772   2.825  10.100  1.1203 -0.7680 -0.7184
  840MPD2    H312404   1.893   3.004  10.023  0.8902 -0.9519  0.3560
  840MPD2     N12405   1.944   3.186  10.428 -0.0696 -0.3514 -0.4582
  840MPD2    H512406   1.963   3.274  10.381 -0.5535 -0.7264 -1.3479
  840MPD2    N112407   1.678   2.789  10.340  0.2778  0.2152  0.6256
  840MPD2    H712408   1.639   2.731  10.266  0.3038  0.0718  0.7242
  841MPD2     C12409   1.430   2.818  15.270 -0.4378  0.9351  0.4713
  841MPD2    C112410   1.476   2.718  15.188 -0.4405 -0.0060 -0.4497
  841MPD2    C212411   1.563   2.750  15.084  0.3636  0.1482  0.0533
  841MPD2    C312412   1.592   2.878  15.059 -0.0774 -0.4763 -0.0080
  841MPD2    C412413   1.548   2.973  15.136 -0.2384  0.1922 -0.2553
  841MPD2    C512414   1.466   2.944  15.237  0.2735 -0.2788  0.1469
  841MPD2     H12415   1.602   2.673  15.019 -0.8128  0.0736 -0.5652
  841MPD2    H112416   1.578   3.077  15.126  1.5334 -0.2476  0.6134
  841MPD2    H212417   1.355   2.809  15.347 -1.8580  1.7565 -0.8066
  841MPD2    H312418   1.415   3.026  15.286 -0.4922  0.1844 -1.4245
  841MPD2     N12419   1.685   2.905  14.959  0.6697  0.0155  0.5142
  841MPD2    H512420   1.739   2.822  14.936  1.8479  0.5037  1.5641
  841MPD2    N112421   1.431   2.584  15.205  0.7401  0.3328 -0.0809
  841MPD2    H712422   1.460   2.518  15.134  1.4855 -2.2826  2.6437
  842MPD2     C12423   2.122   3.708  17.227  0.7215 -0.2155  0.1238
  842MPD2    C112424   2.040   3.615  17.167 -0.6555  0.0702 -0.3139
  842MPD2    C212425   1.945   3.553  17.245  0.0506 -0.3911 -0.2569
  842MPD2    C312426   1.942   3.565  17.385  0.1861  0.0451  0.1678
  842MPD2    C412427   2.027   3.661  17.437 -0.3921  0.3982 -0.0962
  842MPD2    C512428   2.108   3.740  17.362 -0.6448  0.5235 -0.1441
  842MPD2     H12429   1.882   3.478  17.199  1.8639 -3.4799  2.2102
  842MPD2    H112430   2.030   3.684  17.543  2.0511  0.0417 -0.0790
  842MPD2    H212431   2.196   3.769  17.177  0.1956 -0.0117 -0.4076
  842MPD2    H312432   2.181   3.807  17.406 -3.0996  2.5126  0.8625
  842MPD2     N12433   1.840   3.512  17.471  0.3655  0.1602  0.2027
  842MPD2    H512434   1.761   3.464  17.429 -0.8337  3.1171 -0.8594
  842MPD2    N112435   2.053   3.597  17.023  0.2434 -0.2860 -0.4776
  842MPD2    H712436   2.123   3.654  16.978 -1.2242  0.8803 -1.2946
  843MPD2     C12437   3.924   4.168  17.431  0.0422 -0.4588  0.3003
  843MPD2    C112438   4.013   4.081  17.490 -1.3634 -0.0009 -0.8171
  843MPD2    C212439   4.150   4.121  17.493 -0.3018  1.0269 -0.3333
  843MPD2    C312440   4.189   4.241  17.437 -0.2654  0.9802 -0.4144
  843MPD2    C412441   4.101   4.324  17.373  0.0251 -0.0105  0.6001
  843MPD2    C512442   3.965   4.287  17.374  0.1431  0.4333 -0.0874
  843MPD2     H12443   4.229   4.053  17.522 -1.7776 -0.8510 -0.7462
  843MPD2    H112444   4.122   4.419  17.327 -0.3559  0.6161  1.7283
  843MPD2    H212445   3.820   4.142  17.416 -0.3943  1.3637  0.1346
  843MPD2    H312446   3.889   4.351  17.331  0.6682  1.1833  0.1075
  843MPD2     N12447   4.318   4.293  17.434  0.1017  0.0794 -0.3861
  843MPD2    H512448   4.334   4.378  17.381 -2.1580  0.9710  0.3525
  843MPD2    N112449   3.961   3.962  17.534  0.9148 -0.2914  0.3912
  843MPD2    H712450   3.863   3.939  17.520  1.1318 -1.5001  0.8050
  844MPD2     C12451   2.279   2.922  16.876 -0.5294  0.2408 -0.5533
  844MPD2    C112452   2.381   2.868  16.796  0.1082 -0.9217 -0.2998
  844MPD2    C212453   2.510   2.909  16.809  0.1421  0.3838  0.2178
  844MPD2    C312454   2.538   3.015  16.895 -0.7440 -0.0987  0.1376
  844MPD2    C412455   2.443   3.078  16.964  0.3032  0.0967 -0.0050
  844MPD2    C512456   2.312   3.029  16.962 -0.5130  0.8222  0.2391
  844MPD2     H12457   2.586   2.867  16.744 -0.4168  2.6182 -1.8447
  844MPD2    H112458   2.454   3.159  17.035 -0.3891  1.9096 -1.9618
  844MPD2    H212459   2.174   2.899  16.862 -0.2051 -0.0655 -2.4653
  844MPD2    H312460   2.240   3.077  17.026  0.2502  2.1837  0.0767
  844MPD2     N12461   2.675   3.048  16.908 -0.6129  0.3740 -0.0856
  844MPD2    H512462   2.736   2.976  16.872 -2.7142 -0.9339 -1.0507
  844MPD2    N112463   2.354   2.778  16.696 -0.4640  0.4055  0.3368
  844MPD2    H712464   2.422   2.760  16.623 -1.9328  0.7886 -1.1298
  845MPD2     C12465   3.212   3.959  16.919  0.6119 -0.5433 -0.7166
  845MPD2    C112466   3.106   3.941  17.007  0.4531 -0.6485  0.6138
  845MPD2    C212467   3.047   3.818  17.007 -0.7256  0.0920  0.6765
  845MPD2    C312468   3.105   3.715  16.941 -0.2174 -0.0108  0.1757
  845MPD2    C412469   3.217   3.730  16.862  0.1905 -0.5262 -0.3037
  845MPD2    C512470   3.264   3.855  16.849 -0.4811 -0.1456 -0.3664
  845MPD2     H12471   2.951   3.800  17.054 -0.8771  2.0491  1.1055
  845MPD2    H112472   3.275   3.654  16.811  2.2524  0.8011  0.0111
  845MPD2    H212473   3.241   4.062  16.899  2.0265 -0.7450  0.2551
  845MPD2    H312474   3.344   3.875  16.779  0.2309  2.0217  1.0708
  845MPD2     N12475   3.049   3.588  16.953 -0.2067 -0.0978 -0.0650
  845MPD2    H512476   2.960   3.588  17.003  1.4813 -1.2252  2.8964
  845MPD2    N112477   3.049   4.055  17.063  0.3584 -0.2525  0.5261
  845MPD2    H712478   3.104   4.140  17.056  0.6151 -0.2408  2.7996
  846MPD2     C12479   4.373   4.494  14.315  0.4622  0.4278 -0.3942
  846MPD2    C112480   4.251   4.456  14.266  0.2356  0.3029  0.3645
  846MPD2    C212481   4.147   4.436  14.355  0.1182 -1.3378 -0.1200
  846MPD2    C312482   4.158   4.466  14.489 -0.1055 -0.0493 -0.9958
  846MPD2    C412483   4.281   4.507  14.539 -1.0947  0.0869  0.2168
  846MPD2    C512484   4.393   4.521  14.451 -0.2696 -0.2777 -0.3336
  846MPD2     H12485   4.053   4.391  14.323 -0.9711  0.8148  0.0460
  846MPD2    H112486   4.296   4.549  14.638 -0.0486  0.1421  0.0358
  846MPD2    H212487   4.463   4.495  14.256 -0.7618 -2.6522 -2.3222
  846MPD2    H312488   4.488   4.553  14.492 -1.2252  1.2777  0.6728
  846MPD2     N12489   4.063   4.434  14.589 -0.1157  0.3416 -0.3595
  846MPD2    H512490   4.096   4.454  14.683  0.9723 -0.7021 -0.5194
  846MPD2    N112491   4.257   4.433  14.126  0.2236  0.5160  0.4457
  846MPD2    H712492   4.347   4.441  14.079 -0.9914  0.1717 -1.9612
  847MPD2     C12493   4.530   0.191  14.684  0.2523  0.4015 -0.6098
  847MPD2    C112494   4.618   0.248  14.776  0.2600 -0.3391  0.4038
  847MPD2    C212495   4.589   0.237  14.909 -0.6288  0.4713  0.2478
  847MPD2    C312496   4.476   0.162  14.947 -0.2078 -0.1750  0.2028
  847MPD2    C412497   4.391   0.099  14.860  0.0784 -0.1230  0.3804
  847MPD2    C512498   4.420   0.125  14.729  0.3331  0.6050 -0.8676
  847MPD2     H12499   4.656   0.274  14.986 -1.6966 -0.8669  1.8379
  847MPD2    H112500   4.300   0.059  14.904  0.4667 -1.7698 -0.3131
  847MPD2    H212501   4.538   0.197  14.576 -0.6220 -1.5148 -0.7881
  847MPD2    H312502   4.344   0.080  14.665  0.6617 -1.5336  0.2261
  847MPD2     N12503   4.465   0.173  15.086 -0.5689  0.2663  1.0353
  847MPD2    H512504   4.523   0.242  15.132  0.0872 -1.0529  2.1633
  847MPD2    N112505   4.728   0.330  14.745 -0.6066 -0.4352  0.7153
  847MPD2    H712506   0.046   0.364  14.823 -0.2939 -0.1114  0.3545
  848MPD2     C12507   2.298   3.528  16.544  0.3984 -0.6144  0.1338
  848MPD2    C112508   2.372   3.623  16.614  0.0236 -0.9762  0.1027
  848MPD2    C212509   2.393   3.746  16.556  0.9417  0.3701  0.3727
  848MPD2    C312510   2.343   3.779  16.435  0.1391 -0.1326  0.2818
  848MPD2    C412511   2.257   3.681  16.378  0.2261 -0.5399 -0.4072
  848MPD2    C512512   2.238   3.557  16.428 -0.1409 -0.2315 -0.2549
  848MPD2     H12513   2.455   3.816  16.611 -0.9470  1.0897  1.6232
  848MPD2    H112514   2.209   3.707  16.285  0.8381  3.2263  0.3105
  848MPD2    H212515   2.291   3.425  16.575  0.7080 -0.6640  0.0295
  848MPD2    H312516   2.178   3.486  16.373  0.0562 -0.2137 -0.4913
  848MPD2     N12517   2.364   3.902  16.368 -0.2046  0.0124 -0.3071
  848MPD2    H512518   2.301   3.914  16.290 -0.4641  0.8254  0.0215
  848MPD2    N112519   2.425   3.594  16.744  0.0995 -0.1645 -0.1175
  848MPD2    H712520   2.496   3.650  16.791  0.3891 -0.0028 -0.7424
  849MPD2     C12521   1.279   3.280  14.247 -0.7292  0.1779  0.0018
  849MPD2    C112522   1.370   3.378  14.242 -0.8287 -0.0661  0.1530
  849MPD2    C212523   1.426   3.422  14.364  0.8122  0.2820 -0.1594
  849MPD2    C312524   1.405   3.345  14.484  0.2640  0.8343  0.3968
  849MPD2    C412525   1.315   3.246  14.477 -0.0157 -0.7736 -0.2231
  849MPD2    C512526   1.255   3.210  14.358 -0.0593  0.2389  0.1763
  849MPD2     H12527   1.498   3.503  14.370  1.2703 -0.0924 -0.5731
  849MPD2    H112528   1.292   3.190  14.567 -0.4603  0.7017  0.5835
  849MPD2    H212529   1.232   3.251  14.153  0.3588  0.1179 -0.5209
  849MPD2    H312530   1.180   3.132  14.353 -0.2402  0.3992  0.3846
  849MPD2     N12531   1.492   3.349  14.602 -0.6087 -0.0877 -0.7083
  849MPD2    H512532   1.497   3.262  14.655  1.2439  0.5244  0.1130
  849MPD2    N112533   1.412   3.423  14.120 -0.1048 -1.1273  0.2821
  849MPD2    H712534   1.369   3.376  14.041 -0.3495  0.9982 -0.8644
  850MPD2     C12535   0.243   1.097  14.821  0.0524  0.2959 -0.3273
  850MPD2    C112536   0.225   1.188  14.918 -0.4519  0.5391  0.3100
  850MPD2    C212537   0.304   1.303  14.921  0.1514 -0.9551  0.1132
  850MPD2    C312538   0.389   1.336  14.814 -0.3427 -0.6482  0.3658
  850MPD2    C412539   0.411   1.239  14.711  0.7228 -0.0471 -0.5330
  850MPD2    C512540   0.334   1.123  14.722 -0.6645 -0.1953 -0.0212
  850MPD2     H12541   0.280   1.376  14.998 -1.2270 -0.1055 -1.1125
  850MPD2    H112542   0.481   1.250  14.630  1.3707 -0.5707 -0.0495
  850MPD2    H212543   0.178   1.010  14.827 -0.4560  0.6889 -0.1484
  850MPD2    H312544   0.340   1.049  14.643  0.6551 -1.7554  1.5264
  850MPD2     N12545   0.465   1.452  14.813  0.1083  0.2375  0.0519
  850MPD2    H512546   0.522   1.467  14.730  2.3533  0.3718  1.5902
  850MPD2    N112547   0.124   1.160  15.014 -0.3077 -0.3694 -0.3667
  850MPD2    H712548   0.081   1.070  14.999 -1.9720 -0.0036  2.4114
  851MPD2     C12549   4.438   0.738  14.871 -0.5753 -0.2494 -0.4237
  851MPD2    C112550   4.426   0.748  15.007  0.2161  0.4653 -0.5223
  851MPD2    C212551   4.336   0.662  15.070  0.5279  0.8026  0.2018
  851MPD2    C312552   4.276   0.561  14.999  0.2270  0.0653 -0.2544
  851MPD2    C412553   4.296   0.544  14.869  0.3271 -0.1845  0.1730
  851MPD2    C512554   4.377   0.638  14.803 -0.3667 -0.5507 -0.2250
  851MPD2     H12555   4.317   0.661  15.177 -0.4489  0.2689  0.0278
  851MPD2    H112556   4.248   0.477  14.800 -0.0677  0.3223 -0.0464
  851MPD2    H212557   4.507   0.808  14.825 -1.1600 -0.0884 -1.0514
  851MPD2    H312558   4.398   0.622  14.698 -1.7953 -0.0697 -0.5784
  851MPD2     N12559   4.177   0.485  15.061 -0.2559 -0.2814  0.5092
  851MPD2    H512560   4.161   0.491  15.161 -1.8821  3.0287  0.0709
  851MPD2    N112561   4.496   0.850  15.074  0.3938 -0.1305  0.3874
  851MPD2    H712562   4.538   0.927  15.023 -2.1823  1.6213  0.9051
  852MPD2     C12563   3.790   4.689   9.932 -0.1775  0.4947 -0.9152
  852MPD2    C112564   3.825   4.636  10.052 -0.2248  0.7510 -0.1727
  852MPD2    C212565   3.961   4.618  10.070 -0.6106  0.6765  0.1173
  852MPD2    C312566   4.051   4.653   9.973  0.5536 -0.6827  0.5096
  852MPD2    C412567   4.011   4.697   9.849 -0.0075 -0.1189 -0.1075
  852MPD2    C512568   3.877   4.719   9.830  0.1943 -1.1521 -0.6101
  852MPD2     H12569   3.991   4.551  10.150 -0.1676  1.5771  0.7052
  852MPD2    H112570   4.073   4.704   9.761 -0.3118  1.3487 -0.2058
  852MPD2    H212571   3.685   4.693   9.908 -0.7154  1.6772  1.6463
  852MPD2    H312572   3.836   0.028   9.741  1.1613 -1.4854 -1.2254
  852MPD2     N12573   4.186   4.606   9.993 -0.1760  0.3232  0.2955
  852MPD2    H512574   4.206   4.558  10.080 -1.4252 -3.9926 -1.7915
  852MPD2    N112575   3.729   4.572  10.137 -0.2729  0.7331 -0.2601
  852MPD2    H712576   3.759   4.529  10.224  0.7853  1.3988 -0.3067
  853MPD2     C12577   1.554   3.567  12.493  0.1470  0.2482  0.8104
  853MPD2    C112578   1.435   3.637  12.488 -0.2892  0.1194 -0.0172
  853MPD2    C212579   1.350   3.616  12.378 -0.4203  0.3259  0.0933
  853MPD2    C312580   1.376   3.520  12.282  0.2154  0.2440 -0.0624
  853MPD2    C412581   1.487   3.439  12.309 -0.2406  0.9853 -0.6780
  853MPD2    C512582   1.575   3.457  12.415  0.0729  0.3667  0.7736
  853MPD2     H12583   1.259   3.673  12.367 -0.0888  0.7630 -0.4140
  853MPD2    H112584   1.500   3.357  12.240 -0.8460  0.0534  0.3265
  853MPD2    H212585   1.620   3.583  12.578  1.0627  0.8629 -0.0223
  853MPD2    H312586   1.659   3.389  12.426  0.8861  1.6432  2.4359
  853MPD2     N12587   1.288   3.487  12.171 -0.1185 -0.2294 -0.0686
  853MPD2    H512588   1.335   3.434  12.099  1.6464  0.0281  0.8815
  853MPD2    N112589   1.402   3.724  12.595 -0.0675 -0.3682 -0.6232
  853MPD2    H712590   1.474   3.730  12.666 -1.4122  1.9608  0.5494
  854MPD2     C12591   2.312   4.055  12.458 -0.0859 -0.3564 -0.1955
  854MPD2    C112592   2.432   4.069  12.516 -0.3235 -0.3278 -0.2342
  854MPD2    C212593   2.519   3.958  12.535  0.4763  0.7797  0.1147
  854MPD2    C312594   2.493   3.831  12.491  0.3147 -0.2762  0.2118
  854MPD2    C412595   2.371   3.817  12.428 -0.5271 -0.1271 -0.6438
  854MPD2    C512596   2.286   3.930  12.410 -0.3392  0.8771  0.0338
  854MPD2     H12597   2.619   3.980  12.570  0.8175 -1.6443  0.6120
  854MPD2    H112598   2.347   3.716  12.394 -1.1611 -0.9185  2.0916
  854MPD2    H212599   2.239   4.135  12.449  0.4765  0.3678  1.6223
  854MPD2    H312600   2.191   3.919  12.359  0.0702 -0.5708 -0.4268
  854MPD2     N12601   2.563   3.720  12.510  0.0477 -0.1973 -0.6404
  854MPD2    H512602   2.522   3.630  12.487 -1.4772  0.4465 -0.4468
  854MPD2    N112603   2.468   4.202  12.540  0.2242 -0.6014  0.4673
  854MPD2    H712604   2.391   4.266  12.526 -0.3413 -1.2952  0.3979
  855MPD2     C12605   3.540   3.394  12.915 -0.1913 -0.4406 -0.0386
  855MPD2    C112606   3.417   3.396  12.981 -0.8607  0.6191  0.0136
  855MPD2    C212607   3.301   3.408  12.905 -0.2261 -0.4551  0.7767
  855MPD2    C312608   3.304   3.427  12.766 -0.1302  0.2707  0.1643
  855MPD2    C412609   3.425   3.424  12.707 -0.1448 -0.1647  0.0474
  855MPD2    C512610   3.540   3.385  12.777  0.4661  0.0162 -0.7338
  855MPD2     H12611   3.204   3.404  12.954 -0.6052 -1.3487 -0.0568
  855MPD2    H112612   3.442   3.431  12.600  0.2656 -0.9117  0.0667
  855MPD2    H212613   3.640   3.398  12.957 -0.5170 -0.9871  0.7719
  855MPD2    H312614   3.635   3.376  12.727  1.2854  0.6808  0.7136
  855MPD2     N12615   3.187   3.436  12.683  0.2706 -0.4117  0.1265
  855MPD2    H512616   3.204   3.436  12.583  0.4489 -1.4291  0.1581
  855MPD2    N112617   3.402   3.375  13.125 -0.2924 -1.1669  0.4206
  855MPD2    H712618   3.312   3.349  13.165 -0.7539 -0.9503 -0.4540
  856MPD2     C12619   0.970   0.226  14.381 -0.2964 -0.1144 -0.0513
  856MPD2    C112620   0.934   0.345  14.317  0.0516  0.5885  0.6471
  856MPD2    C212621   0.821   0.350  14.232  0.2693  0.3642  0.4834
  856MPD2    C312622   0.757   0.226  14.204 -0.0281  0.3560  0.0461
  856MPD2    C412623   0.790   0.111  14.280  0.1151 -0.3563 -0.6362
  856MPD2    C512624   0.899   0.114  14.358 -0.6405 -0.5526  0.1763
  856MPD2     H12625   0.801   0.446  14.187  1.7389  1.2774  1.7764
  856MPD2    H112626   0.740   0.021  14.247  1.5017 -1.2018 -0.4160
  856MPD2    H212627   1.055   0.218  14.448  0.1259  0.2420 -0.5449
  856MPD2    H312628   0.944   0.021  14.391  3.0175  0.4224 -2.1331
  856MPD2     N12629   0.654   0.220  14.107  0.3682 -0.2944 -0.3273
  856MPD2    H512630   0.615   0.131  14.078 -1.4240  0.5462 -0.5487
  856MPD2    N112631   0.993   0.469  14.335 -0.3027 -0.1531  0.4958
  856MPD2    H712632   0.973   0.539  14.264 -0.2146 -0.6673 -0.0330
  857MPD2     C12633   1.655   2.124  12.681  0.7931  0.3000 -0.2493
  857MPD2    C112634   1.789   2.146  12.721 -0.2772 -0.3410 -0.0176
  857MPD2    C212635   1.833   2.275  12.720  0.1232  0.3045  0.4279
  857MPD2    C312636   1.759   2.376  12.670 -0.0638  0.7183  0.6179
  857MPD2    C412637   1.623   2.358  12.636  0.4775  0.0131 -0.5195
  857MPD2    C512638   1.574   2.230  12.638  0.4786 -0.5864 -0.1847
  857MPD2     H12639   1.933   2.298  12.755  0.3101  0.3011 -0.1033
  857MPD2    H112640   1.552   2.438  12.620  1.5341  1.0630  0.0827
  857MPD2    H212641   1.618   2.022  12.675  3.3535 -0.5780 -1.2073
  857MPD2    H312642   1.475   2.194  12.613  0.6952 -3.1188  2.4744
  857MPD2     N12643   1.821   2.502  12.678  0.1604  0.2882  0.3531
  857MPD2    H512644   1.921   2.501  12.695  0.2852 -1.0768 -0.4590
  857MPD2    N112645   1.872   2.048  12.757  0.3293 -0.1630 -0.0635
  857MPD2    H712646   1.840   1.957  12.787  0.2327 -0.3530 -0.7506
  858MPD2     C12647   3.289   0.576  16.986 -0.9044 -0.2335 -0.2841
  858MPD2    C112648   3.197   0.677  16.959 -0.1438 -0.2276 -0.2035
  858MPD2    C212649   3.118   0.730  17.061 -0.6462  0.4800  0.9667
  858MPD2    C312650   3.128   0.688  17.193  0.1245 -0.9063 -0.1253
  858MPD2    C412651   3.212   0.584  17.218  0.2077  0.2077 -0.6162
  858MPD2    C512652   3.289   0.534  17.117  0.4402  0.3399 -0.0204
  858MPD2     H12653   3.040   0.801  17.034  2.7638  3.8641  0.0352
  858MPD2    H112654   3.213   0.536  17.315  0.1058  1.3734 -0.0450
  858MPD2    H212655   3.354   0.528  16.913 -0.0821  1.8692 -0.9413
  858MPD2    H312656   3.349   0.446  17.135 -1.1183 -0.6504  0.2956
  858MPD2     N12657   3.053   0.749  17.297  0.1497 -0.4990 -0.0509
  858MPD2    H512658   3.055   0.697  17.384 -0.3069 -1.2876 -0.5142
  858MPD2    N112659   3.176   0.724  16.826 -0.0220  0.0746  0.1307
  858MPD2    H712660   3.113   0.802  16.811  0.5023  0.4101 -0.3359
  859MPD2     C12661   1.559   3.241  15.614  0.1334 -1.1192 -0.2038
  859MPD2    C112662   1.599   3.201  15.495 -0.2563 -0.1433  0.6387
  859MPD2    C212663   1.634   3.066  15.478 -0.1561 -0.5935  0.2584
  859MPD2    C312664   1.621   2.979  15.591 -1.2748  0.2345  0.0582
  859MPD2    C412665   1.556   3.023  15.710 -0.3796 -0.5449 -0.3738
  859MPD2    C512666   1.540   3.162  15.719 -0.3319  0.3767 -0.2424
  859MPD2     H12667   1.689   3.034  15.390  1.6141 -0.8150  1.4298
  859MPD2    H112668   1.525   2.960  15.792  1.6319  0.0676  0.8658
  859MPD2    H212669   1.544   3.345  15.638  2.8816 -0.4197 -1.5256
  859MPD2    H312670   1.491   3.205  15.806 -1.7149 -3.0441  0.6752
  859MPD2     N12671   1.663   2.846  15.579 -0.1549  0.0645 -0.2118
  859MPD2    H512672   1.700   2.814  15.490 -2.1681  0.7288 -1.2876
  859MPD2    N112673   1.632   3.305  15.403  0.1048 -0.1925  0.3275
  859MPD2    H712674   1.608   3.397  15.438 -0.1216 -0.6408  1.3440
  860MPD2     C12675   4.409   3.810  11.682 -0.3667  0.4613  0.4347
  860MPD2    C112676   4.383   3.837  11.813  0.2300  0.2308 -0.3732
  860MPD2    C212677   4.251   3.856  11.851 -0.4355 -0.5477  0.0565
  860MPD2    C312678   4.149   3.847  11.759 -0.7664 -0.1413  0.3909
  860MPD2    C412679   4.169   3.831  11.621 -0.1395  0.3114  0.0607
  860MPD2    C512680   4.306   3.812  11.593  0.2402 -0.5236  0.8244
  860MPD2     H12681   4.225   3.885  11.952  1.7032 -0.4888  0.5873
  860MPD2    H112682   4.096   3.816  11.542  0.5345 -0.1242 -0.4843
  860MPD2    H212683   4.512   3.798  11.649 -0.2493  2.2791  0.1716
  860MPD2    H312684   4.323   3.805  11.486 -0.4732  1.4063  0.5825
  860MPD2     N12685   4.024   3.861  11.820  0.0649  0.8173  0.3351
  860MPD2    H512686   4.012   3.871  11.921  1.2789 -1.1682  0.6837
  860MPD2    N112687   4.480   3.837  11.917 -0.3612  0.1407 -0.1634
  860MPD2    H712688   4.453   3.844  12.014  0.4660  0.6799  0.0299
  861MPD2     C12689   2.647   1.772  10.997 -0.5592 -0.2110  0.0951
  861MPD2    C112690   2.622   1.886  11.073  0.2585  0.1377 -0.0926
  861MPD2    C212691   2.551   1.989  11.006  0.1927 -0.4641  0.0185
  861MPD2    C312692   2.508   1.986  10.875 -0.2334 -0.3683  0.0766
  861MPD2    C412693   2.535   1.875  10.805 -0.7333 -0.3899 -0.0287
  861MPD2    C512694   2.596   1.766  10.872  0.1464 -0.3651  0.1229
  861MPD2     H12695   2.532   2.073  11.072 -0.9488 -1.8942  1.5026
  861MPD2    H112696   2.501   1.859  10.704  1.5542 -0.7394 -0.7515
  861MPD2    H212697   2.707   1.689  11.033  1.5833  1.0260 -0.5868
  861MPD2    H312698   2.611   1.678  10.811 -2.8411 -0.4493 -0.4924
  861MPD2     N12699   2.432   2.089  10.817  0.5464  0.4487 -0.0738
  861MPD2    H512700   2.383   2.068  10.730 -1.2821 -0.2848  1.1346
  861MPD2    N112701   2.645   1.900  11.209 -0.3256  0.1044 -0.1588
  861MPD2    H712702   2.617   1.988  11.251 -0.2543  0.5659 -1.0642
  862MPD2     C12703   1.761   2.049  10.564 -0.2735 -0.2397 -0.1629
  862MPD2    C112704   1.891   2.012  10.592 -0.1895  0.7894  0.2167
  862MPD2    C212705   1.912   1.881  10.601 -0.1071 -0.0262  0.1204
  862MPD2    C312706   1.812   1.782  10.578 -0.0581 -0.3680 -0.1616
  862MPD2    C412707   1.689   1.822  10.550 -0.7472  0.1705  0.5823
  862MPD2    C512708   1.663   1.953  10.540  0.2639  0.4707 -0.2392
  862MPD2     H12709   2.017   1.858  10.617 -0.3996 -1.6451 -0.2786
  862MPD2    H112710   1.616   1.750  10.514 -0.8351  0.5386  0.0352
  862MPD2    H212711   1.734   2.154  10.561  1.8975  0.3545  1.0820
  862MPD2    H312712   1.566   1.996  10.517 -0.1387  0.0850  0.7359
  862MPD2     N12713   1.832   1.643  10.589  0.3929 -0.0895  0.5342
  862MPD2    H512714   1.746   1.590  10.596 -0.2528  0.8525 -0.2467
  862MPD2    N112715   1.997   2.097  10.623  0.0152  0.0108  0.0141
  862MPD2    H712716   2.087   2.054  10.642 -0.4121 -0.2742  1.4171
  863MPD2     C12717   1.223   4.410  17.144 -0.0301  1.0309 -0.6125
  863MPD2    C112718   1.269   4.534  17.175  0.0982  0.4144  0.4089
  863MPD2    C212719   1.346   4.541  17.291  0.0668  0.2320  0.6608
  863MPD2    C312720   1.364   4.431  17.380  0.0597 -0.7146 -0.4497
  863MPD2    C412721   1.312   4.312  17.341 -0.3468  0.4935  0.0471
  863MPD2    C512722   1.239   4.303  17.225  0.4697  0.8956  0.1640
  863MPD2     H12723   1.396   4.637  17.301 -2.6975  1.8644 -1.0182
  863MPD2    H112724   1.317   4.220  17.399  1.3436 -0.3820 -1.4903
  863MPD2    H212725   1.157   4.393  17.060 -0.2498  0.4299 -0.3194
  863MPD2    H312726   1.186   4.210  17.208 -0.1666  1.5662 -1.4569
  863MPD2     N12727   1.445   4.435  17.496 -0.4832  0.1093  0.1912
  863MPD2    H512728   1.473   4.345  17.534 -3.9942 -0.3197  1.7933
  863MPD2    N112729   1.236   4.651  17.104  0.2942 -0.1515 -0.0103
  863MPD2    H712730   1.171   4.629  17.030  1.9820  0.5708 -1.6809
  864MPD2     C12731   2.023   1.027  17.405 -0.2696  0.6793 -0.3506
  864MPD2    C112732   1.957   1.056  17.293 -0.2077  0.1247  0.1320
  864MPD2    C212733   1.948   1.189  17.245 -0.1633  0.3561  1.0585
  864MPD2    C312734   2.027   1.281  17.303  0.0585 -0.1089  0.1098
  864MPD2    C412735   2.114   1.248  17.406  0.1720  0.5016  0.0856
  864MPD2    C512736   2.103   1.121  17.461  0.0776 -0.8554  0.3705
  864MPD2     H12737   1.873   1.217  17.172 -2.3262 -0.3144  3.0351
  864MPD2    H112738   2.175   1.324  17.454 -0.8495  2.3466 -1.5096
  864MPD2    H212739   2.029   0.931  17.454  0.3808 -0.1063 -1.9894
  864MPD2    H312740   2.154   1.096  17.554  2.1555  0.0398 -0.5313
  864MPD2     N12741   2.036   1.415  17.258  0.1289 -0.2065  0.3228
  864MPD2    H512742   2.100   1.474  17.310  0.0475 -1.1922  1.5564
  864MPD2    N112743   1.898   0.948  17.222  0.0086 -0.3265 -0.8003
  864MPD2    H712744   1.916   0.856  17.261  0.2746 -0.8283 -2.0921
  865MPD2     C12745   1.982   1.941  16.364  0.0884  0.4793  0.1729
  865MPD2    C112746   1.994   1.818  16.417 -0.3248 -0.5332 -0.3177
  865MPD2    C212747   1.976   1.801  16.555  0.5155  0.0619 -0.3714
  865MPD2    C312748   1.957   1.905  16.644 -0.4191 -0.2622 -0.2695
  865MPD2    C412749   1.947   2.029  16.585 -0.2967 -0.0826 -0.5829
  865MPD2    C512750   1.945   2.047  16.448 -0.2224 -0.2139  0.7195
  865MPD2     H12751   2.001   1.706  16.600 -1.8872  0.0377  0.9368
  865MPD2    H112752   1.925   2.114  16.650  1.1705  1.8345 -2.6063
  865MPD2    H212753   1.993   1.962  16.258 -0.7131 -1.2172 -0.2481
  865MPD2    H312754   1.917   2.146  16.413 -1.9605 -1.1311 -0.4499
  865MPD2     N12755   1.959   1.893  16.787  0.7002 -0.3640 -0.1941
  865MPD2    H512756   1.984   1.974  16.843 -0.6372 -0.5732  0.7100
  865MPD2    N112757   2.028   1.712  16.325 -0.0436  0.4900 -0.4072
  865MPD2    H712758   2.048   1.737  16.229 -1.2454 -0.9589 -1.0518
  866MPD2     C12759   3.168   2.161  11.747 -0.7939  0.1256  0.2651
  866MPD2    C112760   3.185   2.179  11.607 -0.5419  0.0783 -0.0120
  866MPD2    C212761   3.072   2.228  11.533 -0.1129  0.6766  0.2029
  866MPD2    C312762   2.952   2.260  11.597 -0.7584  0.4031 -0.3978
  866MPD2    C412763   2.937   2.224  11.730 -0.1163  0.1706  0.1103
  866MPD2    C512764   3.049   2.185  11.811  0.2031  0.7330  0.7574
  866MPD2     H12765   3.080   2.247  11.427  1.4699  0.9104  0.3621
  866MPD2    H112766   2.839   2.244  11.772  0.1023  1.0974  0.1683
  866MPD2    H212767   3.245   2.116  11.809  0.7339  1.5971 -0.5778
  866MPD2    H312768   3.032   2.166  11.916 -1.6979 -0.0309  0.3025
  866MPD2     N12769   2.840   2.311  11.531  0.1091 -0.5051 -0.0240
  866MPD2    H512770   2.759   2.320  11.591  0.5602  0.5996  0.4236
  866MPD2    N112771   3.304   2.133  11.557  0.4222 -0.0180  0.0552
  866MPD2    H712772   3.371   2.105  11.627  1.2510  2.9890  0.4625
  867MPD2     C12773   1.563   1.354  17.226 -1.2586  0.2286 -0.1588
  867MPD2    C112774   1.569   1.276  17.333  0.1588  0.9491 -0.6925
  867MPD2    C212775   1.591   1.336  17.458  0.7200  0.3824 -0.2138
  867MPD2    C312776   1.624   1.473  17.469  0.0278 -0.1852 -0.7248
  867MPD2    C412777   1.636   1.549  17.352  0.4396  0.5633 -0.1369
  867MPD2    C512778   1.595   1.487  17.238  0.7647  0.2812 -0.1955
  867MPD2     H12779   1.567   1.273  17.542 -1.2011  0.4887 -0.6898
  867MPD2    H112780   1.663   1.654  17.348  0.8172  0.5837  2.8741
  867MPD2    H212781   1.555   1.316  17.125 -1.9130  1.6294 -0.6356
  867MPD2    H312782   1.600   1.541  17.144 -1.0333  0.2819 -0.2880
  867MPD2     N12783   1.652   1.529  17.595 -0.0754 -0.3232  0.1179
  867MPD2    H512784   1.688   1.624  17.592  1.5982 -0.9662  0.3384
  867MPD2    N112785   1.555   1.138  17.309 -0.7578 -0.1143 -0.1444
  867MPD2    H712786   1.517   1.111  17.219  1.0847 -1.2612 -0.5591
  868MPD2     C12787   2.032   0.693  13.209 -0.0748  0.0805 -0.5411
  868MPD2    C112788   2.110   0.655  13.311 -0.0546 -0.6125 -0.5090
  868MPD2    C212789   2.048   0.593  13.420 -0.4823 -0.0789 -0.6481
  868MPD2    C312790   1.909   0.604  13.438  0.0987 -0.2542 -0.6794
  868MPD2    C412791   1.831   0.639  13.335  0.4429 -0.5145 -0.4496
  868MPD2    C512792   1.891   0.678  13.220  0.0429 -0.0979  0.4607
  868MPD2     H12793   2.096   0.562  13.512 -2.3257 -1.8123 -0.2756
  868MPD2    H112794   1.724   0.642  13.347  0.8381  1.2909  2.6391
  868MPD2    H212795   2.077   0.729  13.117 -0.8380  1.9123 -0.2075
  868MPD2    H312796   1.830   0.716  13.139  1.3297  1.5272  0.2487
  868MPD2     N12797   1.862   0.574  13.566 -0.6463 -0.2536 -0.4749
  868MPD2    H512798   1.936   0.553  13.632 -1.3220 -3.0849 -0.6447
  868MPD2    N112799   2.251   0.666  13.304  0.3721 -0.1128  0.0768
  868MPD2    H712800   2.282   0.699  13.213  0.7240 -1.1890 -0.1987
  869MPD2     C12801   3.958   2.545   1.310  0.6017  0.5069  1.2639
  869MPD2    C112802   3.896   2.659   1.357  0.2966  0.5932  0.3251
  869MPD2    C212803   3.837   2.748   1.270 -0.0202  0.0493  0.7873
  869MPD2    C312804   3.863   2.735   1.135 -0.5262  0.1056 -0.1571
  869MPD2    C412805   3.931   2.625   1.090  0.6898  0.4784 -0.8260
  869MPD2    C512806   3.971   2.526   1.179  0.1808  0.5490 -0.0140
  869MPD2     H12807   3.803   2.844   1.308 -1.1132 -0.1990  0.4567
  869MPD2    H112808   3.949   2.608   0.984  0.3598  1.3066 -1.0177
  869MPD2    H212809   3.994   2.472   1.382  0.5183 -2.2081 -1.4458
  869MPD2    H312810   4.026   2.438   1.148  0.4723  0.5092  0.6287
  869MPD2     N12811   3.832   2.853   1.058  0.0954 -0.4025 -0.4908
  869MPD2    H512812   3.774   2.925   1.099 -0.8734 -2.7922  2.3163
  869MPD2    N112813   3.896   2.672   1.500  0.1610 -0.0949  0.1612
  869MPD2    H712814   3.949   2.605   1.555  0.5657  1.1580  1.2975
  870MPD2     C12815   4.083   1.799   0.734  0.6058  0.1980  0.1847
  870MPD2    C112816   3.960   1.826   0.784 -0.0919  0.2767 -0.6297
  870MPD2    C212817   3.887   1.927   0.724  0.3301  0.8316 -0.2963
  870MPD2    C312818   3.944   1.997   0.616  0.1926 -0.3501 -0.3875
  870MPD2    C412819   4.061   1.958   0.557  0.5128 -0.1690 -0.4083
  870MPD2    C512820   4.133   1.867   0.623 -0.0807 -0.1433  0.0409
  870MPD2     H12821   3.789   1.960   0.757  0.3433 -0.3501  0.9388
  870MPD2    H112822   4.106   2.014   0.475  0.5008  0.5864  0.0944
  870MPD2    H212823   4.154   1.738   0.788 -0.2550 -0.1417  0.9346
  870MPD2    H312824   4.237   1.845   0.602  0.2684  1.0047  0.6004
  870MPD2     N12825   3.864   2.104   0.571  0.3776  0.1316  0.7982
  870MPD2    H512826   3.787   2.139   0.627 -0.7449  0.2877 -0.8337
  870MPD2    N112827   3.914   1.751   0.897 -0.8535 -0.1974 -0.4099
  870MPD2    H712828   3.987   1.718   0.960 -1.2507 -2.0190 -0.9121
  871MPD2     C12829   4.624   1.356  16.168  0.1722  0.2375 -0.0077
  871MPD2    C112830   4.591   1.295  16.289  0.2275 -0.6229 -0.4764
  871MPD2    C212831   4.625   1.166  16.314  0.3798 -0.5918 -0.5092
  871MPD2    C312832   4.681   1.096  16.211 -0.8169  0.0661  0.3026
  871MPD2    C412833   4.700   1.144  16.084 -0.3587 -0.4619  0.4220
  871MPD2    C512834   4.687   1.283  16.068  0.2955  0.0517 -0.3380
  871MPD2     H12835   4.589   1.125  16.408  0.8642  1.4975  0.5776
  871MPD2    H112836   4.720   1.078  16.000 -1.1860 -0.2899  0.0840
  871MPD2    H212837   4.606   1.462  16.149  0.6955  0.0320 -1.6575
  871MPD2    H312838   4.695   1.333  15.972 -0.3918 -2.4493 -1.7225
  871MPD2     N12839   4.692   0.957  16.234  0.1776  0.2927  0.0669
  871MPD2    H512840   4.652   0.916  16.318 -0.1012 -1.6614 -1.0385
  871MPD2    N112841   4.536   1.376  16.391 -0.6259 -0.2670 -0.4378
  871MPD2    H712842   4.484   1.458  16.360  2.2458  1.3571 -0.9963
  872MPD2     C12843   0.593   4.008  14.467  0.0867 -0.7612 -0.3819
  872MPD2    C112844   0.558   4.087  14.356  0.3756 -0.1144  0.0080
  872MPD2    C212845   0.434   4.146  14.359  0.1986 -0.0072  0.5573
  872MPD2    C312846   0.340   4.138  14.468  0.3258  0.2087 -0.9811
  872MPD2    C412847   0.378   4.060  14.577 -1.2280 -0.2641  0.1779
  872MPD2    C512848   0.496   3.991  14.565 -0.2342  0.5289 -0.2261
  872MPD2     H12849   0.413   4.206  14.272 -0.5355 -1.9242 -0.5856
  872MPD2    H112850   0.315   4.038  14.663  1.8993 -2.1895  2.0098
  872MPD2    H212851   0.689   3.957  14.472 -0.9635 -2.8080 -1.3468
  872MPD2    H312852   0.524   3.930  14.649 -1.4796 -0.4966 -0.5629
  872MPD2     N12853   0.206   4.184  14.458  0.5708  0.4196  0.7548
  872MPD2    H512854   0.142   4.160  14.533  1.9263  0.8505  2.0389
  872MPD2    N112855   0.636   4.094  14.239  0.1223  0.0526  0.3316
  872MPD2    H712856   0.597   4.126  14.151 -4.2019 -2.4902  1.3037
  873MPD2     C12857   1.816   3.329   1.081  0.5829  0.1950 -0.0830
  873MPD2    C112858   1.941   3.348   1.133 -0.5076 -0.3868 -0.2288
  873MPD2    C212859   2.050   3.283   1.071 -0.0384  0.2273 -0.1688
  873MPD2    C312860   2.025   3.217   0.951  0.3916 -0.0904  0.1705
  873MPD2    C412861   1.903   3.199   0.898 -0.0073  0.1376 -0.1204
  873MPD2    C512862   1.803   3.270   0.961 -0.1143 -0.6518  0.2113
  873MPD2     H12863   2.154   3.289   1.103 -0.7771  3.9879  1.4491
  873MPD2    H112864   1.875   3.125   0.823  1.6108 -1.1384  0.5355
  873MPD2    H212865   1.732   3.379   1.127  0.7516  1.2436 -0.9267
  873MPD2    H312866   1.705   3.258   0.916 -0.6020  0.6759  0.9378
  873MPD2     N12867   2.140   3.151   0.896 -0.3072  0.0243 -0.6443
  873MPD2    H512868   2.231   3.185   0.926  0.3371 -1.2795 -1.0893
  873MPD2    N112869   1.956   3.428   1.250 -0.1416  0.2805 -0.4207
  873MPD2    H712870   1.869   3.461   1.290 -0.5505  1.2596 -2.1303
  874MPD2     C12871   1.828   3.863  16.217  0.8316  0.0317  0.2663
  874MPD2    C112872   1.899   3.876  16.332 -1.2027  0.8709  0.3696
  874MPD2    C212873   1.984   3.990  16.348  0.8639 -0.4256 -0.2053
  874MPD2    C312874   2.002   4.081  16.245 -0.2030 -0.6821 -0.0361
  874MPD2    C412875   1.923   4.069  16.131 -0.7117 -0.0152  0.0460
  874MPD2    C512876   1.842   3.959  16.116  0.1792 -0.2294  0.0728
  874MPD2     H12877   2.046   4.001  16.436  0.0141 -0.3993  0.3953
  874MPD2    H112878   1.916   4.144  16.054 -0.5430 -0.3688 -0.3155
  874MPD2    H212879   1.760   3.783  16.191  0.4351  0.4275  0.0929
  874MPD2    H312880   1.773   3.954  16.032  1.4844  2.0553 -1.1210
  874MPD2     N12881   2.100   4.178  16.263  0.2554  0.8373 -0.3021
  874MPD2    H512882   2.157   4.158  16.345 -0.7161  0.1678  0.2156
  874MPD2    N112883   1.903   3.771  16.431 -0.4857  0.2419  0.2536
  874MPD2    H712884   1.860   3.683  16.404 -1.4589  1.2145 -1.3415
  875MPD2     C12885   3.258   2.438  14.455  0.0709 -0.4663 -0.1926
  875MPD2    C112886   3.144   2.439  14.535  0.0718 -0.3848 -0.8108
  875MPD2    C212887   3.155   2.487  14.662 -0.1836  0.5085  0.2290
  875MPD2    C312888   3.275   2.532  14.713 -0.1639  0.2785 -0.1345
  875MPD2    C412889   3.382   2.536  14.631 -0.0781 -0.8572 -0.3783
  875MPD2    C512890   3.376   2.483  14.503  0.7055 -0.3620 -0.0403
  875MPD2     H12891   3.067   2.481  14.725 -1.8719 -0.0369 -2.1948
  875MPD2    H112892   3.480   2.556  14.672 -0.9558  0.1951  1.1970
  875MPD2    H212893   3.252   2.411  14.350 -0.9339  0.6335 -0.4179
  875MPD2    H312894   3.459   2.495  14.435 -0.7705  4.3298 -0.9535
  875MPD2     N12895   3.280   2.579  14.845  0.6101  0.5560 -0.8658
  875MPD2    H512896   3.364   2.624  14.880  0.7341  1.0854 -1.8580
  875MPD2    N112897   3.015   2.399  14.484 -0.0777  0.2137 -0.9340
  875MPD2    H712898   2.932   2.432  14.533  1.8167  1.6463  1.3240
  876MPD2     C12899   1.475   3.528  15.983  0.1051 -0.0566 -0.3737
  876MPD2    C112900   1.605   3.527  15.941  0.2872  0.2613 -0.3566
  876MPD2    C212901   1.684   3.414  15.965 -0.0169  0.1594  0.3880
  876MPD2    C312902   1.632   3.294  16.016 -0.3704 -0.3215  0.0418
  876MPD2    C412903   1.495   3.294  16.050 -0.7034 -0.8369 -0.4938
  876MPD2    C512904   1.418   3.408  16.031  0.0784 -0.4746 -0.5445
  876MPD2     H12905   1.789   3.414  15.938 -0.4062  0.8932 -1.1275
  876MPD2    H112906   1.446   3.208  16.094 -2.1791 -0.6434 -1.7456
  876MPD2    H212907   1.415   3.618  15.973  2.2128  1.5838  1.6483
  876MPD2    H312908   1.311   3.404  16.052 -0.4194  2.8734 -2.3654
  876MPD2     N12909   1.724   3.188  16.024  0.1178  0.0316 -0.5483
  876MPD2    H512910   1.819   3.213  16.000  0.5121 -1.6038 -0.6847
  876MPD2    N112911   1.646   3.648  15.881  0.2197 -0.1247  0.4027
  876MPD2    H712912   1.579   3.718  15.851  1.6197  0.8111 -0.5068
  877MPD2     C12913   1.612   4.028  15.193 -0.2662 -0.3691  0.7717
  877MPD2    C112914   1.737   4.062  15.248 -0.0676 -0.5061 -0.5317
  877MPD2    C212915   1.822   4.137  15.171  0.5118 -0.1919  0.0302
  877MPD2    C312916   1.790   4.168  15.037 -0.6495  0.6275 -0.2618
  877MPD2    C412917   1.674   4.133  14.988  0.4810 -0.5040 -0.2620
  877MPD2    C512918   1.580   4.073  15.065  0.4360  0.0233  0.0745
  877MPD2     H12919   1.916   4.163  15.219  1.0479 -1.1412 -0.4986
  877MPD2    H112920   1.653   4.167  14.887 -1.5690  0.7643  0.5702
  877MPD2    H212921   1.542   3.957  15.236 -0.0730 -1.7677 -1.2244
  877MPD2    H312922   1.485   4.061  15.014  0.2704  0.1427  0.3551
  877MPD2     N12923   1.884   4.212  14.941 -0.7036 -0.1369 -0.0176
  877MPD2    H512924   1.864   4.199  14.842  0.6950  0.5109 -0.3887
  877MPD2    N112925   1.773   4.020  15.384 -0.2379 -0.6974 -0.1894
  877MPD2    H712926   1.861   4.052  15.421 -1.0127 -0.1753  1.1895
  878MPD2     C12927   1.380   3.071  13.198 -0.7618 -0.2547  0.2018
  878MPD2    C112928   1.514   3.115  13.193 -0.4819 -1.1903 -0.4619
  878MPD2    C212929   1.570   3.171  13.311 -0.8649  0.4546 -0.5633
  878MPD2    C312930   1.496   3.188  13.425  0.2752  0.6091 -0.2755
  878MPD2    C412931   1.366   3.136  13.428 -0.7220  0.2125  0.2210
  878MPD2    C512932   1.310   3.076  13.317 -0.0276  0.1384 -0.4383
  878MPD2     H12933   1.663   3.226  13.307  0.8981 -2.6691 -1.5918
  878MPD2    H112934   1.310   3.125  13.520 -0.9435 -1.6375 -0.1315
  878MPD2    H212935   1.339   3.018  13.112  1.2077 -1.6150  0.0954
  878MPD2    H312936   1.207   3.042  13.318 -0.3332  1.1512  3.6610
  878MPD2     N12937   1.546   3.275  13.527 -0.2111 -0.3859 -0.4520
  878MPD2    H512938   1.642   3.304  13.519 -1.0620  2.4085 -0.3490
  878MPD2    N112939   1.576   3.106  13.072  0.7382 -0.0893  0.8782
  878MPD2    H712940   1.512   3.072  13.000  0.9869  1.5234 -0.0898
  879MPD2     C12941   1.673   4.388  17.257 -0.6627  0.7117  0.5536
  879MPD2    C112942   1.726   4.269  17.308 -0.6584 -0.1965 -0.1317
  879MPD2    C212943   1.723   4.153  17.233  0.2943 -0.2409  0.1743
  879MPD2    C312944   1.674   4.167  17.101 -0.2219  0.8582  0.8479
  879MPD2    C412945   1.605   4.275  17.065 -0.2465  0.1544  0.4428
  879MPD2    C512946   1.611   4.390  17.136 -1.0033  0.1736 -0.5626
  879MPD2     H12947   1.769   4.059  17.263  2.2902 -0.5958 -3.9855
  879MPD2    H112948   1.547   4.275  16.973  1.7075 -3.2253 -0.7944
  879MPD2    H212949   1.679   4.481  17.312  0.5626  2.0126 -1.7675
  879MPD2    H312950   1.560   4.484  17.118  0.3783  0.8284 -1.0761
  879MPD2     N12951   1.684   4.070  17.000 -0.6017  0.6415 -0.2717
  879MPD2    H512952   1.655   4.103  16.909 -3.5684  0.4091  0.5818
  879MPD2    N112953   1.795   4.274  17.433 -0.4295  0.1297  0.0478
  879MPD2    H712954   1.798   4.366  17.476 -1.3017  0.4578 -0.6077
  880MPD2     C12955   3.350   1.220   0.264 -0.2459  0.0288  0.3074
  880MPD2    C112956   3.425   1.281   0.166 -0.0527  0.4206  0.0940
  880MPD2    C212957   3.526   1.206   0.116 -0.3830  0.1954 -0.3284
  880MPD2    C312958   3.558   1.080   0.155 -0.9485  0.3329  0.5392
  880MPD2    C412959   3.474   1.018   0.245  0.0939 -0.3445  0.1917
  880MPD2    C512960   3.378   1.094   0.312 -0.3553  0.0033  0.2635
  880MPD2     H12961   3.577   1.256   0.034  0.3206 -1.0865 -0.6735
  880MPD2    H112962   3.491   0.919   0.285 -0.5775  0.2825  2.0343
  880MPD2    H212963   3.275   1.277   0.316 -1.6845 -1.3392 -0.2695
  880MPD2    H312964   3.321   1.052   0.394  0.5263 -0.6007  0.5754
  880MPD2     N12965   3.671   1.020   0.095 -0.0616 -0.0488  0.1172
  880MPD2    H512966   3.723   1.072   0.026  2.3726 -1.8005  0.6479
  880MPD2    N112967   3.381   1.411   0.123  1.0002 -0.1551  0.2915
  880MPD2    H712968   3.296   1.441   0.170  1.5102 -1.1402  1.8515
  881MPD2     C12969   3.566   2.356  17.407  0.0772  0.7252  0.0276
  881MPD2    C112970   3.545   2.246  17.323 -0.1489 -0.2254  0.3036
  881MPD2    C212971   3.506   2.134  17.391  0.6193  0.1344  0.1225
  881MPD2    C312972   3.449   2.132  17.515 -0.1144  0.1974 -0.0235
  881MPD2    C412973   3.434   2.253  17.585 -0.4697 -0.8480  0.3171
  881MPD2    C512974   3.497   2.364  17.526  0.2999 -0.3353  0.0717
  881MPD2     H12975   3.517   2.036  17.346  2.7326  1.1893 -1.6698
  881MPD2    H112976   3.431   2.254  17.693 -1.5672 -0.6423  0.2841
  881MPD2    H212977   3.620   2.444  17.374 -0.8006  1.6281  0.9846
  881MPD2    H312978   3.505   2.449  17.592  0.3724 -0.7143  0.5518
  881MPD2     N12979   3.402   2.021  17.585  0.0055  0.4113  0.7044
  881MPD2    H512980   3.368   2.030  17.680 -1.2466 -0.1501  0.3190
  881MPD2    N112981   3.610   2.246  17.196  1.0278 -0.1060 -0.1800
  881MPD2    H712982   3.675   2.320  17.172  2.0414 -0.5795  1.1504
  882MPD2     C12983   2.033   3.761  14.468 -0.0271 -0.9855  0.0570
  882MPD2    C112984   1.984   3.887  14.468 -0.5376 -0.0058  1.0516
  882MPD2    C212985   1.867   3.917  14.402 -0.2928 -0.2718 -0.5144
  882MPD2    C312986   1.804   3.821  14.330  0.4431 -0.3039  0.4966
  882MPD2    C412987   1.860   3.693  14.325  0.1401 -0.2221  0.2246
  882MPD2    C512988   1.971   3.658  14.399 -0.0386 -0.1742  0.7037
  882MPD2     H12989   1.827   4.016  14.422  0.1300 -0.2533  0.2505
  882MPD2    H112990   1.809   3.604  14.289 -0.6389  1.4123 -2.6692
  882MPD2    H212991   2.111   3.732  14.538  0.8061  1.3778  0.1181
  882MPD2    H312992   1.998   3.553  14.406  1.7024  0.3537  1.7918
  882MPD2     N12993   1.679   3.845  14.274  0.5474 -0.0952  0.6113
  882MPD2    H512994   1.629   3.759  14.254 -1.4477  0.3809  3.4101
  882MPD2    N112995   2.062   3.985  14.541 -0.0982  0.2655  0.5030
  882MPD2    H712996   2.146   3.950  14.586  0.3929  1.7628  0.7477
  883MPD2     C12997   4.301   3.713  16.828  0.1544 -0.2791 -0.0059
  883MPD2    C112998   4.390   3.777  16.743  0.1927 -0.1231  0.0049
  883MPD2    C212999   4.519   3.806  16.795  0.0335  0.0828 -0.2256
  883MPD2    C313000   4.558   3.774  16.919  0.0775 -0.4310 -0.1197
  883MPD2    C413001   4.467   3.726  17.010 -0.2988  0.0126 -0.8708
  883MPD2    C513002   4.346   3.683  16.954 -0.1918  0.6359 -0.0488
  883MPD2     H13003   4.596   3.847  16.731  0.1427  0.4396  0.1356
  883MPD2    H113004   4.489   3.716  17.115 -1.2613 -1.8311 -0.8512
  883MPD2    H213005   4.207   3.673  16.791  0.9376 -1.9669 -0.1271
  883MPD2    H313006   4.268   3.644  17.018 -1.1106  2.7969  0.1378
  883MPD2     N13007   4.696   3.807  16.958  0.8903 -0.3231 -0.2454
  883MPD2    H513008   0.002   3.883  16.906  2.9329 -2.2870 -1.3960
  883MPD2    N113009   4.353   3.820  16.615 -0.0424 -0.4298 -0.9813
  883MPD2    H713010   4.423   3.867  16.557 -0.7170  0.6661 -0.9152
  884MPD2     C13011   1.319   0.071  15.387 -0.1248 -0.4113  0.3201
  884MPD2    C113012   1.318   0.134  15.263 -0.0945 -0.4117  0.3398
  884MPD2    C213013   1.209   0.204  15.222  0.2706  0.2232 -0.0206
  884MPD2    C313014   1.092   0.207  15.298  0.4306  0.5139  0.1148
  884MPD2    C413015   1.096   0.142  15.422  0.4078  0.2463  0.0284
  884MPD2    C513016   1.202   0.069  15.465  0.3252  0.0725  0.6593
  884MPD2     H13017   1.214   0.257  15.128 -0.3945 -0.8582 -0.6651
  884MPD2    H113018   1.014   0.157  15.492 -0.6345 -0.9409 -0.9212
  884MPD2    H213019   1.406   0.018  15.423  1.2370 -0.5305 -3.2045
  884MPD2    H313020   1.198   0.006  15.553  3.0413 -1.2252 -0.1766
  884MPD2     N13021   0.978   0.275  15.248 -0.2632  0.0025 -0.2479
  884MPD2    H513022   0.978   0.315  15.155 -4.2866 -1.7873 -1.0421
  884MPD2    N113023   1.428   0.141  15.180  0.2226  0.4618 -0.0222
  884MPD2    H713024   1.413   0.196  15.095  0.3119 -0.4085 -0.5961
  885MPD2     C13025   4.053   4.414  17.730  0.2030  0.0410  0.7783
  885MPD2    C113026   4.186   4.445  17.733 -0.1502 -0.1218  0.3121
  885MPD2    C213027   4.239   4.550  17.662  0.3368 -0.4066 -0.1359
  885MPD2    C313028   4.152   4.623  17.580  0.6948  0.3732  0.5733
  885MPD2    C413029   4.015   4.593  17.576 -0.4435  0.0882 -0.1217
  885MPD2    C513030   3.962   4.486  17.656 -0.3529  0.1325  0.4509
  885MPD2     H13031   4.339   4.592  17.663 -0.0352  0.4851  0.1338
  885MPD2    H113032   3.937   4.648  17.524 -1.5192 -1.4698 -0.1586
  885MPD2    H213033   4.015   4.331   0.042 -1.7229 -0.7991 -1.6638
  885MPD2    H313034   3.858   4.458  17.643 -0.4216 -0.1128  1.4821
  885MPD2     N13035   4.206   0.001  17.509  0.1928  0.3223  0.1815
  885MPD2    H513036   4.307   0.012  17.513 -0.0528  1.9046  2.2977
  885MPD2    N113037   4.272   4.368   0.075  0.0810  0.0130 -0.7760
  885MPD2    H713038   4.221   4.296   0.126 -0.4056  0.7704 -0.1839
  886MPD2     C13039   0.648   3.543  14.908 -0.3406  0.1424 -0.3379
  886MPD2    C113040   0.773   3.580  14.951 -0.0740 -0.3255 -0.1587
  886MPD2    C213041   0.798   3.702  14.997  0.4114  0.2761  0.5531
  886MPD2    C313042   0.697   3.794  15.008  0.6228 -0.3779 -0.2926
  886MPD2    C413043   0.562   3.753  14.977 -0.3999 -0.5374 -0.3231
  886MPD2    C513044   0.537   3.622  14.940 -0.2340  0.0333 -0.1625
  886MPD2     H13045   0.901   3.724  15.021  0.2051  1.9472 -0.1360
  886MPD2    H113046   0.480   3.824  14.987  1.0551  0.8206  2.2374
  886MPD2    H213047   0.629   3.445  14.868 -1.2336  0.7728 -1.4550
  886MPD2    H313048   0.441   3.590  14.900  0.3183 -0.6145 -0.9613
  886MPD2     N13049   0.714   3.923  15.031  0.0904  0.2221 -0.0093
  886MPD2    H513050   0.628   3.977  15.031 -0.6336 -0.9442 -0.8625
  886MPD2    N113051   0.888   3.495  14.950 -0.0930 -0.1760 -0.0067
  886MPD2    H713052   0.975   3.534  14.987 -1.0976  2.1712 -0.0887
  887MPD2     C13053   1.290   3.399  15.485 -0.1536  0.3092  0.8740
  887MPD2    C113054   1.273   3.491  15.380  0.2209  0.7057  0.0716
  887MPD2    C213055   1.287   3.623  15.411 -0.3441  0.0551  0.3388
  887MPD2    C313056   1.300   3.661  15.546  0.8375  0.3079  0.2045
  887MPD2    C413057   1.305   3.570  15.649  0.4440  0.5861  0.8803
  887MPD2    C513058   1.302   3.443  15.612 -0.4403 -0.3075  0.7084
  887MPD2     H13059   1.278   3.699  15.335 -1.5913  0.0359  0.4644
  887MPD2    H113060   1.320   3.599  15.753  0.5449  1.5746  0.5939
  887MPD2    H213061   1.279   3.292  15.473  0.6126  0.6042 -2.4102
  887MPD2    H313062   1.308   3.379  15.699  1.2221  0.5823  1.2335
  887MPD2     N13063   1.304   3.799  15.565  0.0443 -0.2456  0.1268
  887MPD2    H513064   1.279   3.846  15.478 -0.0773  0.5520  0.5887
  887MPD2    N113065   1.250   3.452  15.248  0.3556  0.4504  0.3970
  887MPD2    H713066   1.233   3.517  15.172  1.5433  0.0401 -0.2190
  888MPD2     C13067   3.043   3.365  15.271 -0.6309 -0.0242 -0.5498
  888MPD2    C113068   2.919   3.425  15.262  0.5553 -0.1063  0.0802
  888MPD2    C213069   2.915   3.558  15.276  0.3286 -0.2755  0.4147
  888MPD2    C313070   3.019   3.644  15.301  0.2829 -0.3212 -0.5592
  888MPD2    C413071   3.143   3.583  15.303  0.4646  0.1859 -0.2372
  888MPD2    C513072   3.152   3.451  15.279 -0.3317  0.4847 -0.1876
  888MPD2     H13073   2.815   3.600  15.269  1.6241  3.0421  1.4965
  888MPD2    H113074   3.229   3.648  15.301  1.5225 -1.1763  1.2528
  888MPD2    H213075   3.064   3.259  15.256 -0.4471 -0.3436  1.9353
  888MPD2    H313076   3.249   3.403  15.276 -0.2340  0.5818  1.1907
  888MPD2     N13077   3.005   3.788  15.319 -0.5590 -0.0771  0.3242
  888MPD2    H513078   3.087   3.848  15.324 -1.7548  1.5068  0.8919
  888MPD2    N113079   2.795   3.355  15.259  0.2359 -0.0511  0.4384
  888MPD2    H713080   2.710   3.404  15.287 -0.5169 -0.8249 -0.5032
  889MPD2     C13081   1.919   3.317  12.380  0.0086  0.0791 -0.3453
  889MPD2    C113082   1.920   3.294  12.516  0.2359 -0.2810  0.5022
  889MPD2    C213083   1.957   3.397  12.598 -0.5398 -0.1441 -0.2321
  889MPD2    C313084   1.962   3.524  12.543 -0.4779 -0.3693 -0.3781
  889MPD2    C413085   1.958   3.551  12.408 -0.2185  0.1032  0.3288
  889MPD2    C513086   1.924   3.444  12.325 -0.2691 -0.4366 -0.2427
  889MPD2     H13087   1.954   3.381  12.705 -0.4459 -4.2172 -0.8621
  889MPD2    H113088   1.977   3.647  12.362 -0.9990  0.3036  0.4182
  889MPD2    H213089   1.916   3.230  12.315 -2.9094 -0.0004 -0.1047
  889MPD2    H313090   1.907   3.457  12.218  0.1584 -2.8760 -0.6024
  889MPD2     N13091   1.998   3.628  12.640  0.4463 -0.3610  0.0725
  889MPD2    H513092   2.045   3.597  12.724  0.7380 -0.8000 -0.2473
  889MPD2    N113093   1.937   3.165  12.565  0.1554  0.0340  0.6154
  889MPD2    H713094   1.969   3.158  12.661  1.8707  1.9949  0.1846
  890MPD2     C13095   1.854   0.163  14.511  0.9851  0.2844  0.5902
  890MPD2    C113096   1.950   0.239  14.569  0.9678  0.6732 -0.3733
  890MPD2    C213097   2.014   0.197  14.686 -0.3652  0.1307  0.7903
  890MPD2    C313098   1.978   0.074  14.741 -0.1158 -0.1481 -0.1363
  890MPD2    C413099   1.874   0.005  14.685 -0.7275  0.0668 -0.2958
  890MPD2    C513100   1.810   0.054  14.575 -0.3557  0.0987 -0.0195
  890MPD2     H13101   2.086   0.261  14.735 -0.1643  1.8419 -1.7259
  890MPD2    H113102   1.856   4.642  14.724 -0.8272  0.0697 -0.3345
  890MPD2    H213103   1.810   0.200  14.419  1.3015  1.1609  0.7914
  890MPD2    H313104   1.720   0.005  14.537 -0.3653 -0.4735  0.7415
  890MPD2     N13105   2.055   0.038  14.849  0.9448 -0.1025  0.3942
  890MPD2    H513106   2.138   0.095  14.862  1.2572 -0.1462 -1.4114
  890MPD2    N113107   1.976   0.359  14.498  0.3688 -0.0977  0.3711
  890MPD2    H713108   1.906   0.383  14.430  0.0397 -0.1058  0.7045
  891MPD2     C13109   0.056   3.491  16.207 -0.2036 -0.8149  0.3651
  891MPD2    C113110   0.029   3.381  16.289  0.0748 -0.0058 -0.0443
  891MPD2    C213111   0.129   3.329  16.367  0.3934 -0.2515  0.0236
  891MPD2    C313112   0.261   3.378  16.357  0.5562  0.6464  0.4944
  891MPD2    C413113   0.280   3.488  16.279 -0.5858 -0.0475  0.1949
  891MPD2    C513114   0.179   3.549  16.207 -0.0973 -0.2432 -0.7054
  891MPD2     H13115   0.117   3.236  16.421  1.2788  1.2633  2.8564
  891MPD2    H113116   0.375   3.541  16.286  0.8436 -2.5784  0.0206
  891MPD2    H213117   4.713   3.531  16.146  0.0142  0.4716  0.9153
  891MPD2    H313118   0.190   3.641  16.151  3.7584  1.2917  2.5453
  891MPD2     N13119   0.366   3.313  16.421  0.3650 -0.9868 -0.0464
  891MPD2    H513120   0.330   3.249  16.491 -1.0650  2.6813  2.5664
  891MPD2    N113121   4.641   3.319  16.268  0.7901 -0.3513  0.3590
  891MPD2    H713122   4.590   3.358  16.189 -0.1732 -2.6652 -0.1783
  892MPD2     C13123   1.234   4.662  14.627  0.5560  0.1278  0.1118
  892MPD2    C113124   1.126   4.573  14.623 -0.7529  0.1140 -0.8138
  892MPD2    C213125   1.152   4.445  14.571 -0.0070  0.3456  0.0915
  892MPD2    C313126   1.275   4.405  14.531 -0.1775  0.1804 -0.6206
  892MPD2    C413127   1.386   4.492  14.541  0.2536 -0.6147 -0.4462
  892MPD2    C513128   1.365   4.622  14.591 -0.3919  0.8256 -0.5757
  892MPD2     H13129   1.070   4.375  14.566  0.2047  0.1568 -0.7432
  892MPD2    H113130   1.478   4.458  14.497  0.7671  1.0312 -0.6660
  892MPD2    H213131   1.231   0.028  14.661 -2.2832 -0.6419  2.1873
  892MPD2    H313132   1.444   4.696  14.598 -0.4316  0.8654 -0.5488
  892MPD2     N13133   1.307   4.280  14.471 -0.5500 -0.3482  0.6027
  892MPD2    H513134   1.406   4.270  14.451 -0.3402  2.2520  0.3409
  892MPD2    N113135   0.992   4.608  14.647 -0.3769  0.0949 -0.2330
  892MPD2    H713136   0.926   4.531  14.640  0.4468 -0.3919 -2.6900
  893MPD2     C13137   2.512   2.018   1.492  0.5917  0.5699  0.6258
  893MPD2    C113138   2.568   2.083   1.595  0.4012 -0.1971  0.1059
  893MPD2    C213139   2.489   2.131   1.701 -0.1953 -0.4060  0.1478
  893MPD2    C313140   2.354   2.105   1.700  0.0960  0.1250 -0.6060
  893MPD2    C413141   2.295   2.040   1.592  1.2692  0.4606  0.0040
  893MPD2    C513142   2.374   1.993   1.484  0.0064  0.6795  0.6078
  893MPD2     H13143   2.530   2.195   1.778  1.4150 -3.6300  2.0229
  893MPD2    H113144   2.188   2.026   1.592  1.2344  0.7732 -1.4918
  893MPD2    H213145   2.573   1.973   1.413  1.2653  0.4903  1.1904
  893MPD2    H313146   2.330   1.937   1.403  3.7661 -1.1536 -0.2061
  893MPD2     N13147   2.267   2.133   1.808 -0.6538  0.1587 -0.1669
  893MPD2    H513148   2.175   2.091   1.805  0.2948 -1.9134 -0.1707
  893MPD2    N113149   2.710   2.098   1.592 -0.2632 -0.1653 -0.1840
  893MPD2    H713150   2.750   2.074   1.501 -0.6095  0.4605 -0.5021
  894MPD2     C13151   0.429   4.287   1.611  0.1928 -0.0116 -0.2212
  894MPD2    C113152   0.380   4.360   1.507  0.2380  0.3194 -0.3182
  894MPD2    C213153   0.437   4.477   1.476 -0.0594 -0.0642  0.0417
  894MPD2    C313154   0.532   4.538   1.560 -0.5168  0.7427  0.1710
  894MPD2    C413155   0.587   4.463   1.658  0.0085 -0.4490  0.1229
  894MPD2    C513156   0.534   4.338   1.676 -0.4746 -0.5928 -0.1007
  894MPD2     H13157   0.401   4.530   1.389  0.4997  1.0606  0.4812
  894MPD2    H113158   0.661   4.503   1.726  0.4072  1.4837 -1.4587
  894MPD2    H213159   0.399   4.186   1.636  0.7129 -0.0069  0.4064
  894MPD2    H313160   0.597   4.275   1.739  0.5339  1.2267  0.7077
  894MPD2     N13161   0.560   4.673   1.529  0.7773  0.3408  0.0619
  894MPD2    H513162   0.510   4.712   1.449  0.3289 -3.1564 -1.3777
  894MPD2    N113163   0.280   4.314   1.419 -0.0413 -0.1825 -0.1085
  894MPD2    H713164   0.253   4.357   1.331 -0.1158 -1.9945 -0.9917
  895MPD2     C13165   0.424   3.400  13.906  0.5889 -0.0944  0.4604
  895MPD2    C113166   0.348   3.406  13.793 -0.1112 -0.2539 -0.0597
  895MPD2    C213167   0.307   3.291  13.723  0.0841 -0.6175  0.1338
  895MPD2    C313168   0.347   3.166  13.769 -0.6235 -0.2495  0.2763
  895MPD2    C413169   0.406   3.160  13.891  0.2092 -0.4951 -0.1111
  895MPD2    C513170   0.443   3.273  13.957  0.1315  0.1230  0.8149
  895MPD2     H13171   0.259   3.296  13.626 -0.2784  1.1063  0.4156
  895MPD2    H113172   0.432   3.063  13.930  1.8744  0.5132  1.2585
  895MPD2    H213173   0.459   3.481  13.969  2.3034 -0.2153 -0.3553
  895MPD2    H313174   0.498   3.253  14.048  0.7885  0.6660  0.5337
  895MPD2     N13175   0.310   3.045  13.702  0.0920  0.0875 -0.4492
  895MPD2    H513176   0.326   2.958  13.752 -0.2580  0.1079 -0.3022
  895MPD2    N113177   0.307   3.528  13.735  0.2722  0.0278 -0.4061
  895MPD2    H713178   0.266   3.532  13.643  2.5700  1.0500 -1.3989
  896MPD2     C13179   2.752   0.749   0.866 -0.0432 -0.3133 -0.2392
  896MPD2    C113180   2.705   0.849   0.942  0.0892  0.5269 -0.2798
  896MPD2    C213181   2.601   0.821   1.034  0.2342 -0.4442 -0.2516
  896MPD2    C313182   2.546   0.695   1.037 -0.5592  0.9100  0.1804
  896MPD2    C413183   2.601   0.595   0.957  0.8791 -0.4425 -0.2922
  896MPD2    C513184   2.699   0.623   0.878 -0.3088  0.5382  0.1045
  896MPD2     H13185   2.564   0.904   1.094 -1.0654 -2.0654  1.1892
  896MPD2    H113186   2.557   0.497   0.944  0.0593 -0.1289  0.1135
  896MPD2    H213187   2.833   0.764   0.795 -0.8354 -0.7349 -1.2454
  896MPD2    H313188   2.742   0.541   0.821  0.1146  0.3107  0.7545
  896MPD2     N13189   2.428   0.675   1.113 -0.0415 -0.2314 -0.2354
  896MPD2    H513190   2.386   0.753   1.163  0.5576 -0.5833  0.8036
  896MPD2    N113191   2.762   0.977   0.921  0.0331  0.2023  0.8517
  896MPD2    H713192   2.824   0.986   0.842 -2.3658 -0.0763 -1.0461
  897MPD2     C13193   3.552   3.216  11.080 -0.1374  0.7259  0.3798
  897MPD2    C113194   3.482   3.197  10.959 -0.4350 -0.0401 -0.1939
  897MPD2    C213195   3.348   3.163  10.963 -0.3924  0.1518  0.3249
  897MPD2    C313196   3.294   3.125  11.087 -0.0621  0.2808  0.0475
  897MPD2    C413197   3.374   3.132  11.200  0.0113 -0.1684 -0.9614
  897MPD2    C513198   3.497   3.183  11.197  0.5488  0.5053 -0.2627
  897MPD2     H13199   3.286   3.152  10.875 -1.8703  2.1627  1.0975
  897MPD2    H113200   3.333   3.104  11.297  3.5694  1.4529  0.9888
  897MPD2    H213201   3.652   3.258  11.076 -0.2642  0.8695 -1.4635
  897MPD2    H313202   3.561   3.187  11.285 -0.2474 -2.3810  0.4558
  897MPD2     N13203   3.156   3.085  11.095  0.2793  0.4218  0.1460
  897MPD2    H513204   3.110   3.075  11.006  0.6373 -0.9337  0.1230
  897MPD2    N113205   3.546   3.233  10.844  0.2605 -0.6734  0.5125
  897MPD2    H713206   3.643   3.259  10.858  0.2744  0.7267 -2.1362
  898MPD2     C13207   1.142   3.701   1.005  0.6828  0.0496 -0.9052
  898MPD2    C113208   1.040   3.664   0.920 -0.6092  0.2984  0.1753
  898MPD2    C213209   1.008   3.750   0.813  0.8720 -0.1464 -0.2334
  898MPD2    C313210   1.078   3.861   0.777 -0.3783  0.0108 -0.1331
  898MPD2    C413211   1.174   3.902   0.868  1.0169 -0.9072 -0.0136
  898MPD2    C513212   1.203   3.824   0.980  0.7629  0.9905  0.1887
  898MPD2     H13213   0.941   3.704   0.740  0.6108 -1.1411  0.6300
  898MPD2    H113214   1.247   3.979   0.846 -0.9009  0.4790 -1.4487
  898MPD2    H213215   1.179   3.646   1.091 -0.3298 -2.0120 -1.7923
  898MPD2    H313216   1.284   3.859   1.043 -0.5782 -1.4766  3.2576
  898MPD2     N13217   1.047   3.939   0.664 -0.2189 -0.0720 -0.2705
  898MPD2    H513218   0.961   3.910   0.618 -0.9096  1.4128  0.0605
  898MPD2    N113219   0.968   3.540   0.918 -0.4252  0.1497 -0.4302
  898MPD2    H713220   0.918   3.506   0.836 -0.9251  1.3600 -0.6249
  899MPD2     C13221   1.703   3.927  17.709 -0.4797 -0.0570 -0.3035
  899MPD2    C113222   1.700   4.009   0.075 -0.5264  0.2884  0.4872
  899MPD2    C213223   1.737   3.948   0.192 -0.3376 -0.5146 -0.1188
  899MPD2    C313224   1.768   3.814   0.191 -0.2002 -0.4762  0.4290
  899MPD2    C413225   1.780   3.738   0.077 -0.0931  0.3341  1.3468
  899MPD2    C513226   1.744   3.799  17.708 -0.7734 -0.2906 -0.3752
  899MPD2     H13227   1.735   4.004   0.284  1.3927 -1.3695  0.4212
  899MPD2    H113228   1.813   3.635   0.084  0.7546  0.3599 -2.2914
  899MPD2    H213229   1.657   3.956  17.614  2.0090  0.4257 -1.3590
  899MPD2    H313230   1.716   3.735  17.625 -1.6811 -0.3178 -0.0588
  899MPD2     N13231   1.794   3.741   0.311  0.5186 -0.0389 -0.5950
  899MPD2    H513232   1.786   3.640   0.303  1.3004 -0.0551 -1.1785
  899MPD2    N113233   1.657   4.143   0.069  0.0192  0.3777  0.5294
  899MPD2    H713234   1.627   4.164  17.720  1.4010 -2.9328 -0.6574
  900MPD2     C13235   1.467   1.358  12.893  0.2228  0.5372 -0.6302
  900MPD2    C113236   1.378   1.251  12.875  0.2095  0.7008  0.2458
  900MPD2    C213237   1.260   1.273  12.813  0.7088  0.0050 -0.4664
  900MPD2    C313238   1.217   1.403  12.789 -0.4868  0.4572  0.1067
  900MPD2    C413239   1.307   1.507  12.804  0.1682  0.0657 -0.2821
  900MPD2    C513240   1.429   1.482  12.853 -0.6960  0.3033 -0.0547
  900MPD2     H13241   1.191   1.190  12.803  0.4432  0.2091 -0.3500
  900MPD2    H113242   1.284   1.607  12.770  2.0581 -0.3637 -2.8435
  900MPD2    H213243   1.558   1.344  12.951 -1.5386 -1.4926  1.6364
  900MPD2    H313244   1.500   1.562  12.869  2.0212 -2.0881 -0.1478
  900MPD2     N13245   1.079   1.426  12.738  0.1890 -0.0510 -0.0476
  900MPD2    H513246   1.040   1.341  12.699 -0.2549  0.2075 -0.1709
  900MPD2    N113247   1.419   1.126  12.917 -0.1938 -0.2535 -0.2897
  900MPD2    H713248   1.518   1.107  12.926  0.0824  2.0323  1.3887
  901MPD2     C13249   1.198   0.054  13.058 -0.3096  0.7002  0.1545
  901MPD2    C113250   1.335   0.071  13.029  0.4245 -0.0082  0.5168
  901MPD2    C213251   1.385   0.196  13.022 -0.6871 -0.0147  0.1517
  901MPD2    C313252   1.299   0.305  13.017 -1.0300  1.0543  0.4578
  901MPD2    C413253   1.168   0.292  13.052  0.2694 -0.3087 -0.4080
  901MPD2    C513254   1.119   0.163  13.069 -0.2888  0.8932  0.5320
  901MPD2     H13255   1.485   0.216  12.984 -1.7918 -0.0167 -2.7731
  901MPD2    H113256   1.097   0.372  13.067 -1.7091 -1.6766 -2.4622
  901MPD2    H213257   1.161   4.691  13.075 -3.1025  1.7177  0.0896
  901MPD2    H313258   1.013   0.159  13.092 -0.5105  0.5283 -0.5702
  901MPD2     N13259   1.366   0.432  12.990 -0.0263 -0.2005  1.1010
  901MPD2    H513260   1.467   0.431  12.999  0.2594  1.8754 -2.0064
  901MPD2    N113261   1.403   4.688  13.007  0.1526 -0.4052 -0.4653
  901MPD2    H713262   1.352   4.601  12.994 -0.2601  0.2328 -3.1291
  902MPD2     C13263   0.527   3.681  12.554  0.4515  0.4301  1.0946
  902MPD2    C113264   0.387   3.667  12.548  0.4599  0.1873  0.4553
  902MPD2    C213265   0.330   3.543  12.540 -0.7951 -0.2584  0.0960
  902MPD2    C313266   0.404   3.427  12.511  0.0799 -0.2286  0.2161
  902MPD2    C413267   0.543   3.445  12.508 -0.1328  0.1646 -0.6520
  902MPD2    C513268   0.596   3.569  12.531 -0.2367 -0.1914  0.3529
  902MPD2     H13269   0.223   3.532  12.553 -0.6659 -2.1515 -0.4144
  902MPD2    H113270   0.608   3.360  12.492 -1.1440 -1.0430  1.5374
  902MPD2    H213271   0.581   3.774  12.571  1.0680  0.3721 -0.5299
  902MPD2    H313272   0.704   3.579  12.526 -0.4080  0.5282 -1.7878
  902MPD2     N13273   0.347   3.304  12.473 -0.5211  0.3714  0.4772
  902MPD2    H513274   0.420   3.244  12.436  1.5490  2.9651  0.3744
  902MPD2    N113275   0.312   3.786  12.576 -0.0017  0.3136  0.0552
  902MPD2    H713276   0.364   3.870  12.552 -0.5404  0.0471 -2.0775
  903MPD2     C13277   0.606   3.307  12.084  0.3666  0.5743 -0.3015
  903MPD2    C113278   0.478   3.250  12.082  0.3398  0.0579  0.6695
  903MPD2    C213279   0.373   3.345  12.079  0.1277  0.2411  0.4761
  903MPD2    C313280   0.394   3.483  12.099  0.9003  0.2909 -0.2156
  903MPD2    C413281   0.517   3.532  12.121 -0.4716  0.1174  0.9247
  903MPD2    C513282   0.621   3.442  12.110  0.1267  0.8250  0.5012
  903MPD2     H13283   0.273   3.309  12.058 -0.1973  0.4161  1.7061
  903MPD2    H113284   0.542   3.632  12.155  0.1308  0.0492  0.6727
  903MPD2    H213285   0.695   3.244  12.088  0.7336  1.1002 -0.2235
  903MPD2    H313286   0.723   3.476  12.128  0.8752 -1.2768  0.1880
  903MPD2     N13287   0.283   3.573  12.093  0.2913 -0.0581  0.1252
  903MPD2    H513288   0.196   3.522  12.104 -0.7927  1.1448 -2.9465
  903MPD2    N113289   0.467   3.107  12.077 -0.1010  0.0411  1.0184
  903MPD2    H713290   0.556   3.068  12.049  0.0948 -0.4406  2.3089
  904MPD2     C13291   4.533   2.967  13.843 -0.7805 -0.1221 -0.9479
  904MPD2    C113292   4.495   2.896  13.957  0.0280  0.0552 -0.5152
  904MPD2    C213293   4.591   2.864  14.054  0.3073 -0.0537 -0.6105
  904MPD2    C313294   4.721   2.919  14.041 -0.3315 -0.3270  0.6113
  904MPD2    C413295   0.008   3.001  13.938  0.3454 -1.4790  0.0758
  904MPD2    C513296   4.656   3.021  13.837 -0.4279  0.4442 -1.0728
  904MPD2     H13297   4.568   2.802  14.140 -0.8007  0.6214 -0.4197
  904MPD2    H113298   0.107   3.046  13.930 -0.9915  1.0754 -2.2391
  904MPD2    H213299   4.472   2.987  13.755 -1.3325 -2.2324 -1.0400
  904MPD2    H313300   4.674   3.081  13.749  1.9991  1.5776  0.1981
  904MPD2     N13301   0.079   2.886  14.146 -0.2085  0.8518 -0.1165
  904MPD2    H513302   0.044   2.836  14.227 -0.1603 -0.6529 -1.0256
  904MPD2    N113303   4.357   2.853  13.982 -0.3468 -0.0483 -0.2892
  904MPD2    H713304   4.352   2.787  14.059 -2.8368  2.0909  1.3727
  905MPD2     C13305   4.178   2.839  13.376  0.5565 -0.0498  0.1121
  905MPD2    C113306   4.267   2.931  13.425 -0.4519  0.1117 -0.0071
  905MPD2    C213307   4.406   2.918  13.396 -0.3756 -0.1145  0.0114
  905MPD2    C313308   4.448   2.815  13.317  0.5446  0.1128 -0.2287
  905MPD2    C413309   4.364   2.712  13.284 -0.5059 -0.3483 -0.4806
  905MPD2    C513310   4.233   2.732  13.294 -0.7115 -0.0537 -1.0111
  905MPD2     H13311   4.472   2.989  13.444  2.2416 -1.3767 -1.7221
  905MPD2    H113312   4.398   2.623  13.231  1.4460 -0.8953  1.7061
  905MPD2    H213313   4.071   2.847  13.390  0.4265 -0.7301 -0.5113
  905MPD2    H313314   4.164   2.654  13.262 -2.5845  2.2140 -2.5481
  905MPD2     N13315   4.586   2.795  13.301 -0.8393 -0.0290 -0.9386
  905MPD2    H513316   4.612   2.702  13.271 -0.0218 -0.2217  0.3611
  905MPD2    N113317   4.221   3.038  13.506  0.0735  0.7764  0.0255
  905MPD2    H713318   4.120   3.040  13.520 -0.2156  1.3061 -2.1051
  906MPD2     C13319   2.003   3.303  11.270  0.4040 -0.6476  0.0548
  906MPD2    C113320   1.996   3.208  11.167  0.2570 -0.0830 -0.2217
  906MPD2    C213321   1.943   3.081  11.193  0.2601  0.5533 -0.2536
  906MPD2    C313322   1.905   3.036  11.322  0.1200 -0.7794 -0.3752
  906MPD2    C413323   1.910   3.130  11.419  1.0563  0.0888  0.0625
  906MPD2    C513324   1.952   3.252  11.392  0.8183  0.1712 -0.3721
  906MPD2     H13325   1.954   3.011  11.112  1.7222 -1.5925  1.7791
  906MPD2    H113326   1.886   3.100  11.521 -2.7920  3.9919  0.3549
  906MPD2    H213327   2.038   3.404  11.255 -1.0217  0.1254  1.9186
  906MPD2    H313328   1.957   3.319  11.478 -0.3291 -1.3343  0.8601
  906MPD2     N13329   1.869   2.900  11.363 -0.3075  0.5300 -0.0082
  906MPD2    H513330   1.846   2.876  11.459  0.5086 -0.8766 -0.1555
  906MPD2    N113331   2.032   3.238  11.031  0.2075 -0.0775  0.1632
  906MPD2    H713332   2.021   3.168  10.958  1.4156  0.4750 -0.5493
  907MPD2     C13333   1.087   2.157  15.573  0.3636  0.2149 -0.6457
  907MPD2    C113334   1.112   2.040  15.508 -0.3299  0.3608  0.1343
  907MPD2    C213335   1.145   1.933  15.577  0.6161  0.3438 -0.0802
  907MPD2    C313336   1.156   1.931  15.713 -0.7847 -0.1755 -0.1445
  907MPD2    C413337   1.128   2.048  15.779 -0.3616  0.2499 -1.1386
  907MPD2    C513338   1.097   2.163  15.711 -0.4756 -0.3961 -0.0149
  907MPD2     H13339   1.165   1.838  15.530 -1.0307  0.2678 -0.6188
  907MPD2    H113340   1.125   2.046  15.887 -0.5980  0.4781 -1.1414
  907MPD2    H213341   1.061   2.253  15.528  0.2409  0.5491  0.1431
  907MPD2    H313342   1.061   2.250  15.764  0.5050  1.7589 -2.8967
  907MPD2     N13343   1.193   1.812  15.781  0.5239  0.1425 -0.1273
  907MPD2    H513344   1.214   1.727  15.730 -1.0981 -0.2394 -0.1531
  907MPD2    N113345   1.099   2.019  15.372 -0.8251 -0.4827 -0.1722
  907MPD2    H713346   1.149   1.938  15.337  0.4092  0.1472  0.1578
  908MPD2     C13347   3.319   3.210   9.858 -0.0405  0.7900  0.4519
  908MPD2    C113348   3.277   3.136   9.971  0.3081 -0.0952 -0.2702
  908MPD2    C213349   3.337   3.148  10.093  0.4987  0.1499  0.0812
  908MPD2    C313350   3.457   3.221  10.099  0.6873  0.3253 -0.6086
  908MPD2    C413351   3.498   3.292   9.987 -0.0660  0.2196 -0.2469
  908MPD2    C513352   3.422   3.294   9.873  0.6201 -0.0949  0.3464
  908MPD2     H13353   3.293   3.097  10.178  1.3707  2.2488  1.7963
  908MPD2    H113354   3.583   3.358   9.978 -0.0785  0.2491 -0.1501
  908MPD2    H213355   3.274   3.204   9.759 -1.7208  2.6216  1.1173
  908MPD2    H313356   3.456   3.359   9.793 -0.5090  0.6845  0.5082
  908MPD2     N13357   3.513   3.237  10.230 -0.7101 -0.0274 -0.2424
  908MPD2    H513358   3.457   3.204  10.308  0.2164 -0.3345  0.2899
  908MPD2    N113359   3.153   3.074   9.949 -0.2022 -0.6826  0.0663
  908MPD2    H713360   3.123   3.071   9.852  1.6308  0.5598 -0.5508
  909MPD2     C13361   3.341   1.022  11.764 -0.0104 -0.1976 -0.1589
  909MPD2    C113362   3.443   1.111  11.795 -0.4635 -0.5561  0.9761
  909MPD2    C213363   3.437   1.184  11.911 -0.4645 -0.8747  0.1053
  909MPD2    C313364   3.346   1.155  12.015  0.6857 -0.6518 -0.4394
  909MPD2    C413365   3.250   1.060  11.989 -0.6420  0.3887  0.4381
  909MPD2    C513366   3.249   0.999  11.866  0.4455 -0.0654 -0.3043
  909MPD2     H13367   3.518   1.254  11.927 -0.3295 -1.6027  2.6320
  909MPD2    H113368   3.168   1.039  12.058  0.6088 -1.9974  1.2104
  909MPD2    H213369   3.357   0.956  11.679  1.3975  0.3175 -0.2818
  909MPD2    H313370   3.165   0.937  11.837 -1.0800  1.8435 -0.0453
  909MPD2     N13371   3.348   1.228  12.138  0.0642 -0.4274 -0.1118
  909MPD2    H513372   3.403   1.313  12.137  0.9072 -0.9914 -1.2338
  909MPD2    N113373   3.556   1.131  11.706  0.4770  0.2326  0.0047
  909MPD2    H713374   3.611   1.214  11.727 -0.1161  1.1322 -1.9257
  910MPD2     C13375   0.697   2.558  16.122  0.5612 -0.1164 -0.2319
  910MPD2    C113376   0.695   2.478  16.012 -0.2432 -0.1916  0.0043
  910MPD2    C213377   0.641   2.539  15.889  0.2909 -0.1198 -0.0583
  910MPD2    C313378   0.594   2.667  15.886  0.5755 -0.4197 -0.1310
  910MPD2    C413379   0.589   2.737  16.003  0.9874 -0.1310  0.6916
  910MPD2    C513380   0.643   2.682  16.121 -0.3962 -0.2811 -0.1224
  910MPD2     H13381   0.660   2.485  15.798 -0.6728 -0.6442  0.0546
  910MPD2    H113382   0.566   2.842  16.002  1.6628  0.0281  1.4151
  910MPD2    H213383   0.743   2.518  16.212 -1.7803 -0.7890  0.6762
  910MPD2    H313384   0.653   2.757  16.198 -0.8210  0.2266 -0.5664
  910MPD2     N13385   0.549   2.738  15.773  0.2899  0.2052  0.0204
  910MPD2    H513386   0.501   2.825  15.793 -0.4027 -0.3318  0.7224
  910MPD2    N113387   0.725   2.334  16.009 -0.6592 -0.4998 -0.4903
  910MPD2    H713388   0.699   2.288  15.922  1.1437 -1.4042 -0.5537
  911MPD2     C13389   3.130   3.655  16.513  0.5243 -0.6744  0.4038
  911MPD2    C113390   3.075   3.551  16.438  0.0222  0.3692 -0.3199
  911MPD2    C213391   2.943   3.557  16.385  0.3865 -0.8517 -0.1393
  911MPD2    C313392   2.876   3.675  16.406 -0.1565 -0.1602  0.0352
  911MPD2    C413393   2.931   3.785  16.473  0.1467  0.4082 -0.5903
  911MPD2    C513394   3.057   3.770  16.519 -0.1397 -0.0221 -0.0478
  911MPD2     H13395   2.898   3.473  16.332 -3.1416  0.8249  0.2051
  911MPD2    H113396   2.887   3.884  16.471 -1.2240 -0.2116 -1.2239
  911MPD2    H213397   3.233   3.646  16.545  0.5488 -2.5677 -0.2490
  911MPD2    H313398   3.104   3.858  16.560 -1.2963  2.3365 -3.8203
  911MPD2     N13399   2.749   3.702  16.356  0.6586  0.4126 -0.2723
  911MPD2    H513400   2.715   3.797  16.351 -0.3600  0.0815  0.3526
  911MPD2    N113401   3.166   3.452  16.396 -0.3336 -0.2635  0.0757
  911MPD2    H713402   3.257   3.456  16.440 -0.5939  0.5793  0.5293
  912MPD2     C13403   2.657   3.032  16.031  0.8183  0.3128  0.1759
  912MPD2    C113404   2.554   3.097  16.092 -0.3711  0.4691  0.1268
  912MPD2    C213405   2.457   3.027  16.154  0.9148 -0.5337  0.4671
  912MPD2    C313406   2.467   2.886  16.160 -0.9783  0.1028 -0.1248
  912MPD2    C413407   2.573   2.822  16.105  0.0210 -0.7184  0.0844
  912MPD2    C513408   2.670   2.898  16.040 -0.6580 -0.0214 -0.1012
  912MPD2     H13409   2.378   3.073  16.213  0.7790 -0.7969  0.4927
  912MPD2    H113410   2.606   2.719  16.110 -0.2252 -0.8129 -0.2128
  912MPD2    H213411   2.724   3.087  15.967 -0.3933  2.6240  0.9098
  912MPD2    H313412   2.762   2.852  16.006 -1.2296 -0.6979 -0.7106
  912MPD2     N13413   2.368   2.820  16.233 -0.2420  0.0776 -0.0131
  912MPD2    H513414   2.296   2.881  16.272  0.9906  0.4483  1.7078
  912MPD2    N113415   2.557   3.234  16.082  0.2872  0.1532 -0.2316
  912MPD2    H713416   2.644   3.276  16.050  1.3768 -3.0353 -1.4555
  913MPD2     C13417   3.143   4.334  10.320  0.5392 -1.4918 -0.3896
  913MPD2    C113418   3.169   4.434  10.413 -0.1506 -0.3297  0.4944
  913MPD2    C213419   3.182   4.558  10.369  0.4831 -0.7934 -0.3732
  913MPD2    C313420   3.179   4.581  10.232 -0.4152  0.0749 -0.0083
  913MPD2    C413421   3.151   4.484  10.139  0.5621 -0.4196  0.4428
  913MPD2    C513422   3.128   4.359  10.186  1.0546  0.0336  0.2366
  913MPD2     H13423   3.185   4.639  10.440 -2.4962 -1.7237  0.7965
  913MPD2    H113424   3.145   4.516  10.036 -1.5615 -2.3355 -0.0356
  913MPD2    H213425   3.124   4.233  10.356  1.0163 -1.0196  1.1791
  913MPD2    H313426   3.107   4.278  10.116 -0.8334 -0.4657  1.3863
  913MPD2     N13427   3.197   4.707  10.174 -0.7338  0.0548  0.1446
  913MPD2    H513428   3.204   4.707  10.072 -0.3566  0.3365  0.1718
  913MPD2    N113429   3.186   4.394  10.552  0.1237  0.3864  0.2895
  913MPD2    H713430   3.171   4.299  10.584 -1.1297  1.3493  2.5662
  914MPD2     C13431   1.101   4.524  12.257  0.3113  0.4123  0.5257
  914MPD2    C113432   1.096   4.619  12.359 -0.4252  0.9115  0.8366
  914MPD2    C213433   1.151   4.594  12.480  1.2421  0.4598 -1.1904
  914MPD2    C313434   1.211   4.471  12.504  0.0603 -0.1077 -0.2006
  914MPD2    C413435   1.204   4.372  12.406  0.0065  0.0051 -0.1699
  914MPD2    C513436   1.147   4.394  12.282 -0.3866  0.2771  0.8271
  914MPD2     H13437   1.165   4.670  12.556 -0.0896 -0.1106 -0.3601
  914MPD2    H113438   1.247   4.274  12.424 -1.4738 -0.4670  0.8340
  914MPD2    H213439   1.052   4.551  12.164  0.6867 -1.7743 -0.2936
  914MPD2    H313440   1.135   4.308  12.217 -0.9614  1.1709 -0.2453
  914MPD2     N13441   1.278   4.456  12.623  0.1602  0.4146 -0.3345
  914MPD2    H513442   1.264   4.534  12.686  2.1143  1.5357 -1.2914
  914MPD2    N113443   1.024   0.002  12.339  0.6964  0.0196  0.1147
  914MPD2    H713444   0.991   0.026  12.246 -1.1497 -1.0666  0.4857
  915MPD2     C13445   4.037   4.581  16.008 -0.1973  0.0704 -0.0577
  915MPD2    C113446   3.914   4.604  15.956  0.1971 -0.2229 -0.0252
  915MPD2    C213447   3.837   4.702  16.014  0.1825 -0.5024 -0.2838
  915MPD2    C313448   3.890   0.045  16.120 -0.5465  0.0404  0.4481
  915MPD2    C413449   4.011   0.012  16.173  0.0625 -0.1417  0.0179
  915MPD2    C513450   4.086   4.655  16.111  0.6215 -0.2766 -0.0412
  915MPD2     H13451   3.734   4.726  15.992  0.3337  0.6654  0.2652
  915MPD2    H113452   4.063   0.060  16.255 -1.9979 -2.9481  2.9811
  915MPD2    H213453   4.106   4.504  15.974 -1.3768 -1.0222  0.0536
  915MPD2    H313454   4.185   4.625  16.144  1.1048 -0.6118 -1.7601
  915MPD2     N13455   3.805   0.138  16.189  0.4891 -0.0192 -0.2470
  915MPD2    H513456   3.710   0.155  16.158  0.0139  2.5131  2.6757
  915MPD2    N113457   3.865   4.543  15.841 -0.2779 -0.3318  0.0284
  915MPD2    H713458   3.768   4.557  15.816  0.4633  3.0373 -1.1054
  916MPD2     C13459   2.319   3.213  15.816 -0.4631  0.3659  0.4342
  916MPD2    C113460   2.296   3.081  15.854  0.0120  0.1816 -0.7125
  916MPD2    C213461   2.394   2.989  15.816  0.2012  0.3740 -0.1454
  916MPD2    C313462   2.509   3.033  15.747 -0.5570 -0.7896  0.3538
  916MPD2    C413463   2.529   3.167  15.729 -0.7462 -0.0887 -0.7111
  916MPD2    C513464   2.432   3.259  15.758 -0.2032 -0.2444  0.2719
  916MPD2     H13465   2.378   2.882  15.825 -2.4634  0.8529  0.7105
  916MPD2    H113466   2.614   3.199  15.670  0.2032  1.1366  1.3183
  916MPD2    H213467   2.246   3.290  15.840 -1.8966 -0.2073 -2.0067
  916MPD2    H313468   2.456   3.362  15.734 -1.2401 -0.1570 -0.3735
  916MPD2     N13469   2.595   2.939  15.692  0.1326 -0.4336  0.5260
  916MPD2    H513470   2.567   2.846  15.722  0.0427 -0.4696  0.3281
  916MPD2    N113471   2.174   3.048  15.921  0.1572  0.4391  0.0677
  916MPD2    H713472   2.115   3.124  15.953  1.8103  2.0086 -0.5736
  917MPD2     C13473   2.655   0.709  11.669  0.3315 -0.3442  0.1118
  917MPD2    C113474   2.548   0.715  11.579 -0.1126  0.2852 -0.1119
  917MPD2    C213475   2.568   0.716  11.444  0.3196  0.1053  0.4117
  917MPD2    C313476   2.698   0.693  11.395  0.3001  0.4596 -0.5125
  917MPD2    C413477   2.805   0.680  11.478 -0.4298  0.2794  0.7541
  917MPD2    C513478   2.781   0.703  11.616 -0.8397 -0.2210  0.6871
  917MPD2     H13479   2.490   0.753  11.379 -1.1119 -0.7248  1.6899
  917MPD2    H113480   2.902   0.663  11.433 -3.2113 -1.6239 -4.4400
  917MPD2    H213481   2.646   0.731  11.775 -0.0558 -0.4123  0.0940
  917MPD2    H313482   2.870   0.700  11.679 -1.4698 -0.3787  1.5748
  917MPD2     N13483   2.732   0.700  11.255  0.6193  0.1606 -0.3178
  917MPD2    H513484   2.829   0.681  11.233  0.1869 -1.0976 -1.1374
  917MPD2    N113485   2.412   0.744  11.615 -0.0409  0.6121 -0.4802
  917MPD2    H713486   2.399   0.767  11.713 -0.4643  2.4069 -0.9549
  918MPD2     C13487   1.947   1.114  12.394 -0.4443  0.1338  0.8771
  918MPD2    C113488   2.050   1.141  12.303 -0.1638 -0.6735 -0.0774
  918MPD2    C213489   2.057   1.062  12.184  0.1586 -0.0040  0.1947
  918MPD2    C313490   1.967   0.964  12.155  0.2863  0.1322 -0.4837
  918MPD2    C413491   1.858   0.936  12.244  0.4842  0.2050  0.2939
  918MPD2    C513492   1.851   1.012  12.360 -0.3893 -0.1786 -0.3133
  918MPD2     H13493   2.146   1.080  12.125 -0.1913  1.8903  0.2160
  918MPD2    H113494   1.786   0.855  12.237  1.1983 -0.3275 -0.9119
  918MPD2    H213495   1.935   1.174  12.484  1.7144  0.6240  0.8411
  918MPD2    H313496   1.762   0.999  12.422  0.6710  1.0906  1.4688
  918MPD2     N13497   1.990   0.885  12.038 -0.6445 -0.5095  0.1488
  918MPD2    H513498   1.945   0.794  12.041 -1.5189 -0.1117 -0.7519
  918MPD2    N113499   2.165   1.223  12.341 -0.3512 -0.1087 -0.2604
  918MPD2    H713500   2.253   1.208  12.293  0.1294 -0.3347  0.6801
  919MPD2     C13501   3.090   0.050  11.871 -0.3041 -0.1452 -0.1816
  919MPD2    C113502   3.090   4.657  11.836 -0.1653  0.5734  0.0285
  919MPD2    C213503   3.044   4.618  11.712 -0.2735 -0.6076  0.5883
  919MPD2    C313504   3.009   4.711  11.620 -0.0038 -0.6454 -0.1935
  919MPD2    C413505   3.016   0.108  11.644 -0.2137 -0.5862  0.2793
  919MPD2    C513506   3.046   0.140  11.772  0.4857 -0.1363 -0.5259
  919MPD2     H13507   3.030   4.511  11.701  0.7389 -0.7537  0.7954
  919MPD2    H113508   3.005   0.189  11.574  0.7767  1.7467  2.8273
  919MPD2    H213509   3.112   0.080  11.973 -0.9142  0.5479 -0.2537
  919MPD2    H313510   3.055   0.247  11.787 -0.6033 -0.1166  0.0198
  919MPD2     N13511   2.968   4.678  11.488  0.4762 -0.3654 -0.0457
  919MPD2    H513512   2.922   0.009  11.428 -0.1287  0.0832  0.9262
  919MPD2    N113513   3.140   4.554  11.913 -0.2408  0.2877 -0.4440
  919MPD2    H713514   3.154   4.466  11.864 -1.4410  0.0018 -0.2883
  920MPD2     C13515   2.847   4.707  10.462  0.4772 -0.8166 -0.3334
  920MPD2    C113516   2.728   4.649  10.514  0.0196 -1.0378 -0.4517
  920MPD2    C213517   2.706   4.626  10.650 -0.6497  0.1792  0.2713
  920MPD2    C313518   2.807   4.662  10.742  0.5081  0.3846  0.3704
  920MPD2    C413519   2.918   4.723  10.690 -0.7005  0.3419 -0.5914
  920MPD2    C513520   2.935   0.013  10.554 -0.3236  0.0457 -0.6761
  920MPD2     H13521   2.617   4.580  10.690  0.2867  1.1756  3.5202
  920MPD2    H113522   3.000   0.003  10.758 -1.2758 -1.2030  0.4655
  920MPD2    H213523   2.870   4.713  10.357  1.4712  0.2277 -0.0525
  920MPD2    H313524   3.019   0.074  10.524 -0.3312  1.8257  2.8880
  920MPD2     N13525   2.797   4.631  10.882  0.4983  0.3592 -0.5053
  920MPD2    H513526   2.719   4.574  10.911  0.0079  0.7958 -0.9693
  920MPD2    N113527   2.626   4.598  10.431  0.2402  0.0428 -0.0140
  920MPD2    H713528   2.561   4.533  10.475  0.1211  0.0290 -0.2106
  921MPD2     C13529   3.983   3.266  16.628  0.2661  0.2839  0.5580
  921MPD2    C113530   3.991   3.182  16.514  0.0341  0.1854 -0.2342
  921MPD2    C213531   3.868   3.131  16.468 -0.2627  0.0456  0.4492
  921MPD2    C313532   3.745   3.161  16.527  0.4354 -0.2402  0.0939
  921MPD2    C413533   3.750   3.241  16.636 -0.4924  0.2700 -0.0916
  921MPD2    C513534   3.864   3.298  16.686  0.7123  0.2112  0.3711
  921MPD2     H13535   3.857   3.068  16.381 -1.8410  0.7842  0.1005
  921MPD2    H113536   3.668   3.266  16.701 -0.6509  0.9669 -0.5641
  921MPD2    H213537   4.071   3.312  16.671  0.2060 -0.2168  1.2169
  921MPD2    H313538   3.864   3.376  16.762  0.3856  0.7137 -0.1447
  921MPD2     N13539   3.629   3.119  16.464 -0.0940  0.6200 -0.5020
  921MPD2    H513540   3.628   3.071  16.375  1.3802  0.7723 -0.5978
  921MPD2    N113541   4.121   3.159  16.456  0.1205  0.0112  0.2364
  921MPD2    H713542   4.198   3.214  16.493  0.6273  0.6635 -1.7838
  922MPD2     C13543   0.408   0.811  16.934 -0.2551  0.2227 -0.6269
  922MPD2    C113544   0.371   0.841  17.066  0.3726  0.1220  0.1827
  922MPD2    C213545   0.247   0.804  17.119 -0.4445  1.2236 -0.0351
  922MPD2    C313546   0.155   0.743  17.033  1.1905  0.4983  1.0262
  922MPD2    C413547   0.194   0.707  16.907  0.2781  0.9567  0.1004
  922MPD2    C513548   0.317   0.741  16.860  0.0213  0.5998 -0.2015
  922MPD2     H13549   0.216   0.832  17.219 -1.4879  2.5770 -0.7266
  922MPD2    H113550   0.126   0.648  16.847  0.2391  0.1141  0.9729
  922MPD2    H213551   0.495   0.848  16.881 -1.4402  2.3380 -1.0842
  922MPD2    H313552   0.337   0.721  16.756 -0.6717  2.8995 -0.7646
  922MPD2     N13553   0.023   0.708  17.071 -1.0885 -0.1980  0.6209
  922MPD2    H513554   4.703   0.682  16.991 -0.4991  0.2087  0.0648
  922MPD2    N113555   0.461   0.906  17.157 -0.1690  0.2126  0.2923
  922MPD2    H713556   0.430   0.923  17.252 -3.9807 -2.0036 -0.5399
  923MPD2     C13557   0.831   3.027   9.423  0.1850 -0.3313 -0.3229
  923MPD2    C113558   0.785   3.065   9.546  0.4119 -0.2705 -0.3384
  923MPD2    C213559   0.866   3.038   9.652  0.3416 -0.2636 -0.1144
  923MPD2    C313560   0.994   3.000   9.636  0.1228  0.1056  0.3960
  923MPD2    C413561   1.045   2.978   9.512 -0.3844  0.1572  0.0685
  923MPD2    C513562   0.963   2.986   9.405 -0.1664 -0.4647  0.1124
  923MPD2     H13563   0.827   3.067   9.749 -1.7364  0.5748 -1.2220
  923MPD2    H113564   1.149   2.951   9.502  0.0023  1.6886  0.0611
  923MPD2    H213565   0.766   3.035   9.336 -1.5088 -0.2218  0.9465
  923MPD2    H313566   1.006   2.972   9.306  0.0369 -1.4090  0.3303
  923MPD2     N13567   1.093   2.992   9.741 -0.5528  0.7093 -0.2116
  923MPD2    H513568   1.187   2.976   9.706  0.2581  2.8294  1.0083
  923MPD2    N113569   0.668   3.135   9.551  0.3867 -0.0852  0.2306
  923MPD2    H713570   0.627   3.175   9.468  0.1653 -2.0696 -0.6095
  924MPD2     C13571   1.252   1.146  15.389 -0.6783 -0.0949  0.0694
  924MPD2    C113572   1.184   1.150  15.508  0.7940  0.3603  0.1654
  924MPD2    C213573   1.230   1.235  15.608 -0.5017 -0.2328 -0.0434
  924MPD2    C313574   1.344   1.312  15.589 -0.4283  0.4230 -0.4086
  924MPD2    C413575   1.408   1.305  15.467  0.1539 -0.7802 -0.0742
  924MPD2    C513576   1.365   1.214  15.371  0.4736 -0.0562 -0.1267
  924MPD2     H13577   1.175   1.257  15.699  1.8573  0.5484  1.1954
  924MPD2    H113578   1.496   1.361  15.438 -0.3414  0.7993  1.4531
  924MPD2    H213579   1.223   1.085  15.305  1.1710 -0.4292 -0.3294
  924MPD2    H313580   1.413   1.213  15.274 -2.6730  3.0533 -1.7243
  924MPD2     N13581   1.392   1.394  15.697 -0.9287  0.4633 -0.2700
  924MPD2    H513582   1.459   1.467  15.673 -0.9474  0.5133 -0.1704
  924MPD2    N113583   1.069   1.072  15.517 -0.1958  0.1373  0.1256
  924MPD2    H713584   1.053   1.026  15.427 -0.7731  0.3506  0.1252
  925MPD2     C13585   4.567   4.430  14.963 -0.2671 -0.0495 -0.2308
  925MPD2    C113586   4.572   4.314  14.885  0.7684 -0.1163  0.1945
  925MPD2    C213587   4.562   4.193  14.954 -0.3923 -0.4325  0.2463
  925MPD2    C313588   4.553   4.179  15.090 -0.0146 -0.3174  0.0549
  925MPD2    C413589   4.535   4.291  15.163  0.3337 -0.3040  0.6135
  925MPD2    C513590   4.537   4.412  15.096  0.0669  0.2468  0.3243
  925MPD2     H13591   4.574   4.104  14.892 -0.2963 -0.8157  0.8087
  925MPD2    H113592   4.516   4.292  15.269  1.2519 -1.2320  0.7801
  925MPD2    H213593   4.566   4.528  14.917  3.2745  0.3581  0.5835
  925MPD2    H313594   4.544   4.504  15.151  0.8268  0.7582 -0.6268
  925MPD2     N13595   4.557   4.053  15.155  0.0484  0.5851 -0.0361
  925MPD2    H513596   4.553   4.045  15.256  0.0581 -0.2362 -0.1016
  925MPD2    N113597   4.590   4.325  14.747 -1.1228 -0.1065  0.1099
  925MPD2    H713598   4.615   4.418  14.717 -1.1737 -0.4926 -1.1558
  926MPD2     C13599   3.174   2.506  13.333 -0.1122  0.0148  0.4683
  926MPD2    C113600   3.077   2.575  13.267  1.0550 -0.4761 -0.3551
  926MPD2    C213601   3.109   2.644  13.152 -0.1858  0.2226 -0.2236
  926MPD2    C313602   3.243   2.649  13.109  0.1273  0.8358 -0.2816
  926MPD2    C413603   3.341   2.578  13.175 -0.1144  0.0618 -0.1954
  926MPD2    C513604   3.300   2.504  13.286 -0.1414 -0.2477 -0.2996
  926MPD2     H13605   3.030   2.688  13.093  1.1430  2.1833 -0.5375
  926MPD2    H113606   3.443   2.580  13.140 -0.2467 -0.9067 -0.6323
  926MPD2    H213607   3.157   2.447  13.422  0.0276  1.4504  1.4414
  926MPD2    H313608   3.374   2.444  13.338 -0.8984 -1.0859 -0.1845
  926MPD2     N13609   3.294   2.718  12.996 -0.1588  0.1423  0.0050
  926MPD2    H513610   3.395   2.721  12.989 -0.1113 -0.7867  0.2917
  926MPD2    N113611   2.949   2.582  13.308 -0.4456  0.7201  0.2286
  926MPD2    H713612   2.895   2.647  13.252  0.0610  2.1501  1.4196
  927MPD2     C13613   3.131   4.016  17.537 -0.7938 -0.0714 -0.9853
  927MPD2    C113614   3.102   4.140  17.589 -0.4943 -0.4295  0.0360
  927MPD2    C213615   3.131   4.254  17.514 -0.2592 -0.2169  0.8378
  927MPD2    C313616   3.192   4.245  17.395  0.3643  0.2933  0.4762
  927MPD2    C413617   3.218   4.116  17.346 -0.3745 -0.3324  0.1399
  927MPD2    C513618   3.183   4.002  17.413  0.0179  0.5281 -0.0780
  927MPD2     H13619   3.124   4.354  17.555  0.0443 -0.7277  2.1437
  927MPD2    H113620   3.256   4.096  17.246  0.8066  1.5956  0.1896
  927MPD2    H213621   3.115   3.928  17.597  2.2717 -0.2619 -0.4841
  927MPD2    H313622   3.196   3.908  17.361  0.0818 -0.2783  1.4071
  927MPD2     N13623   3.207   4.364  17.322 -0.3619  0.3049 -0.1725
  927MPD2    H513624   3.177   4.445  17.376 -1.4827 -0.8062  0.8854
  927MPD2    N113625   3.051   4.143  17.721 -0.0503 -0.0798 -0.0455
  927MPD2    H713626   3.017   4.056   0.016  1.7457 -1.6912 -1.9650
  928MPD2     C13627   1.728   2.464   1.541  0.0564  0.0740 -0.4498
  928MPD2    C113628   1.856   2.472   1.482  0.1097 -0.6095 -0.1535
  928MPD2    C213629   1.868   2.517   1.348  0.2203 -0.8398 -0.4878
  928MPD2    C313630   1.759   2.557   1.281 -0.2068  0.0496  0.3215
  928MPD2    C413631   1.638   2.540   1.343 -0.1661  0.0315 -0.3946
  928MPD2    C513632   1.619   2.501   1.471  0.0766  0.2017  0.1587
  928MPD2     H13633   1.970   2.535   1.317  0.5926 -0.4613  0.9288
  928MPD2    H113634   1.549   2.569   1.289  1.1399 -0.4160 -2.7982
  928MPD2    H213635   1.705   2.430   1.641  0.0964 -1.7646 -1.0646
  928MPD2    H313636   1.519   2.482   1.509  0.3053  0.3080  0.8071
  928MPD2     N13637   1.765   2.616   1.154  0.1602  0.0256 -0.5178
  928MPD2    H513638   1.676   2.658   1.130  1.0620  0.2347 -3.4311
  928MPD2    N113639   1.968   2.421   1.548 -0.3746  0.0898 -0.3085
  928MPD2    H713640   1.957   2.409   1.648  1.7043 -0.3428 -0.1388
  929MPD2     C13641   0.627   2.712  10.664 -0.8689 -0.6003 -0.0778
  929MPD2    C113642   0.665   2.837  10.707 -0.3484 -0.1322 -0.2032
  929MPD2    C213643   0.657   2.949  10.625  0.3422  0.3629  0.0088
  929MPD2    C313644   0.606   2.935  10.497  0.5210 -0.0522  0.0462
  929MPD2    C413645   0.567   2.812  10.459  0.2492  0.9404  0.4852
  929MPD2    C513646   0.589   2.702  10.539  0.3430 -0.0766 -0.3564
  929MPD2     H13647   0.681   3.045  10.671 -3.0478  1.3517 -0.3033
  929MPD2    H113648   0.511   2.805  10.366 -0.5881  1.1192  0.9778
  929MPD2    H213649   0.637   2.624  10.727  1.7781 -0.2680 -0.0353
  929MPD2    H313650   0.554   2.608  10.497 -1.9119 -0.1917  1.7643
  929MPD2     N13651   0.577   3.037  10.402 -0.1424 -0.5878 -0.2400
  929MPD2    H513652   0.519   3.015  10.321  0.2088 -0.8127 -0.4314
  929MPD2    N113653   0.715   2.837  10.842  0.2339  0.1939  0.1428
  929MPD2    H713654   0.742   2.745  10.875  2.4220 -0.2745 -2.9899
  930MPD2     C13655   2.634   0.344  14.462  0.0600  0.4290  1.1471
  930MPD2    C113656   2.728   0.301  14.369 -0.1885  0.4084 -0.4118
  930MPD2    C213657   2.701   0.183  14.303 -0.0625 -0.3331 -0.0262
  930MPD2    C313658   2.585   0.113  14.323  0.0462  0.4672 -0.1987
  930MPD2    C413659   2.506   0.157  14.427 -0.3053  0.1328 -0.3478
  930MPD2    C513660   2.520   0.276  14.489 -0.3539  0.4545 -0.0386
  930MPD2     H13661   2.785   0.144  14.247 -0.8278 -0.3187 -1.1576
  930MPD2    H113662   2.406   0.118  14.441 -0.0031 -0.1528  1.0263
  930MPD2    H213663   2.650   0.443  14.503  0.2629 -0.1488  2.4569
  930MPD2    H313664   2.446   0.302  14.563 -2.3283 -0.0103 -1.8526
  930MPD2     N13665   2.559   4.720  14.270  0.2544  0.4502 -0.4633
  930MPD2    H513666   2.475   4.673  14.301 -0.9866  2.0914 -1.2792
  930MPD2    N113667   2.845   0.382  14.348 -0.4219  0.1176 -0.5432
  930MPD2    H713668   2.861   0.457  14.415 -0.9608 -1.1630  1.0367
  931MPD2     C13669   2.983   4.521   0.704  0.1989  0.3667 -0.4086
  931MPD2    C113670   2.997   4.395   0.652  0.0704  0.5548 -0.8049
  931MPD2    C213671   3.056   4.296   0.723  0.3499  0.6175  0.0820
  931MPD2    C313672   3.065   4.309   0.860 -0.7676  0.0263  0.1419
  931MPD2    C413673   3.054   4.433   0.913 -0.1873  0.1526 -0.0419
  931MPD2    C513674   3.009   4.538   0.836 -1.1820  0.1997 -0.6727
  931MPD2     H13675   3.060   4.194   0.687  0.8141 -0.1505  2.3592
  931MPD2    H113676   3.067   4.455   1.018  0.4000  1.3036 -0.3557
  931MPD2    H213677   2.942   4.606   0.652 -1.1310  0.4968  0.8673
  931MPD2    H313678   2.989   4.633   0.885 -0.1396  0.2910 -0.4253
  931MPD2     N13679   3.073   4.201   0.948  0.5711 -0.3484 -0.0695
  931MPD2    H513680   3.074   4.212   1.049 -0.0235 -0.1787 -0.0865
  931MPD2    N113681   2.959   4.363   0.522  0.4672  0.7190 -0.4895
  931MPD2    H713682   2.971   4.267   0.493  0.0963  0.2129  1.0227
  932MPD2     C13683   4.522   4.258  11.199 -0.3196  0.6026 -0.1286
  932MPD2    C113684   4.617   4.220  11.292 -0.9705  0.0078  0.0657
  932MPD2    C213685   4.645   4.087  11.310  0.2883  0.2312 -0.3974
  932MPD2    C313686   4.581   3.997  11.230  0.0509  0.4566  0.0333
  932MPD2    C413687   4.493   4.041  11.129 -0.3420 -0.0504 -0.0263
  932MPD2    C513688   4.453   4.170  11.126 -0.1811 -0.7861 -0.6125
  932MPD2     H13689   4.720   4.050  11.379  0.6643 -1.3223 -1.6275
  932MPD2    H113690   4.453   3.967  11.061  1.1444 -0.4663 -0.4497
  932MPD2    H213691   4.489   4.360  11.188 -1.4430  0.3561  1.0860
  932MPD2    H313692   4.372   4.195  11.060  0.9528 -2.6624 -2.7566
  932MPD2     N13693   4.590   3.856  11.237  0.3236 -0.7812 -0.9032
  932MPD2    H513694   4.544   3.800  11.166 -0.2141 -1.0755 -0.3237
  932MPD2    N113695   4.689   4.320  11.369  0.0533  0.4690  0.4681
  932MPD2    H713696   0.022   4.286  11.435 -0.8941 -1.8615  0.2879
  933MPD2     C13697   2.551   2.678   2.109 -0.3994 -0.3633 -0.0183
  933MPD2    C113698   2.411   2.669   2.079  0.5020  0.4782  1.0006
  933MPD2    C213699   2.313   2.717   2.164 -0.0888  0.4732  0.2762
  933MPD2    C313700   2.356   2.767   2.289  0.1602 -0.3256  0.0344
  933MPD2    C413701   2.489   2.774   2.322  0.3395 -0.3458  0.2305
  933MPD2    C513702   2.588   2.733   2.231 -0.0083 -0.3729 -0.4842
  933MPD2     H13703   2.208   2.705   2.138 -0.4631 -0.7907  2.3863
  933MPD2    H113704   2.512   2.798   2.425 -0.4103  0.0448  0.3076
  933MPD2    H213705   2.625   2.647   2.036  0.4898  1.4476  0.1304
  933MPD2    H313706   2.691   2.760   2.248 -0.8029  1.8925  0.8386
  933MPD2     N13707   2.246   2.785   2.380 -0.5087  0.0685  0.0006
  933MPD2    H513708   2.149   2.772   2.351 -0.4953 -0.1868  0.0683
  933MPD2    N113709   2.395   2.623   1.949 -0.2590  0.2425 -0.4951
  933MPD2    H713710   2.482   2.592   1.907 -1.0753 -0.9506 -1.2790
  934MPD2     C13711   2.195   0.687   1.626  0.4395 -0.1916  0.0445
  934MPD2    C113712   2.221   0.553   1.640  0.1173  0.5577  0.1525
  934MPD2    C213713   2.117   0.469   1.683  0.7365  0.9950  0.0064
  934MPD2    C313714   1.991   0.521   1.715 -0.4307 -0.0964 -0.0294
  934MPD2    C413715   1.973   0.657   1.703 -0.3872 -0.4238  0.8264
  934MPD2    C513716   2.070   0.740   1.660 -0.4474 -0.4051  0.0117
  934MPD2     H13717   2.149   0.365   1.688  0.6156  1.0560  1.9975
  934MPD2    H113718   1.876   0.705   1.712 -0.3880  0.3773 -3.4755
  934MPD2    H213719   2.272   0.756   1.593 -1.3316  1.3312 -0.8963
  934MPD2    H313720   2.053   0.846   1.646 -0.5799 -0.3963  0.2346
  934MPD2     N13721   1.885   0.446   1.759 -0.0206 -0.2349 -0.1369
  934MPD2    H513722   1.797   0.496   1.765 -1.4060 -2.9147  1.7927
  934MPD2    N113723   2.341   0.502   1.594  0.4895  0.9171 -0.1608
  934MPD2    H713724   2.362   0.409   1.631 -1.6005  0.6465  0.3653
  935MPD2     C13725   1.468   4.190   1.965 -0.4471  1.3974  0.3595
  935MPD2    C113726   1.586   4.231   1.902 -0.7110  1.4095  0.5035
  935MPD2    C213727   1.634   4.359   1.925  0.1766  0.2230  0.2737
  935MPD2    C313728   1.562   4.446   1.998  0.2155  0.6010 -0.0923
  935MPD2    C413729   1.450   4.407   2.065 -0.0947 -0.4206 -0.2815
  935MPD2    C513730   1.405   4.278   2.053  0.4887  0.6159 -0.4706
  935MPD2     H13731   1.732   4.388   1.889 -0.1189  1.9056  0.7919
  935MPD2    H113732   1.396   4.477   2.128 -0.0021  0.0135 -0.6822
  935MPD2    H213733   1.415   4.097   1.947 -0.8500  1.7480 -0.2748
  935MPD2    H313734   1.315   4.248   2.105  1.9288  0.2574  1.7890
  935MPD2     N13735   1.583   4.585   2.012  0.5716 -0.3994  0.0452
  935MPD2    H513736   1.521   4.633   2.077  0.7544  1.2674 -1.0365
  935MPD2    N113737   1.654   4.144   1.808 -0.5201  0.3329  0.0129
  935MPD2    H713738   1.737   4.178   1.761  0.5466 -1.7788  0.3901
  936MPD2     C13739   0.037   2.101  12.330  0.3303 -0.1198  0.2359
  936MPD2    C113740   0.043   2.173  12.448  0.3931  0.2680 -0.2205
  936MPD2    C213741   0.074   2.307  12.446  0.0907 -0.4145  0.2800
  936MPD2    C313742   0.090   2.373  12.317 -1.0549 -0.7077 -0.1311
  936MPD2    C413743   0.081   2.294  12.205  0.7234 -0.3794  0.4331
  936MPD2    C513744   0.061   2.160  12.214 -0.6230  0.3742 -0.1076
  936MPD2     H13745   0.087   2.368  12.534  0.7025 -0.2189  0.0565
  936MPD2    H113746   0.108   2.327  12.105  0.6341 -1.5115  0.0429
  936MPD2    H213747   0.008   1.997  12.327 -0.5292  0.1288 -0.0808
  936MPD2    H313748   0.060   2.104  12.121  0.5169  2.5501 -1.4369
  936MPD2     N13749   0.120   2.512  12.296  0.3434 -0.0001  0.1093
  936MPD2    H513750   0.153   2.531  12.201 -1.6134 -1.0309 -0.7759
  936MPD2    N113751   0.022   2.118  12.578 -0.0495 -0.0102 -0.9616
  936MPD2    H713752   0.030   2.185  12.655  0.4436 -0.9526 -0.1872
  937MPD2     C13753   3.337   3.947  11.695 -0.1767  0.1192 -0.0157
  937MPD2    C113754   3.405   4.059  11.743  0.2085 -0.1944 -0.5233
  937MPD2    C213755   3.524   4.092  11.677  0.4176 -0.2957  0.0075
  937MPD2    C313756   3.567   4.012  11.574 -0.6563  0.4221 -0.1689
  937MPD2    C413757   3.504   3.896  11.531  0.0751 -0.3507 -0.6470
  937MPD2    C513758   3.381   3.868  11.586 -0.0472  0.4310 -0.2533
  937MPD2     H13759   3.582   4.172  11.721  0.8022 -0.1408 -0.7839
  937MPD2    H113760   3.537   3.833  11.450 -0.9325 -1.8425  0.1078
  937MPD2    H213761   3.252   3.911  11.751 -0.0213  0.8820  0.7031
  937MPD2    H313762   3.338   3.769  11.578  0.1716  0.0825  2.8146
  937MPD2     N13763   3.700   4.038  11.530 -0.4953 -0.0023  0.5555
  937MPD2    H513764   3.765   4.088  11.589 -2.1031 -0.2632  2.5430
  937MPD2    N113765   3.373   4.131  11.864 -0.9860 -0.0447  0.1253
  937MPD2    H713766   3.442   4.201  11.889 -1.4634  0.1117  1.0110
  938MPD2     C13767   0.795   0.108   1.154  0.1416  0.5783  0.8291
  938MPD2    C113768   0.889   0.110   1.261 -0.3381  0.8601  0.0970
  938MPD2    C213769   0.901   4.723   1.327  0.3173  0.0501 -0.1016
  938MPD2    C313770   0.844   4.603   1.299  0.1715  0.2594  0.2753
  938MPD2    C413771   0.764   4.608   1.194 -0.1803 -0.2276 -0.6910
  938MPD2    C513772   0.727   4.727   1.128 -0.3672  0.3490 -0.2077
  938MPD2     H13773   0.967   4.723   1.413  0.5363  2.1439 -0.2668
  938MPD2    H113774   0.720   4.523   1.143 -0.1818 -1.3204  1.1284
  938MPD2    H213775   0.775   0.195   1.093 -0.9264 -0.3244 -0.1101
  938MPD2    H313776   0.674   4.716   1.033 -1.5074 -0.5133  0.5170
  938MPD2     N13777   0.870   4.482   1.374 -0.0390  0.2566 -0.4802
  938MPD2    H513778   0.848   4.392   1.332 -1.5385  0.6946 -0.6234
  938MPD2    N113779   0.954   0.227   1.304  0.1551  0.0109 -0.6171
  938MPD2    H713780   1.031   0.218   1.370  0.1091 -0.9644 -0.6925
  939MPD2     C13781   2.407   1.405   1.068 -0.6836  0.4224  0.6074
  939MPD2    C113782   2.330   1.311   1.134  0.4292  0.5634  0.5000
  939MPD2    C213783   2.292   1.194   1.068  0.5071 -0.0482  0.1495
  939MPD2    C313784   2.343   1.168   0.945 -0.2095  0.4968  0.0551
  939MPD2    C413785   2.417   1.264   0.878  0.0938  0.1267  0.1455
  939MPD2    C513786   2.450   1.377   0.944  0.2427  0.1787 -0.6403
  939MPD2     H13787   2.223   1.122   1.111 -0.6601  0.8406 -0.2521
  939MPD2    H113788   2.447   1.248   0.775  1.8504  1.7707  0.4049
  939MPD2    H213789   2.429   1.498   1.120  0.7518 -1.1741  2.8460
  939MPD2    H313790   2.524   1.444   0.903  2.6445 -1.5964  0.7875
  939MPD2     N13791   2.304   1.047   0.884 -0.3659  1.0641  0.3789
  939MPD2    H513792   2.236   0.995   0.938  3.1868 -1.0523  2.7814
  939MPD2    N113793   2.285   1.350   1.263  0.1003 -0.8099 -0.0631
  939MPD2    H713794   2.284   1.450   1.283 -0.0375 -0.9636  0.6998
  940MPD2     C13795   1.022   1.731  13.720  0.1535 -0.1003 -0.3385
  940MPD2    C113796   1.133   1.814  13.736 -0.3499 -0.1575 -0.1839
  940MPD2    C213797   1.192   1.866  13.622  0.1830 -0.3261  0.4528
  940MPD2    C313798   1.144   1.834  13.494  0.4019  0.0833 -0.5299
  940MPD2    C413799   1.034   1.753  13.482 -0.0312  0.2184  0.5263
  940MPD2    C513800   0.981   1.694  13.593 -0.7004  0.1627  0.1509
  940MPD2     H13801   1.284   1.921  13.637  1.0251 -2.0292  1.6474
  940MPD2    H113802   0.993   1.727  13.385 -0.5679 -0.9318  1.0573
  940MPD2    H213803   0.976   1.682  13.805  0.9536 -0.7007 -0.2504
  940MPD2    H313804   0.903   1.619  13.580 -0.8237  0.6480 -1.8908
  940MPD2     N13805   1.210   1.868  13.377  0.0690  0.2478  0.5500
  940MPD2    H513806   1.175   1.832  13.289 -1.5472 -2.1749  2.2034
  940MPD2    N113807   1.182   1.854  13.865 -0.7585 -0.4484 -0.3408
  940MPD2    H713808   1.249   1.931  13.868 -1.2727 -0.0115  0.0385
  941MPD2     C13809   0.590   1.606  10.532 -0.3325 -0.2552  0.5584
  941MPD2    C113810   0.622   1.576  10.402 -0.2432 -0.1427 -0.7913
  941MPD2    C213811   0.562   1.464  10.339  0.1057 -0.4295 -0.0004
  941MPD2    C313812   0.471   1.386  10.406 -0.1543  0.3684  0.0376
  941MPD2    C413813   0.440   1.421  10.542 -0.1489  0.1471  0.7452
  941MPD2    C513814   0.498   1.531  10.605 -0.7290 -0.5114  0.7886
  941MPD2     H13815   0.581   1.440  10.235  0.4652  1.2480 -0.3241
  941MPD2    H113816   0.373   1.352  10.593  2.8211 -2.4538  1.1522
  941MPD2    H213817   0.628   1.696  10.579 -1.1041  1.4454 -2.1072
  941MPD2    H313818   0.476   1.549  10.710 -2.1972 -0.3439  0.4539
  941MPD2     N13819   0.412   1.266  10.360 -0.4259 -0.3056  0.1993
  941MPD2    H513820   0.403   1.198  10.435  1.0498 -0.7591 -0.0360
  941MPD2    N113821   0.694   1.663  10.316  0.1808  0.4252  0.3352
  941MPD2    H713822   0.714   1.627  10.224 -3.5642  0.2913 -0.4397
  942MPD2     C13823   0.449   1.870  10.014  0.6171 -0.1329  0.2552
  942MPD2    C113824   0.477   2.007  10.025 -0.7510 -0.5159 -0.7979
  942MPD2    C213825   0.562   2.072   9.941 -0.6016  0.0368 -0.0056
  942MPD2    C313826   0.622   2.001   9.836 -0.0211 -0.5891  0.0834
  942MPD2    C413827   0.589   1.875   9.809 -0.5343 -0.3157  0.0094
  942MPD2    C513828   0.508   1.808   9.905 -0.0425 -0.2560  0.2439
  942MPD2     H13829   0.584   2.178   9.952 -0.0086 -0.1306  0.4511
  942MPD2    H113830   0.647   1.810   9.745 -0.8255 -0.3661 -0.2034
  942MPD2    H213831   0.399   1.806  10.086  0.8266 -2.2779 -1.5110
  942MPD2    H313832   0.505   1.700   9.891  2.1556 -0.5826  2.3328
  942MPD2     N13833   0.712   2.057   9.744  0.2326 -0.6568 -0.5179
  942MPD2    H513834   0.751   1.998   9.671 -0.0362  1.1553 -2.1231
  942MPD2    N113835   0.428   2.072  10.140  0.1726  0.7260 -0.3686
  942MPD2    H713836   0.477   2.158  10.164  1.3940  0.0367 -0.3900
  943MPD2     C13837   3.617   1.876  10.128  0.2651  0.0509  0.0705
  943MPD2    C113838   3.593   1.749  10.182 -0.2332 -0.6391  0.0833
  943MPD2    C213839   3.539   1.745  10.314 -0.5035  0.8874 -0.0789
  943MPD2    C313840   3.511   1.863  10.390  0.5626 -0.1145 -0.6691
  943MPD2    C413841   3.531   1.981  10.332 -0.2428  0.4803 -0.6297
  943MPD2    C513842   3.589   1.987  10.203  0.3196  0.4974  0.1387
  943MPD2     H13843   3.502   1.653  10.357 -2.1940  1.2747 -0.6967
  943MPD2    H113844   3.516   2.077  10.380  0.0740 -0.3085  1.0534
  943MPD2    H213845   3.665   1.891  10.032 -1.5321 -2.2501 -1.1796
  943MPD2    H313846   3.607   2.085  10.160  1.3826  0.1182 -0.2746
  943MPD2     N13847   3.476   1.855  10.529 -0.4229 -0.3838  0.5853
  943MPD2    H513848   3.477   1.944  10.578 -0.6352  0.7784 -1.5077
  943MPD2    N113849   3.614   1.634  10.102  0.4956 -0.3994 -0.3459
  943MPD2    H713850   3.631   1.648  10.003 -2.1937 -2.1721 -1.0574
  944MPD2     C13851   3.503   1.106  11.121 -0.0756 -0.3881  0.3634
  944MPD2    C113852   3.532   1.246  11.127  0.0274 -0.2802 -0.5275
  944MPD2    C213853   3.466   1.318  11.228 -0.0224  0.5129  0.6142
  944MPD2    C313854   3.379   1.251  11.314  0.8368  0.4857  0.9824
  944MPD2    C413855   3.362   1.114  11.314  0.7714 -0.1673 -0.3026
  944MPD2    C513856   3.419   1.047  11.209 -0.2471 -0.1383  0.6637
  944MPD2     H13857   3.491   1.422  11.248  1.3629  0.2680  0.1426
  944MPD2    H113858   3.314   1.055  11.391 -0.4874  0.7463 -0.4032
  944MPD2    H213859   3.555   1.060  11.038  1.1238  5.0780 -1.9023
  944MPD2    H313860   3.407   0.940  11.207  3.1047 -0.4869 -1.0799
  944MPD2     N13861   3.331   1.328  11.421 -0.3440  0.0397  0.0813
  944MPD2    H513862   3.356   1.426  11.419  1.3175 -0.3822  0.0501
  944MPD2    N113863   3.623   1.299  11.035  0.2744  0.5551  0.0237
  944MPD2    H713864   3.652   1.247  10.952  2.7302  0.4569  0.9225
    1TMC1    C113865   2.386   1.007  14.525  0.1683 -0.2242 -0.1878
    1TMC1    C213866   2.337   0.946  14.411  0.7017 -0.4747 -0.3290
    1TMC1    C313867   2.390   0.830  14.368 -0.3005  0.5146  0.5035
    1TMC1    C413868   2.490   0.946  14.589 -0.2499 -1.1845 -0.1192
    1TMC1    C513869   2.516   0.818  14.562  0.3645  0.4805 -0.1602
    1TMC1    C613870   2.483   0.763  14.442 -0.3555 -0.0398 -0.2248
    1TMC1     C13871   2.381   1.151  14.550  0.4325  0.2641 -0.5365
    1TMC1     O13872   2.481   1.194  14.599 -0.1490 -0.7758 -0.2537
    1TMC1     H13873   2.272   0.998  14.343  1.5278  1.7647  0.5897
    1TMC1    H113874   2.530   0.990  14.680 -2.0401  1.2499 -0.5215
    1TMC1    H213875   2.511   0.661  14.420 -2.0439 -0.7356  0.8766
    1TMC1    C713876   2.621   0.758  14.634  0.0664  0.5924 -0.0385
    1TMC1    C813877   2.338   0.772  14.244  0.1554  0.3580 -0.4060
    1TMC1    O113878   2.727   0.815  14.651 -0.2614  0.2960 -0.6996
    1TMC1    O213879   2.218   0.776  14.242 -0.0360 -0.4158  0.1299
    1TMC1    O313880   2.593   0.628  14.646  0.4655 -0.2112 -0.0980
    1TMC1    H313881   2.496   0.619  14.654  0.5914 -0.5352  1.0217
    1TMC1    O513882   2.408   0.652  14.227  0.0445 -0.0324  0.4689
    1TMC1    H513883   2.503   0.675  14.225  0.7799 -3.2043 -0.7610
    2MPD2     C13884   2.212   1.627  14.567  0.2485 -0.2202  0.6712
    2MPD2    C113885   2.151   1.570  14.462 -0.1526  0.3905  0.1847
    2MPD2    C213886   2.165   1.431  14.440  0.7620 -0.3752 -0.5758
    2MPD2    C313887   2.248   1.361  14.523 -0.8725  0.0972 -0.1834
    2MPD2    C413888   2.306   1.425  14.631 -0.1825  0.5081  0.1361
    2MPD2    C513889   2.280   1.552  14.661 -0.2885  0.8626 -0.0496
    2MPD2     H13890   2.107   1.383  14.362  0.0263  0.9874 -0.8758
    2MPD2    H113891   2.359   1.367  14.705 -1.4615  1.0153  1.4490
    2MPD2    H213892   2.201   1.734  14.581 -1.2889 -0.3699  0.5861
    2MPD2    H313893   2.322   1.598  14.750 -1.4708  0.0030  0.9646
    2MPD2     N13894   2.277   1.221  14.502 -0.3488 -0.0129 -0.2357
    2MPD2    H513895   2.204   1.172  14.452 -1.9885  2.3589 -0.1270
    2MPD2    N113896   2.084   1.654  14.367  0.6571 -0.3385  0.3999
    2MPD2    H713897   2.090   1.752  14.392  2.2629 -0.0631 -1.0148
    3TMC2    C113898   1.924   1.731  14.224  0.3532 -0.0587  0.9531
    3TMC2    C213899   1.791   1.727  14.189 -0.1606 -0.2396  0.3859
    3TMC2    C313900   1.741   1.850  14.138  0.4686 -0.3960 -0.2084
    3TMC2    C413901   2.001   1.838  14.178 -0.4064 -0.6368  0.1287
    3TMC2    C513902   1.945   1.947  14.112  0.2841  1.3265 -0.8751
    3TMC2    C613903   1.811   1.954  14.099 -0.5040 -0.6231 -0.3709
    3TMC2     C13904   1.990   1.613  14.278  0.1803 -0.4219  0.3335
    3TMC2     O13905   1.925   1.512  14.285 -0.2928  0.2581  0.4013
    3TMC2     H13906   1.727   1.642  14.212  1.5257 -1.4095  0.7484
    3TMC2    H113907   2.109   1.824  14.180 -0.3879 -0.4382  0.7818
    3TMC2    H213908   1.754   2.026  14.042 -0.9360 -1.3424 -0.8306
    3TMC2    C713909   2.036   2.033  14.041 -0.2940 -0.2309 -0.4151
    3TMC2    C813910   1.596   1.859  14.119 -0.0633 -0.1624 -0.3931
    3TMC2    O113911   2.156   2.003  14.029  0.2824 -0.1931  0.0400
    3TMC2    O213912   1.548   1.945  14.050  0.7485  0.0627 -0.7909
    3TMC2    O513913   1.529   1.767  14.192  0.2684  0.6730 -0.0750
    3TMC2    H513914   1.569   1.723  14.270 -0.8891 -1.7574 -0.8530
    4TMC2    C113915   1.581   2.698  13.413 -0.1828  0.3953  0.3014
    4TMC2    C213916   1.660   2.758  13.318 -0.2007 -0.4575  0.3205
    4TMC2    C313917   1.788   2.713  13.308  0.6203  0.2757 -0.5925
    4TMC2    C413918   1.620   2.589  13.486 -0.3650  0.3126  0.1224
    4TMC2    C513919   1.754   2.557  13.483  0.4709 -0.2592 -0.0299
    4TMC2    C613920   1.842   2.617  13.390 -0.0631 -0.1313 -0.0146
    4TMC2     C13921   1.435   2.701  13.412  0.5022  1.4056 -0.7597
    4TMC2     O13922   1.377   2.684  13.518 -0.7916 -0.2706  0.3348
    4TMC2     H13923   1.618   2.841  13.261 -0.0005 -0.9818 -0.5941
    4TMC2    H113924   1.557   2.531  13.552  0.4431 -0.2906  0.3575
    4TMC2    H213925   1.947   2.591  13.386  0.2051  0.9867 -0.2978
    4TMC2    C713926   1.804   2.484  13.594 -0.1538  0.3046 -0.8509
    4TMC2    C813927   1.864   2.727  13.185 -0.4321 -0.2299 -0.4293
    4TMC2    O113928   1.726   2.452  13.677  0.0459  0.0893  0.1260
    4TMC2    O213929   1.981   2.695  13.175  0.1217 -0.5392  0.3155
    4TMC2    O513930   1.790   2.785  13.087 -0.1439 -0.4786  0.4365
    4TMC2    H513931   1.695   2.789  13.113 -0.5158  0.1334 -0.9952
    5MPD2     C13932   0.967   2.728  13.188  0.4425  0.4326 -0.4958
    5MPD2    C113933   1.065   2.729  13.092 -0.3385  0.5322  0.2430
    5MPD2    C213934   1.195   2.716  13.130 -0.0418  0.2421 -0.3251
    5MPD2    C313935   1.239   2.714  13.262  0.0457 -0.0953  0.3662
    5MPD2    C413936   1.142   2.718  13.358 -0.1310 -0.4236 -0.5639
    5MPD2    C513937   1.007   2.720  13.325 -0.1063 -0.4210  0.1106
    5MPD2     H13938   1.265   2.692  13.051 -1.3006  0.6962 -1.5774
    5MPD2    H113939   1.166   2.727  13.463 -0.9002  1.4515 -0.5487
    5MPD2    H213940   0.863   2.746  13.166 -0.4300 -1.7352  1.7801
    5MPD2    H313941   0.931   2.690  13.397 -0.2060  0.8444  0.5208
    5MPD2     N13942   1.378   2.706  13.289  0.3991 -0.5093  0.3219
    5MPD2    H513943   1.432   2.696  13.204 -0.3042 -0.4424 -0.1403
    5MPD2    N113944   1.013   2.729  12.961  0.1037 -0.5658 -0.3677
    5MPD2    H713945   0.912   2.724  12.954  0.3003  0.2678 -3.3816
    6MPD1     C13946   0.416   4.175  13.396  0.5103  0.2270 -0.6572
    6MPD1    C113947   0.454   4.084  13.489  0.4336  0.4623 -0.1585
    6MPD1    C213948   0.533   3.979  13.448 -0.6919  0.7861 -1.0135
    6MPD1    C313949   0.566   3.957  13.313 -0.4733 -0.3864 -0.3494
    6MPD1    C413950   0.527   4.052  13.220  0.0870 -0.1486 -0.0770
    6MPD1    C513951   0.448   4.158  13.264 -0.5149  0.1306  0.4696
    6MPD1     H13952   0.574   3.917  13.527 -2.3482  1.1772  0.1646
    6MPD1    H113953   0.537   4.054  13.113  0.0078 -1.8234 -0.1222
    6MPD1    H213954   0.359   4.261  13.428 -1.1064 -1.1367  0.1455
    6MPD1    H313955   0.408   4.233  13.197  1.8572 -1.5025 -2.7915
    6MPD1     N13956   0.632   3.845  13.263  0.0993 -0.7224 -0.9170
    6MPD1    H513957   0.642   3.837  13.162 -2.9673  1.0433 -1.3634
    6MPD1    N113958   0.409   4.097  13.622 -0.3195 -0.4318 -1.0166
    6MPD1    H613959   0.323   4.043  13.625  1.1952 -2.6502  1.6796
    6MPD1    H713960   0.457   4.046  13.696  0.9298  0.1815 -1.4028
    7MPD2     C13961   0.572   2.969  13.209 -1.2270  1.7088 -0.7255
    7MPD2    C113962   0.590   3.049  13.100 -0.3312  0.1922 -0.4949
    7MPD2    C213963   0.604   2.984  12.977 -0.4415  0.0962 -0.1148
    7MPD2    C313964   0.630   2.844  12.969  0.2085  0.1842  0.0958
    7MPD2    C413965   0.615   2.769  13.083  0.8633  0.7100  0.4434
    7MPD2    C513966   0.579   2.828  13.201 -0.7146 -0.0758 -0.0225
    7MPD2     H13967   0.621   3.048  12.892  2.7793  0.1940  0.6065
    7MPD2    H113968   0.615   2.661  13.073 -1.1343  0.6552  1.1274
    7MPD2    H213969   0.529   3.003  13.303  1.1462  0.8257  0.6839
    7MPD2    H313970   0.531   2.767  13.277 -0.3343  1.1323  1.1900
    7MPD2     N13971   0.668   2.781  12.847 -0.1697 -0.4096  0.6923
    7MPD2    H513972   0.668   2.679  12.852 -1.0201 -0.3565  1.6660
    7MPD2    N113973   0.595   3.190  13.100  0.0935 -0.0233  0.4089
    7MPD2    H713974   0.604   3.225  13.005  1.4801  0.4925  0.7339
    8TMC3    C113975   0.803   2.777  12.656  0.2398 -0.4167  0.0729
    8TMC3    C213976   0.883   2.713  12.745 -0.6879 -0.2791 -0.0829
    8TMC3    C313977   1.020   2.723  12.727 -0.1787 -0.0728  0.1968
    8TMC3    C413978   0.847   2.867  12.559 -0.1176  0.3612 -0.1612
    8TMC3    C513979   0.984   2.868  12.536 -0.6075 -0.3936  0.3472
    8TMC3    C613980   1.064   2.804  12.625  0.3732  0.0557 -0.1360
    8TMC3     C13981   0.701   2.843  12.730 -0.4325 -0.3352 -0.3707
    8TMC3     O13982   0.685   2.957  12.692 -0.3271  0.0730 -0.3399
    8TMC3     H13983   0.842   2.628  12.799  0.7190 -0.6645  0.3875
    8TMC3    H113984   0.783   2.915  12.487  0.2977 -0.9827 -1.4341
    8TMC3    H213985   1.167   2.836  12.618 -0.2283  2.0322  0.2698
    8TMC3    C713986   1.023   3.003  12.513 -0.4532 -0.2030  0.1006
    8TMC3    C813987   1.095   2.720  12.843  0.2446 -0.2126 -0.5768
    8TMC3    O113988   1.140   3.020  12.485 -0.1270 -0.6534  0.0229
    8TMC3    O213989   1.218   2.716  12.837 -0.3769 -0.4249  0.0254
    9TMC3    C113990   0.690   3.621  13.251  0.3215 -0.3452  0.1191
    9TMC3    C213991   0.759   3.648  13.130  0.1274  0.1932 -0.1328
    9TMC3    C313992   0.764   3.548  13.041 -0.7190 -0.2265  0.0338
    9TMC3    C413993   0.634   3.498  13.273  0.5016 -0.0326  1.1007
    9TMC3    C513994   0.644   3.403  13.176 -0.5711 -0.2777  0.1260
    9TMC3    C613995   0.711   3.423  13.056 -0.3833  0.4066 -0.1820
    9TMC3     C13996   0.639   3.728  13.336  0.4554  0.5663 -0.7746
    9TMC3     O13997   0.591   3.695  13.443 -0.2656 -0.3791  0.3605
    9TMC3     H13998   0.813   3.739  13.106 -0.9453 -0.2200 -4.1794
    9TMC3    H113999   0.573   3.476  13.359  0.0837 -2.2259  0.2448
    9TMC3    H214000   0.744   3.336  13.001  1.0021  0.8037  0.0159
    9TMC3    C714001   0.606   3.270  13.212 -0.2696  0.3460  0.6012
    9TMC3    C814002   0.840   3.571  12.919  0.1412 -0.3237 -0.3332
    9TMC3    O114003   0.571   3.245  13.328  0.6793 -0.3787  0.0370
    9TMC3    O214004   0.920   3.664  12.911  0.1457 -0.0889  1.2018
   10MPD2     C14005   1.071   3.295  12.556 -0.1411 -0.0889 -0.0081
   10MPD2    C114006   0.962   3.223  12.598  0.7515  0.7317 -0.9179
   10MPD2    C214007   0.879   3.289  12.686  0.7131  0.0284  0.3730
   10MPD2    C314008   0.904   3.418  12.738 -0.3625  0.2253  0.6375
   10MPD2    C414009   1.017   3.484  12.697 -0.0011 -0.1990 -1.1253
   10MPD2    C514010   1.098   3.422  12.606  1.0565 -0.6103 -0.8075
   10MPD2     H14011   0.796   3.231  12.725  0.4300  0.9534  1.1432
   10MPD2    H114012   1.044   3.582  12.732  1.1178 -1.4242  1.4134
   10MPD2    H214013   1.142   3.247  12.491  0.4183  2.7516 -1.5106
   10MPD2    H314014   1.183   3.469  12.559  0.1381  2.0925  0.2163
   10MPD2     N14015   0.814   3.469  12.832 -0.4516  0.2061  0.0912
   10MPD2    H514016   0.734   3.410  12.853 -1.9265  3.7078  4.4673
   10MPD2    N114017   0.933   3.088  12.570 -0.2412 -0.4904  0.3234
   10MPD2    H714018   0.846   3.052  12.608  0.9258 -1.0488  2.4499
   11MPD2     C14019   2.164   2.235  13.869 -0.4267  0.3309 -0.0398
   11MPD2    C114020   2.029   2.218  13.871  0.2679 -0.2671  0.0382
   11MPD2    C214021   1.952   2.290  13.775  0.7990 -0.1849 -0.1137
   11MPD2    C314022   2.008   2.369  13.682 -0.7393 -0.4267 -0.4205
   11MPD2    C414023   2.145   2.368  13.671  0.4921 -0.1892 -0.0623
   11MPD2    C514024   2.221   2.306  13.766  0.1410  0.1169  0.4652
   11MPD2     H14025   1.844   2.278  13.766  0.4689  2.6382 -0.1039
   11MPD2    H114026   2.198   2.429  13.599 -0.3740  1.5972  0.8121
   11MPD2    H214027   2.238   2.195  13.938  1.4149  0.8733 -1.6812
   11MPD2    H314028   2.329   2.319  13.759 -0.1124  1.3890 -1.1318
   11MPD2     N14029   1.938   2.451  13.585 -0.0700 -0.7995 -0.3237
   11MPD2    H514030   1.994   2.500  13.515 -0.8540 -1.1177 -1.1648
   11MPD2    N114031   1.972   2.129  13.966  0.1359 -0.4751 -0.1984
   11MPD2    H714032   1.874   2.147  13.987 -0.1209 -1.7044 -0.3412
    1MPD1     C14033   4.181   3.505  16.134 -0.8653  0.8408 -0.1123
    1MPD1    C114034   4.124   3.477  16.259 -0.4963 -0.0089  0.2933
    1MPD1    C214035   4.213   3.457  16.364 -1.5274  0.0889 -0.0523
    1MPD1    C314036   4.344   3.496  16.355 -0.7300  0.0906  0.3924
    1MPD1    C414037   4.397   3.539  16.237  0.6317  0.6653 -0.3241
    1MPD1    C514038   4.317   3.528  16.126  0.4964 -0.2449  0.2102
    1MPD1     H14039   4.161   3.425  16.454  0.4786  0.9572  1.4168
    1MPD1    H114040   4.502   3.562  16.223  0.6505  1.4441  1.0450
    1MPD1    H214041   4.124   3.514  16.043  0.4297  0.7224 -0.9406
    1MPD1    H314042   4.358   3.545  16.027 -0.8122  0.2175 -0.2467
    1MPD1     N14043   4.430   3.492  16.467  0.1485  0.6476  0.1983
    1MPD1    H514044   4.522   3.534  16.461 -0.2145  1.5280  0.7783
    1MPD1    N114045   3.987   3.444  16.276 -0.2614  0.0574  0.5961
    1MPD1    H614046   3.928   3.473  16.198 -1.1129  0.3811  1.3708
    1MPD1    H714047   3.946   3.474  16.364  1.0236  0.2700  1.1218
    2MPD1     C14048   4.689   3.215  17.506 -0.6783  0.7593 -0.2340
    2MPD1    C114049   0.042   3.300  17.451 -0.1196 -0.2553 -0.0548
    2MPD1    C214050   0.016   3.361  17.330 -0.6378 -0.3774  1.4710
    2MPD1    C314051   4.642   3.324  17.256 -0.5352  0.5348  0.6275
    2MPD1    C414052   4.545   3.249  17.312  0.0007 -0.7409 -0.7471
    2MPD1    C514053   4.569   3.190  17.433  0.0295 -0.3147  0.7297
    2MPD1     H14054   0.089   3.426  17.283 -0.7117 -1.7413 -0.5300
    2MPD1    H114055   4.450   3.228  17.265 -0.4621  1.1827 -0.7057
    2MPD1    H214056   4.712   3.170  17.602 -2.0826  0.9157  0.1857
    2MPD1    H314057   4.492   3.130  17.481  0.0064 -0.8542  0.0148
    2MPD1     N14058   4.627   3.372  17.125 -0.1789  0.4791 -0.1918
    2MPD1    H514059   4.691   3.442  17.090  0.5552 -0.4886 -0.8057
    2MPD1    N114060   0.156   3.338  17.527 -0.1665 -0.3052 -0.0824
    2MPD1    H614061   0.237   3.373  17.477  1.1472  0.1700  2.3567
    2MPD1    H714062   0.181   3.264  17.591 -2.6036 -1.2577 -0.2181
    3TMC3    C114063   4.576   3.379  16.895 -0.6745 -1.1747 -0.5088
    3TMC3    C214064   4.705   3.424  16.867  0.3138  0.1571  0.2702
    3TMC3    C314065   4.733   3.456  16.737 -1.0225  0.6651  0.7623
    3TMC3    C414066   4.472   3.388  16.805 -0.1952  0.2922  0.1046
    3TMC3    C514067   4.510   3.429  16.675  0.6342  0.1313 -0.0373
    3TMC3    C614068   4.639   3.450  16.642 -0.2001 -0.1489  0.0758
    3TMC3     C14069   4.542   3.327  17.027  0.6118  1.0974  0.0546
    3TMC3     O14070   4.436   3.265  17.035  0.4132 -0.0237 -0.4147
    3TMC3     H14071   0.050   3.425  16.938 -0.2831  0.9960  0.9495
    3TMC3    H114072   4.372   3.354  16.831 -0.6013  1.0355 -0.4676
    3TMC3    H214073   4.658   3.465  16.536 -0.5079  2.4171  0.3866
    3TMC3    C714074   4.403   3.418  16.578  0.1948  0.0465  0.4552
    3TMC3    C814075   0.137   3.496  16.707 -0.0185  0.2332  0.0114
    3TMC3    O114076   4.314   3.337  16.604  0.5992  0.3061 -0.1441
    3TMC3    O214077   0.221   3.456  16.786 -0.8662  0.7440 -0.0659
    4MPD1     C14078   0.492   3.800  16.507  1.1338 -0.4541  0.1875
    4MPD1    C114079   0.374   3.848  16.463 -0.0988  0.0026 -0.3109
    4MPD1    C214080   0.262   3.768  16.479  0.1241 -0.2670  0.5630
    4MPD1    C314081   0.267   3.666  16.578 -0.6367  0.4386  0.0346
    4MPD1    C414082   0.384   3.625  16.627  0.0626  0.3704 -0.3721
    4MPD1    C514083   0.502   3.694  16.595  0.0581 -0.0830 -0.0454
    4MPD1     H14084   0.167   3.798  16.436 -1.2117 -2.9151  1.6186
    4MPD1    H114085   0.399   3.546  16.699 -0.5415 -0.4143 -1.1014
    4MPD1    H214086   0.582   3.857  16.488 -1.2735  3.1852 -0.2523
    4MPD1    H314087   0.599   3.665  16.633 -0.8511  1.3495  3.3061
    4MPD1     N14088   0.149   3.598  16.616  0.4070  0.0633 -0.3171
    4MPD1    H514089   0.062   3.626  16.571  0.8275  1.3441 -0.3172
    4MPD1    N114090   0.373   3.969  16.385  0.2811 -0.1440  0.5376
    4MPD1    H614091   0.464   4.015  16.381  0.0364  0.0576 -2.5816
    4MPD1    H714092   0.305   4.036  16.420  0.3022 -0.2941  0.8700
    1TCq1    O114093   0.256   3.202  11.359  0.9673  0.0525  0.0343
    1TCq1    C114094   0.229   3.275  11.472  0.9942 -0.4440  0.7725
    1TCq1    O214095   0.252   3.248  11.588 -0.3086 -0.0836  0.3795
    1TCq1    C214096   0.233   3.406  11.412  0.1435  0.9536  1.0075
    1TCq1    C314097   0.145   3.420  11.315 -0.4279 -0.4095 -0.0113
    1TCq1    C414098   0.142   3.533  11.236 -0.0852  0.8259 -0.0431
    1TCq1    C514099   0.243   3.617  11.250 -0.8920 -0.4483  0.7239
    1TCq1    C614100   0.341   3.602  11.349 -0.2788 -0.9309 -0.1085
    1TCq1    C714101   0.339   3.492  11.432 -0.1027 -0.0431 -0.1597
    1TCq1    C814102   0.463   3.679  11.326  0.3083  0.4685 -0.6571
    1TCq1    O414103   0.454   3.758  11.232  0.0838 -0.0540  0.6295
    1TCq1    C914104   0.077   3.525  11.114  0.2314  0.5121 -0.0313
    1TCq1    O514105   4.715   3.451  11.110  0.2245 -0.0323 -0.4055
    1TCq1    O614106   0.107   3.605  11.025 -0.3784 -0.1581 -0.2072
    1TCq1    H114107   0.246   3.264  11.284 -1.0426 -0.0633  0.1989
    1TCq1    H214108   0.081   3.335  11.293 -0.5936 -1.2081  3.4938
    1TCq1    H314109   0.244   3.691  11.172  0.7718  1.4095  2.5234
    1TCq1    H414110   0.411   3.475  11.511 -2.0185  0.2845  1.6628
    2MPD1     C14111   0.961   3.748  11.353 -1.2327 -0.4157  0.1675
    2MPD1    C114112   0.922   3.656  11.453  0.6547 -0.6256  0.8547
    2MPD1    C214113   0.790   3.628  11.472 -0.2119 -0.5333  0.5541
    2MPD1    C314114   0.696   3.680  11.381 -0.3703 -0.1529  0.0010
    2MPD1    C414115   0.734   3.787  11.300  0.1164 -0.0501  0.4484
    2MPD1    C514116   0.865   3.821  11.284 -0.4969  0.3037 -0.4345
    2MPD1     H14117   0.763   3.560  11.552  1.8366 -0.2523  1.4708
    2MPD1    H114118   0.660   3.855  11.259  0.4089 -1.5373 -2.5554
    2MPD1    H214119   1.063   3.781  11.338  0.1978 -4.9227  0.0880
    2MPD1    H314120   0.896   3.909  11.228  1.8653 -0.3373 -0.1389
    2MPD1     N14121   0.564   3.636  11.400  0.6422 -0.6820 -0.9843
    2MPD1    H514122   0.554   3.559  11.465  1.2562  2.2188  2.5136
    2MPD1    N114123   1.023   3.600  11.539 -0.3919 -0.6234  0.2912
    2MPD1    H614124   1.009   3.499  11.543 -0.0940 -0.6391  0.8861
    2MPD1    H714125   1.117   3.618  11.505 -1.5100  2.3471 -1.2925
    1TMC1    C114126   2.621   0.241   0.870  0.3024  0.1664 -0.1623
    1TMC1    C214127   2.508   0.286   0.801 -0.2734  0.2324  0.0842
    1TMC1    C314128   2.386   0.253   0.854  0.0405 -1.0776 -0.0075
    1TMC1    C414129   2.609   0.174   0.987 -0.8042  0.0497 -0.0169
    1TMC1    C514130   2.480   0.141   1.027 -0.0309  0.4553  0.6375
    1TMC1    C614131   2.370   0.180   0.963  0.0263 -0.4086 -0.1712
    1TMC1     C14132   2.748   0.258   0.804 -0.0157 -0.6655 -1.1097
    1TMC1     O14133   2.745   0.304   0.689  0.0757 -0.0664  0.2560
    1TMC1     H14134   2.517   0.335   0.705 -0.3292 -1.0217 -0.5616
    1TMC1    H114135   2.689   0.134   1.048 -0.8035  1.0771  0.6640
    1TMC1    H214136   2.269   0.161   0.997  0.3633  0.0272  1.0991
    1TMC1    C714137   2.462   0.091   1.160 -0.0579 -0.3821  0.1297
    1TMC1    C814138   2.263   0.293   0.781  0.2103  0.4328 -0.1970
    1TMC1    O114139   2.541   0.018   1.216 -0.5493  0.5276 -0.1105
    1TMC1    O214140   2.162   0.346   0.841  0.0451 -0.2653 -0.2572
    1TMC1    O314141   2.395   0.189   1.216 -0.2582 -0.1698  0.1201
    1TMC1    H314142   2.357   0.248   1.148 -1.8511 -0.7702  0.5110
    1TMC1    O514143   2.257   0.193   0.686  0.0554  0.2071  0.1719
    1TMC1    H514144   2.341   0.150   0.661 -0.0240 -0.4386  0.9797
    2MPD1     C14145   3.254   0.389   0.840  0.7570  0.2816  0.3293
    2MPD1    C114146   3.214   0.307   0.942 -0.1581 -0.1171  0.9671
    2MPD1    C214147   3.087   0.274   0.971  0.1431  0.3904 -0.2823
    2MPD1    C314148   2.991   0.297   0.870  1.1789 -0.3681 -0.8974
    2MPD1    C414149   3.028   0.360   0.752  0.0751  0.1508 -0.4312
    2MPD1    C514150   3.159   0.401   0.740  0.2173  1.2052 -0.1618
    2MPD1     H14151   3.067   0.218   1.061  1.2127  0.7430  0.1716
    2MPD1    H114152   2.958   0.395   0.678  0.8323 -0.0116 -1.2313
    2MPD1    H214153   3.358   0.413   0.822  1.0099 -0.0177  1.4030
    2MPD1    H314154   3.196   0.443   0.647 -0.0998 -0.5642 -1.0794
    2MPD1     N14155   2.855   0.254   0.895 -0.4371  0.4052  0.3666
    2MPD1    H514156   2.841   0.225   0.992 -1.7174  0.7430  0.2878
    2MPD1    N114157   3.315   0.285   1.045  0.1219  0.0395  0.3300
    2MPD1    H614158   3.300   0.196   1.092  2.4003 -1.3349 -1.5783
    2MPD1    H714159   3.410   0.291   1.008  0.0649  0.3718  0.2412
    1MPD1     C14160   2.223   4.360  11.737  0.4045 -0.9176 -0.0514
    1MPD1    C114161   2.336   4.414  11.794  0.3508  0.8175  0.4482
    1MPD1    C214162   2.453   4.337  11.800  0.2503  0.4949 -0.2148
    1MPD1    C314163   2.444   4.196  11.787 -0.3121  0.6623  0.9278
    1MPD1    C414164   2.319   4.139  11.764  0.0802 -0.5369 -0.5746
    1MPD1    C514165   2.213   4.225  11.727  1.0304 -0.0675 -0.1941
    1MPD1     H14166   2.547   4.392  11.801 -0.2003  1.2700 -0.5444
    1MPD1    H114167   2.300   4.033  11.749  1.0172 -0.8147  0.1961
    1MPD1    H214168   2.144   4.431  11.712  1.4055  0.2558  0.1082
    1MPD1    H314169   2.119   4.188  11.688  0.5882  0.9769 -0.1113
    1MPD1     N14170   2.569   4.119  11.787  0.4832 -0.3264 -0.0997
    1MPD1    H514171   2.646   4.177  11.817  1.2294 -0.0709 -2.5157
    1MPD1    N114172   2.347   4.554  11.803 -0.3423 -0.7494  0.0453
    1MPD1    H614173   2.256   4.597  11.814 -0.5368 -1.7437  2.3273
    1MPD1    H714174   2.402   4.575  11.886  1.1407 -1.2169 -0.8177
    2MPD1     C14175   1.944   3.666  11.704  0.2512 -0.0394  0.1066
    2MPD1    C114176   1.823   3.673  11.639 -1.0756 -0.0463 -0.0770
    2MPD1    C214177   1.822   3.659  11.498  0.1052  0.0341  0.4041
    2MPD1    C314178   1.946   3.642  11.427 -0.0645 -0.3291 -0.1467
    2MPD1    C414179   2.062   3.647  11.497  0.1842 -0.0336  0.8378
    2MPD1    C514180   2.063   3.654  11.633 -0.5381 -0.1148 -0.3500
    2MPD1     H14181   1.726   3.659  11.448  0.3141 -1.1954  0.0124
    2MPD1    H114182   2.161   3.632  11.455 -0.4361  0.2055 -0.7177
    2MPD1    H214183   1.948   3.679  11.811  1.3667  1.1897 -0.0936
    2MPD1    H314184   2.157   3.648  11.686 -0.9538 -1.6394  0.2233
    2MPD1     N14185   1.950   3.646  11.289  0.0738 -0.3239 -0.6180
    2MPD1    H514186   2.040   3.623  11.248  1.0041 -0.0389  1.2259
    2MPD1    N114187   1.708   3.713  11.701  0.0443  0.3537  0.1866
    2MPD1    H614188   1.695   3.690  11.800 -0.4710  1.3175  0.3537
    2MPD1    H714189   1.622   3.698  11.648 -0.4068 -0.9191  1.2678
    3MPD1     C14190   1.568   3.153  10.542 -0.0218 -0.2194  0.4301
    3MPD1    C114191   1.591   3.129  10.676 -0.4257 -0.4024 -0.6804
    3MPD1    C214192   1.627   3.241  10.746 -0.4292  0.0766  0.1364
    3MPD1    C314193   1.658   3.369  10.695  0.0327 -0.8058  0.4329
    3MPD1    C414194   1.632   3.389  10.558  0.2645  0.2011  0.0924
    3MPD1    C514195   1.586   3.286  10.487  0.1543  0.1686  0.2438
    3MPD1     H14196   1.652   3.228  10.851  0.0641  1.0737  0.1416
    3MPD1    H114197   1.628   3.488  10.514  2.3323 -0.1812 -0.9743
    3MPD1    H214198   1.532   3.063  10.492 -2.0023  1.2910 -0.8395
    3MPD1    H314199   1.559   3.297  10.383 -3.1437  0.8842  1.1873
    3MPD1     N14200   1.713   3.470  10.784  0.2486 -0.8111  0.1786
    3MPD1    H514201   1.717   3.445  10.882  1.5696  1.3040  0.6380
    3MPD1    N114202   1.552   3.010  10.738  0.2008  0.3203 -0.0471
    3MPD1    H614203   1.606   3.001  10.824 -0.3328  1.8573  0.4432
    3MPD1    H714204   1.580   2.923  10.692 -0.4660  0.8653 -1.4673
    4MPD2     C14205   3.067   4.091  11.400  0.3263 -0.0211 -0.3483
    4MPD2    C114206   3.048   3.965  11.448  0.0787  0.1836  0.3448
    4MPD2    C214207   3.042   3.859  11.360 -0.5229  0.3271  0.7301
    4MPD2    C314208   3.057   3.879  11.221 -0.4862  0.2783 -0.5599
    4MPD2    C414209   3.090   4.009  11.176 -0.2494  0.3230 -0.5927
    4MPD2    C514210   3.099   4.111  11.268  0.4045 -0.3832 -0.1325
    4MPD2     H14211   3.010   3.762  11.397  0.1201 -0.0121  0.3892
    4MPD2    H114212   3.103   4.041  11.073  1.8843 -0.2650 -0.5017
    4MPD2    H214213   3.069   4.181  11.460  2.6659 -0.3180  0.0246
    4MPD2    H314214   3.112   4.210  11.227 -0.1558  0.2144  1.1496
    4MPD2     N14215   3.036   3.771  11.137  0.3342  0.9822  0.1147
    4MPD2    H514216   3.019   3.679  11.178  1.7824  0.4824 -0.3860
    4MPD2    N114217   3.028   3.934  11.587  0.3059 -0.1853 -0.0183
    4MPD2    H714218   3.028   3.836  11.614  1.7825 -0.2441 -0.2542
    5TMC3    C114219   2.945   3.958  11.809  0.4538  0.3673  0.8493
    5TMC3    C214220   2.822   4.016  11.834  0.0552 -0.0156  0.2671
    5TMC3    C314221   2.711   3.933  11.824  0.4527 -0.4458 -0.1519
    5TMC3    C414222   2.951   3.824  11.801 -0.3015  0.7000 -0.1977
    5TMC3    C514223   2.840   3.739  11.796  0.2068  0.2593 -0.1359
    5TMC3    C614224   2.717   3.795  11.815 -0.2725 -0.0499 -0.5454
    5TMC3     C14225   3.012   4.026  11.691 -0.6128  0.1786  0.0326
    5TMC3     O14226   3.000   4.147  11.694  0.2885 -0.1561 -0.8702
    5TMC3     H14227   2.808   4.122  11.815 -1.5735 -0.3546 -0.3708
    5TMC3    H114228   3.053   3.792  11.785  0.7036  2.0291  3.6404
    5TMC3    H214229   2.629   3.736  11.795 -1.6229  1.0632  2.1137
    5TMC3    C714230   2.842   3.646  11.689 -0.0844  0.0967  0.5094
    5TMC3    C814231   2.579   3.982  11.786 -0.0552 -0.5814  0.7882
    5TMC3    O114232   2.947   3.651  11.625 -0.3483  0.7306 -0.2049
    5TMC3    O214233   2.490   3.897  11.771  0.1289  0.2070 -0.0751
    6TMC3    C114234   1.873   3.702  11.068 -0.2870  1.2538 -1.1789
    6TMC3    C214235   1.793   3.652  10.974  0.0833 -0.2588  0.4787
    6TMC3    C314236   1.833   3.666  10.846 -0.1058 -0.5678 -0.5264
    6TMC3    C414237   1.981   3.777  11.035  0.3490 -1.5869  0.5887
    6TMC3    C514238   2.015   3.798  10.901  0.3696 -0.3149  0.0013
    6TMC3    C614239   1.942   3.737  10.806  0.2490  0.5082 -0.1647
    6TMC3     C14240   1.844   3.669  11.206  0.0176  0.5350 -0.1669
    6TMC3     O14241   1.725   3.679  11.231  0.2862 -0.1014 -0.7642
    6TMC3     H14242   1.717   3.586  11.013 -0.3750 -0.9000 -1.5480
    6TMC3    H114243   2.049   3.811  11.112 -0.1120 -0.4136  0.4822
    6TMC3    H214244   1.968   3.728  10.701  2.5702  1.2965  0.3501
    6TMC3    C714245   2.160   3.811  10.883  0.2336 -0.5191  0.4908
    6TMC3    C814246   1.766   3.588  10.742  0.2960  0.6573  0.1428
    6TMC3    O114247   2.235   3.804  10.981 -0.1489  0.2532  0.1274
    6TMC3    O214248   1.787   3.619  10.625  0.1442 -0.4971 -0.4587
    7MPD2     C14249   2.624   3.297  11.385 -0.0439  0.0093 -0.1762
    7MPD2    C114250   2.721   3.388  11.362  0.3260 -0.2683  0.0627
    7MPD2    C214251   2.757   3.478  11.461 -0.4770 -0.1769 -0.1575
    7MPD2    C314252   2.704   3.467  11.592 -0.9843  0.0816  0.1991
    7MPD2    C414253   2.606   3.368  11.612  0.3921 -0.0824  0.0584
    7MPD2    C514254   2.568   3.292  11.506 -0.1788 -0.0873  0.5923
    7MPD2     H14255   2.816   3.566  11.440 -1.2553  0.0105 -1.5442
    7MPD2    H114256   2.543   3.367  11.700  3.8402 -0.3814  2.5152
    7MPD2    H214257   2.585   3.230  11.311 -2.0271 -1.0190  1.8011
    7MPD2    H314258   2.480   3.232  11.527 -1.1310  1.0423 -0.1426
    7MPD2     N14259   2.737   3.563  11.691 -0.2723 -0.3836 -0.3624
    7MPD2    H514260   2.682   3.568  11.777  0.0774  2.9333 -0.3622
    7MPD2    N114261   2.766   3.390  11.231 -0.1205 -0.4003 -0.4542
    7MPD2    H714262   2.714   3.350  11.153 -0.3045 -4.3183  1.6898
    8TMC3    C114263   2.914   3.476  11.061 -0.3612  0.0131  0.1011
    8TMC3    C214264   2.806   3.474  10.978 -0.5147 -0.3328 -0.5242
    8TMC3    C314265   2.800   3.571  10.881 -0.4426  0.2761  0.4112
    8TMC3    C414266   3.029   3.549  11.049 -0.9013 -0.0079 -0.1867
    8TMC3    C514267   3.011   3.649  10.955  0.8101  0.0609  0.6677
    8TMC3    C614268   2.908   3.654  10.867  0.0546 -1.0667 -0.0613
    8TMC3     C14269   2.879   3.462  11.199  0.4136  0.9029  0.9504
    8TMC3     O14270   2.963   3.517  11.273  0.3192 -0.1574  0.4376
    8TMC3     H14271   2.722   3.408  10.993 -0.3270 -0.1292  1.4726
    8TMC3    H114272   3.109   3.528  11.118  0.1256  0.0497 -1.3746
    8TMC3    H214273   2.879   3.736  10.804  0.3694 -0.2037  0.9193
    8TMC3    C714274   3.048   3.772  11.002 -0.2232  0.0921 -0.3059
    8TMC3    C814275   2.668   3.628  10.855 -0.5733 -0.5631  0.2056
    8TMC3    O114276   3.043   3.866  10.925 -0.1888 -0.3222 -0.3045
    8TMC3    O214277   2.591   3.622  10.948 -0.1887  0.2966 -0.3826
    9MPD2     C14278   2.529   3.763  10.539 -0.4186  0.2821  0.1989
    9MPD2    C114279   2.532   3.741  10.678 -0.0911 -0.0393 -0.3714
    9MPD2    C214280   2.424   3.771  10.747  0.4032  0.5723 -0.6769
    9MPD2    C314281   2.305   3.826  10.685  0.2901 -0.7492  0.0883
    9MPD2    C414282   2.312   3.865  10.552 -0.6646  0.2280  0.1523
    9MPD2    C514283   2.425   3.837  10.484 -0.1428 -0.1906  0.3270
    9MPD2     H14284   2.424   3.747  10.853 -2.5269  0.1774 -0.7653
    9MPD2    H114285   2.228   3.889  10.488 -1.4093 -1.0761  0.6426
    9MPD2    H214286   2.606   3.713  10.480 -0.5063  1.3901 -0.8528
    9MPD2    H314287   2.427   3.839  10.376  0.5358 -2.5720  0.2801
    9MPD2     N14288   2.188   3.842  10.751 -0.3992 -0.2102  0.0964
    9MPD2    H514289   2.108   3.874  10.698  0.5387  2.6159  0.4390
    9MPD2    N114290   2.653   3.682  10.727 -0.0369  0.2246  0.7799
    9MPD2    H714291   2.728   3.669  10.660 -1.3093  1.5019 -0.9176
    1MPD1     C14292   2.663   2.218  16.534 -0.0247  0.7203 -0.3773
    1MPD1    C114293   2.634   2.116  16.452 -0.6764 -0.0856  0.6115
    1MPD1    C214294   2.590   2.144  16.322 -0.6026 -0.7039 -0.7823
    1MPD1    C314295   2.561   2.276  16.289 -0.2328 -0.1139  0.1470
    1MPD1    C414296   2.572   2.378  16.379 -0.8014 -0.0307  0.2926
    1MPD1    C514297   2.630   2.348  16.501  0.3576 -0.2594 -0.0069
    1MPD1     H14298   2.595   2.065  16.248  0.0368  0.3909 -1.8874
    1MPD1    H114299   2.526   2.475  16.360 -1.7971 -0.7476 -0.9506
    1MPD1    H214300   2.711   2.197  16.629  0.9546  0.0748 -1.0143
    1MPD1    H314301   2.643   2.422  16.579  2.5867  0.8066 -1.3801
    1MPD1     N14302   2.504   2.310  16.164 -0.1351  0.0843 -0.2096
    1MPD1    H514303   2.485   2.407  16.142  0.6005  0.2702 -0.0069
    1MPD1    N114304   2.678   1.989  16.481  0.1448 -1.0473 -0.8851
    1MPD1    H614305   2.673   1.980  16.582 -3.4900 -1.3733 -1.0969
    1MPD1    H714306   2.619   1.917  16.440  0.1366 -2.3223  1.3695
    2TMC2    C114307   2.294   2.273  15.739 -0.2085 -0.6061 -0.0515
    2TMC2    C214308   2.331   2.401  15.712 -0.4387  0.0890 -0.3711
    2TMC2    C314309   2.407   2.471  15.805 -0.7043  0.1776 -0.3144
    2TMC2    C414310   2.338   2.219  15.861 -0.4052 -0.1704 -0.9063
    2TMC2    C514311   2.409   2.288  15.949 -0.3053 -0.0908  0.2443
    2TMC2    C614312   2.451   2.417  15.920  0.6893  0.2143 -0.1214
    2TMC2     C14313   2.249   2.174  15.635  0.3041 -0.2060 -0.0741
    2TMC2     O14314   2.216   2.064  15.677  0.2449 -0.1503 -0.4681
    2TMC2     H14315   2.284   2.445  15.624 -0.5911  0.3431 -0.1612
    2TMC2    H114316   2.328   2.112  15.880 -2.0818  0.3487  1.1127
    2TMC2    H214317   2.537   2.455  15.975 -0.6886  2.2392  0.6200
    2TMC2    C714318   2.447   2.221  16.072  0.4131  0.1512 -0.0729
    2TMC2    C814319   2.465   2.597  15.758  0.1789 -0.6035  0.2717
    2TMC2    O114320   2.414   2.108  16.087  0.2585  0.5168 -0.6606
    2TMC2    O214321   2.456   2.638  15.643 -0.3610  0.1182  0.4903
    2TMC2    O514322   2.475   2.675  15.872 -0.4052 -0.2488  0.2852
    2TMC2    H514323   2.437   2.629  15.950 -0.3739  0.2825  0.6179
    3MPD1     C14324   2.034   2.040  15.203 -0.3704  0.2170 -0.1591
    3MPD1    C114325   2.107   2.152  15.173 -0.2125  0.9739  0.9817
    3MPD1    C214326   2.176   2.208  15.278 -0.4285  0.4955 -0.3570
    3MPD1    C314327   2.158   2.164  15.408 -0.6011 -0.2707  0.0304
    3MPD1    C414328   2.067   2.071  15.435  0.9642 -0.4095 -0.2145
    3MPD1    C514329   2.010   1.999  15.333  0.2732  0.2972  0.1995
    3MPD1     H14330   2.237   2.295  15.261 -0.1587  0.9066  2.6792
    3MPD1    H114331   2.044   2.037  15.535  1.3103 -1.8998 -0.6345
    3MPD1    H214332   1.973   1.990  15.129  0.3534  1.3777 -1.5437
    3MPD1    H314333   1.952   1.910  15.349  1.7011 -0.4512  1.2528
    3MPD1     N14334   2.233   2.224  15.513  0.3858 -0.1312 -0.1174
    3MPD1    H514335   2.268   2.317  15.495  1.0424  0.1837  2.7583
    3MPD1    N114336   2.133   2.187  15.041  0.0819  0.6338 -0.7659
    3MPD1    H614337   2.179   2.278  15.031  0.1646  0.7539  0.7060
    3MPD1    H714338   2.068   2.163  14.966  0.1799 -1.6661 -0.0931
    1TMC1    C114339   0.126   1.423  13.206  0.0307  0.2979 -0.2154
    1TMC1    C214340   0.029   1.334  13.180  0.9854 -0.2131  0.3939
    1TMC1    C314341   4.646   1.384  13.138  0.0028 -0.2240 -0.5397
    1TMC1    C414342   0.104   1.553  13.185  0.2990 -0.8652 -0.6303
    1TMC1    C514343   4.728   1.604  13.136  0.1316  0.2593  0.1699
    1TMC1    C614344   4.625   1.517  13.125  0.0061  0.5199  0.1853
    1TMC1     C14345   0.263   1.369  13.233 -0.0004 -0.3128 -0.3186
    1TMC1     O14346   0.278   1.251  13.209 -0.0476  0.6983 -0.0119
    1TMC1     H14347   0.038   1.228  13.202  0.5830 -0.0633  1.3050
    1TMC1    H114348   0.186   1.625  13.186 -1.2028  0.8322  0.0437
    1TMC1    H214349   4.530   1.557  13.093 -0.3281  0.0407  0.5869
    1TMC1    C714350   4.708   1.746  13.160  0.1968  0.0279  0.0786
    1TMC1    C814351   4.542   1.301  13.071  1.1371 -0.3255 -0.0739
    1TMC1    O114352   0.064   1.826  13.150 -0.2978  0.9233  0.0028
    1TMC1    O214353   4.469   1.356  12.988  0.3497 -0.0053  0.4112
    1TMC1    O314354   4.609   1.747  13.247 -0.1295  0.4278  0.1037
    1TMC1    H314355   4.564   1.660  13.250 -0.2687  0.4306 -2.1281
    1TMC1    O514356   4.503   1.215  13.172 -0.3832 -0.3976  0.1633
    1TMC1    H514357   4.569   1.191  13.240  0.6138 -0.8466 -0.9594
    2MPD2     C14358   0.537   1.556  13.381  0.3755  1.1104 -0.5306
    2MPD2    C114359   0.476   1.451  13.323 -0.2742 -0.4055  0.5703
    2MPD2    C214360   0.548   1.338  13.293 -0.1393 -0.2480  0.0522
    2MPD2    C314361   0.683   1.322  13.323 -0.0526  0.1180 -0.4752
    2MPD2    C414362   0.741   1.428  13.389  0.4624  0.1739  0.0157
    2MPD2    C514363   0.668   1.543  13.415 -0.6747 -0.0912  0.0466
    2MPD2     H14364   0.504   1.250  13.249  0.9869 -0.6572 -0.2682
    2MPD2    H114365   0.848   1.418  13.406  0.6272  1.8708 -0.0531
    2MPD2    H214366   0.483   1.648  13.401 -1.8478  0.1830 -2.2950
    2MPD2    H314367   0.716   1.628  13.462  0.4997 -0.9326  0.3793
    2MPD2     N14368   0.757   1.213  13.286 -0.2831 -0.2612 -0.3617
    2MPD2    H514369   0.853   1.220  13.318  0.5016  0.4597 -2.8388
    2MPD2    N114370   0.341   1.463  13.286 -0.2076 -0.3150 -0.7761
    2MPD2    H714371   0.287   1.545  13.312 -0.9187 -1.6356  1.8895
    3TCq1    O114372   0.916   0.569  13.029 -0.0969 -0.2876 -0.1420
    3TCq1    C114373   0.826   0.675  13.050 -0.1074  0.6028 -0.6918
    3TCq1    O214374   0.708   0.662  13.045  0.2546  0.4034  0.4134
    3TCq1    C214375   0.878   0.803  13.099  0.1841  0.5961 -0.5060
    3TCq1    C314376   1.000   0.804  13.166 -0.0133  0.3985  0.0584
    3TCq1    C414377   1.034   0.917  13.236  0.6764  0.5990 -0.0711
    3TCq1    C514378   0.944   1.020  13.255  0.2040 -0.4788 -0.1251
    3TCq1    C614379   0.826   1.010  13.183 -0.5506 -0.3622 -0.4028
    3TCq1    C714380   0.789   0.907  13.105 -0.3295 -0.3501  0.2494
    3TCq1    C814381   0.723   1.114  13.198  1.3597  0.1654  0.3819
    3TCq1    O414382   0.630   1.113  13.124  0.4418  0.0580 -0.3235
    3TCq1    C914383   1.170   0.937  13.284 -0.1782 -0.2283 -0.2114
    3TCq1    O514384   1.200   1.047  13.338  0.0489  0.1212  0.0351
    3TCq1    O614385   1.253   0.842  13.264  0.9472 -0.5681 -0.8924
    3TCq1    H114386   1.008   0.602  13.035 -0.1124 -0.3471  0.3860
    3TCq1    H214387   1.078   0.729  13.156 -0.7836 -0.3447 -0.3804
    3TCq1    H314388   0.980   1.115  13.292 -0.8610 -0.2576  0.3326
    3TCq1    H414389   0.700   0.908  13.043  0.4519  3.0798 -0.7979
    1MPD2     C14390   4.287   2.561  15.292 -0.1299  0.3601 -0.4554
    1MPD2    C114391   4.167   2.579  15.235 -0.1012  0.0202 -0.2618
    1MPD2    C214392   4.059   2.591  15.312 -0.3101  0.5447  0.4566
    1MPD2    C314393   4.072   2.603  15.449  0.1244 -0.0049  0.3517
    1MPD2    C414394   4.195   2.584  15.504  0.1463 -0.0480 -0.2135
    1MPD2    C514395   4.298   2.550  15.427 -0.1043 -0.0863 -0.2578
    1MPD2     H14396   3.956   2.601  15.277 -0.0377  1.5205 -0.0555
    1MPD2    H114397   4.207   2.578  15.611  0.1398  0.8517 -0.1573
    1MPD2    H214398   4.381   2.561  15.240  0.3474 -1.4369  0.3703
    1MPD2    H314399   4.398   2.535  15.466  0.4738  1.5672 -1.0690
    1MPD2     N14400   3.947   2.614  15.519 -0.1344 -0.2499 -1.3007
    1MPD2    H514401   3.865   2.625  15.459  0.7567  0.4140 -2.4115
    1MPD2    N114402   4.155   2.568  15.093  0.0842 -0.2954  0.0794
    1MPD2    H714403   4.236   2.588  15.036  0.5466 -0.2841  0.7407
    2TMC3    C114404   4.049   2.510  14.891  0.0999  0.4842  0.3771
    2TMC3    C214405   3.957   2.419  14.848  0.1178  0.0021 -0.3714
    2TMC3    C314406   3.894   2.421  14.734  0.0586 -0.7051 -0.7049
    2TMC3    C414407   4.064   2.623  14.815 -0.3052 -0.6445 -0.2729
    2TMC3    C514408   3.993   2.632  14.699  0.3501  0.3036 -0.0110
    2TMC3    C614409   3.901   2.540  14.663 -0.6510  0.2923  0.4008
    2TMC3     C14410   4.042   2.541  15.029 -0.1459 -0.4311 -0.0415
    2TMC3     O14411   3.931   2.514  15.078 -0.1844 -0.2290 -0.5971
    2TMC3     H14412   3.940   2.335  14.915 -1.6941 -0.2099 -1.1196
    2TMC3    H114413   4.135   2.691  14.862 -0.4978 -1.1251  0.7196
    2TMC3    H214414   3.817   2.565  14.600 -0.1490 -0.6435 -0.6411
    2TMC3    C714415   3.994   2.753  14.620 -0.3484 -0.1020 -0.0879
    2TMC3    C814416   3.747   2.392  14.758 -0.8441  0.2571 -0.5035
    2TMC3    O114417   3.898   2.762  14.541 -0.0490  0.1772 -0.8154
    2TMC3    O214418   3.671   2.349  14.669  0.2961 -0.5749 -0.2893
    3TCq1    O114419   0.165   3.523  14.613 -0.0193 -0.7099 -0.4773
    3TCq1    C114420   0.066   3.609  14.569 -0.6377  0.4002 -0.1859
    3TCq1    O214421   0.080   3.716  14.517 -0.2893 -0.4644  0.1281
    3TCq1    C214422   4.678   3.558  14.621 -0.0042 -0.5885  0.1313
    3TCq1    C314423   4.675   3.537  14.756  0.3073 -0.1070  0.1594
    3TCq1    C414424   4.581   3.447  14.809  0.2577 -0.5900 -0.5084
    3TCq1    C514425   4.497   3.380  14.721 -0.2239  0.3666  0.4535
    3TCq1    C614426   4.508   3.404  14.589  0.6613  0.2194  0.8448
    3TCq1    C714427   4.592   3.496  14.530  0.3574 -0.1866  0.1780
    3TCq1    C814428   4.432   3.320  14.505 -0.7208  0.0288 -0.5597
    3TCq1    O414429   4.412   3.361  14.394 -0.4373 -0.1498  0.6905
    3TCq1    C914430   4.576   3.423  14.956 -0.6365  0.1618  0.0432
    3TCq1    O514431   4.485   3.341  14.987 -0.1365  0.2248  0.2752
    3TCq1    O614432   4.667   3.467  15.031 -0.2317  0.4744 -0.0429
    3TCq1    H114433   0.131   3.450  14.669 -0.4829  0.2708  0.5219
    3TCq1    H214434   4.732   3.593  14.829  0.6400  0.7703 -0.7813
    3TCq1    H314435   4.429   3.313  14.772  0.8410 -0.4566  0.7912
    3TCq1    H414436   4.599   3.520  14.424 -0.7230  3.5334  0.9355
    4MPD2     C14437   4.247   3.132  14.387 -0.1287  0.2543  0.2815
    4MPD2    C114438   4.312   3.106  14.508 -0.8465 -0.0460  0.7960
    4MPD2    C214439   4.265   3.011  14.594  0.1038 -0.0414  0.0403
    4MPD2    C314440   4.153   2.937  14.553 -0.2376 -0.5747  0.2969
    4MPD2    C414441   4.085   2.963  14.436 -0.7272 -0.1540 -0.0654
    4MPD2    C514442   4.134   3.062  14.353  0.3517  0.5538  0.2825
    4MPD2     H14443   4.310   2.982  14.688 -1.4317  3.4608  1.8197
    4MPD2    H114444   3.984   2.929  14.419 -0.4529 -0.2350 -1.5107
    4MPD2    H214445   4.283   3.201  14.311  1.0069 -2.1334 -1.3368
    4MPD2    H314446   4.096   3.089  14.255 -1.3313 -1.0113  0.4901
    4MPD2     N14447   4.114   2.823  14.636  0.8727  0.1320 -0.3207
    4MPD2    H514448   4.172   2.792  14.713 -0.6435  1.0521  1.1790
    4MPD2    N114449   4.405   3.196  14.556 -0.2409 -0.0011  0.6649
    4MPD2    H714450   4.441   3.180  14.650  1.7313  0.7364  0.0247
    5TMC2    C114451   3.580   2.502  15.566  0.1623  0.2313  0.6600
    5TMC2    C214452   3.512   2.514  15.683  0.1885 -0.1456  0.0377
    5TMC2    C314453   3.586   2.551  15.795  0.7189  0.4210 -0.5485
    5TMC2    C414454   3.710   2.526  15.556  0.1044 -0.2963 -0.0328
    5TMC2    C514455   3.779   2.575  15.661  0.6732  0.4600  0.0973
    5TMC2    C614456   3.715   2.590  15.782 -0.8344  0.2615  0.1067
    5TMC2     C14457   3.506   2.445  15.452  0.4336 -0.3239  0.1532
    5TMC2     O14458   3.433   2.348  15.474 -0.4235 -0.5435 -0.4710
    5TMC2     H14459   3.407   2.489  15.679  0.1859 -0.2567  0.7324
    5TMC2    H114460   3.754   2.488  15.464 -0.6136 -0.3096 -0.3684
    5TMC2    H214461   3.770   2.627  15.868 -0.3486  0.6355 -0.3596
    5TMC2    C714462   3.919   2.591  15.649  0.0356  0.4754 -0.1356
    5TMC2    C814463   3.521   2.541  15.917 -0.3894  0.1806  0.7043
    5TMC2    O114464   3.994   2.596  15.745 -0.2911  0.7359  0.6118
    5TMC2    O214465   3.407   2.579  15.927  0.0059 -0.0438  0.1033
    5TMC2    O514466   3.560   2.421  15.961  0.3783 -0.3536 -0.2252
    5TMC2    H514467   3.649   2.403  15.923  1.1240  0.0240  1.3694
    6MPD2     C14468   3.505   2.337  14.942 -0.0023 -0.0694 -0.4807
    6MPD2    C114469   3.610   2.424  14.967  0.5597  0.1637 -0.2911
    6MPD2    C214470   3.609   2.486  15.092 -0.1019 -0.3178 -0.0078
    6MPD2    C314471   3.532   2.434  15.199 -0.0207 -0.5893  0.0561
    6MPD2    C414472   3.436   2.337  15.171 -0.1663  0.3317 -0.2334
    6MPD2    C514473   3.421   2.295  15.040 -0.4450  0.0266  0.8337
    6MPD2     H14474   3.702   2.530  15.125 -0.1553  1.0629 -1.6984
    6MPD2    H114475   3.368   2.301  15.248  0.5182  0.0714  0.2485
    6MPD2    H214476   3.480   2.294  14.846 -1.6420 -1.4129  0.5533
    6MPD2    H314477   3.341   2.226  15.013 -1.0248  1.2106 -0.5155
    6MPD2     N14478   3.562   2.482  15.330 -0.0833 -0.2468  0.1608
    6MPD2    H514479   3.626   2.560  15.340  0.6269 -0.6661 -1.1885
    6MPD2    N114480   3.720   2.444  14.883  0.5188 -0.0851  0.0794
    6MPD2    H714481   3.801   2.484  14.929 -0.7039  2.4461  0.0179
  945NH3     N114482   0.807   0.421  15.996 -0.3160  0.1780 -0.5033
  945NH3     H214483   0.839   0.472  16.078 -0.1014  0.6784 -0.8996
  945NH3     H314484   0.729   0.366  16.030 -0.3817  0.4585 -0.1953
  945NH3     H414485   0.772   0.491  15.932  1.8023  1.2731 -0.4772
  946SOD     NA14486   1.406   1.021   1.211 -0.0836  0.1511 -0.0780
  947SOD     NA14487   1.259   2.390  13.854  0.0102 -0.4400  0.1470
  948SOD     NA14488   0.893   3.711  10.818 -0.5355 -0.5608  0.7649
  949SOD     NA14489   3.282   0.039  13.764  0.4733  0.0773 -0.3413
  950SOD     NA14490   1.931   3.403   7.325 -0.1210 -0.2797 -0.8613
  951SOD     NA14491   4.555   0.676   4.184  0.6437 -0.2467  0.0119
  952SOD     NA14492   1.287   0.074  17.490 -0.1107 -0.1448 -0.1796
  953SOD     NA14493   1.730   4.310  16.539  0.2813  0.3588 -0.7169
  954SOL     OW14494   2.496   1.783  12.090 -0.4412  0.1876 -0.6896
  954SOL    HW114495   2.421   1.727  12.110  0.2673 -0.1135  1.1536
  954SOL    HW214496   2.461   1.833  12.017 -1.4995  0.7082  0.1831
  955SOL     OW14497   4.618   3.114  15.699 -0.3398  0.0950 -0.1090
  955SOL    HW114498   4.690   3.079  15.647 -1.5072 -1.6429 -0.5613
  955SOL    HW214499   4.573   3.174  15.639 -0.1678 -0.4377 -0.7697
  956SOL     OW14500   0.969   1.619   5.328 -0.0024 -0.4373 -0.4356
  956SOL    HW114501   0.891   1.657   5.289  0.4678  4.0206  2.9495
  956SOL    HW214502   0.959   1.526   5.306  0.0301 -0.4088 -0.5713
  957SOL     OW14503   4.620   2.409  14.655 -0.2654  0.4444  0.0004
  957SOL    HW114504   4.622   2.465  14.578  1.0799  0.8056  0.3099
  957SOL    HW214505   4.644   2.329  14.608 -1.1689  0.1144  0.0867
  958SOL     OW14506   1.673   0.586   0.765  0.1055  0.4972 -0.2203
  958SOL    HW114507   1.719   0.526   0.706  1.1451  1.9527 -0.8899
  958SOL    HW214508   1.746   0.631   0.807 -1.0057  1.1029  1.0425
  959SOL     OW14509   1.014   1.910   2.036  0.0041 -0.0967  0.1074
  959SOL    HW114510   0.958   1.956   1.974  0.9528  0.6480 -0.1800
  959SOL    HW214511   0.945   1.862   2.083  0.1634  1.1937  1.6454
  960SOL     OW14512   3.617   2.714  17.576 -0.0175  0.0570 -1.0515
  960SOL    HW114513   3.639   2.719  17.669 -2.8726 -0.7083 -0.3276
  960SOL    HW214514   3.704   2.716  17.535  0.1813  0.7133 -0.6103
  961SOL     OW14515   3.830   3.054  11.149  0.2149  0.0128 -0.1222
  961SOL    HW114516   3.753   3.094  11.189 -0.6226 -1.3047 -0.4462
  961SOL    HW214517   3.800   3.036  11.060 -0.2978  1.3891 -0.2273
  962SOL     OW14518   4.005   3.727  14.289  0.1626 -0.9814 -0.2952
  962SOL    HW114519   3.971   3.709  14.201 -0.7138  2.2307 -0.6045
  962SOL    HW214520   4.030   3.819  14.279 -2.9730  0.1833  2.8364
  963SOL     OW14521   1.245   2.205  17.104 -0.1455 -0.2834 -0.2073
  963SOL    HW114522   1.284   2.212  17.016  1.5150 -1.7371  0.4074
  963SOL    HW214523   1.164   2.252  17.086 -0.4977 -0.0991  1.9923
  964SOL     OW14524   0.588   0.720  12.595  0.1446 -0.5436  0.3580
  964SOL    HW114525   0.620   0.673  12.519  0.0792  2.1360 -1.3437
  964SOL    HW214526   0.587   0.649  12.660  1.2535 -1.0199 -0.1543
  965SOL     OW14527   4.294   4.609   3.658  0.3110 -0.1143 -0.2799
  965SOL    HW114528   4.201   4.629   3.648  0.3536  0.8018  1.1888
  965SOL    HW214529   4.306   4.627   3.751  0.3961 -0.7902 -0.1621
  966SOL     OW14530   0.385   4.367  14.699  0.7426  0.0811 -0.7912
  966SOL    HW114531   0.467   4.320  14.683  0.4394 -0.7320  0.0813
  966SOL    HW214532   0.330   4.295  14.729  1.0113  0.5097  0.7149
  967SOL     OW14533   2.998   0.548   6.048  0.1689 -0.3276  0.5948
  967SOL    HW114534   3.091   0.529   6.030  0.2413  0.8256 -0.2724
  967SOL    HW214535   2.953   0.499   5.979  0.5576  0.4475 -0.2129
  968SOL     OW14536   1.677   3.183   9.993  0.3263 -0.5167  0.4296
  968SOL    HW114537   1.745   3.156  10.055  0.2310 -1.3547  0.1691
  968SOL    HW214538   1.601   3.196  10.049 -0.5012 -0.8162 -0.6136
  969SOL     OW14539   3.758   3.842   3.921  0.0382 -0.3510 -0.0027
  969SOL    HW114540   3.803   3.910   3.873  0.1064  0.1580  0.7811
  969SOL    HW214541   3.734   3.891   4.000 -0.0471  1.3172 -1.0661
  970SOL     OW14542   1.112   3.937  15.890 -0.1310  0.0209 -0.1989
  970SOL    HW114543   1.069   3.883  15.824  0.9329 -1.3908  0.2738
  970SOL    HW214544   1.102   4.024  15.851 -3.1211 -0.6993 -1.0563
  971SOL     OW14545   3.643   4.660  11.634  0.4079  0.3651 -0.0200
  971SOL    HW114546   3.556   4.671  11.596  0.6279  1.4629 -0.1953
  971SOL    HW214547   3.673   4.577  11.596  0.5717 -0.5129  2.0069
  972SOL     OW14548   0.367   0.129   5.288  0.3798  0.5830  0.4701
  972SOL    HW114549   0.389   0.047   5.331  1.4558  0.4396 -0.3658
  972SOL    HW214550   0.324   0.095   5.209  1.0804 -0.7535  0.6761
  973SOL     OW14551   1.928   0.555   3.054 -0.7375  0.5176  0.2652
  973SOL    HW114552   1.994   0.508   3.104  1.5319  1.0257 -2.2063
  973SOL    HW214553   1.983   0.609   2.997  0.4401  0.3547  1.2330
  974SOL     OW14554   4.296   0.307   1.111  0.2649  0.0508 -0.1021
  974SOL    HW114555   4.218   0.338   1.156 -1.0071  1.3044 -3.1269
  974SOL    HW214556   4.347   0.288   1.189 -2.4004 -0.5340  1.4793
  975SOL     OW14557   3.358   2.509   8.475  0.5138 -0.0213  0.3093
  975SOL    HW114558   3.281   2.486   8.424 -1.3805  0.6401  2.8569
  975SOL    HW214559   3.359   2.453   8.553 -0.0662  1.0307  1.0713
  976SOL     OW14560   4.437   3.439   4.692  0.4225 -0.1576  0.3109
  976SOL    HW114561   4.513   3.387   4.666  2.0564  2.6623 -0.5530
  976SOL    HW214562   4.374   3.367   4.701 -0.3566  0.7466  2.2717
  977SOL     OW14563   2.551   2.414   3.863  0.1823 -0.6739  0.5769
  977SOL    HW114564   2.644   2.395   3.877 -0.0394 -3.3339 -1.4328
  977SOL    HW214565   2.559   2.481   3.795 -0.8427 -0.7927  0.3362
  978SOL     OW14566   3.132   4.440  16.368 -0.9135 -0.5812 -0.1123
  978SOL    HW114567   3.213   4.417  16.415 -0.5281  0.8110 -0.0743
  978SOL    HW214568   3.155   4.529  16.341  1.1764 -0.5387  1.7859
  979SOL     OW14569   2.040   0.930   3.102 -0.5230  0.0161 -0.1591
  979SOL    HW114570   2.081   0.888   3.178 -1.3518 -0.8659 -0.1930
  979SOL    HW214571   1.952   0.947   3.137  0.6388  0.7707  2.4234
  980SOL     OW14572   4.102   2.165   6.732 -0.0905  0.0936  0.0549
  980SOL    HW114573   4.064   2.206   6.809 -0.3661  0.1845 -0.1326
  980SOL    HW214574   4.027   2.143   6.677  0.5997  0.5912 -1.0841
  981SOL     OW14575   0.895   0.368  17.520  0.5861  0.1396 -0.2907
  981SOL    HW114576   0.928   0.299  17.578 -1.3755  0.8943  1.7152
  981SOL    HW214577   0.903   0.325  17.435 -1.2114  0.8352 -0.8063
  982SOL     OW14578   2.056   0.214   4.315  0.4614 -0.0028  0.2904
  982SOL    HW114579   2.059   0.134   4.263  0.4809  1.4601 -1.9583
  982SOL    HW214580   2.149   0.222   4.335  0.6978 -2.6613  0.2815
  983SOL     OW14581   3.910   2.115   2.141 -0.3791 -0.2973 -0.0040
  983SOL    HW114582   3.928   2.146   2.230 -0.5515 -2.3321  0.7404
  983SOL    HW214583   3.828   2.069   2.157  0.4416 -1.0764  2.0084
  984SOL     OW14584   0.169   4.338  16.782  0.4439 -1.3512  0.3439
  984SOL    HW114585   0.191   4.247  16.802  0.7938 -1.3061  0.1497
  984SOL    HW214586   0.117   4.330  16.701 -2.3813  0.0615  2.0193
  985SOL     OW14587   2.491   0.842   7.200 -0.0820  0.1938 -0.5678
  985SOL    HW114588   2.532   0.756   7.187  0.3346  0.2578  0.2890
  985SOL    HW214589   2.402   0.835   7.166  0.1029 -0.2970 -0.9623
  986SOL     OW14590   4.235   4.063   3.398 -0.5795 -0.0623  0.0075
  986SOL    HW114591   4.197   4.112   3.325  1.4854  0.2886 -0.8401
  986SOL    HW214592   4.281   4.137   3.437 -0.0220  0.3031 -1.3247
  987SOL     OW14593   2.384   0.321   3.750 -0.3947 -0.6632  0.0380
  987SOL    HW114594   2.297   0.288   3.772 -0.1062 -1.8815 -0.6820
  987SOL    HW214595   2.378   0.337   3.656  0.9579 -0.8057 -0.0714
  988SOL     OW14596   3.140   2.013   8.912  0.0611 -0.2933  0.0981
  988SOL    HW114597   3.166   1.984   8.825 -1.0711  1.3697 -0.7989
  988SOL    HW214598   3.220   1.976   8.950  0.8452  0.1558 -1.1022
  989SOL     OW14599   2.851   3.510   4.980 -0.1013 -0.6072  0.2815
  989SOL    HW114600   2.791   3.532   4.909  1.1215  0.9814 -0.2599
  989SOL    HW214601   2.825   3.418   4.985  0.5291 -0.6814  2.3832
  990SOL     OW14602   3.683   3.907   8.670  0.3805  0.2606  0.3416
  990SOL    HW114603   3.636   3.885   8.750  0.4797  1.1763  0.6560
  990SOL    HW214604   3.732   3.827   8.651 -0.6524  0.2268 -2.2260
  991SOL     OW14605   0.550   2.030  14.036  0.2963  0.1465  0.4564
  991SOL    HW114606   0.645   2.023  14.043  0.2431 -2.8701 -1.6157
  991SOL    HW214607   0.541   2.033  13.941  1.8302  1.6742  0.3582
  992SOL     OW14608   3.741   3.208   4.164 -0.2994  0.4549 -0.2701
  992SOL    HW114609   3.795   3.285   4.148  1.3373 -0.7394 -0.3905
  992SOL    HW214610   3.689   3.232   4.241  2.1410  0.3780  1.3698
  993SOL     OW14611   3.412   2.857   2.774  0.2038  0.1009  0.4904
  993SOL    HW114612   3.376   2.937   2.736 -0.9173 -0.5196  0.2594
  993SOL    HW214613   3.341   2.818   2.825  0.0343 -1.2365 -0.7581
  994SOL     OW14614   3.400   0.978  15.552  0.5373 -0.8654  0.5290
  994SOL    HW114615   3.363   0.970  15.464  1.1554 -1.8267  0.3519
  994SOL    HW214616   3.327   1.008  15.606 -0.6890 -0.3478 -1.4462
  995SOL     OW14617   0.155   1.771  17.059  0.0107  0.1004  0.2361
  995SOL    HW114618   0.143   1.699  16.998 -1.9100 -0.4416  1.2501
  995SOL    HW214619   0.247   1.783  17.084 -0.3500 -1.2465  2.2066
  996SOL     OW14620   3.326   2.841   0.084 -0.3513  0.0063 -0.2848
  996SOL    HW114621   3.335   2.816   0.177 -3.5333 -1.4279 -0.3272
  996SOL    HW214622   3.374   2.770   0.041  0.1086 -0.2227  0.6022
  997SOL     OW14623   1.225   1.719   6.133 -0.8505 -0.1991 -0.3424
  997SOL    HW114624   1.188   1.728   6.221 -0.1757  2.7065 -0.3547
  997SOL    HW214625   1.167   1.766   6.073 -0.7458  0.9516  0.4531
  998SOL     OW14626   1.907   3.155   6.301  0.1630  0.8295  0.4524
  998SOL    HW114627   1.866   3.212   6.367  1.6662  0.5844  1.6084
  998SOL    HW214628   1.954   3.097   6.362 -1.2235 -0.5519  0.2073
  999SOL     OW14629   3.028   1.703   8.212  0.0324 -0.0795 -0.4108
  999SOL    HW114630   3.123   1.714   8.211  0.2637 -2.0672 -1.5228
  999SOL    HW214631   3.003   1.672   8.125  1.6812  0.6751 -1.1577
 1000SOL     OW14632   3.959   4.242   5.515  0.3984  0.1162  0.4207
 1000SOL    HW114633   3.928   4.309   5.577  1.9927 -0.3536  1.7140
 1000SOL    HW214634   4.044   4.269   5.479 -0.8396  1.5789 -1.4331
 1001SOL     OW14635   3.454   0.402   8.655  0.0874 -0.1798 -0.7023
 1001SOL    HW114636   3.454   0.480   8.709 -0.2596 -1.5141  1.2398
 1001SOL    HW214637   3.545   0.378   8.671  0.1637  0.6195  0.0206
 1002SOL     OW14638   2.777   1.812  13.723 -0.4223  0.7955 -1.1353
 1002SOL    HW114639   2.764   1.868  13.646  1.8236  1.4195 -1.0442
 1002SOL    HW214640   2.850   1.850  13.769  0.5428 -2.0858 -0.2810
 1003SOL     OW14641   2.144   2.729  15.504 -0.0294  0.3731 -0.1929
 1003SOL    HW114642   2.208   2.795  15.530 -1.8155  2.0356  0.0661
 1003SOL    HW214643   2.170   2.736  15.412  1.7437  0.6389  0.3300
 1004SOL     OW14644   0.120   1.113   6.937 -0.4708  0.1980 -0.7780
 1004SOL    HW114645   0.086   1.054   6.870 -1.8658  0.1916 -0.0554
 1004SOL    HW214646   0.139   1.191   6.885 -1.6356  0.2593 -1.0955
 1005SOL     OW14647   3.520   0.838   6.330 -0.3729 -0.5522  0.2934
 1005SOL    HW114648   3.527   0.772   6.398 -1.7438  0.6657  1.6055
 1005SOL    HW214649   3.461   0.904   6.367  0.1723 -0.2371  0.5934
 1006SOL     OW14650   1.666   0.831   4.382  0.3260  0.5167 -0.4011
 1006SOL    HW114651   1.736   0.765   4.390 -1.2475 -1.1167 -0.0749
 1006SOL    HW214652   1.697   0.902   4.437 -1.6693 -0.1356  1.5302
 1007SOL     OW14653   1.776   1.626  10.988  0.0635 -0.0387  0.4627
 1007SOL    HW114654   1.700   1.601  10.936  0.0928  0.7638  0.0347
 1007SOL    HW214655   1.777   1.720  10.971  2.8679 -0.2046 -0.3586
 1008SOL     OW14656   3.824   1.749   8.862  0.4214  0.3342  0.6292
 1008SOL    HW114657   3.839   1.666   8.817 -3.9738  0.1409 -0.4701
 1008SOL    HW214658   3.738   1.727   8.897 -0.4447 -0.3640 -1.8865
 1009SOL     OW14659   1.637   2.868   9.042  0.1262  0.1224  0.1427
 1009SOL    HW114660   1.640   2.964   9.043  0.6267  0.1062  1.0629
 1009SOL    HW214661   1.707   2.851   8.979 -0.5721 -1.1208 -0.2983
 1010SOL     OW14662   2.033   3.575   8.455  0.0918 -0.3558 -0.3760
 1010SOL    HW114663   1.955   3.553   8.506  0.5013  1.4325  1.0129
 1010SOL    HW214664   1.999   3.628   8.383 -0.4119  1.6549  1.3497
 1011SOL     OW14665   3.741   0.660   1.749 -0.3359  0.0532 -0.6725
 1011SOL    HW114666   3.705   0.586   1.702  0.8559 -2.2906  2.1209
 1011SOL    HW214667   3.678   0.663   1.821  0.3574  0.4949 -0.0825
 1012SOL     OW14668   0.163   1.342   6.830 -0.4539  0.0201 -0.2586
 1012SOL    HW114669   0.249   1.305   6.811 -0.4967  0.1616 -0.7213
 1012SOL    HW214670   0.165   1.417   6.770 -2.8745 -0.8507 -1.4053
 1013SOL     OW14671   4.551   1.789   5.261  0.1476 -0.3545 -0.1500
 1013SOL    HW114672   4.537   1.875   5.301  1.6540  0.6483 -1.7440
 1013SOL    HW214673   4.476   1.740   5.295 -0.6978  0.6095 -0.6133
 1014SOL     OW14674   1.423   4.472   5.928 -0.2447  0.7505 -0.1424
 1014SOL    HW114675   1.456   4.547   5.879 -0.2726 -0.0412 -1.3728
 1014SOL    HW214676   1.500   4.447   5.980  0.0550 -0.1505 -1.0077
 1015SOL     OW14677   0.999   1.602   3.806 -0.1542  0.4046  0.6554
 1015SOL    HW114678   1.055   1.659   3.753  0.0493 -0.3105  0.1162
 1015SOL    HW214679   1.047   1.600   3.889  1.3575 -0.5675 -0.2308
 1016SOL     OW14680   2.906   2.595   9.003  0.1526  0.0991  0.2117
 1016SOL    HW114681   2.853   2.545   9.064 -0.5585 -0.7486 -1.1028
 1016SOL    HW214682   2.995   2.568   9.025  0.1247 -0.5891 -0.5247
 1017SOL     OW14683   2.239   4.583  10.943 -0.3604 -0.0772  0.2568
 1017SOL    HW114684   2.175   4.637  10.989 -0.6396 -1.0023  0.9399
 1017SOL    HW214685   2.296   4.647  10.900 -1.5125  1.4204  0.9778
 1018SOL     OW14686   4.403   1.542   4.738 -0.5452  0.3745 -0.0296
 1018SOL    HW114687   4.489   1.583   4.736 -0.1383 -0.5900 -2.2975
 1018SOL    HW214688   4.372   1.550   4.828 -0.2790  1.4706 -0.0304
 1019SOL     OW14689   3.779   1.117   2.394  0.0405 -0.2187 -0.2803
 1019SOL    HW114690   3.828   1.194   2.424  1.2513 -1.2244  0.3326
 1019SOL    HW214691   3.688   1.144   2.388  0.4080  1.2719  0.7280
 1020SOL     OW14692   2.197   4.642  16.469  0.6198  0.2036 -0.1032
 1020SOL    HW114693   2.288   4.641  16.440  0.6094 -2.9748  0.0324
 1020SOL    HW214694   2.185   4.732  16.500 -2.3061 -0.4600  0.6644
 1021SOL     OW14695   1.977   0.530   5.175  0.3652 -0.0295 -0.5166
 1021SOL    HW114696   1.889   0.543   5.141 -0.0321  1.5885  1.0611
 1021SOL    HW214697   2.002   0.621   5.195  0.3495 -0.0069 -0.6017
 1022SOL     OW14698   2.397   1.688   4.217  0.1107  0.3158 -0.4119
 1022SOL    HW114699   2.362   1.702   4.129  2.2214 -0.4957 -1.3805
 1022SOL    HW214700   2.447   1.607   4.207 -0.3100  0.1706 -1.3233
 1023SOL     OW14701   3.106   3.684   0.388  0.5160  0.1152 -0.6278
 1023SOL    HW114702   3.094   3.667   0.294  1.4712 -3.6721 -0.0454
 1023SOL    HW214703   3.034   3.747   0.394 -1.0049 -1.4543 -2.4068
 1024SOL     OW14704   4.077   4.474  11.281  0.1792 -0.2619  0.0834
 1024SOL    HW114705   4.094   4.436  11.368  0.3278 -0.2075  0.0777
 1024SOL    HW214706   4.076   4.566  11.306  0.8922  0.0136 -0.9412
 1025SOL     OW14707   0.230   0.804   1.726 -0.4537  0.4232  0.4489
 1025SOL    HW114708   0.246   0.833   1.815  0.3656 -0.4479  0.5839
 1025SOL    HW214709   0.230   0.708   1.722 -0.4347  0.3419  2.4197
 1026SOL     OW14710   3.544   4.614   5.069 -0.4648 -0.0542 -0.0743
 1026SOL    HW114711   3.554   4.519   5.075 -1.8527 -0.0818  1.6698
 1026SOL    HW214712   3.574   4.641   5.156  2.3693 -1.4930 -0.5928
 1027SOL     OW14713   1.039   1.339   5.659 -0.3403  0.0832 -0.6060
 1027SOL    HW114714   0.946   1.343   5.635 -0.7527 -2.1116  0.6395
 1027SOL    HW214715   1.038   1.423   5.704  2.7105 -0.1084 -0.1791
 1028SOL     OW14716   2.610   1.691   2.056  0.4982 -0.2858  0.9899
 1028SOL    HW114717   2.624   1.663   2.146  1.2279  1.4791  1.4319
 1028SOL    HW214718   2.685   1.650   2.013  1.0626 -0.0117  1.7005
 1029SOL     OW14719   3.704   0.879   9.608  0.2515  0.4604 -0.0206
 1029SOL    HW114720   3.617   0.914   9.629  0.3144  1.0910 -0.8341
 1029SOL    HW214721   3.759   0.907   9.682 -2.4632  1.1268  1.7556
 1030SOL     OW14722   4.464   3.251   1.979 -0.6290  0.5385  0.1282
 1030SOL    HW114723   4.404   3.199   2.033  0.8755 -0.6140  0.6859
 1030SOL    HW214724   4.480   3.326   2.038 -0.6765 -0.2317  1.1189
 1031SOL     OW14725   4.632   1.138   4.850 -0.6226 -0.0707  0.3431
 1031SOL    HW114726   4.666   1.169   4.766 -1.6004  0.4737  0.1405
 1031SOL    HW214727   4.544   1.177   4.846 -0.1283  1.0814  0.6297
 1032SOL     OW14728   4.290   2.227   8.150  0.3208  0.0726 -1.0196
 1032SOL    HW114729   4.203   2.256   8.177  0.7703 -0.1631  0.7349
 1032SOL    HW214730   4.335   2.310   8.133  0.7180  0.3729  1.5167
 1033SOL     OW14731   1.835   1.459   0.755  0.0019 -0.2109 -0.3204
 1033SOL    HW114732   1.836   1.555   0.754  0.8397 -0.2237 -0.4394
 1033SOL    HW214733   1.914   1.439   0.805 -1.9512 -1.5923  2.2163
 1034SOL     OW14734   0.182   0.719   0.595  0.3432  0.1634 -1.2039
 1034SOL    HW114735   0.113   0.659   0.568 -2.9480  3.7751 -0.8898
 1034SOL    HW214736   0.156   0.752   0.682  1.7885 -3.4169  0.5772
 1035SOL     OW14737   3.311   0.901   6.495  0.0097  0.4947  0.3917
 1035SOL    HW114738   3.286   0.871   6.583  0.0742 -0.0548  0.2212
 1035SOL    HW214739   3.246   0.852   6.444  1.3852  0.4065 -1.2675
 1036SOL     OW14740   3.041   1.081   5.496 -0.5549  0.3505  0.0407
 1036SOL    HW114741   3.119   1.119   5.456 -1.6655  3.6536  0.9921
 1036SOL    HW214742   2.969   1.111   5.440 -0.1663  0.0041 -0.6363
 1037SOL     OW14743   3.393   0.976  12.755  0.2475  0.0903 -0.1462
 1037SOL    HW114744   3.368   1.067  12.771 -1.4973 -0.2247 -1.0683
 1037SOL    HW214745   3.455   0.970  12.828  0.7262  1.5408 -0.4368
 1038SOL     OW14746   2.794   2.670   8.425 -0.4246  0.2954 -0.2648
 1038SOL    HW114747   2.827   2.643   8.510  0.1094  1.3608 -0.1301
 1038SOL    HW214748   2.801   2.765   8.433 -2.5782  0.3772  0.6469
 1039SOL     OW14749   4.488   1.748  15.600 -0.0214  0.4662 -0.6867
 1039SOL    HW114750   4.437   1.673  15.570 -0.2924  0.2352  0.3428
 1039SOL    HW214751   4.552   1.772  15.534 -0.6096  1.0056 -1.0665
 1040SOL     OW14752   2.741   0.956   2.045 -0.7376 -0.0258  0.0375
 1040SOL    HW114753   2.779   0.871   2.023 -1.7689 -0.9187  1.7898
 1040SOL    HW214754   2.667   0.960   1.984 -0.9486 -0.7038  0.2494
 1041SOL     OW14755   0.984   1.440  11.160  0.3855  0.0878  0.3409
 1041SOL    HW114756   1.060   1.430  11.218 -0.7006 -0.2010  1.7056
 1041SOL    HW214757   0.993   1.532  11.137  0.8460  0.6964  2.9321
 1042SOL     OW14758   4.314   2.085   6.582 -0.3682  0.2800 -0.5329
 1042SOL    HW114759   4.231   2.128   6.604  0.4545  1.9620 -0.7335
 1042SOL    HW214760   4.294   1.992   6.573 -4.5982  1.2328 -0.9845
 1043SOL     OW14761   3.562   0.580   2.379 -0.1398  0.2137 -0.0923
 1043SOL    HW114762   3.477   0.622   2.383  0.0331  0.5701 -0.1606
 1043SOL    HW214763   3.610   0.622   2.308  0.7551  0.5597  0.7123
 1044SOL     OW14764   3.115   0.568   6.712  0.7665  0.0170  0.6531
 1044SOL    HW114765   3.044   0.548   6.773  0.9662  2.1124  1.5837
 1044SOL    HW214766   3.119   0.663   6.724  0.3181  0.1336 -0.1776
 1045SOL     OW14767   3.439   2.759  13.856 -0.0869  0.0733  0.4327
 1045SOL    HW114768   3.420   2.797  13.942 -1.1377 -0.3031  0.3742
 1045SOL    HW214769   3.507   2.814  13.818 -0.7460  1.1702  0.8400
 1046SOL     OW14770   3.284   2.210  14.191  0.6931 -0.0415  0.1249
 1046SOL    HW114771   3.204   2.259  14.209  0.2575 -0.9132  0.5684
 1046SOL    HW214772   3.267   2.125  14.230  0.0988  0.1949  0.3897
 1047SOL     OW14773   3.431   2.498   4.247 -0.3633  0.3440  0.5568
 1047SOL    HW114774   3.425   2.590   4.221  2.0865  0.4136  0.2447
 1047SOL    HW214775   3.488   2.515   4.322  0.3874 -1.1884  0.3205
 1048SOL     OW14776   3.879   0.221   9.554  0.2896  0.2184 -0.3055
 1048SOL    HW114777   3.929   0.249   9.478  0.3470  0.2586 -0.2529
 1048SOL    HW214778   3.891   0.298   9.611 -0.2691 -1.0586  1.5615
 1049SOL     OW14779   3.771   2.810   0.041 -0.2183 -0.4639  0.1699
 1049SOL    HW114780   3.812   2.758   0.110 -0.4110  0.8082  1.2341
 1049SOL    HW214781   3.843   2.840  17.731  0.2101 -1.1436  0.3637
 1050SOL     OW14782   3.109   4.084   4.683  0.4041 -0.1877 -0.1228
 1050SOL    HW114783   3.141   4.173   4.671 -1.0592  0.5738  1.5917
 1050SOL    HW214784   3.015   4.099   4.674  0.3824 -1.1494 -1.4574
 1051SOL     OW14785   4.384   3.197   6.556  0.1617  0.0028 -0.4357
 1051SOL    HW114786   4.339   3.233   6.633  0.9042 -0.0543  0.0319
 1051SOL    HW214787   4.473   3.225   6.581  0.0142  1.1736 -1.2347
 1052SOL     OW14788   0.804   0.259   4.490 -0.2772  0.0350  0.5844
 1052SOL    HW114789   0.722   0.227   4.453  0.8267 -1.7897 -0.2915
 1052SOL    HW214790   0.792   0.240   4.584  2.7507  1.1060  1.1889
 1053SOL     OW14791   0.684   0.939  12.783  0.6199  0.3969  0.2450
 1053SOL    HW114792   0.672   0.857  12.735  1.5571 -0.0071  0.7079
 1053SOL    HW214793   0.681   1.014  12.722 -0.0375  0.0848 -0.1047
 1054SOL     OW14794   3.085   2.889   4.095 -0.2316 -0.0102 -0.5646
 1054SOL    HW114795   3.088   2.825   4.166  0.1585  2.5398  1.7184
 1054SOL    HW214796   3.082   2.963   4.154 -2.1584  2.5088 -3.8177
 1055SOL     OW14797   0.320   3.121   7.833  0.0017 -0.0312  0.1609
 1055SOL    HW114798   0.304   3.053   7.767  1.4482  0.1863 -0.3953
 1055SOL    HW214799   0.233   3.098   7.866  1.7251 -4.4839  1.6958
 1056SOL     OW14800   0.686   2.457   2.818 -0.5545 -0.3085  0.2354
 1056SOL    HW114801   0.720   2.540   2.852  1.5128 -0.8938 -0.4315
 1056SOL    HW214802   0.676   2.410   2.901  2.0068  0.3883  0.9399
 1057SOL     OW14803   3.907   3.101   0.183  0.2490  0.0397  0.1654
 1057SOL    HW114804   3.812   3.090   0.170  0.2328 -0.4901  0.7088
 1057SOL    HW214805   3.917   3.190   0.150 -2.3140  0.2936  0.0569
 1058SOL     OW14806   2.419   3.967   8.329 -0.0383  0.4239 -0.5184
 1058SOL    HW114807   2.472   3.925   8.261  0.5971 -2.9481  2.0619
 1058SOL    HW214808   2.336   3.950   8.286 -0.6450 -2.0843  1.6586
 1059SOL     OW14809   3.239   2.601   3.804 -0.3855  0.6059  0.1651
 1059SOL    HW114810   3.323   2.572   3.769  0.4467 -1.1664  3.5987
 1059SOL    HW214811   3.250   2.696   3.803 -0.7281  0.6443 -0.3441
 1060SOL     OW14812   0.791   1.647   8.402  0.0449 -0.0276 -0.2142
 1060SOL    HW114813   0.724   1.683   8.344 -1.7558  2.3761  3.4001
 1060SOL    HW214814   0.793   1.558   8.367 -1.8540 -0.0953 -0.1447
 1061SOL     OW14815   0.445   3.130  11.712 -0.1726  0.2441 -0.4791
 1061SOL    HW114816   0.386   3.176  11.652 -1.2609 -0.7819 -0.1684
 1061SOL    HW214817   0.423   3.044  11.678  1.2492 -0.5085  0.5006
 1062SOL     OW14818   4.509   1.043  16.752  0.5037  0.0812 -0.1330
 1062SOL    HW114819   4.422   1.067  16.783  1.5078  1.9199  1.3093
 1062SOL    HW214820   4.538   1.117  16.699 -2.1064  1.0790 -0.1334
 1063SOL     OW14821   2.273   0.491  14.938  0.5953 -0.4708  0.4193
 1063SOL    HW114822   2.197   0.523  14.987  0.6464 -0.4866  0.5074
 1063SOL    HW214823   2.330   0.485  15.015  1.7615  2.8517 -0.1939
 1064SOL     OW14824   0.816   0.735   6.529  0.0506  0.1847 -0.2768
 1064SOL    HW114825   0.783   0.817   6.492  0.8797  0.9862  0.7210
 1064SOL    HW214826   0.908   0.751   6.510  0.1438  0.2192  0.1904
 1065SOL     OW14827   2.969   1.254  16.629  0.0612 -0.1057  0.1583
 1065SOL    HW114828   3.028   1.216  16.564 -1.0788 -0.7979 -0.4629
 1065SOL    HW214829   3.010   1.331  16.667  0.6453  0.6256 -2.0175
 1066SOL     OW14830   1.598   4.282   2.577 -0.2224  0.3746  0.0758
 1066SOL    HW114831   1.644   4.366   2.568  2.5170 -1.2173 -0.8331
 1066SOL    HW214832   1.640   4.249   2.656  1.0413  1.0676 -0.3111
 1067SOL     OW14833   0.578   1.428   4.392 -0.0453  0.1863 -0.0868
 1067SOL    HW114834   0.598   1.340   4.425  0.1137  0.2632  0.0227
 1067SOL    HW214835   0.642   1.425   4.321 -0.9739 -0.9307 -0.8930
 1068SOL     OW14836   1.416   0.357  14.559 -0.3218  0.4911 -0.4649
 1068SOL    HW114837   1.403   0.355  14.464  0.0274 -0.5565 -0.4833
 1068SOL    HW214838   1.349   0.299  14.594 -0.7627  0.6809 -1.0101
 1069SOL     OW14839   0.782   1.933   1.665  0.2069  0.1544 -0.3835
 1069SOL    HW114840   0.797   1.969   1.752 -1.1059  0.2301 -0.1925
 1069SOL    HW214841   0.775   1.840   1.684  2.2263 -0.4732 -2.7418
 1070SOL     OW14842   1.541   4.498   9.112  0.1195  0.1958 -0.0269
 1070SOL    HW114843   1.527   4.405   9.098  0.4757 -0.1450  1.9112
 1070SOL    HW214844   1.633   4.500   9.083 -0.2006 -0.3961 -1.0699
 1071SOL     OW14845   0.118   0.981   5.521 -0.1811 -0.1729 -0.7564
 1071SOL    HW114846   0.066   0.996   5.442  0.5811  2.4136 -0.7632
 1071SOL    HW214847   0.203   1.024   5.511 -0.2129  0.2134  0.6642
 1072SOL     OW14848   3.015   4.540   7.746 -0.3190  0.0269  0.2156
 1072SOL    HW114849   2.982   4.463   7.699  0.6910 -1.8946  2.6801
 1072SOL    HW214850   2.975   4.523   7.831  0.1943  2.4565  0.9414
 1073SOL     OW14851   2.379   2.381  12.335 -0.5896  0.2462 -0.0033
 1073SOL    HW114852   2.423   2.303  12.303  0.1673  1.0879 -1.0049
 1073SOL    HW214853   2.312   2.353  12.398 -0.5115 -1.4663 -0.6922
 1074SOL     OW14854   1.160   2.489   6.420  0.7317 -0.5225  0.0899
 1074SOL    HW114855   1.142   2.496   6.326  1.4580 -0.2283 -0.0229
 1074SOL    HW214856   1.141   2.581   6.433 -4.2295 -1.2251 -1.9953
 1075SOL     OW14857   1.711   2.285   4.388 -0.2495  0.6782 -0.1907
 1075SOL    HW114858   1.743   2.249   4.305  0.0586 -1.2303  0.7714
 1075SOL    HW214859   1.774   2.356   4.403  0.8205 -0.4366  0.4970
 1076SOL     OW14860   3.778   3.822  14.984  0.5091 -0.4805  0.5935
 1076SOL    HW114861   3.794   3.783  15.070  0.4649  0.0199  0.8292
 1076SOL    HW214862   3.867   3.854  14.968  0.7404 -0.2556  2.3535
 1077SOL     OW14863   0.558   1.403   1.368 -1.0724 -0.1979 -0.1115
 1077SOL    HW114864   0.524   1.488   1.398 -0.5276 -0.4177  1.1039
 1077SOL    HW214865   0.528   1.334   1.426 -1.9670  0.0423 -0.2916
 1078SOL     OW14866   1.097   0.298   4.443  0.0841 -0.0729 -0.0083
 1078SOL    HW114867   1.001   0.306   4.441  0.0010 -1.0246  0.2569
 1078SOL    HW214868   1.131   0.387   4.444  1.0983 -0.4858  1.6813
 1079SOL     OW14869   3.379   0.748  11.537 -0.2039  0.2322 -0.0302
 1079SOL    HW114870   3.422   0.832  11.559 -0.7707  0.7164 -0.7923
 1079SOL    HW214871   3.456   0.698  11.510 -1.4342 -1.6412 -0.0369
 1080SOL     OW14872   3.897   3.030   7.351  0.4376  0.4265 -0.5673
 1080SOL    HW114873   3.810   3.056   7.323  0.4348  2.4993  1.3164
 1080SOL    HW214874   3.914   3.100   7.415  0.4658 -0.7815  0.7638
 1081SOL     OW14875   4.088   2.115   4.543 -0.4879 -0.9314 -0.2578
 1081SOL    HW114876   4.111   2.084   4.455  0.8751 -2.0130  0.4777
 1081SOL    HW214877   3.993   2.118   4.535 -0.3403 -1.7270 -2.2585
 1082SOL     OW14878   3.407   4.303   2.035  0.3079  0.2398  0.1769
 1082SOL    HW114879   3.394   4.350   2.118 -0.4484  1.4491 -0.6371
 1082SOL    HW214880   3.487   4.345   2.004  0.3996 -0.7052 -0.8423
 1083SOL     OW14881   1.842   2.390  17.686 -0.1117  0.5507 -0.1185
 1083SOL    HW114882   1.916   2.401   0.000  0.5581  1.8288 -1.1813
 1083SOL    HW214883   1.827   2.296  17.682  2.4468  0.1301  0.1638
 1084SOL     OW14884   2.126   1.293   5.875  1.1484 -0.3111 -0.2818
 1084SOL    HW114885   2.219   1.312   5.864  0.9198  0.2097 -1.2609
 1084SOL    HW214886   2.106   1.386   5.887  0.7457 -0.7423  2.4833
 1085SOL     OW14887   2.741   1.529   4.868 -0.2761 -0.0924  0.0099
 1085SOL    HW114888   2.740   1.473   4.790  1.2545  0.4965 -0.4438
 1085SOL    HW214889   2.649   1.528   4.896 -0.2389  1.8497  0.2203
 1086SOL     OW14890   0.238   1.182  14.191 -0.1650 -0.3375  0.2335
 1086SOL    HW114891   0.207   1.092  14.188  0.8907 -0.8162  3.4031
 1086SOL    HW214892   0.179   1.212  14.122  0.6765 -1.5170 -0.9705
 1087SOL     OW14893   2.029   2.370  14.620  0.0274 -0.5026 -0.2282
 1087SOL    HW114894   1.943   2.409  14.604 -0.0500 -0.4400  0.3195
 1087SOL    HW214895   2.075   2.378  14.537  1.1996 -0.7172  0.4006
 1088SOL     OW14896   2.446   0.358   6.882  0.3812 -0.6034 -0.4466
 1088SOL    HW114897   2.525   0.331   6.835  0.9521 -2.2015  1.4234
 1088SOL    HW214898   2.414   0.432   6.832  0.0629 -0.7996 -0.5336
 1089SOL     OW14899   0.717   0.036   0.713  0.0611  0.2724  0.6304
 1089SOL    HW114900   0.720   0.129   0.735 -1.0670  0.6396 -0.7885
 1089SOL    HW214901   0.627   0.027   0.681 -0.0417  0.0389  0.9772
 1090SOL     OW14902   3.128   4.705   4.810  0.1966 -0.4847 -0.2268
 1090SOL    HW114903   3.198   0.025   4.779 -1.0968  1.5819  0.5495
 1090SOL    HW214904   3.168   4.667   4.888  0.2599 -0.0004 -0.0193
 1091SOL     OW14905   2.473   4.560  11.531 -0.0223  0.3769 -0.8361
 1091SOL    HW114906   2.416   4.544  11.607 -0.1852 -0.8602 -1.2132
 1091SOL    HW214907   2.538   4.615  11.573 -1.5506  1.0362  0.6587
 1092SOL     OW14908   0.055   0.926   3.335  0.0335 -0.4196  0.1103
 1092SOL    HW114909   4.710   0.887   3.302  1.0274 -0.3821 -2.3766
 1092SOL    HW214910   0.020   1.006   3.373 -0.7591 -1.7571  2.2019
 1093SOL     OW14911   4.245   1.344   2.494  0.0224 -0.4078 -0.1448
 1093SOL    HW114912   4.296   1.425   2.492 -2.1082  0.9419 -0.3015
 1093SOL    HW214913   4.182   1.351   2.422 -0.5435  0.1932  0.4147
 1094SOL     OW14914   3.809   1.690  11.772  0.3007  0.2454  0.6555
 1094SOL    HW114915   3.812   1.613  11.716 -0.8234  1.1464 -0.6503
 1094SOL    HW214916   3.764   1.658  11.850  2.3102 -0.4300  1.5391
 1095SOL     OW14917   0.966   1.598   0.058 -0.2874 -0.1478 -0.0580
 1095SOL    HW114918   0.924   1.532   0.002  2.3209 -2.1571  0.3355
 1095SOL    HW214919   0.924   1.675   0.021 -1.4815 -0.8180 -0.1226
 1096SOL     OW14920   1.045   3.722   4.168 -0.5297 -0.0137  0.2765
 1096SOL    HW114921   1.096   3.645   4.143  1.7790  0.7971  2.4639
 1096SOL    HW214922   0.980   3.720   4.099 -0.6597  2.4479  0.3557
 1097SOL     OW14923   2.121   0.646   6.101 -0.3852 -0.1317 -0.2071
 1097SOL    HW114924   2.119   0.551   6.092 -1.8963 -0.0555 -0.6993
 1097SOL    HW214925   2.039   0.651   6.149 -1.2753  0.6916 -1.8009
 1098SOL     OW14926   0.839   3.717   6.896  0.0706 -0.1977 -0.0316
 1098SOL    HW114927   0.873   3.656   6.831 -0.1808 -0.1708 -0.1891
 1098SOL    HW214928   0.853   3.803   6.856  0.9599 -0.2402  0.1842
 1099SOL     OW14929   4.492   0.380   2.569  0.2370  0.5981  0.8220
 1099SOL    HW114930   4.529   0.310   2.516 -0.0689  0.7410  0.4234
 1099SOL    HW214931   4.461   0.436   2.499  0.3318  0.7397  0.8936
 1100SOL     OW14932   1.500   1.127   2.196 -0.2784 -0.0499 -0.5982
 1100SOL    HW114933   1.406   1.108   2.203 -0.1566 -0.3329  0.3565
 1100SOL    HW214934   1.537   1.058   2.250  0.0429 -0.3434 -1.1991
 1101SOL     OW14935   2.234   0.466   4.940  0.1336  0.0127  0.4167
 1101SOL    HW114936   2.306   0.500   4.887 -1.1175  0.3543 -1.0553
 1101SOL    HW214937   2.170   0.529   4.908  1.2519  0.6718 -0.5192
 1102SOL     OW14938   4.297   0.171  12.923  0.2917 -0.1160  0.0685
 1102SOL    HW114939   4.349   0.099  12.957  0.7258 -0.0527 -0.4594
 1102SOL    HW214940   4.254   0.138  12.843  2.2223 -0.7798 -0.6876
 1103SOL     OW14941   1.007   1.572   0.311  0.0799 -0.7325 -0.2221
 1103SOL    HW114942   0.919   1.608   0.298 -0.0571 -0.5406  1.2561
 1103SOL    HW214943   1.022   1.560   0.217  0.7106 -0.8326 -0.1095
 1104SOL     OW14944   1.197   0.165   3.058 -0.4342 -0.1393  0.6970
 1104SOL    HW114945   1.273   0.221   3.076 -1.0431  1.1187 -0.6837
 1104SOL    HW214946   1.174   0.184   2.967  2.1697  0.6642  0.2009
 1105SOL     OW14947   3.673   0.824   6.650  0.5369  0.0516 -0.1827
 1105SOL    HW114948   3.760   0.839   6.687 -0.4916  1.6226  1.5566
 1105SOL    HW214949   3.617   0.824   6.727  1.1387  1.1587  0.2482
 1106SOL     OW14950   1.863   4.557   2.386  0.0603  0.6895  0.1805
 1106SOL    HW114951   1.833   4.560   2.477  2.5691 -0.3998  1.0355
 1106SOL    HW214952   1.789   4.611   2.356  0.2651  1.2618  0.7052
 1107SOL     OW14953   3.860   2.693  11.773  0.2488 -0.0343  0.9289
 1107SOL    HW114954   3.790   2.758  11.782 -0.6983 -0.6737 -1.7423
 1107SOL    HW214955   3.925   2.748  11.730 -1.9352  0.2540 -2.0683
 1108SOL     OW14956   3.966   3.891   7.454  0.0114 -0.1825 -0.0088
 1108SOL    HW114957   4.013   3.835   7.517  0.2175 -0.0420 -0.0387
 1108SOL    HW214958   4.039   3.921   7.400  1.0161 -0.5556  1.1440
 1109SOL     OW14959   0.910   1.877  12.824  0.4839 -0.1283 -1.0409
 1109SOL    HW114960   0.970   1.935  12.871  0.4946 -0.4346 -0.6738
 1109SOL    HW214961   0.970   1.804  12.807  0.1197 -0.3254 -1.4850
 1110SOL     OW14962   1.257   2.871   8.865 -0.3078 -0.1890 -0.4477
 1110SOL    HW114963   1.259   2.911   8.779 -3.5482 -0.1209 -0.4973
 1110SOL    HW214964   1.345   2.834   8.875 -0.3969 -0.2389  0.1834
 1111SOL     OW14965   4.398   3.510   6.694  0.0210 -0.1273  0.9386
 1111SOL    HW114966   4.349   3.442   6.741 -0.5180  0.5972  1.4102
 1111SOL    HW214967   4.477   3.510   6.748  1.0572 -2.1449 -0.5650
 1112SOL     OW14968   2.137   2.502   6.609 -0.0389 -0.1930 -0.1919
 1112SOL    HW114969   2.154   2.410   6.589 -0.6373 -0.2023 -0.6705
 1112SOL    HW214970   2.043   2.506   6.629 -0.4371 -0.4347 -2.0220
 1113SOL     OW14971   2.874   3.827  17.707 -0.1086 -0.1097  0.0939
 1113SOL    HW114972   2.889   3.807  17.615 -0.5943  0.6432 -0.1431
 1113SOL    HW214973   2.781   3.806  17.705 -0.6418  2.0902  1.9355
 1114SOL     OW14974   1.315   4.678   2.727 -0.1221  0.6683 -0.1808
 1114SOL    HW114975   1.360   4.658   2.809  0.5282  0.4427 -0.5923
 1114SOL    HW214976   1.371   4.631   2.664  0.0940 -1.0270  1.2885
 1115SOL     OW14977   4.179   3.176   8.687 -0.0692  0.4986  0.0314
 1115SOL    HW114978   4.178   3.126   8.605  4.1518  1.7390 -0.7788
 1115SOL    HW214979   4.103   3.140   8.732  0.2751  2.8846  2.4619
 1116SOL     OW14980   0.608   3.998   2.719  0.0548 -0.0985  0.3774
 1116SOL    HW114981   0.701   3.991   2.738  0.1863  1.8736  0.3742
 1116SOL    HW214982   0.596   4.088   2.750 -2.7789  0.1990 -1.5404
 1117SOL     OW14983   1.652   2.225  14.610 -0.0847 -0.7986  0.1924
 1117SOL    HW114984   1.719   2.276  14.564 -2.0243  1.4230 -0.1535
 1117SOL    HW214985   1.578   2.266  14.565  0.6869 -0.9515 -1.2041
 1118SOL     OW14986   3.902   2.457   3.155  0.1967  0.1485  0.6848
 1118SOL    HW114987   3.886   2.363   3.147  0.4700 -0.0776  2.7008
 1118SOL    HW214988   3.825   2.503   3.122 -0.3131 -0.7079  0.6782
 1119SOL     OW14989   3.101   0.963   0.491 -0.0396  0.7046  0.1767
 1119SOL    HW114990   3.157   0.920   0.555 -0.1006 -1.1713 -1.0293
 1119SOL    HW214991   3.091   0.895   0.425  1.0413  1.8382 -1.1324
 1120SOL     OW14992   4.521   1.791   8.567 -0.1114  0.1175  0.2542
 1120SOL    HW114993   4.520   1.883   8.543 -0.8025  0.2836  0.9167
 1120SOL    HW214994   4.582   1.754   8.503  1.7140  3.0074  0.3194
 1121SOL     OW14995   0.000   0.773   0.159  0.6789 -0.2742  0.3674
 1121SOL    HW114996   0.041   0.704   0.211 -2.6916 -2.1907  0.4519
 1121SOL    HW214997   4.691   0.814   0.232  0.0397  1.1149 -0.8270
 1122SOL     OW14998   1.452   4.130  10.002 -0.6231  0.4945  0.3486
 1122SOL    HW114999   1.491   4.081  10.075 -0.3283 -1.1985 -0.9495
 1122SOL    HW215000   1.524   4.188   9.978 -2.2131  2.2391 -0.2314
 1123SOL     OW15001   2.527   2.265   5.802 -0.0807 -0.0119  0.4566
 1123SOL    HW115002   2.446   2.216   5.816  0.9051 -2.2107 -1.5851
 1123SOL    HW215003   2.483   2.346   5.775  0.5125  1.1662  3.0524
 1124SOL     OW15004   2.583   0.156   7.900 -0.3069 -0.4933 -0.6165
 1124SOL    HW115005   2.535   0.220   7.953 -0.3716 -1.3040  0.3007
 1124SOL    HW215006   2.572   0.199   7.814 -2.7423  0.7063  0.2852
 1125SOL     OW15007   2.340   4.169   8.853 -0.0902 -0.2959 -0.1834
 1125SOL    HW115008   2.370   4.152   8.942  0.6442  0.2866 -0.3152
 1125SOL    HW215009   2.417   4.140   8.804  1.6066 -0.1756  2.4091
 1126SOL     OW15010   0.161   1.716   4.144  0.0090 -0.0296 -0.0566
 1126SOL    HW115011   0.148   1.784   4.210  0.4244 -0.3407  0.3473
 1126SOL    HW215012   0.239   1.672   4.177 -0.0410  1.7094  2.3405
 1127SOL     OW15013   3.051   0.486   1.714  0.3001  0.5437  0.4934
 1127SOL    HW115014   3.059   0.461   1.622  0.9001  1.7312  0.2301
 1127SOL    HW215015   3.047   0.580   1.702  2.8699  0.6142  0.0847
 1128SOL     OW15016   4.607   3.773   0.795 -0.0139 -0.2026  0.1146
 1128SOL    HW115017   4.557   3.695   0.818 -1.8198  0.7557 -0.5861
 1128SOL    HW215018   4.611   3.749   0.703  1.0339 -1.6386  0.5416
 1129SOL     OW15019   1.598   3.727   3.294  0.2867 -0.6821  0.1531
 1129SOL    HW115020   1.523   3.691   3.342  1.9069 -2.1598  1.5401
 1129SOL    HW215021   1.560   3.746   3.208 -1.8448 -0.4010  1.1496
 1130SOL     OW15022   1.241   1.685   8.951 -0.0444 -0.2392 -0.4981
 1130SOL    HW115023   1.228   1.708   9.043 -2.5064 -2.0655 -0.4061
 1130SOL    HW215024   1.336   1.695   8.953  0.0280 -0.8610 -0.6192
 1131SOL     OW15025   2.844   3.345   1.110  0.6706  0.2979 -0.0233
 1131SOL    HW115026   2.864   3.314   1.198  0.5163  1.5920  0.4695
 1131SOL    HW215027   2.902   3.299   1.048 -1.1851 -1.4811 -0.4281
 1132SOL     OW15028   3.390   1.150  14.105 -0.7001  0.2936 -0.1490
 1132SOL    HW115029   3.449   1.218  14.072  0.9687 -1.2306 -0.3103
 1132SOL    HW215030   3.313   1.198  14.134 -0.6074  0.3013  0.0844
 1133SOL     OW15031   3.707   2.707   9.573  0.2942 -0.1388 -0.0597
 1133SOL    HW115032   3.712   2.641   9.642  1.7323  0.7549  0.6928
 1133SOL    HW215033   3.796   2.741   9.566  0.0268  0.5376 -0.1555
 1134SOL     OW15034   0.179   3.057   6.292 -0.0275 -0.3338  0.1952
 1134SOL    HW115035   0.182   3.026   6.382  2.6359 -1.1935 -0.2014
 1134SOL    HW215036   0.104   3.008   6.256 -0.2288  0.9877 -1.1807
 1135SOL     OW15037   4.295   2.814   0.074 -0.1814  0.5004  0.0839
 1135SOL    HW115038   4.309   2.897   0.121 -0.2999  1.4574 -1.5753
 1135SOL    HW215039   4.383   2.785   0.051 -0.4045  0.0573 -0.2154
 1136SOL     OW15040   1.705   0.672  14.682  0.0778 -0.2022 -0.0804
 1136SOL    HW115041   1.660   0.676  14.598 -0.4443 -1.2052  0.1427
 1136SOL    HW215042   1.690   0.763  14.707 -0.2972 -0.3227  0.1394
 1137SOL     OW15043   4.421   1.817   7.066 -0.2403 -0.1360 -0.3369
 1137SOL    HW115044   4.409   1.901   7.110  1.3875  0.4530 -1.0398
 1137SOL    HW215045   4.346   1.766   7.096  0.0327 -0.8686 -0.8799
 1138SOL     OW15046   0.564   2.922   4.788 -0.3393  0.1829  0.2377
 1138SOL    HW115047   0.570   2.827   4.785  3.1436  0.4258 -0.3156
 1138SOL    HW215048   0.636   2.948   4.845 -0.8850 -0.2267  1.1101
 1139SOL     OW15049   3.408   3.267   3.693  0.0864  0.4048  0.2759
 1139SOL    HW115050   3.491   3.249   3.738  0.3541  0.3214 -0.2536
 1139SOL    HW215051   3.441   3.310   3.614  0.6753  0.8589  0.7671
 1140SOL     OW15052   3.364   2.824  11.385 -0.7780  0.0651 -0.5725
 1140SOL    HW115053   3.289   2.848  11.330 -1.3186 -0.8698 -0.2288
 1140SOL    HW215054   3.387   2.906  11.429  0.3895 -0.2856 -0.5390
 1141SOL     OW15055   2.947   2.504  11.106 -0.5252 -0.1092  0.0232
 1141SOL    HW115056   2.992   2.436  11.056 -0.7833 -0.2011 -0.0840
 1141SOL    HW215057   2.948   2.464  11.193 -0.2827 -1.2671 -0.5074
 1142SOL     OW15058   1.392   1.262   6.426 -0.4562 -0.3932 -0.0487
 1142SOL    HW115059   1.331   1.234   6.494 -1.5072  1.4918 -0.2228
 1142SOL    HW215060   1.460   1.268   6.493 -1.3027  4.2575  0.3677
 1143SOL     OW15061   1.187   4.008  12.360  0.1508  0.0165  0.3530
 1143SOL    HW115062   1.106   4.051  12.334 -0.6547 -0.6763  1.7027
 1143SOL    HW215063   1.160   3.930  12.408  0.9135 -1.0026 -0.8759
 1144SOL     OW15064   4.339   1.775   5.477  0.1917 -0.0567 -0.3434
 1144SOL    HW115065   4.272   1.729   5.527  0.5601 -0.6040 -0.3544
 1144SOL    HW215066   4.369   1.831   5.548  1.0500  0.6420 -1.2447
 1145SOL     OW15067   3.528   4.149   3.235 -0.1693 -0.1815  0.4846
 1145SOL    HW115068   3.592   4.102   3.182  0.5658  0.9962  0.3288
 1145SOL    HW215069   3.503   4.075   3.292 -0.9736 -0.1398  0.1825
 1146SOL     OW15070   2.856   3.477   8.914 -0.4813  0.0775  0.1714
 1146SOL    HW115071   2.788   3.538   8.884  0.9593  0.8552 -1.5475
 1146SOL    HW215072   2.925   3.499   8.852  2.0878 -1.0603  2.6571
 1147SOL     OW15073   4.518   3.489   5.717 -0.3862 -0.3069 -1.1441
 1147SOL    HW115074   4.451   3.545   5.679 -1.1955 -1.1324 -0.9337
 1147SOL    HW215075   4.472   3.409   5.741  0.7175 -0.4144  0.6102
 1148SOL     OW15076   4.514   3.727   2.544 -0.3984 -0.1856  0.5956
 1148SOL    HW115077   4.509   3.713   2.639  0.8029  1.0305  0.8464
 1148SOL    HW215078   4.440   3.782   2.521 -0.3096 -0.6192 -0.6832
 1149SOL     OW15079   3.290   4.459   5.815 -0.1456  0.3525 -0.3231
 1149SOL    HW115080   3.335   4.504   5.887 -3.8258  0.0966  2.1396
 1149SOL    HW215081   3.204   4.436   5.851  0.6267 -0.3358  1.0830
 1150SOL     OW15082   0.180   2.558   0.291  0.7949 -1.0790  0.4991
 1150SOL    HW115083   0.131   2.635   0.261  1.7351 -0.5716  0.2457
 1150SOL    HW215084   0.260   2.574   0.241 -1.4751  2.3650 -2.0863
 1151SOL     OW15085   3.892   2.951   9.016  0.2751 -0.5575  0.2980
 1151SOL    HW115086   3.879   2.971   9.109  0.8375 -1.3520  0.5444
 1151SOL    HW215087   3.964   2.889   9.019  2.0878  1.4577 -1.2443
 1152SOL     OW15088   1.114   2.217   5.730 -0.4713  0.2333  0.0207
 1152SOL    HW115089   1.128   2.228   5.824  0.1560 -0.7594  0.0407
 1152SOL    HW215090   1.191   2.167   5.705  0.1148  1.4235 -0.5764
 1153SOL     OW15091   3.258   2.164   2.279  0.1995 -0.7800  0.7298
 1153SOL    HW115092   3.183   2.166   2.220  0.3142 -0.3908  0.5966
 1153SOL    HW215093   3.295   2.083   2.244 -1.0618 -0.9301 -0.2798
 1154SOL     OW15094   0.814   3.143   5.179 -0.1455 -0.0791 -0.6127
 1154SOL    HW115095   0.858   3.197   5.245 -0.8788  1.6065 -1.5035
 1154SOL    HW215096   0.848   3.058   5.209  0.2318  0.6776  1.1223
 1155SOL     OW15097   3.778   3.013   3.131 -0.4254  0.4929  0.2779
 1155SOL    HW115098   3.870   2.995   3.114 -0.3994  1.0001 -0.1161
 1155SOL    HW215099   3.742   2.967   3.056 -0.6146  0.1701  0.5680
 1156SOL     OW15100   2.547   0.512   1.873  0.3908  0.0645 -0.2983
 1156SOL    HW115101   2.504   0.432   1.904 -1.0696  2.0636  2.8811
 1156SOL    HW215102   2.636   0.479   1.862  0.2013 -0.3252 -0.6517
 1157SOL     OW15103   3.892   0.716   2.844 -0.2223  0.4226 -0.5103
 1157SOL    HW115104   3.933   0.786   2.895 -0.0410  0.0944 -0.2029
 1157SOL    HW215105   3.881   0.741   2.753 -0.1926 -2.1072 -1.2166
 1158SOL     OW15106   3.946   1.659   1.928  0.5484  0.5769  0.4184
 1158SOL    HW115107   3.905   1.580   1.892 -0.4657  1.7064 -0.8780
 1158SOL    HW215108   3.949   1.706   1.844 -1.2783 -0.2350 -0.1105
 1159SOL     OW15109   2.673   0.084   3.519 -0.3160  0.6058 -0.2976
 1159SOL    HW115110   2.629   4.736   3.518 -0.3298  0.6252 -1.3001
 1159SOL    HW215111   2.752   0.060   3.568 -0.0342 -0.4866 -1.2679
 1160SOL     OW15112   2.069   2.722   3.350  0.2932  0.0165  1.0365
 1160SOL    HW115113   2.115   2.717   3.266 -0.7656 -1.0246  0.5170
 1160SOL    HW215114   2.138   2.686   3.406  0.1185 -1.2129  0.4610
 1161SOL     OW15115   4.425   3.620  10.442  0.4064 -0.5551  0.5452
 1161SOL    HW115116   4.345   3.672  10.454  1.2342  0.5937  1.0478
 1161SOL    HW215117   4.456   3.650  10.356 -1.0775 -0.3671  0.0701
 1162SOL     OW15118   1.889   0.874   6.714  0.5001 -0.6675  0.4061
 1162SOL    HW115119   1.891   0.958   6.668 -1.3513 -1.3702 -1.0133
 1162SOL    HW215120   1.852   0.816   6.647  1.0713 -0.9885  0.3636
 1163SOL     OW15121   1.113   4.482   3.984  0.0749  0.3777  0.3759
 1163SOL    HW115122   1.067   4.560   4.016  0.6469  0.5485  0.7828
 1163SOL    HW215123   1.062   4.456   3.907  0.3302 -1.9229  0.9882
 1164SOL     OW15124   0.749   4.274   2.563  0.6651  0.3028 -0.0056
 1164SOL    HW115125   0.833   4.285   2.607  0.6214 -1.0959  0.4144
 1164SOL    HW215126   0.704   4.205   2.612  1.8435  0.7790  1.7549
 1165SOL     OW15127   3.870   2.070   6.658  0.0190 -0.0772  0.1994
 1165SOL    HW115128   3.786   2.038   6.691 -0.6734  0.5566 -0.9766
 1165SOL    HW215129   3.842   2.152   6.618  1.5368 -0.9377 -2.5669
 1166SOL     OW15130   4.205   3.373   1.614 -0.4714  0.1325 -0.2229
 1166SOL    HW115131   4.252   3.326   1.545  0.1418 -0.0731  0.3423
 1166SOL    HW215132   4.118   3.344   1.586 -0.4371  0.6377 -0.8649
 1167SOL     OW15133   3.016   2.657   3.146 -0.1890  0.2156  0.2366
 1167SOL    HW115134   3.099   2.629   3.183 -0.7025 -1.1664  0.3505
 1167SOL    HW215135   2.953   2.627   3.212 -0.0018 -1.7713 -0.4741
 1168SOL     OW15136   2.193   4.170   4.892  0.3511  0.3222  0.0039
 1168SOL    HW115137   2.140   4.250   4.895  0.7773  0.6331 -0.8142
 1168SOL    HW215138   2.196   4.152   4.986 -1.9091 -3.4194 -0.6293
 1169SOL     OW15139   2.028   4.646   2.051  0.0461  0.9451 -0.1466
 1169SOL    HW115140   1.984   4.600   1.980  1.9968 -1.7478  0.4074
 1169SOL    HW215141   2.116   4.632   2.015 -0.1893  0.2820 -0.4552
 1170SOL     OW15142   4.185   2.655   3.585 -0.3715  0.4771 -0.2939
 1170SOL    HW115143   4.118   2.720   3.605 -1.1551  0.0285 -1.4556
 1170SOL    HW215144   4.175   2.636   3.492  0.3355 -1.1076 -0.0434
 1171SOL     OW15145   4.502   3.817   2.810 -0.2753  0.1117 -0.2248
 1171SOL    HW115146   4.454   3.735   2.824 -0.6109  0.0247 -1.9363
 1171SOL    HW215147   4.493   3.843   2.902 -0.6857 -2.0405  0.3287
 1172SOL     OW15148   3.383   1.397   8.438  0.1576  0.4461 -0.3596
 1172SOL    HW115149   3.431   1.463   8.389  1.7599 -0.4974 -0.0807
 1172SOL    HW215150   3.450   1.342   8.480 -0.4915  0.7354  1.0759
 1173SOL     OW15151   0.106   1.211   7.219  0.5118 -0.1770  0.0191
 1173SOL    HW115152   0.132   1.242   7.133 -0.1648  2.2274  0.6883
 1173SOL    HW215153   0.033   1.157   7.188  0.2713 -1.0537  2.0955
 1174SOL     OW15154   3.859   3.611   4.511 -0.4046 -0.0168  0.3301
 1174SOL    HW115155   3.865   3.671   4.585  0.1832 -0.4719  0.6488
 1174SOL    HW215156   3.937   3.636   4.460  0.8856 -0.7994  1.9482
 1175SOL     OW15157   3.509   3.761   5.442  0.1472  0.4830 -0.3356
 1175SOL    HW115158   3.499   3.825   5.372  1.8259  1.1768  0.0539
 1175SOL    HW215159   3.420   3.758   5.476  1.7241 -3.2099  3.5334
 1176SOL     OW15160   2.124   0.442   8.058  0.1641  0.3879  0.2819
 1176SOL    HW115161   2.127   0.429   7.964  0.2083  0.9011  0.2098
 1176SOL    HW215162   2.122   0.538   8.057 -0.1796  0.3566 -0.9444
 1177SOL     OW15163   2.983   1.402   2.356  0.0471 -0.4115  0.2272
 1177SOL    HW115164   2.993   1.364   2.269 -3.2034 -2.7141  0.8360
 1177SOL    HW215165   3.075   1.398   2.380 -0.0105  1.4176  0.6888
 1178SOL     OW15166   3.694   4.707   5.286 -0.2486 -0.3718  0.1203
 1178SOL    HW115167   3.774   4.713   5.339 -1.4409  0.5513  1.8335
 1178SOL    HW215168   3.695   0.065   5.279  1.2993 -0.1900  2.5733
 1179SOL     OW15169   3.723   3.283  11.415  0.2680 -0.4106 -0.2276
 1179SOL    HW115170   3.760   3.358  11.367  0.0436  0.5717  1.1449
 1179SOL    HW215171   3.655   3.331  11.462  1.6625  1.8710 -0.5126
 1180SOL     OW15172   1.838   2.844   5.864 -0.3050 -0.3073 -0.1445
 1180SOL    HW115173   1.759   2.842   5.918  0.8008  1.2318  1.5330
 1180SOL    HW215174   1.832   2.769   5.805  1.4424  0.5349 -1.4288
 1181SOL     OW15175   3.949   4.464   9.565 -0.3294  0.0115  0.5551
 1181SOL    HW115176   4.032   4.431   9.528 -1.1401  0.4991 -1.7188
 1181SOL    HW215177   3.946   4.544   9.513 -1.0193  0.5207  1.4002
 1182SOL     OW15178   4.148   2.550   3.832  0.3648 -0.1465 -0.0304
 1182SOL    HW115179   4.194   2.466   3.829  0.3772 -0.1331 -0.1799
 1182SOL    HW215180   4.158   2.584   3.743 -0.0409 -2.2756 -0.8884
 1183SOL     OW15181   3.484   3.342  15.215  0.6114 -0.5695  0.1805
 1183SOL    HW115182   3.568   3.297  15.222  0.2375 -1.3864 -0.5742
 1183SOL    HW215183   3.432   3.283  15.268 -0.2368  0.3983  0.4325
 1184SOL     OW15184   0.987   3.107   2.924  0.5152  0.0343  0.0199
 1184SOL    HW115185   1.028   3.037   2.874  0.2665 -0.0184 -0.1102
 1184SOL    HW215186   0.978   3.183   2.866 -1.5098  1.6168  2.3824
 1185SOL     OW15187   3.229   3.316   0.256 -0.1404 -0.2222  0.5559
 1185SOL    HW115188   3.312   3.314   0.304 -0.4825 -0.1853  1.1525
 1185SOL    HW215189   3.250   3.385   0.193 -0.9033  1.0700  1.7107
 1186SOL     OW15190   1.996   4.248   2.045  0.1823  0.0999  0.3677
 1186SOL    HW115191   2.079   4.200   2.053  0.1107 -0.2603 -0.9726
 1186SOL    HW215192   2.004   4.309   2.118  0.3661  0.5982 -0.0671
 1187SOL     OW15193   0.040   0.351   7.263 -0.3242 -0.0627 -0.0037
 1187SOL    HW115194   0.005   0.412   7.329 -2.5191 -0.6532 -0.6109
 1187SOL    HW215195   0.119   0.326   7.311 -1.7831  2.0057  3.5316
 1188SOL     OW15196   4.216   1.453   6.642  0.6786 -0.5955  0.6791
 1188SOL    HW115197   4.189   1.364   6.665 -0.5466  0.0681  1.8000
 1188SOL    HW215198   4.285   1.467   6.707  0.0464 -2.7114  1.8360
 1189SOL     OW15199   4.433   1.494   9.918  0.7070 -0.4945  0.1104
 1189SOL    HW115200   4.397   1.470  10.004  0.7966  2.4048  0.9376
 1189SOL    HW215201   4.486   1.570   9.941  0.5394 -0.5240  0.6167
 1190SOL     OW15202   0.496   2.110   2.929 -0.6806 -0.2701  0.2984
 1190SOL    HW115203   0.587   2.137   2.941 -1.6092  2.1615  1.9279
 1190SOL    HW215204   0.501   2.030   2.876  1.6968  1.0151 -1.3980
 1191SOL     OW15205   3.712   2.006   1.845  0.4455 -0.6163 -0.3900
 1191SOL    HW115206   3.796   2.050   1.830 -0.1306  1.6134  2.9058
 1191SOL    HW215207   3.681   2.026   1.933  0.4780 -0.0550 -0.5030
 1192SOL     OW15208   0.626   2.243   4.409  0.1471  0.4119  0.1405
 1192SOL    HW115209   0.587   2.159   4.386  3.5030 -0.6885 -1.5367
 1192SOL    HW215210   0.585   2.308   4.352  0.7962  0.3966 -0.3375
 1193SOL     OW15211   1.916   2.307   7.284  0.6319  0.2278 -0.3996
 1193SOL    HW115212   1.900   2.252   7.207 -0.4222  1.3307 -0.9752
 1193SOL    HW215213   2.008   2.289   7.301  0.1599 -0.9297  0.9498
 1194SOL     OW15214   1.001   2.641  10.827  0.3855  0.1227 -0.1780
 1194SOL    HW115215   1.010   2.709  10.760 -0.1806  1.2146  0.8565
 1194SOL    HW215216   1.056   2.572  10.790  0.5858 -0.9119  2.0148
 1195SOL     OW15217   3.394   0.905   1.464 -0.2936  0.0084  0.0946
 1195SOL    HW115218   3.371   0.895   1.371  0.2101 -0.7497  0.0442
 1195SOL    HW215219   3.401   0.814   1.493 -2.4660  0.9690  3.5599
 1196SOL     OW15220   0.385   0.987   5.564 -0.0314 -0.0692 -0.4254
 1196SOL    HW115221   0.402   0.915   5.625 -2.3507 -0.5125 -0.2879
 1196SOL    HW215222   0.360   1.050   5.631  2.7692  0.0931  0.4401
 1197SOL     OW15223   0.644   3.321   0.637 -0.2756 -0.3236 -0.1289
 1197SOL    HW115224   0.574   3.348   0.697  1.4214  2.4053  0.6349
 1197SOL    HW215225   0.588   3.310   0.559 -1.1914 -0.7483  0.5932
 1198SOL     OW15226   3.861   1.460  12.606 -0.2144 -0.2818  0.2453
 1198SOL    HW115227   3.883   1.473  12.513  1.4001  2.3869  0.9859
 1198SOL    HW215228   3.793   1.526  12.610 -1.0217 -0.8920 -3.2134
 1199SOL     OW15229   2.763   0.152   8.798 -0.4467 -0.3338 -0.4667
 1199SOL    HW115230   2.768   0.206   8.720  1.0594  2.1045  1.3428
 1199SOL    HW215231   2.848   0.109   8.786 -0.0705  0.2734  0.0370
 1200SOL     OW15232   2.741   0.345   6.288 -0.0504  0.6195  0.4036
 1200SOL    HW115233   2.702   0.297   6.215  1.8036 -1.1899  0.5929
 1200SOL    HW215234   2.711   0.432   6.263  2.1000  1.2877  0.0845
 1201SOL     OW15235   2.948   3.283   8.610 -0.2109  0.1136  0.1923
 1201SOL    HW115236   2.877   3.257   8.668  1.4650 -0.5991  1.9361
 1201SOL    HW215237   2.905   3.348   8.555  0.4595  2.2791  2.2359
 1202SOL     OW15238   2.793   0.914   2.328 -0.3765 -0.1098  0.1618
 1202SOL    HW115239   2.734   0.920   2.252 -0.0478 -0.5355 -0.1232
 1202SOL    HW215240   2.762   0.998   2.362 -1.8706 -0.3950 -0.4570
 1203SOL     OW15241   1.711   1.939   9.115  0.3735 -0.3519 -0.2044
 1203SOL    HW115242   1.682   2.020   9.157 -1.9798 -0.7103 -1.1517
 1203SOL    HW215243   1.804   1.960   9.102  0.2840 -0.2563 -0.7010
 1204SOL     OW15244   3.351   3.090   7.172  0.4649  0.0919  0.1140
 1204SOL    HW115245   3.348   3.099   7.077  0.0606 -0.7942  0.0493
 1204SOL    HW215246   3.363   3.182   7.196 -0.8664  0.9608 -2.6141
 1205SOL     OW15247   4.110   1.349   4.930  0.2641  0.1383 -0.2791
 1205SOL    HW115248   4.055   1.416   4.970 -0.1464  0.9533 -2.2031
 1205SOL    HW215249   4.053   1.274   4.914  1.3475 -0.8240  0.4379
 1206SOL     OW15250   4.677   0.659  12.053  0.2207 -0.5955 -0.1321
 1206SOL    HW115251   4.712   0.600  11.987 -0.2233 -0.3797 -0.5619
 1206SOL    HW215252   4.591   0.620  12.070 -0.7262  0.9250 -1.3185
 1207SOL     OW15253   4.128   1.758  17.330 -0.0526  0.7336 -0.4456
 1207SOL    HW115254   4.058   1.820  17.348  0.6097  1.7798 -1.4078
 1207SOL    HW215255   4.086   1.712  17.257  0.1872  4.3527 -2.8738
 1208SOL     OW15256   2.283   4.381   9.384 -0.7210  0.4994  0.3163
 1208SOL    HW115257   2.314   4.471   9.384 -4.3940  1.7851  0.0583
 1208SOL    HW215258   2.187   4.384   9.390 -0.8390  1.3722 -1.9839
 1209SOL     OW15259   2.161   0.662   5.469 -0.1535 -0.5083 -0.5376
 1209SOL    HW115260   2.095   0.681   5.536  0.0160 -0.7628 -0.2983
 1209SOL    HW215261   2.117   0.709   5.398 -0.3144 -1.8491 -1.3165
 1210SOL     OW15262   2.791   0.999   3.933 -0.3946  0.4242 -0.2897
 1210SOL    HW115263   2.716   1.027   3.985 -0.9147  1.6074 -1.7077
 1210SOL    HW215264   2.847   1.076   3.925 -1.2306  0.8818 -1.7378
 1211SOL     OW15265   4.623   3.734   4.969 -0.0068  0.0348 -0.5086
 1211SOL    HW115266   4.586   3.794   5.035 -0.0417  0.8939 -1.3073
 1211SOL    HW215267   4.715   3.739   4.995 -0.4023  0.7161  0.7727
 1212SOL     OW15268   4.037   2.235   5.220 -0.3158 -0.1711  0.5655
 1212SOL    HW115269   4.093   2.235   5.297  0.3585 -1.3851  0.0681
 1212SOL    HW215270   4.055   2.149   5.183  0.1423  0.9483 -1.8418
 1213SOL     OW15271   2.089   1.103   2.756  0.3036  0.6900 -0.3033
 1213SOL    HW115272   2.131   1.017   2.757 -1.8716 -0.3583  1.6995
 1213SOL    HW215273   2.164   1.160   2.739 -0.1020  1.8151  1.6166
 1214SOL     OW15274   4.681   4.288   6.908  0.1954  1.0667  0.0211
 1214SOL    HW115275   4.731   4.307   6.829  0.5565 -0.0570 -0.0178
 1214SOL    HW215276   4.592   4.269   6.878 -0.2360 -0.0003  2.0127
 1215SOL     OW15277   3.861   4.252   0.392  0.2669  0.2040  0.5762
 1215SOL    HW115278   3.777   4.268   0.348  0.7098 -2.3248 -1.1809
 1215SOL    HW215279   3.908   4.214   0.318  2.7811 -0.3931  2.4888
 1216SOL     OW15280   1.155   3.953   2.610 -0.1918  1.0310  0.1035
 1216SOL    HW115281   1.170   3.934   2.702 -1.2738  0.7642  0.2222
 1216SOL    HW215282   1.174   4.047   2.606 -0.6028  1.1236  0.4208
 1217SOL     OW15283   2.929   1.825   2.260  0.2748  0.0457  0.3453
 1217SOL    HW115284   2.855   1.856   2.313 -0.6687  0.3827 -1.1608
 1217SOL    HW215285   2.888   1.741   2.238  2.3931 -1.0850  0.7307
 1218SOL     OW15286   1.876   0.624  12.085  0.5555  0.1786  0.2362
 1218SOL    HW115287   1.912   0.563  12.021  1.3013  0.2666  0.5707
 1218SOL    HW215288   1.841   0.560  12.147  1.2587 -1.0049 -0.5833
 1219SOL     OW15289   2.134   2.626   8.208  0.2874 -0.4665  0.4895
 1219SOL    HW115290   2.045   2.595   8.223 -0.3982  0.6725 -1.2412
 1219SOL    HW215291   2.141   2.712   8.250  1.2282 -0.3317  0.0690
 1220SOL     OW15292   3.140   0.049   1.864  0.1732 -0.0081  0.2310
 1220SOL    HW115293   3.103   4.713   1.914 -0.8629 -0.1074 -0.6922
 1220SOL    HW215294   3.129   0.013   1.776  2.3749 -1.7944  0.6890
 1221SOL     OW15295   2.423   1.863   7.580 -0.0790  0.2364  0.4921
 1221SOL    HW115296   2.424   1.894   7.489  0.7717 -1.4045 -0.0615
 1221SOL    HW215297   2.432   1.768   7.568  1.4976  0.4786 -0.1909
 1222SOL     OW15298   0.372   0.085   0.125 -1.2795  0.1110  0.1831
 1222SOL    HW115299   0.456   0.062   0.165 -1.8346 -2.3791 -0.0927
 1222SOL    HW215300   0.374   0.019   0.055  0.8459 -2.0066  2.2498
 1223SOL     OW15301   3.637   3.902  10.744  0.3918 -0.2005 -0.3550
 1223SOL    HW115302   3.710   3.960  10.720 -0.6555  1.3171  0.1741
 1223SOL    HW215303   3.565   3.965  10.746 -0.9630 -1.7638 -0.6666
 1224SOL     OW15304   1.618   0.385   8.744 -0.4122 -0.3595 -0.2973
 1224SOL    HW115305   1.697   0.335   8.761  0.2507  0.8730  0.2766
 1224SOL    HW215306   1.550   0.318   8.738 -0.5818 -0.3078  0.9653
 1225SOL     OW15307   1.354   0.556   9.680 -0.5586 -0.2993  0.0680
 1225SOL    HW115308   1.290   0.620   9.712  0.1256  1.0546 -1.2564
 1225SOL    HW215309   1.295   0.485   9.705 -0.2901 -0.2608  0.8078
 1226SOL     OW15310   3.643   3.611   1.965 -0.0831 -0.1154  0.7226
 1226SOL    HW115311   3.627   3.640   2.055  0.6612 -1.4175  1.2676
 1226SOL    HW215312   3.582   3.537   1.965 -0.9200  0.5758 -1.3537
 1227SOL     OW15313   0.303   1.790  17.684 -0.1848 -0.2560 -0.7892
 1227SOL    HW115314   0.396   1.810  17.675 -0.1888 -0.3655 -1.0803
 1227SOL    HW215315   0.292   1.734  17.607  2.6170  1.2432 -2.2724
 1228SOL     OW15316   1.601   4.309   0.491 -0.4279 -0.3544 -0.5316
 1228SOL    HW115317   1.663   4.310   0.418  0.0503  0.8547 -0.1099
 1228SOL    HW215318   1.617   4.226   0.534 -0.0386  1.0626  2.0509
 1229SOL     OW15319   0.039   3.038  16.604  0.2924 -0.0564 -0.5408
 1229SOL    HW115320   4.730   3.116  16.573  2.1741  1.1563 -0.2856
 1229SOL    HW215321   0.012   3.034  16.696 -1.1592  2.2707 -0.8822
 1230SOL     OW15322   0.533   0.304   7.663 -0.3136 -0.8593 -0.5818
 1230SOL    HW115323   0.469   0.371   7.640  1.0230  0.5723 -0.1402
 1230SOL    HW215324   0.611   0.355   7.640 -1.2280  1.2036  0.8098
 1231SOL     OW15325   4.526   0.243  11.682  0.0049 -0.1626  0.3757
 1231SOL    HW115326   4.468   0.187  11.629  0.4550 -0.7644  0.5246
 1231SOL    HW215327   4.508   0.332  11.652  0.3330 -0.7425 -1.5740
 1232SOL     OW15328   0.060   2.197   7.142 -0.2555 -0.2376 -0.6272
 1232SOL    HW115329   4.716   2.247   7.135  1.3669  2.4089 -0.4274
 1232SOL    HW215330   0.071   2.181   7.235  1.5198  0.5090 -0.7107
 1233SOL     OW15331   0.649   1.521   3.092 -0.1843 -0.0289 -0.0873
 1233SOL    HW115332   0.571   1.557   3.136  0.0770  1.4155 -0.8066
 1233SOL    HW215333   0.729   1.546   3.139 -1.1847 -2.5465  3.0065
 1234SOL     OW15334   3.182   3.039  15.549 -0.3862  0.1669 -0.0837
 1234SOL    HW115335   3.134   2.974  15.601  1.3397 -1.9379 -1.1636
 1234SOL    HW215336   3.122   3.113  15.562  0.2113  0.4813  0.9161
 1235SOL     OW15337   0.114   1.665   1.610 -0.2492  0.1348 -0.1236
 1235SOL    HW115338   0.143   1.575   1.600  1.1846  0.9723 -3.3934
 1235SOL    HW215339   0.167   1.695   1.683 -0.8734  0.2068  0.3031
 1236SOL     OW15340   2.756   0.814  12.591 -0.9507 -0.1040 -0.1419
 1236SOL    HW115341   2.748   0.854  12.677  0.7860  0.7439 -0.3821
 1236SOL    HW215342   2.780   0.883  12.529 -0.6926  0.0560  0.1386
 1237SOL     OW15343   2.186   0.055   8.119 -0.1970 -0.1133  0.5691
 1237SOL    HW115344   2.099   0.017   8.113 -0.1722 -0.3487  1.5898
 1237SOL    HW215345   2.172   0.142   8.083 -0.4933 -0.2380  0.3879
 1238SOL     OW15346   3.082   4.099   5.712 -0.3107  0.0785 -0.5784
 1238SOL    HW115347   3.049   4.182   5.746  0.4839  0.0942  0.1653
 1238SOL    HW215348   3.003   4.045   5.715  1.0364 -1.9363 -1.2578
 1239SOL     OW15349   0.583   4.524   2.837  0.5292 -0.1334 -0.3009
 1239SOL    HW115350   0.555   4.508   2.747  0.2335 -0.5163 -0.1434
 1239SOL    HW215351   0.618   4.610   2.815 -0.6007  0.0314 -1.4572
 1240SOL     OW15352   3.182   2.261  16.667  0.0640  0.6373 -0.1417
 1240SOL    HW115353   3.188   2.347  16.626  0.3284  0.8976  0.4528
 1240SOL    HW215354   3.113   2.282  16.729  1.4970 -0.8942  1.9925
 1241SOL     OW15355   4.531   1.503   8.982  0.1096  0.4075 -0.3853
 1241SOL    HW115356   4.437   1.521   8.994  0.2132 -0.1701  1.3436
 1241SOL    HW215357   4.537   1.527   8.890 -0.5047  1.3182 -0.1899
 1242SOL     OW15358   0.415   2.142  11.754  0.1126  0.2370  0.2363
 1242SOL    HW115359   0.339   2.103  11.712  0.5917  0.6314 -0.9815
 1242SOL    HW215360   0.386   2.233  11.762 -0.7734 -0.0039 -0.2433
 1243SOL     OW15361   1.945   2.917   5.165 -0.1498  0.0443  0.0052
 1243SOL    HW115362   1.911   2.903   5.077 -2.2806 -0.1568  0.8774
 1243SOL    HW215363   1.889   2.860   5.217  1.9904 -0.8472  1.3453
 1244SOL     OW15364   0.416   0.499   6.819 -0.1943 -0.7924 -1.1454
 1244SOL    HW115365   0.364   0.440   6.765 -2.9959  0.3061  0.3611
 1244SOL    HW215366   0.490   0.508   6.758  0.6106 -0.2867 -0.1061
 1245SOL     OW15367   2.778   3.476   8.464 -0.2596 -0.1794 -0.5224
 1245SOL    HW115368   2.807   3.567   8.476  1.2342 -0.4189 -2.2343
 1245SOL    HW215369   2.775   3.462   8.370 -0.6423 -1.2666 -0.3483
 1246SOL     OW15370   4.616   3.706   4.194  0.1694  0.0511 -0.1594
 1246SOL    HW115371   4.559   3.747   4.260  0.1050  0.9052 -0.7491
 1246SOL    HW215372   4.641   3.789   4.155  1.4569  0.7243  2.1296
 1247SOL     OW15373   3.676   0.635  10.855  0.2363 -0.0260  0.2102
 1247SOL    HW115374   3.673   0.648  10.950 -0.7835 -0.7341  0.2779
 1247SOL    HW215375   3.759   0.588  10.851 -0.0926 -0.4689 -1.2418
 1248SOL     OW15376   0.306   2.822  17.359 -0.5466 -0.0082  0.0475
 1248SOL    HW115377   0.310   2.727  17.345  2.2178  0.7763 -4.6286
 1248SOL    HW215378   0.399   2.840  17.342 -1.3344  2.7554 -1.4306
 1249SOL     OW15379   1.502   2.392  10.213  0.4819  0.2869  0.1231
 1249SOL    HW115380   1.469   2.305  10.195  0.1690  0.1157  1.5931
 1249SOL    HW215381   1.519   2.392  10.307  2.2067 -1.2356 -0.1733
 1250SOL     OW15382   0.943   2.125   4.444  0.0858  0.2184  0.0605
 1250SOL    HW115383   0.866   2.112   4.499  1.0760  1.3272  1.7122
 1250SOL    HW215384   1.014   2.090   4.498  0.4393 -2.2313 -1.9853
 1251SOL     OW15385   0.605   2.611   0.310 -0.1701  0.6302  0.4955
 1251SOL    HW115386   0.700   2.612   0.304 -0.3188  1.2671 -1.7658
 1251SOL    HW215387   0.599   2.516   0.324 -0.5596  0.2877 -1.9531
 1252SOL     OW15388   1.017   2.017   1.480  1.0005  0.1763 -0.0072
 1252SOL    HW115389   1.077   2.088   1.457 -0.0506  0.8743 -0.5733
 1252SOL    HW215390   1.034   1.957   1.408  0.3386 -0.8046  0.6547
 1253SOL     OW15391   3.795   1.737  14.022 -0.1666  0.3996 -0.3159
 1253SOL    HW115392   3.761   1.788  13.948  1.1191 -0.8215 -1.7596
 1253SOL    HW215393   3.887   1.766  14.027 -1.2970  3.7775  1.0768
 1254SOL     OW15394   1.269   2.709   8.265 -0.4009  0.4302 -0.2977
 1254SOL    HW115395   1.316   2.722   8.182  0.6225  0.5498  0.3013
 1254SOL    HW215396   1.335   2.690   8.331  0.8692  1.6114 -1.2384
 1255SOL     OW15397   1.216   0.284   5.556 -0.1380  0.2069 -0.0368
 1255SOL    HW115398   1.194   0.258   5.645 -0.6291 -0.3805 -0.3326
 1255SOL    HW215399   1.290   0.344   5.562  0.9932 -0.9785 -1.9231
 1256SOL     OW15400   3.029   3.749   3.869  0.3047 -0.2666  0.1344
 1256SOL    HW115401   2.996   3.792   3.947  1.2465 -0.0006  0.3840
 1256SOL    HW215402   2.954   3.695   3.844 -0.8000  0.7448  1.2400
 1257SOL     OW15403   1.640   0.699   5.837 -0.3711  0.5681 -0.5021
 1257SOL    HW115404   1.637   0.709   5.742  0.7217 -0.5027 -0.6487
 1257SOL    HW215405   1.665   0.788   5.862  1.5946 -0.1887  0.1828
 1258SOL     OW15406   3.661   1.360   0.358  0.2332 -0.6111 -0.6310
 1258SOL    HW115407   3.716   1.406   0.295  0.7126 -0.4668 -0.1080
 1258SOL    HW215408   3.598   1.330   0.292 -0.3804 -1.0340  0.1421
 1259SOL     OW15409   0.658   0.414   5.819  0.3926  0.2051  0.0472
 1259SOL    HW115410   0.596   0.375   5.880 -0.5941  0.7654 -0.6067
 1259SOL    HW215411   0.731   0.441   5.875  0.7650 -0.1097 -0.2843
 1260SOL     OW15412   2.044   0.548   7.339  0.5885  0.2185  0.4339
 1260SOL    HW115413   1.979   0.584   7.398 -0.5517 -1.5751  0.2754
 1260SOL    HW215414   1.993   0.525   7.261  1.1877 -0.5027  0.2510
 1261SOL     OW15415   1.834   3.993   7.642  0.3672 -0.5878 -1.1770
 1261SOL    HW115416   1.744   4.003   7.675  0.6716 -0.3468 -0.4213
 1261SOL    HW215417   1.832   4.006   7.548  1.5091 -0.4071 -1.1682
 1262SOL     OW15418   2.649   0.133   3.031 -0.1299 -0.0216 -0.4085
 1262SOL    HW115419   2.725   0.076   3.020 -1.3344 -1.5314 -0.9065
 1262SOL    HW215420   2.675   0.169   3.116  0.6143 -3.0137  0.6297
 1263SOL     OW15421   3.755   3.937   1.269 -0.5865  0.1238  0.0397
 1263SOL    HW115422   3.690   3.871   1.291 -0.8044  0.2691 -0.1738
 1263SOL    HW215423   3.803   3.888   1.202 -1.0648  0.1216 -0.3026
 1264SOL     OW15424   2.890   1.936  14.997  0.8364 -0.0356  0.5151
 1264SOL    HW115425   2.950   1.872  14.959  0.4900 -0.5253  0.7919
 1264SOL    HW215426   2.943   2.012  15.022 -0.4191  0.5940  1.2645
 1265SOL     OW15427   1.818   0.588   4.074  0.4168  0.5780  0.1933
 1265SOL    HW115428   1.891   0.621   4.126  3.6515 -0.3841 -3.6731
 1265SOL    HW215429   1.788   0.664   4.025 -2.7519  0.3192  1.7114
 1266SOL     OW15430   0.718   2.480  12.935  0.4538 -0.0434  0.3357
 1266SOL    HW115431   0.666   2.409  12.899  0.8776 -1.0269  1.6678
 1266SOL    HW215432   0.759   2.430  13.005  0.3015  2.3973  2.1644
 1267SOL     OW15433   3.428   3.083   3.339 -0.7781  0.1971 -0.3171
 1267SOL    HW115434   3.413   3.168   3.380  1.4917  1.2759 -1.6909
 1267SOL    HW215435   3.445   3.039   3.422 -1.8459 -0.2608 -0.3546
 1268SOL     OW15436   2.433   0.875   4.365 -0.5117 -0.2302 -0.4854
 1268SOL    HW115437   2.406   0.945   4.305  3.2340 -0.0399 -1.9655
 1268SOL    HW215438   2.506   0.920   4.407 -1.0847 -0.2348  0.4977
 1269SOL     OW15439   4.346   3.840   9.453 -0.1902  1.0451  0.3635
 1269SOL    HW115440   4.422   3.874   9.405 -0.0279 -1.8233 -1.3777
 1269SOL    HW215441   4.363   3.746   9.454 -2.5476  0.5817 -0.9239
 1270SOL     OW15442   0.835   4.088  17.326  0.1410 -0.1061  0.0091
 1270SOL    HW115443   0.872   4.167  17.287 -0.5299 -0.6282 -1.6869
 1270SOL    HW215444   0.742   4.086  17.305 -0.2862  1.9631  1.6869
 1271SOL     OW15445   2.327   4.277  13.032  0.6908 -0.1007 -0.1285
 1271SOL    HW115446   2.234   4.298  13.022  0.4263 -1.2076 -0.0188
 1271SOL    HW215447   2.361   4.361  13.001  1.1366 -0.5853 -0.9539
 1272SOL     OW15448   3.919   4.042   4.233 -0.0065  0.4741  0.0224
 1272SOL    HW115449   3.978   4.056   4.307 -0.5591 -0.2384  0.5955
 1272SOL    HW215450   3.977   4.062   4.159 -0.9055  2.4112 -0.1447
 1273SOL     OW15451   0.391   2.891   7.668  0.6103 -0.5521  0.3259
 1273SOL    HW115452   0.434   2.895   7.753 -1.8367  1.6063  1.4539
 1273SOL    HW215453   0.456   2.852   7.610 -1.3611 -2.3005 -0.6882
 1274SOL     OW15454   0.924   3.186   4.737  0.2489 -0.5126  0.7180
 1274SOL    HW115455   0.897   3.273   4.768 -1.8278 -0.8562 -0.0786
 1274SOL    HW215456   0.853   3.191   4.672 -1.1493  1.2081  2.3759
 1275SOL     OW15457   0.650   1.867   3.202  0.4100 -0.0671 -0.0843
 1275SOL    HW115458   0.688   1.828   3.281 -1.0725 -0.6075  0.3559
 1275SOL    HW215459   0.561   1.851   3.235  1.2657 -0.3874  2.1284
 1276SOL     OW15460   4.481   2.849   6.380 -0.0736 -0.1783  0.6381
 1276SOL    HW115461   4.391   2.845   6.350 -0.0260 -0.3718  0.5211
 1276SOL    HW215462   4.464   2.884   6.468 -0.3482  0.2756  0.4036
 1277SOL     OW15463   4.075   1.219   8.189  0.5287 -0.0200  0.1963
 1277SOL    HW115464   4.063   1.206   8.283  0.8011 -0.6828  0.1403
 1277SOL    HW215465   3.993   1.177   8.167  1.7327 -1.2964 -1.8652
 1278SOL     OW15466   3.036   2.776  17.337  0.4018 -0.4387  0.3742
 1278SOL    HW115467   3.060   2.834  17.265 -0.8168  0.4673  0.7109
 1278SOL    HW215468   2.945   2.756  17.315  0.4361 -0.1285 -0.0535
 1279SOL     OW15469   2.537   0.011   9.040 -0.1974 -0.1031 -0.4929
 1279SOL    HW115470   2.541   4.713   9.130  0.3899  0.1266 -0.4335
 1279SOL    HW215471   2.576   0.097   9.054  0.7364 -0.5814 -0.1119
 1280SOL     OW15472   4.719   1.038   6.337 -0.0749 -0.1809 -0.2229
 1280SOL    HW115473   4.689   0.947   6.341 -0.4697  0.0046  1.1551
 1280SOL    HW215474   4.659   1.077   6.274 -1.2594 -0.3421  0.8119
 1281SOL     OW15475   2.648   4.563   3.844  0.0231 -0.6681  0.0413
 1281SOL    HW115476   2.666   4.550   3.751 -1.2352 -0.3076 -0.2432
 1281SOL    HW215477   2.555   4.546   3.859 -0.1865 -0.4308 -0.9651
 1282SOL     OW15478   2.757   3.048  12.373  0.5118 -0.6992  0.0459
 1282SOL    HW115479   2.749   3.037  12.468  1.5949 -0.9456  0.1120
 1282SOL    HW215480   2.701   2.976  12.343  0.9484 -0.8792 -0.3334
 1283SOL     OW15481   3.413   3.852   9.182  0.0427 -0.5095  0.7930
 1283SOL    HW115482   3.460   3.925   9.224  1.2651 -0.5891 -0.4350
 1283SOL    HW215483   3.471   3.780   9.206  0.6079 -0.4489 -0.3628
 1284SOL     OW15484   1.879   2.116  14.388 -0.0529  0.4524 -0.2297
 1284SOL    HW115485   1.800   2.062  14.395  1.0005 -1.2110 -0.9858
 1284SOL    HW215486   1.838   2.195  14.353  1.6500  1.0567 -0.8591
 1285SOL     OW15487   2.800   3.750   8.400  0.4911 -0.2508 -0.5875
 1285SOL    HW115488   2.849   3.795   8.331  1.2289  3.8359  2.6147
 1285SOL    HW215489   2.712   3.781   8.379  0.8080  0.4865 -0.8412
 1286SOL     OW15490   4.010   1.431   6.970 -0.0360  0.1765  0.1204
 1286SOL    HW115491   3.999   1.346   6.928  0.2617 -0.1414  0.6840
 1286SOL    HW215492   4.096   1.421   7.011  1.0868  1.5665 -1.8908
 1287SOL     OW15493   2.519   2.922   6.063 -0.7900 -0.2247  0.4579
 1287SOL    HW115494   2.585   2.954   6.001  2.0615 -3.5539  1.8239
 1287SOL    HW215495   2.488   3.004   6.102 -1.0160  0.2577 -0.7347
 1288SOL     OW15496   2.074   3.886   8.721  0.7247  0.2120 -0.0711
 1288SOL    HW115497   2.067   3.873   8.626 -2.6889 -0.0322  0.1917
 1288SOL    HW215498   2.025   3.968   8.724 -0.0115 -0.2362  0.3592
 1289SOL     OW15499   4.444   1.619  13.605  0.0078  0.2889  0.5448
 1289SOL    HW115500   4.394   1.700  13.597 -0.1555  0.4833  3.5996
 1289SOL    HW215501   4.461   1.600  13.697 -1.8823  0.2591  0.8784
 1290SOL     OW15502   0.076   1.112   8.007 -0.4667  0.0575  0.0674
 1290SOL    HW115503   0.010   1.170   7.971 -0.2051  0.0612 -0.4010
 1290SOL    HW215504   0.137   1.104   7.934 -1.1324 -1.3625 -0.3318
 1291SOL     OW15505   3.717   0.081   6.630  0.3462  0.0801  0.2059
 1291SOL    HW115506   3.649   0.043   6.575 -0.5970  0.3276  1.2057
 1291SOL    HW215507   3.674   0.164   6.653  1.1293  0.3207  0.7947
 1292SOL     OW15508   2.629   2.292   4.611 -0.0489  0.0328 -0.4453
 1292SOL    HW115509   2.642   2.300   4.517  0.1019 -2.3776 -0.6262
 1292SOL    HW215510   2.685   2.215   4.620  0.4482  0.5862  1.2808
 1293SOL     OW15511   0.379   3.514   7.708 -0.4039 -0.1623 -0.5230
 1293SOL    HW115512   0.381   3.522   7.612  0.4719 -0.1525 -0.5058
 1293SOL    HW215513   0.453   3.565   7.742 -1.7937 -0.0932  2.3688
 1294SOL     OW15514   3.826   4.404  11.251  0.6150 -0.0200  0.7338
 1294SOL    HW115515   3.778   4.482  11.224 -1.5107 -1.2982  0.8220
 1294SOL    HW215516   3.917   4.427  11.233  0.1130  1.8488  0.5949
 1295SOL     OW15517   3.180   1.406   3.865 -0.2203  0.0205  0.1401
 1295SOL    HW115518   3.158   1.317   3.837 -1.5575  0.2551  0.4329
 1295SOL    HW215519   3.119   1.424   3.937  0.8924  0.7199  0.8928
 1296SOL     OW15520   2.194   1.431   6.722  0.2825  0.0713  0.0244
 1296SOL    HW115521   2.167   1.415   6.631  1.7076  0.1903 -0.4253
 1296SOL    HW215522   2.226   1.521   6.714  2.4995 -0.5246  2.3488
 1297SOL     OW15523   3.177   0.185   2.586  0.3726 -0.7500  0.2682
 1297SOL    HW115524   3.249   0.247   2.598 -0.3532  0.2041 -0.3072
 1297SOL    HW215525   3.206   0.102   2.624  0.7948 -0.7292 -0.0068
 1298SOL     OW15526   0.279   1.423   8.226  0.0810 -0.2022 -0.3109
 1298SOL    HW115527   0.268   1.333   8.259  0.5045 -0.1886 -0.1413
 1298SOL    HW215528   0.373   1.432   8.215  0.5986 -2.5005  2.2374
 1299SOL     OW15529   4.162   0.646  13.780  0.4141 -0.6263  0.2009
 1299SOL    HW115530   4.105   0.712  13.819  1.2866  0.4918 -0.4238
 1299SOL    HW215531   4.195   0.700  13.708 -0.0779  0.3714  0.7191
 1300SOL     OW15532   1.799   0.215   6.324  0.1226  0.0830  0.3173
 1300SOL    HW115533   1.824   0.263   6.403  2.8620  0.4776 -0.8187
 1300SOL    HW215534   1.852   0.136   6.329  0.1758  0.1220  0.3580
 1301SOL     OW15535   4.600   1.989   6.855  0.2935 -0.3506  0.1921
 1301SOL    HW115536   4.548   1.913   6.882  0.7684 -0.4306  0.8914
 1301SOL    HW215537   4.683   1.973   6.901  0.0206  0.9210  1.1104
 1302SOL     OW15538   1.386   3.493   2.926  0.7927 -0.0718 -0.0226
 1302SOL    HW115539   1.425   3.503   2.839  0.3610 -1.1410 -0.3342
 1302SOL    HW215540   1.391   3.399   2.942  0.6999  0.1761  1.4864
 1303SOL     OW15541   3.067   0.240   6.940  0.5621 -0.2178  0.2532
 1303SOL    HW115542   3.147   0.292   6.941 -0.7311  1.7440  1.4559
 1303SOL    HW215543   3.015   0.275   6.867 -1.5470 -1.3630  1.2187
 1304SOL     OW15544   0.299   0.919   1.225  0.1790 -0.4443 -0.0032
 1304SOL    HW115545   0.316   0.948   1.135  0.2767 -0.9744 -0.1541
 1304SOL    HW215546   0.237   0.987   1.250  1.6296  0.8596  0.0414
 1305SOL     OW15547   3.416   2.359   9.249 -0.5517  0.0099  0.2091
 1305SOL    HW115548   3.453   2.400   9.170  1.2813 -1.2902  0.3838
 1305SOL    HW215549   3.464   2.391   9.325 -0.2157 -1.1791  0.4971
 1306SOL     OW15550   0.847   3.381   6.208  0.2580  1.2470 -0.3370
 1306SOL    HW115551   0.933   3.419   6.191  1.4118 -0.7542  1.0754
 1306SOL    HW215552   0.852   3.385   6.304 -0.8861  0.1990 -0.2256
 1307SOL     OW15553   1.557   2.677  14.708  0.4231 -0.0646  0.9104
 1307SOL    HW115554   1.519   2.608  14.763 -1.1453  2.0161  2.4549
 1307SOL    HW215555   1.507   2.753  14.737 -1.3549 -0.6457 -0.6608
 1308SOL     OW15556   1.247   4.357   6.197  0.4984 -0.2577  0.0402
 1308SOL    HW115557   1.291   4.305   6.130  1.4310 -0.8198  1.0814
 1308SOL    HW215558   1.215   4.292   6.260 -0.3568 -0.7582 -0.9060
 1309SOL     OW15559   1.535   2.460   4.864  0.3508  0.3136 -0.0181
 1309SOL    HW115560   1.546   2.454   4.959 -1.0288  0.2548  0.1412
 1309SOL    HW215561   1.568   2.373   4.843 -2.3383 -0.1765 -2.1234
 1310SOL     OW15562   3.973   4.684   4.805  0.1905  0.4897 -0.1736
 1310SOL    HW115563   3.892   4.709   4.850  0.5399 -1.4540  1.5139
 1310SOL    HW215564   4.033   4.657   4.875 -0.3852  0.5171  0.3252
 1311SOL     OW15565   3.215   0.972   4.226 -0.0718 -0.0279  0.6764
 1311SOL    HW115566   3.231   0.985   4.320 -0.7645  0.6956  0.6972
 1311SOL    HW215567   3.294   0.925   4.201  1.0160  2.4015 -0.4800
 1312SOL     OW15568   4.188   3.431   3.487  0.4399 -0.4196  0.1033
 1312SOL    HW115569   4.281   3.421   3.510  0.9243  1.1569 -1.1738
 1312SOL    HW215570   4.160   3.477   3.566 -0.9359  0.1230 -0.7097
 1313SOL     OW15571   1.106   3.785   9.075  0.3758  0.1169 -0.3911
 1313SOL    HW115572   1.077   3.873   9.050 -0.0153  0.1002  0.0083
 1313SOL    HW215573   1.029   3.731   9.060  2.0541 -1.7486 -2.3347
 1314SOL     OW15574   0.539   0.756   2.118  0.6314 -0.3612 -0.0886
 1314SOL    HW115575   0.477   0.708   2.173  0.9813 -1.4099 -0.5981
 1314SOL    HW215576   0.597   0.686   2.087  1.1100  0.3729 -0.8368
 1315SOL     OW15577   2.129   1.188  15.258 -0.1330  0.1154  0.5888
 1315SOL    HW115578   2.196   1.221  15.198 -2.9738 -0.7465 -3.0335
 1315SOL    HW215579   2.062   1.160  15.195  0.5806 -1.6226  0.6178
 1316SOL     OW15580   2.111   2.544   8.529  0.3972 -0.6886 -0.4716
 1316SOL    HW115581   2.076   2.471   8.478  1.7904 -1.2715 -0.5899
 1316SOL    HW215582   2.078   2.525   8.616  3.2498 -0.1874  0.7193
 1317SOL     OW15583   2.609   2.029   0.256 -0.3550 -0.4119 -0.2152
 1317SOL    HW115584   2.645   1.971   0.189  0.2905  0.3777 -0.5545
 1317SOL    HW215585   2.518   2.041   0.227 -1.0461  2.2870  3.0644
 1318SOL     OW15586   2.023   1.763   6.697 -0.0902  0.5212 -0.0674
 1318SOL    HW115587   1.981   1.725   6.619  0.5445  0.1283 -0.2196
 1318SOL    HW215588   2.112   1.774   6.664  0.5782 -0.8857  1.3055
 1319SOL     OW15589   3.065   2.796   2.672 -0.6044 -0.2839 -0.0740
 1319SOL    HW115590   3.092   2.763   2.757 -0.2129  0.9932  0.3022
 1319SOL    HW215591   3.061   2.892   2.681 -1.2799 -0.3723  0.4807
 1320SOL     OW15592   3.060   4.320  16.758  0.1222 -0.4010 -0.7037
 1320SOL    HW115593   3.140   4.372  16.751 -0.5801  0.5606 -1.5266
 1320SOL    HW215594   2.989   4.377  16.730 -0.4379  0.1661  1.9091
 1321SOL     OW15595   0.164   0.750  15.736  0.5236  0.2038 -0.5598
 1321SOL    HW115596   0.076   0.778  15.714  0.3570  0.7667  0.7981
 1321SOL    HW215597   0.209   0.830  15.760  1.9726 -0.7710 -0.0116
 1322SOL     OW15598   0.783   3.037  15.751  0.5603 -0.4312  0.0949
 1322SOL    HW115599   0.871   2.999  15.755  1.4701  1.5973 -0.6058
 1322SOL    HW215600   0.786   3.086  15.833  0.9338 -1.9010  0.9635
 1323SOL     OW15601   3.439   0.122   5.182  0.4672 -0.3710  0.0421
 1323SOL    HW115602   3.397   0.095   5.263 -0.5322  2.8778  0.5973
 1323SOL    HW215603   3.368   0.124   5.118  0.8521 -0.1693 -0.3813
 1324SOL     OW15604   4.189   4.220   7.111 -0.6204 -0.2155  0.0641
 1324SOL    HW115605   4.259   4.197   7.050 -0.3105  0.4037  0.1891
 1324SOL    HW215606   4.137   4.140   7.121  2.0732 -1.8478  1.2070
 1325SOL     OW15607   1.029   4.116  11.309  0.4021  0.2218 -0.2070
 1325SOL    HW115608   1.105   4.154  11.266  0.0825  0.1688 -0.8154
 1325SOL    HW215609   0.961   4.141  11.247 -0.1898  1.1195  0.7902
 1326SOL     OW15610   2.381   3.934   7.053 -0.3712 -0.2572  0.4236
 1326SOL    HW115611   2.336   3.868   7.105 -0.1186 -1.5497 -0.9892
 1326SOL    HW215612   2.364   4.014   7.103 -0.5558  0.6781 -1.1259
 1327SOL     OW15613   4.532   2.457   9.381 -0.1553  0.2245 -0.3742
 1327SOL    HW115614   4.546   2.366   9.356 -1.5936  0.1916 -1.0327
 1327SOL    HW215615   4.558   2.469   9.472  0.3405 -0.7216 -0.3981
 1328SOL     OW15616   1.525   1.090   8.004 -0.0171 -0.1499  0.4291
 1328SOL    HW115617   1.590   1.041   7.953  1.1791  1.0547  0.8109
 1328SOL    HW215618   1.455   1.093   7.939  0.6201  3.1377 -0.0852
 1329SOL     OW15619   1.178   0.469   4.194 -0.2054  0.3152  0.2408
 1329SOL    HW115620   1.084   0.449   4.185  0.1551 -0.2217 -2.4609
 1329SOL    HW215621   1.183   0.539   4.258  1.4369 -0.4270  0.9042
 1330SOL     OW15622   1.685   3.674   8.571 -0.0502 -0.0522  0.2128
 1330SOL    HW115623   1.687   3.725   8.652 -0.5638 -1.2226  0.9625
 1330SOL    HW215624   1.721   3.593   8.608  1.2317  0.0334 -0.8599
 1331SOL     OW15625   3.786   2.118   4.473  0.4987 -0.2650  0.2800
 1331SOL    HW115626   3.700   2.160   4.470 -0.4737 -2.1266  2.3237
 1331SOL    HW215627   3.791   2.079   4.386 -1.1021  2.9646 -1.2753
 1332SOL     OW15628   1.993   2.340   8.391  0.4253  0.3867  0.0123
 1332SOL    HW115629   1.922   2.277   8.405  0.1161  1.0609  1.5300
 1332SOL    HW215630   1.981   2.360   8.299  0.7452  0.4491 -0.0131
 1333SOL     OW15631   2.043   2.026   9.085 -0.7850  0.1146 -0.1462
 1333SOL    HW115632   2.018   2.018   9.177  1.1084 -1.1848  0.2595
 1333SOL    HW215633   2.064   2.119   9.084  1.7552 -0.4462 -0.0969
 1334SOL     OW15634   4.636   3.213  10.304 -0.0451 -0.3078  0.0164
 1334SOL    HW115635   4.710   3.259  10.265  0.2934 -1.3042 -0.5060
 1334SOL    HW215636   4.602   3.287  10.355 -1.7758 -1.0101 -0.1226
 1335SOL     OW15637   1.517   2.113   7.699 -0.1251 -0.1287 -1.0945
 1335SOL    HW115638   1.535   2.204   7.723  2.5250 -0.7826 -0.5599
 1335SOL    HW215639   1.477   2.091   7.783  1.9488  0.6351  0.0833
 1336SOL     OW15640   3.884   0.892   1.893 -0.2819 -0.6121  0.1823
 1336SOL    HW115641   3.963   0.891   1.840  0.5476  1.0259  1.3636
 1336SOL    HW215642   3.821   0.840   1.843  1.3407  0.3904 -2.8445
 1337SOL     OW15643   1.075   3.270  17.722  0.6274 -0.5467  0.8220
 1337SOL    HW115644   1.130   3.347  17.737 -1.0925  1.1796 -1.7759
 1337SOL    HW215645   1.138   3.202  17.745  1.2246 -0.8398 -1.6864
 1338SOL     OW15646   3.762   1.981   8.677  0.0705  0.1510  0.1206
 1338SOL    HW115647   3.841   2.001   8.728 -0.6541  3.8107 -0.1726
 1338SOL    HW215648   3.730   1.902   8.721 -2.2380  1.5092  0.9012
 1339SOL     OW15649   4.269   2.212   9.090 -0.9034 -0.3320  0.4820
 1339SOL    HW115650   4.268   2.132   9.142 -0.4234  0.7960  2.2166
 1339SOL    HW215651   4.238   2.269   9.160 -1.8601  0.4459 -0.5750
 1340SOL     OW15652   4.393   3.256   2.803  0.3035  0.2858 -0.9010
 1340SOL    HW115653   4.358   3.214   2.881  0.1445  1.8851 -0.1141
 1340SOL    HW215654   4.447   3.185   2.768  0.2797 -0.6523  0.9564
 1341SOL     OW15655   1.191   1.029   1.109  0.0849  0.5797 -0.2109
 1341SOL    HW115656   1.124   0.961   1.109  0.0408  0.6272  1.4146
 1341SOL    HW215657   1.181   1.047   1.015 -1.1788  2.3489  0.2790
 1342SOL     OW15658   2.621   4.477   9.360 -0.5101 -0.2959  0.2031
 1342SOL    HW115659   2.627   4.498   9.453  1.3371  0.4729 -0.0797
 1342SOL    HW215660   2.600   4.559   9.315  2.1607 -0.7032 -1.7916
 1343SOL     OW15661   3.040   0.974   2.172  0.0229 -0.1244  0.3383
 1343SOL    HW115662   2.945   0.976   2.165 -0.0459  0.9592  1.4571
 1343SOL    HW215663   3.053   0.883   2.145  2.1989  0.0424  0.7701
 1344SOL     OW15664   0.601   2.793   2.428  0.0006  0.2301  0.1124
 1344SOL    HW115665   0.627   2.707   2.395 -0.3145  0.7474 -1.5006
 1344SOL    HW215666   0.562   2.838   2.352 -0.5865  0.7363  0.7123
 1345SOL     OW15667   0.403   2.211   3.156  0.2875  0.1635 -0.0576
 1345SOL    HW115668   0.437   2.190   3.070 -1.0471 -0.3545 -0.4606
 1345SOL    HW215669   0.484   2.220   3.206  0.4843 -0.1469 -0.3331
 1346SOL     OW15670   3.328   1.592   0.819 -0.4432  0.1761  0.1547
 1346SOL    HW115671   3.289   1.662   0.767 -0.6634 -0.3778 -0.4235
 1346SOL    HW215672   3.257   1.583   0.883 -0.9473 -0.7268 -0.5258
 1347SOL     OW15673   2.450   2.877   7.463  0.0957 -0.1758  0.7966
 1347SOL    HW115674   2.388   2.934   7.419  1.5912  1.2831  0.5734
 1347SOL    HW215675   2.399   2.857   7.542 -0.6364  2.7991  1.0765
 1348SOL     OW15676   3.099   3.976   3.747 -0.4326 -0.3616 -0.4198
 1348SOL    HW115677   3.109   3.889   3.786 -1.3934 -0.0231  0.6038
 1348SOL    HW215678   3.014   3.964   3.704 -1.6326 -0.5130  1.9713
 1349SOL     OW15679   0.592   2.419   3.070 -0.0302  0.5554 -0.2041
 1349SOL    HW115680   0.642   2.419   3.152  0.0736 -2.2611 -0.2409
 1349SOL    HW215681   0.514   2.471   3.088  0.9854  2.8551 -2.4740
 1350SOL     OW15682   4.590   2.451  13.156  0.8633  1.0348 -0.1934
 1350SOL    HW115683   4.655   2.509  13.118  0.2986  0.0411 -2.6511
 1350SOL    HW215684   4.639   2.432  13.237 -1.5368  0.0077  1.0286
 1351SOL     OW15685   4.439   0.247  16.301 -0.1195  0.6866  0.0958
 1351SOL    HW115686   4.499   0.280  16.368 -0.9416 -0.1516  1.2480
 1351SOL    HW215687   4.369   0.312  16.298  0.8952  1.8755  1.9370
 1352SOL     OW15688   2.123   4.157   5.725  0.1214  0.2213 -0.5012
 1352SOL    HW115689   2.115   4.123   5.814  3.4518  0.5479 -0.0952
 1352SOL    HW215690   2.216   4.149   5.704  0.9012  1.4878  2.5266
 1353SOL     OW15691   0.210   1.035   2.771  0.2935 -0.0670 -0.0523
 1353SOL    HW115692   0.214   0.976   2.695  0.2807 -2.1236  1.5446
 1353SOL    HW215693   0.198   0.972   2.842 -2.8831  0.7659  0.1337
 1354SOL     OW15694   0.788   4.082   5.897 -0.3720 -0.6333  0.5274
 1354SOL    HW115695   0.707   4.071   5.848 -0.1318  0.2451 -0.0803
 1354SOL    HW215696   0.860   4.085   5.834 -0.9838 -1.0673 -0.1936
 1355SOL     OW15697   0.433   2.519   0.033 -0.3917  0.1827  0.3922
 1355SOL    HW115698   0.465   2.609   0.040 -5.1359  1.9141 -0.4928
 1355SOL    HW215699   0.481   2.488  17.701  2.4046  0.9991  1.8119
 1356SOL     OW15700   0.981   3.992   4.622  0.4777  0.5364  0.0523
 1356SOL    HW115701   0.976   3.973   4.529  1.8766  1.2269 -0.1652
 1356SOL    HW215702   0.922   4.066   4.635  0.0470  0.2332 -0.2101
 1357SOL     OW15703   2.115   2.675   5.783 -0.4443  0.1306 -0.3142
 1357SOL    HW115704   2.139   2.731   5.857 -0.8815 -0.2443  0.1140
 1357SOL    HW215705   2.021   2.694   5.789 -0.2810  0.3173  1.6356
 1358SOL     OW15706   0.736   1.043   9.323 -0.6027 -0.5666  0.2475
 1358SOL    HW115707   0.779   1.058   9.239 -0.3284 -0.4551  0.4072
 1358SOL    HW215708   0.791   1.088   9.388 -0.5401 -2.7962  1.7543
 1359SOL     OW15709   2.495   1.771   8.132 -0.0424 -0.5698 -0.4873
 1359SOL    HW115710   2.461   1.825   8.060 -1.1156 -0.5163  0.0629
 1359SOL    HW215711   2.533   1.700   8.081  0.6058 -0.7010  0.1772
 1360SOL     OW15712   4.486   4.112   4.827  0.1620  0.8161  0.1429
 1360SOL    HW115713   4.464   4.019   4.824 -1.3414  1.1853 -0.5866
 1360SOL    HW215714   4.581   4.111   4.819 -0.1450 -0.0201 -3.0931
 1361SOL     OW15715   0.045   4.426   7.115 -0.4478 -0.0927 -0.1368
 1361SOL    HW115716   0.080   4.357   7.172 -1.1760  0.6235  1.1801
 1361SOL    HW215717   0.000   4.376   7.046  0.4808  0.3676 -1.0672
 1362SOL     OW15718   2.592   1.387   2.328  0.7619 -0.1897 -0.6600
 1362SOL    HW115719   2.506   1.427   2.335  1.0468  0.0838  1.2383
 1362SOL    HW215720   2.564   1.309   2.280 -4.5346  2.6260 -2.1233
 1363SOL     OW15721   4.144   1.786   9.894 -0.0127 -0.3650  0.8569
 1363SOL    HW115722   4.178   1.795   9.983  0.1012 -2.5807  1.0372
 1363SOL    HW215723   4.070   1.726   9.908 -2.0848  1.3436 -2.9746
 1364SOL     OW15724   0.511   1.353  11.455  0.0107  0.6452  0.2808
 1364SOL    HW115725   0.562   1.424  11.414  1.3036 -0.4336  0.0451
 1364SOL    HW215726   0.503   1.376  11.547 -2.0126 -0.2397  0.3318
 1365SOL     OW15727   2.998   3.104  15.914  0.0257  0.0752  0.1828
 1365SOL    HW115728   3.068   3.051  15.875 -0.0143  0.7701 -0.8613
 1365SOL    HW215729   3.009   3.080  16.006 -0.5898 -0.5185  0.0974
 1366SOL     OW15730   2.850   3.335   2.211  0.0968 -0.4621 -0.6056
 1366SOL    HW115731   2.824   3.427   2.197  1.2817 -0.3339 -1.9739
 1366SOL    HW215732   2.927   3.341   2.268  1.4908 -1.5932 -2.3738
 1367SOL     OW15733   0.075   0.526   4.493 -0.1708 -1.2236  0.3875
 1367SOL    HW115734   4.716   0.530   4.491 -0.0454  1.1022 -0.8056
 1367SOL    HW215735   0.090   0.431   4.493 -0.1747 -1.2217  0.8671
 1368SOL     OW15736   2.696   0.230  12.482 -0.2345  0.6241  0.0502
 1368SOL    HW115737   2.748   0.188  12.550 -0.4730 -0.9834 -0.7531
 1368SOL    HW215738   2.777   0.252  12.435 -0.3456  0.3707 -0.2601
 1369SOL     OW15739   0.739   2.906   0.414 -0.0362  0.4909  0.1225
 1369SOL    HW115740   0.779   2.821   0.394  1.6832  0.5374  3.3680
 1369SOL    HW215741   0.669   2.911   0.348 -0.4206 -2.6149  0.2717
 1370SOL     OW15742   3.601   3.509   8.820 -0.2703  0.0146 -0.1724
 1370SOL    HW115743   3.610   3.468   8.906  2.1124 -0.1688 -0.5145
 1370SOL    HW215744   3.517   3.551   8.838  0.0521 -0.3018  2.1089
 1371SOL     OW15745   3.260   0.481   9.052  0.5271 -0.1279  0.3724
 1371SOL    HW115746   3.207   0.479   8.972  2.3149  0.1073 -0.8110
 1371SOL    HW215747   3.197   0.522   9.112  0.5887 -0.1563  0.4562
 1372SOL     OW15748   0.926   1.272  10.116  0.2173 -0.5611  0.5555
 1372SOL    HW115749   0.905   1.247  10.206 -0.5219  1.6617  0.9949
 1372SOL    HW215750   1.021   1.270  10.118  0.2425  0.3128  0.2734
 1373SOL     OW15751   1.330   0.224   4.677  0.2595  0.5383 -0.3092
 1373SOL    HW115752   1.254   0.213   4.736  0.5011 -1.7390 -0.4133
 1373SOL    HW215753   1.327   0.318   4.659  1.4546  0.6146 -0.0884
 1374SOL     OW15754   2.321   2.574   9.149 -0.7818  0.3786  0.4445
 1374SOL    HW115755   2.385   2.609   9.087  0.2387 -1.9814  0.1571
 1374SOL    HW215756   2.327   2.479   9.134  1.0593  0.2922  1.6560
 1375SOL     OW15757   3.746   1.958  11.832  0.3895 -0.0362 -0.1470
 1375SOL    HW115758   3.744   1.867  11.802 -0.3755  0.4685 -1.6674
 1375SOL    HW215759   3.728   1.938  11.924 -1.7560 -1.3370 -0.8337
 1376SOL     OW15760   4.586   0.180   2.384  0.3097  0.5725  0.5412
 1376SOL    HW115761   4.577   0.086   2.398  0.9158  0.2305 -1.4128
 1376SOL    HW215762   4.590   0.177   2.288 -0.1621 -0.4075  0.5502
 1377SOL     OW15763   1.291   3.353   8.869 -0.2710 -0.3365 -0.1185
 1377SOL    HW115764   1.360   3.287   8.874 -0.2650 -0.5461 -2.9356
 1377SOL    HW215765   1.229   3.340   8.941 -2.5315 -2.5110 -2.4368
 1378SOL     OW15766   2.130   2.463  11.190 -0.2450 -0.7406  0.2883
 1378SOL    HW115767   2.062   2.502  11.245  0.2022 -1.6977  1.5060
 1378SOL    HW215768   2.117   2.491  11.099  0.9835 -0.2895  0.2630
 1379SOL     OW15769   1.367   1.154   2.456  0.2823 -0.2882 -0.3229
 1379SOL    HW115770   1.406   1.066   2.453  0.7171 -0.1379  0.9583
 1379SOL    HW215771   1.411   1.194   2.530 -0.3861 -0.6207  0.2553
 1380SOL     OW15772   4.713   1.430   3.194 -0.1231 -0.2452  0.0705
 1380SOL    HW115773   0.072   1.426   3.193 -0.1498 -0.8382 -0.5228
 1380SOL    HW215774   4.704   1.442   3.289 -2.6927 -1.5704 -0.0057
 1381SOL     OW15775   0.929   0.327  12.829 -0.6523  0.4689 -0.4208
 1381SOL    HW115776   0.859   0.262  12.830  0.1232 -0.2875  2.6331
 1381SOL    HW215777   0.898   0.387  12.897  0.0592  0.0018  0.3159
 1382SOL     OW15778   0.901   3.350  12.281 -0.4495  0.2954  0.0678
 1382SOL    HW115779   0.946   3.434  12.268  0.9012 -0.3919  0.3076
 1382SOL    HW215780   0.942   3.317  12.360 -1.3282 -2.3671 -0.5648
 1383SOL     OW15781   0.978   2.554   8.947 -0.5354 -0.2493  0.7781
 1383SOL    HW115782   1.014   2.508   9.023  1.8938  1.0844  0.4260
 1383SOL    HW215783   0.966   2.643   8.978  3.8712  0.1210  1.4090
 1384SOL     OW15784   3.602   2.859   6.609 -0.4059  0.6624 -0.5769
 1384SOL    HW115785   3.562   2.931   6.560  1.6187  2.0243 -0.2092
 1384SOL    HW215786   3.623   2.906   6.689 -0.9112  1.3584 -0.8461
 1385SOL     OW15787   2.691   3.567   5.945 -0.3778  0.6864  0.0275
 1385SOL    HW115788   2.707   3.481   5.983  0.2193 -0.3039 -2.4651
 1385SOL    HW215789   2.617   3.553   5.885 -0.3367  0.6543 -0.0160
 1386SOL     OW15790   4.455   4.093   9.998 -0.0483  0.0159 -0.7487
 1386SOL    HW115791   4.437   4.073  10.090  2.0047  1.7221  0.0171
 1386SOL    HW215792   4.378   4.142   9.968 -0.1711  0.5673  0.4525
 1387SOL     OW15793   3.092   3.004   6.090 -0.4181 -0.2395  0.6628
 1387SOL    HW115794   3.053   2.926   6.050  0.6088 -0.7088  0.5695
 1387SOL    HW215795   3.165   3.029   6.033  0.2806  0.2564  1.7858
 1388SOL     OW15796   2.463   3.276   6.643  0.3443  0.2756 -0.0939
 1388SOL    HW115797   2.443   3.216   6.715 -0.5537  0.1527 -0.4433
 1388SOL    HW215798   2.379   3.320   6.626 -0.5632 -1.5875 -0.5296
 1389SOL     OW15799   4.071   3.404   4.690 -0.2288  0.1863 -0.3760
 1389SOL    HW115800   3.981   3.414   4.722 -0.4530 -0.6467 -0.7386
 1389SOL    HW215801   4.047   3.389   4.598 -0.5153  1.7065 -0.5495
 1390SOL     OW15802   4.399   3.029  12.514 -0.1620  0.7146 -0.0489
 1390SOL    HW115803   4.452   3.027  12.434 -1.1197  1.1703 -0.6908
 1390SOL    HW215804   4.322   2.985  12.479 -0.1353  0.0693  0.7061
 1391SOL     OW15805   0.336   2.674   2.828 -0.2697  0.0841 -0.4985
 1391SOL    HW115806   0.426   2.683   2.859  0.3838 -0.8177 -2.2007
 1391SOL    HW215807   0.362   2.648   2.740  1.5393 -0.7895  0.3089
 1392SOL     OW15808   4.661   3.283   7.545  0.1223 -0.2170  0.2271
 1392SOL    HW115809   0.005   3.273   7.494  0.5338  3.5214  0.1411
 1392SOL    HW215810   4.599   3.298   7.474 -1.8186 -0.0555  1.9698
 1393SOL     OW15811   0.087   4.364   9.069 -0.0140 -0.0217  0.0556
 1393SOL    HW115812   0.178   4.363   9.037 -0.4294 -1.0110 -1.1093
 1393SOL    HW215813   0.046   4.375   8.983 -1.6583  0.7806  0.9505
 1394SOL     OW15814   4.342   1.774   6.690  0.3686 -0.2114  0.5372
 1394SOL    HW115815   4.322   1.693   6.737  1.0110 -0.6416  0.0750
 1394SOL    HW215816   4.334   1.837   6.761 -1.3123 -1.6257  1.6091
 1395SOL     OW15817   3.694   3.617  12.197  0.4456 -0.2104  0.4272
 1395SOL    HW115818   3.737   3.544  12.153  0.3841  0.7627 -1.2548
 1395SOL    HW215819   3.762   3.646  12.257  0.1346  0.5626  0.4026
 1396SOL     OW15820   4.073   1.237   6.788 -0.1189  0.3598  0.0856
 1396SOL    HW115821   4.060   1.175   6.859 -0.2383  1.4581  1.0162
 1396SOL    HW215822   4.005   1.221   6.722  1.5632 -0.7268 -1.3765
 1397SOL     OW15823   4.465   3.514   3.427 -0.3007  0.5324  0.3332
 1397SOL    HW115824   4.508   3.431   3.407 -0.1167  1.3159 -2.5709
 1397SOL    HW215825   4.452   3.561   3.344  1.1880 -1.1805 -0.8682
 1398SOL     OW15826   0.525   2.861   4.189  0.3275  0.3649  0.4990
 1398SOL    HW115827   0.484   2.776   4.207 -0.0296  0.5187  0.4138
 1398SOL    HW215828   0.568   2.877   4.273  0.3571 -2.7029  1.0658
 1399SOL     OW15829   3.713   4.423   6.671  0.1865  0.2437  0.1552
 1399SOL    HW115830   3.641   4.481   6.645 -1.3932  0.0289  4.1136
 1399SOL    HW215831   3.782   4.485   6.646  0.4942  1.2703  3.6170
 1400SOL     OW15832   3.822   0.611   9.378  0.1455 -0.3264 -0.2980
 1400SOL    HW115833   3.762   0.621   9.452 -1.1603 -0.6541 -1.3217
 1400SOL    HW215834   3.843   0.521   9.403 -0.5087 -0.0772  1.1378
 1401SOL     OW15835   0.764   0.945   4.437 -0.6169  0.5194  0.0267
 1401SOL    HW115836   0.742   0.916   4.348 -1.2167  0.5405  0.1682
 1401SOL    HW215837   0.858   0.927   4.436 -0.6253  0.4529  0.3434
 1402SOL     OW15838   0.440   4.147   2.241  0.6884 -0.2191 -0.1374
 1402SOL    HW115839   0.439   4.051   2.238 -1.3773 -0.3154  3.7584
 1402SOL    HW215840   0.532   4.161   2.266  1.1094 -2.5330 -0.4081
 1403SOL     OW15841   3.633   0.275   5.089  0.6924  0.3446 -0.1004
 1403SOL    HW115842   3.662   0.308   5.174 -1.8533 -0.4746  1.0918
 1403SOL    HW215843   3.561   0.221   5.121  1.5601 -0.1375  1.0726
 1404SOL     OW15844   2.073   0.751   7.725  0.1194  0.3130 -0.2925
 1404SOL    HW115845   2.097   0.840   7.699  0.1793  0.0412 -1.1456
 1404SOL    HW215846   1.989   0.741   7.681 -0.0470 -2.6181  0.6975
 1405SOL     OW15847   3.564   0.056   7.210  0.5425  0.7596 -0.3332
 1405SOL    HW115848   3.483   0.004   7.207  0.7046  0.6845 -4.2321
 1405SOL    HW215849   3.623   0.018   7.145  1.1336 -0.2694  0.8021
 1406SOL     OW15850   1.330   0.258   6.505 -0.2974  0.5496  0.1625
 1406SOL    HW115851   1.306   0.295   6.590  0.9497  0.8454  0.3832
 1406SOL    HW215852   1.297   0.314   6.435  1.3951  3.5614  1.8137
 1407SOL     OW15853   4.315   3.583   4.509  0.3533 -0.5435 -0.1482
 1407SOL    HW115854   4.357   3.535   4.438  0.1969 -1.3898  0.3308
 1407SOL    HW215855   4.384   3.559   4.571  2.3435  0.8672 -1.8166
 1408SOL     OW15856   4.611   4.157   8.314  0.5162 -0.1104  0.0924
 1408SOL    HW115857   4.674   4.182   8.382  2.2155  2.0016 -2.2570
 1408SOL    HW215858   4.531   4.171   8.365  2.3380  2.7681  2.1547
 1409SOL     OW15859   3.446   0.670   4.779  0.7102 -0.0751 -0.0239
 1409SOL    HW115860   3.539   0.647   4.784  0.7052 -0.0103  0.4328
 1409SOL    HW215861   3.451   0.764   4.765  0.2727  0.3613  2.7167
 1410SOL     OW15862   2.142   3.199   3.891  0.1102  0.1398  0.4602
 1410SOL    HW115863   2.216   3.180   3.948 -0.9432  0.0553  1.8098
 1410SOL    HW215864   2.084   3.222   3.963  1.7674 -0.8589  2.0967
 1411SOL     OW15865   2.684   4.116   8.102 -0.1386  0.2059 -0.3365
 1411SOL    HW115866   2.772   4.111   8.065  0.0200 -1.3524  0.2708
 1411SOL    HW215867   2.672   4.028   8.138 -0.8705 -0.1409 -1.4005
 1412SOL     OW15868   1.848   2.454   6.622 -0.0547 -0.4724 -0.1403
 1412SOL    HW115869   1.757   2.481   6.623  0.2049  0.4107 -0.1328
 1412SOL    HW215870   1.840   2.374   6.674 -1.5388 -1.2562 -1.5806
 1413SOL     OW15871   3.070   3.153   5.576 -0.3941 -0.0360  0.3381
 1413SOL    HW115872   3.073   3.204   5.495 -1.1582  1.7264  1.4340
 1413SOL    HW215873   3.153   3.105   5.575 -0.0433  0.6425 -2.0141
 1414SOL     OW15874   0.841   0.037   5.775 -0.1530 -0.2627 -0.5158
 1414SOL    HW115875   0.795   0.020   5.857  2.8949  2.2518  1.7276
 1414SOL    HW215876   0.856   4.683   5.749  0.6363 -0.5277  0.8683
 1415SOL     OW15877   1.308   1.555   5.911 -0.1153 -0.1467  0.6440
 1415SOL    HW115878   1.297   1.599   5.995  0.5416 -0.8778  1.1141
 1415SOL    HW215879   1.215   1.554   5.887  0.7551 -1.9006 -2.6890
 1416SOL     OW15880   2.820   3.456  15.614  0.2076 -0.0637  0.0636
 1416SOL    HW115881   2.763   3.508  15.557 -1.3550 -1.4110  0.3832
 1416SOL    HW215882   2.798   3.483  15.703  1.8817  2.0206 -0.1583
 1417SOL     OW15883   1.704   4.672   4.901  0.1479  0.3840  0.1102
 1417SOL    HW115884   1.726   0.004   4.964  0.4013 -1.4353  1.9955
 1417SOL    HW215885   1.631   4.634   4.950  1.1472  1.4829  2.4155
 1418SOL     OW15886   0.159   3.505   2.306 -0.5259 -0.2061 -0.4710
 1418SOL    HW115887   0.143   3.593   2.339  0.2903 -1.3145  2.8972
 1418SOL    HW215888   0.145   3.439   2.374  3.3842 -0.2589  0.2427
 1419SOL     OW15889   3.383   0.773   0.064  0.0628 -0.1827 -0.6020
 1419SOL    HW115890   3.356   0.693   0.109  0.4812 -0.0684 -0.1420
 1419SOL    HW215891   3.467   0.786   0.108  0.6522 -1.0383 -1.4654
 1420SOL     OW15892   0.046   3.919   8.182 -0.4089 -0.2214 -0.1342
 1420SOL    HW115893   0.023   3.960   8.265  0.7140  1.2078 -0.5335
 1420SOL    HW215894   4.730   3.839   8.189  0.2056 -0.5048  1.2315
 1421SOL     OW15895   3.564   0.689   6.848 -0.1614  0.0902 -0.4304
 1421SOL    HW115896   3.658   0.670   6.853  0.3611  2.4086 -1.2866
 1421SOL    HW215897   3.536   0.661   6.935  0.8410  0.2026 -0.0619
 1422SOL     OW15898   4.726   1.490   9.251  0.0438 -0.2325 -0.0683
 1422SOL    HW115899   4.660   1.559   9.260 -1.8762 -1.5884 -3.5873
 1422SOL    HW215900   0.057   1.546   9.213  1.7894 -1.5303  1.1180
 1423SOL     OW15901   2.805   1.229   4.388 -0.1493 -0.0547  0.1949
 1423SOL    HW115902   2.849   1.214   4.304  0.4260 -1.5011  0.7478
 1423SOL    HW215903   2.836   1.146   4.425 -0.2142  0.5942  1.6751
 1424SOL     OW15904   3.084   2.055  17.484  0.3027 -0.7224 -0.3103
 1424SOL    HW115905   2.989   2.047  17.477  0.1069  0.6256  0.7045
 1424SOL    HW215906   3.127   1.991  17.428  3.5419 -1.4897  3.0310
 1425SOL     OW15907   1.757   3.424  10.253  0.3043  0.3606 -0.3155
 1425SOL    HW115908   1.816   3.458  10.320  0.2761 -3.5255  1.6736
 1425SOL    HW215909   1.741   3.334  10.280  1.1085  0.6844  1.2383
 1426SOL     OW15910   1.111   3.301   8.409  0.5941 -0.0598  0.9054
 1426SOL    HW115911   1.069   3.270   8.329  1.5613  2.9342 -0.7897
 1426SOL    HW215912   1.199   3.306   8.370 -0.6052  2.2630 -1.5264
 1427SOL     OW15913   3.533   3.135   7.862 -0.3414  0.0940 -0.7460
 1427SOL    HW115914   3.587   3.213   7.874 -0.0024 -0.1920 -0.3774
 1427SOL    HW215915   3.595   3.074   7.823  0.7485  1.1096 -0.6057
 1428SOL     OW15916   1.733   3.013   2.912  0.7464  0.1383  0.5187
 1428SOL    HW115917   1.715   2.934   2.963 -1.4724  0.8708  0.8286
 1428SOL    HW215918   1.667   2.995   2.846  0.3838  2.3349  0.2794
 1429SOL     OW15919   3.632   3.900  17.564  0.2920  0.2425 -0.1912
 1429SOL    HW115920   3.573   3.975  17.561  0.7162  0.5775 -0.1659
 1429SOL    HW215921   3.640   3.899  17.659 -2.3150 -1.4201 -0.0096
 1430SOL     OW15922   0.149   4.362   2.016 -1.4335  0.2374 -0.0897
 1430SOL    HW115923   0.098   4.305   2.074 -1.6541  1.5895  1.0194
 1430SOL    HW215924   0.195   4.295   1.964 -2.2122  0.3124 -0.8687
 1431SOL     OW15925   2.278   4.496   3.574  1.0748  0.4342 -0.3004
 1431SOL    HW115926   2.196   4.465   3.613 -0.1656  1.8684 -1.7598
 1431SOL    HW215927   2.264   4.471   3.483  2.9770  0.7999 -0.6809
 1432SOL     OW15928   2.310   0.276  17.585 -0.1586  0.0961 -0.6908
 1432SOL    HW115929   2.223   0.273  17.624 -0.3103 -0.1002 -1.0505
 1432SOL    HW215930   2.365   0.226  17.646 -0.7062 -0.8756 -0.9902
 1433SOL     OW15931   2.053   4.603   8.825 -0.3918  0.0253 -0.2222
 1433SOL    HW115932   2.109   4.541   8.779  0.3709 -0.1948  0.9925
 1433SOL    HW215933   2.079   4.583   8.915  0.4122 -0.0497 -0.4760
 1434SOL     OW15934   1.367   2.793  14.488 -0.1502 -0.1419  0.2201
 1434SOL    HW115935   1.295   2.780  14.426  0.9218 -0.2448 -1.0016
 1434SOL    HW215936   1.325   2.774  14.572 -1.3961  0.0933 -0.3500
 1435SOL     OW15937   1.905   3.253   5.739  0.0348 -0.1484 -0.1826
 1435SOL    HW115938   1.960   3.321   5.700 -0.9432  0.3497 -0.6790
 1435SOL    HW215939   1.915   3.273   5.832  2.2959  0.6677 -0.6008
 1436SOL     OW15940   4.730   2.960   3.384 -0.0246  0.1501 -0.4855
 1436SOL    HW115941   4.656   3.003   3.341  0.0852  1.1719  0.3382
 1436SOL    HW215942   4.704   2.875   3.350 -1.6034 -0.3092  1.8534
 1437SOL     OW15943   0.255   2.590   8.989  0.1908 -0.4599  0.2176
 1437SOL    HW115944   0.175   2.620   9.033  0.3418  0.7803 -0.3789
 1437SOL    HW215945   0.266   2.666   8.933 -0.3264 -1.7352 -1.5923
 1438SOL     OW15946   0.428   2.276   8.198  0.1791  0.4623  0.5703
 1438SOL    HW115947   0.507   2.231   8.168 -0.9494 -0.2317 -1.3663
 1438SOL    HW215948   0.464   2.358   8.231 -0.8524  1.2020 -0.1497
 1439SOL     OW15949   0.180   1.792  14.679  0.0448 -0.5037 -0.4366
 1439SOL    HW115950   0.112   1.856  14.702  0.0581 -1.0070  0.9857
 1439SOL    HW215951   0.224   1.781  14.763 -1.7322  2.7321  0.9240
 1440SOL     OW15952   3.097   4.618   7.346  0.4525  0.8329 -0.3440
 1440SOL    HW115953   3.142   4.534   7.360  0.9546  1.2959  0.8057
 1440SOL    HW215954   3.100   4.625   7.250 -1.7141 -1.3404 -0.5629
 1441SOL     OW15955   0.687   1.428  17.317  0.7723  0.1631 -0.7887
 1441SOL    HW115956   0.671   1.421  17.223  0.7359  2.3050 -0.9538
 1441SOL    HW215957   0.619   1.373  17.355  1.4558 -0.8116 -1.0013
 1442SOL     OW15958   1.163   0.637   8.866  0.0684  0.3509 -0.3376
 1442SOL    HW115959   1.181   0.553   8.908  2.2596  0.9033 -0.1403
 1442SOL    HW215960   1.201   0.703   8.925  0.2613 -1.2251  1.2972
 1443SOL     OW15961   4.264   0.565  11.055  0.0229 -0.2590  0.0255
 1443SOL    HW115962   4.287   0.611  10.974 -0.9073  0.3951  0.1326
 1443SOL    HW215963   4.169   0.574  11.054 -0.0062 -0.3562  1.8901
 1444SOL     OW15964   2.575   2.497   4.778 -0.2476 -0.3000 -0.3453
 1444SOL    HW115965   2.523   2.433   4.827  1.7922 -0.2266  1.8805
 1444SOL    HW215966   2.612   2.445   4.707  1.3682 -1.6196  1.4756
 1445SOL     OW15967   2.350   4.411   7.750 -0.1708 -0.5527 -0.0652
 1445SOL    HW115968   2.327   4.343   7.812  1.3741 -0.8057  0.2477
 1445SOL    HW215969   2.319   4.492   7.791 -2.6823 -2.4646  1.7754
 1446SOL     OW15970   4.134   2.694   5.163 -0.0045 -0.8700 -0.0874
 1446SOL    HW115971   4.170   2.636   5.096  1.1032 -1.1930  0.7815
 1446SOL    HW215972   4.208   2.749   5.190 -1.6137  0.5874  1.4091
 1447SOL     OW15973   3.671   0.781   9.192  0.3596 -0.1904 -0.8525
 1447SOL    HW115974   3.651   0.875   9.186  0.4397 -0.0178  1.4435
 1447SOL    HW215975   3.722   0.775   9.272  0.0852 -0.6199 -0.7115
 1448SOL     OW15976   4.129   3.574   5.207 -0.1488  0.4474  0.2295
 1448SOL    HW115977   4.116   3.506   5.274 -0.9893  0.1587 -0.2191
 1448SOL    HW215978   4.150   3.517   5.132 -1.0872 -1.9708  1.7943
 1449SOL     OW15979   1.471   1.207   8.513 -0.0855  0.1215 -0.0740
 1449SOL    HW115980   1.411   1.268   8.471  0.6593  0.3926 -0.7454
 1449SOL    HW215981   1.481   1.259   8.593 -0.6451  2.1921 -1.3506
 1450SOL     OW15982   4.401   0.285  15.624  0.0075  0.6551 -0.4962
 1450SOL    HW115983   4.312   0.252  15.616  0.1462  0.9572 -3.4379
 1450SOL    HW215984   4.386   0.372  15.588 -1.3004  1.1097  1.1711
 1451SOL     OW15985   3.076   0.026  12.963 -0.3865 -0.5851 -0.0581
 1451SOL    HW115986   3.136   0.012  13.036 -2.1390  1.0502  1.6629
 1451SOL    HW215987   3.139   0.052  12.895  0.9849 -0.6966  1.1793
 1452SOL     OW15988   3.154   3.978   9.169  0.1102  0.0428 -0.3336
 1452SOL    HW115989   3.115   3.909   9.223 -0.8749  1.3257  0.6026
 1452SOL    HW215990   3.237   3.931   9.175  2.3015  3.9557  0.5157
 1453SOL     OW15991   3.998   1.362   5.787  0.6540 -0.1146  0.1397
 1453SOL    HW115992   4.023   1.436   5.842  0.2208 -1.9058  2.7495
 1453SOL    HW215993   4.033   1.286   5.834 -1.9508 -1.7028 -0.4617
 1454SOL     OW15994   1.622   2.676   4.307  0.0456  0.1673  0.1177
 1454SOL    HW115995   1.642   2.692   4.215 -4.5208  2.3225 -0.5438
 1454SOL    HW215996   1.703   2.637   4.338 -0.5503 -1.5351 -0.4605
 1455SOL     OW15997   2.379   1.782  17.727 -0.7356 -0.8297 -0.3143
 1455SOL    HW115998   2.355   1.691  17.712 -0.7823 -0.6208 -1.4932
 1455SOL    HW215999   2.409   1.807  17.639  1.0949  2.0817  1.1268
 1456SOL     OW16000   3.071   1.232  16.334 -0.2862  0.7686  0.6228
 1456SOL    HW116001   3.008   1.302  16.322 -2.8586 -1.6220  0.1529
 1456SOL    HW216002   3.079   1.201  16.244 -0.6604 -0.9233  1.1696
 1457SOL     OW16003   2.692   4.719   5.295  0.0667 -0.3043  0.3510
 1457SOL    HW116004   2.651   4.697   5.378 -1.1745 -1.3801 -0.5345
 1457SOL    HW216005   2.628   4.678   5.235  0.8274 -0.6007 -0.2620
 1458SOL     OW16006   1.658   1.753  14.681 -0.4101 -0.3243  0.7618
 1458SOL    HW116007   1.727   1.814  14.707  1.1471 -2.5896  1.8628
 1458SOL    HW216008   1.584   1.793  14.726 -1.5210  1.4613 -2.6538
 1459SOL     OW16009   4.562   2.350   7.158 -0.6906  0.1702 -0.6052
 1459SOL    HW116010   4.546   2.429   7.211  0.7629  0.7169 -0.9879
 1459SOL    HW216011   4.470   2.325   7.167 -0.4836 -0.8071 -1.2698
 1460SOL     OW16012   3.413   2.362   8.090  0.0408 -0.5700 -1.0368
 1460SOL    HW116013   3.374   2.275   8.101 -0.3670 -0.1676  0.6740
 1460SOL    HW216014   3.491   2.358   8.145 -0.7710 -1.0080  0.0748
 1461SOL     OW16015   4.630   1.426   3.469  0.3048  0.5093 -0.2366
 1461SOL    HW116016   4.698   1.481   3.508  0.7101 -0.8408  0.9363
 1461SOL    HW216017   4.555   1.454   3.522  1.8709  0.0345  2.1866
 1462SOL     OW16018   4.634   1.710   5.595 -0.3643 -0.0502  0.7855
 1462SOL    HW116019   4.587   1.632   5.564 -1.7581 -0.3596  3.6912
 1462SOL    HW216020   4.676   1.748   5.518  0.7895 -0.9677  0.9510
 1463SOL     OW16021   2.345   2.533   7.341 -0.0363 -0.2145  0.0273
 1463SOL    HW116022   2.351   2.438   7.342 -1.0745 -0.3076 -1.3927
 1463SOL    HW216023   2.368   2.568   7.427 -2.4959  0.8628  0.2580
 1464SOL     OW16024   2.920   3.748   4.658  0.0744 -0.1820  0.0227
 1464SOL    HW116025   2.933   3.738   4.564  0.8045 -2.3806  0.3647
 1464SOL    HW216026   2.842   3.699   4.684  0.7807 -1.0642  0.4779
 1465SOL     OW16027   2.492   1.662  10.497 -0.0000 -0.1252 -0.0031
 1465SOL    HW116028   2.563   1.598  10.495  0.0794 -0.0032 -1.0404
 1465SOL    HW216029   2.436   1.617  10.433  2.6035  0.2406 -2.5171
 1466SOL     OW16030   0.257   0.915   6.716 -0.3445  0.3273  0.0828
 1466SOL    HW116031   0.292   0.854   6.651  0.1046 -0.1159  0.7370
 1466SOL    HW216032   0.236   0.987   6.657  4.3129  0.6988 -1.0775
 1467SOL     OW16033   3.139   0.980   0.967  0.2477  0.3072 -0.2673
 1467SOL    HW116034   3.115   0.890   0.948 -1.4143  0.7362 -0.2308
 1467SOL    HW216035   3.189   1.008   0.890  1.1008 -1.6866 -0.4414
 1468SOL     OW16036   0.284   1.910   9.338  0.0039 -0.0500 -0.2425
 1468SOL    HW116037   0.359   1.969   9.339 -1.9278  2.4018 -0.5840
 1468SOL    HW216038   0.257   1.924   9.247 -0.8853  0.0316  0.0333
 1469SOL     OW16039   1.186   1.557   3.047 -0.1393 -0.4303 -0.2552
 1469SOL    HW116040   1.162   1.609   2.970  0.9957  1.6779  0.8117
 1469SOL    HW216041   1.274   1.589   3.065 -0.1444  0.3966 -1.6932
 1470SOL     OW16042   2.180   0.738   3.652 -0.5222  0.1854 -0.4315
 1470SOL    HW116043   2.242   0.712   3.584  1.3207 -0.4656  1.5131
 1470SOL    HW216044   2.193   0.664   3.710  0.3890 -0.3027 -1.2568
 1471SOL     OW16045   1.944   0.571  10.160  0.2382  0.1337  0.3191
 1471SOL    HW116046   1.984   0.638  10.215 -0.2551  0.1963  0.6054
 1471SOL    HW216047   1.856   0.592  10.192 -0.6086 -2.5975 -0.2246
 1472SOL     OW16048   3.914   1.240   3.891 -0.2842  0.2592 -0.1986
 1472SOL    HW116049   3.844   1.263   3.830 -1.5455 -3.5003 -0.1686
 1472SOL    HW216050   3.992   1.266   3.842 -0.0275  0.4128  0.2894
 1473SOL     OW16051   0.220   4.438   4.116 -0.5543  0.1366  0.4912
 1473SOL    HW116052   0.177   4.497   4.055 -3.6242 -0.7221  1.8240
 1473SOL    HW216053   0.230   4.357   4.066  2.5467  1.2409 -0.6926
 1474SOL     OW16054   2.887   3.029  12.713 -0.3405  0.1230  0.3691
 1474SOL    HW116055   2.949   2.987  12.773 -0.4008 -1.0758 -0.4179
 1474SOL    HW216056   2.948   3.058  12.645  0.3000 -0.8593  0.5237
 1475SOL     OW16057   3.059   1.067   9.800 -0.0062 -0.7029  0.0534
 1475SOL    HW116058   3.116   1.062   9.877  3.4598  0.8171 -2.4590
 1475SOL    HW216059   3.119   1.095   9.732  0.0330 -0.6127  0.1255
 1476SOL     OW16060   4.680   2.907   2.130 -0.1216 -0.0343 -0.2145
 1476SOL    HW116061   4.662   2.818   2.159 -2.7063  0.7719  0.6794
 1476SOL    HW216062   4.697   2.876   2.041  2.3365 -3.0117  1.3068
 1477SOL     OW16063   0.471   4.077  15.479  0.5417 -0.6226  0.3244
 1477SOL    HW116064   0.565   4.095  15.486  0.7817 -1.8276  0.2531
 1477SOL    HW216065   0.479   4.012  15.409 -0.7366  0.9165 -1.2716
 1478SOL     OW16066   2.027   1.986   7.526 -0.0471 -0.0951 -0.0413
 1478SOL    HW116067   1.939   1.963   7.555 -0.9082  2.0606 -0.9195
 1478SOL    HW216068   2.055   1.908   7.478  0.5973 -0.8018  1.4974
 1479SOL     OW16069   3.863   1.041   5.594 -0.3096 -0.0466 -0.8290
 1479SOL    HW116070   3.807   1.069   5.666  2.5174  1.0739  0.9446
 1479SOL    HW216071   3.851   1.103   5.522  0.2118  0.8176 -0.1787
 1480SOL     OW16072   2.225   2.500   3.555  0.2542  0.2975  0.0313
 1480SOL    HW116073   2.267   2.490   3.470  0.0551 -1.1457  0.1113
 1480SOL    HW216074   2.146   2.452   3.533  0.9655 -1.2033  0.7352
 1481SOL     OW16075   1.199   3.818   8.656  0.1730 -0.0297 -0.0646
 1481SOL    HW116076   1.175   3.910   8.662  0.0844  0.0271 -1.2745
 1481SOL    HW216077   1.112   3.779   8.657  0.4636 -0.6860 -0.3158
 1482SOL     OW16078   2.064   1.928  14.467  0.1383  0.0234  0.0781
 1482SOL    HW116079   2.106   1.994  14.522  1.9725  0.6993 -2.1608
 1482SOL    HW216080   1.991   1.985  14.442 -0.6232 -0.5467  1.0150
 1483SOL     OW16081   4.170   0.738  14.435  0.4572 -0.4571  0.3375
 1483SOL    HW116082   4.245   0.780  14.392  1.8621 -0.4583  2.8100
 1483SOL    HW216083   4.104   0.798  14.469 -1.4464 -1.7331 -1.1254
 1484SOL     OW16084   0.322   2.008  15.699  0.4188 -0.3686  0.1980
 1484SOL    HW116085   0.403   1.980  15.741  1.2297  0.5533 -0.7459
 1484SOL    HW216086   0.283   2.065  15.765  3.3923  0.9670  0.7932
 1485SOL     OW16087   1.198   4.392   7.660 -0.6351  0.5252 -0.0319
 1485SOL    HW116088   1.288   4.361   7.667 -0.4161  1.7021  2.3826
 1485SOL    HW216089   1.234   4.465   7.610  1.0605  0.6463  1.3653
 1486SOL     OW16090   3.649   1.246   3.378  0.4003 -0.2477  0.6124
 1486SOL    HW116091   3.581   1.185   3.353  1.4143 -1.1358  0.0287
 1486SOL    HW216092   3.702   1.250   3.298 -0.8974 -0.8416 -0.2593
 1487SOL     OW16093   0.111   2.199  17.239  0.0377 -0.9723  0.5861
 1487SOL    HW116094   0.197   2.159  17.222  0.2277 -0.4459  0.2888
 1487SOL    HW216095   0.061   2.124  17.271  0.0763 -0.6611  1.3683
 1488SOL     OW16096   4.179   0.398  10.777  0.1597 -0.4426  0.5865
 1488SOL    HW116097   4.242   0.334  10.744 -0.0332 -0.5447  0.4173
 1488SOL    HW216098   4.226   0.482  10.773  1.0671 -0.9012  1.6717
 1489SOL     OW16099   3.030   0.819   7.146 -0.2672  0.0398  0.5568
 1489SOL    HW116100   2.987   0.794   7.228  0.3603 -2.8672  0.0248
 1489SOL    HW216101   2.998   0.909   7.151  0.6385  0.2890  2.0330
 1490SOL     OW16102   3.997   1.644  17.084  0.1420 -0.5629 -0.0746
 1490SOL    HW116103   4.056   1.692  17.025  0.4419  0.4205  1.0422
 1490SOL    HW216104   3.909   1.675  17.064 -0.1268 -0.8356  0.6911
 1491SOL     OW16105   3.683   2.259   7.270 -0.9931 -0.3550 -0.3249
 1491SOL    HW116106   3.763   2.312   7.270 -1.3308  0.1525 -0.0851
 1491SOL    HW216107   3.713   2.190   7.211 -0.4004 -0.6885  0.3726
 1492SOL     OW16108   0.727   1.686   1.794  0.2134  0.3232  0.2118
 1492SOL    HW116109   0.704   1.606   1.746  2.7687  0.7641 -1.7790
 1492SOL    HW216110   0.728   1.657   1.885 -2.0094  2.7041  0.9903
 1493SOL     OW16111   2.596   1.892  14.922 -0.4870  0.6582 -1.2375
 1493SOL    HW116112   2.564   1.951  14.854 -1.3321 -0.5645 -1.8929
 1493SOL    HW216113   2.662   1.945  14.966 -0.8895  0.2875 -0.1820
 1494SOL     OW16114   0.184   4.241   6.696  0.0115 -0.6143 -0.4206
 1494SOL    HW116115   0.108   4.189   6.670 -0.7942  0.2421  0.2271
 1494SOL    HW216116   0.210   4.292   6.620  0.1429 -0.6245 -0.3829
 1495SOL     OW16117   4.214   1.565  12.455 -0.2726 -0.1548 -0.2655
 1495SOL    HW116118   4.309   1.576  12.464 -0.1249 -0.0862 -1.8917
 1495SOL    HW216119   4.176   1.639  12.502  0.3035 -0.7199  1.0886
 1496SOL     OW16120   1.539   0.198   0.019  0.1170 -0.7767  0.6885
 1496SOL    HW116121   1.629   0.165   0.020 -0.3721 -2.1252 -1.5936
 1496SOL    HW216122   1.529   0.246  17.683  1.5580  0.4183  1.2135
 1497SOL     OW16123   0.614   0.013   0.258  0.6054 -0.1927 -0.0416
 1497SOL    HW116124   0.692   4.728   0.207 -0.6208 -1.1712 -1.5244
 1497SOL    HW216125   0.652   0.084   0.309  3.4939 -0.0770 -2.3426
 1498SOL     OW16126   2.356   0.225  16.687  0.0796  0.6038  0.0816
 1498SOL    HW116127   2.295   0.237  16.615  0.7586 -1.0367 -0.7618
 1498SOL    HW216128   2.309   0.275  16.754 -0.5353  1.0621 -0.6998
 1499SOL     OW16129   2.568   3.160  17.291  0.4210  0.1263 -0.1020
 1499SOL    HW116130   2.609   3.086  17.246  1.7355  1.4550 -1.1317
 1499SOL    HW216131   2.523   3.113  17.360  0.1378 -1.6183 -1.4792
 1500SOL     OW16132   4.283   4.345   8.353 -0.1487 -1.0277 -0.0597
 1500SOL    HW116133   4.336   4.383   8.283 -0.9273  1.4808  0.7169
 1500SOL    HW216134   4.296   4.251   8.340 -0.4359 -0.7159 -2.5549
 1501SOL     OW16135   0.393   2.915   4.540  0.5254 -0.2179  0.3143
 1501SOL    HW116136   0.442   2.913   4.622 -1.9985 -0.0013  1.8025
 1501SOL    HW216137   0.425   2.993   4.495  0.0992 -0.0544  0.3054
 1502SOL     OW16138   4.141   0.306   2.966  0.2164  0.2618 -0.4105
 1502SOL    HW116139   4.234   0.317   2.986 -0.3693  0.8741  1.9274
 1502SOL    HW216140   4.129   0.217   2.998 -1.2497  0.4658 -0.4034
 1503SOL     OW16141   1.888   3.123   0.589 -0.1716 -0.1949 -0.0317
 1503SOL    HW116142   1.922   3.212   0.580 -0.8701 -0.3895 -4.9033
 1503SOL    HW216143   1.951   3.086   0.650  0.7753  0.6583 -0.4811
 1504SOL     OW16144   4.224   0.501   1.636  0.0311 -0.0804  0.1225
 1504SOL    HW116145   4.263   0.586   1.615  0.6816 -0.2844  0.4737
 1504SOL    HW216146   4.160   0.527   1.701  1.4187 -0.4027  1.6266
 1505SOL     OW16147   4.192   3.387   5.416 -0.0297  0.0552 -0.0005
 1505SOL    HW116148   4.186   3.348   5.503 -0.6379  1.0039  0.3813
 1505SOL    HW216149   4.106   3.428   5.418  0.1918  0.5056  0.1242
 1506SOL     OW16150   0.989   1.490   1.031  0.1062  0.0495 -0.1704
 1506SOL    HW116151   1.039   1.447   1.100 -0.1938 -0.4852 -0.2854
 1506SOL    HW216152   0.911   1.513   1.081 -0.3358  0.6045 -1.1291
 1507SOL     OW16153   0.177   1.526   6.625 -0.2966 -0.2644  0.3625
 1507SOL    HW116154   0.133   1.501   6.544  0.2203  0.6795 -0.2125
 1507SOL    HW216155   0.269   1.543   6.603 -0.1004 -2.9526 -0.7973
 1508SOL     OW16156   4.090   2.768   9.016  0.0313  0.4219  0.0601
 1508SOL    HW116157   4.156   2.753   9.084  0.6217  1.1838 -0.3493
 1508SOL    HW216158   4.140   2.769   8.934  0.7867  0.2975  0.5165
 1509SOL     OW16159   2.825   0.868   6.430  0.5374  0.0731  0.4240
 1509SOL    HW116160   2.867   0.783   6.412 -1.0434 -0.3985 -1.1104
 1509SOL    HW216161   2.731   0.850   6.439  0.9449 -1.6134  1.3987
 1510SOL     OW16162   1.804   2.931   4.040  0.1899  0.4002 -0.3369
 1510SOL    HW116163   1.892   2.941   4.003  0.5850 -1.6487  0.0025
 1510SOL    HW216164   1.785   3.023   4.059 -0.6462  0.7169 -2.7281
 1511SOL     OW16165   2.539   0.358   7.135 -0.0829  0.0934  0.2159
 1511SOL    HW116166   2.613   0.298   7.148  0.3392  1.0632  2.3712
 1511SOL    HW216167   2.517   0.349   7.043  1.7045  0.2709 -0.2242
 1512SOL     OW16168   4.726   4.579   3.052  0.0686 -0.0287  0.7528
 1512SOL    HW116169   0.074   4.622   3.064  0.4753 -1.1710  1.8996
 1512SOL    HW216170   4.669   4.641   3.098 -0.5210  0.1568 -0.2394
 1513SOL     OW16171   2.453   3.481  13.533  0.6262 -0.1894  0.4716
 1513SOL    HW116172   2.362   3.500  13.556  0.6772  0.2993  0.2616
 1513SOL    HW216173   2.447   3.385  13.530  1.8881 -0.3193  2.0240
 1514SOL     OW16174   1.439   1.629   8.620  0.1314  0.2346  0.4801
 1514SOL    HW116175   1.509   1.677   8.665  0.0523 -0.9135  1.8530
 1514SOL    HW216176   1.439   1.554   8.681  0.8827 -0.9523 -0.9764
 1515SOL     OW16177   2.122   1.091  11.080  0.3006  0.4380 -0.1435
 1515SOL    HW116178   2.127   1.118  10.989 -2.3457 -0.4507 -0.5537
 1515SOL    HW216179   2.080   1.167  11.120 -0.1620  0.3209 -0.4045
 1516SOL     OW16180   4.298   2.018   9.547  0.3121 -0.2611  0.8337
 1516SOL    HW116181   4.312   1.936   9.594  1.0537 -0.4704  0.2384
 1516SOL    HW216182   4.330   2.087   9.605  2.2891 -0.3861 -0.1321
 1517SOL     OW16183   1.339   0.076  15.867 -0.2941  0.4129 -0.5986
 1517SOL    HW116184   1.280   0.151  15.861  2.4499  2.6147 -0.1587
 1517SOL    HW216185   1.268   0.015  15.852  0.9310 -0.9130 -0.9481
 1518SOL     OW16186   3.481   4.044   0.233  0.1721  0.2633 -0.1992
 1518SOL    HW116187   3.441   4.116   0.185  0.4169 -0.8342 -2.0883
 1518SOL    HW216188   3.407   3.988   0.257  0.0714  0.5473  0.1501
 1519SOL     OW16189   2.153   2.389   4.722  0.3770  0.3605 -0.5104
 1519SOL    HW116190   2.164   2.416   4.813 -1.4762 -0.4845 -0.0507
 1519SOL    HW216191   2.236   2.340   4.721  0.5054  0.5705 -0.0167
 1520SOL     OW16192   1.694   4.400   8.524 -0.3928 -0.1097  0.1546
 1520SOL    HW116193   1.785   4.416   8.500  0.8629 -1.0573  4.4253
 1520SOL    HW216194   1.651   4.366   8.445 -0.8065 -0.0795  0.3659
 1521SOL     OW16195   1.315   0.911   3.393  0.4468 -0.1731 -0.0074
 1521SOL    HW116196   1.252   0.956   3.450  0.0577 -0.5958 -0.1090
 1521SOL    HW216197   1.273   0.826   3.380  1.7446 -1.1489  2.2926
 1522SOL     OW16198   4.075   1.847   7.298 -0.3265 -0.6104  0.4047
 1522SOL    HW116199   4.110   1.933   7.318 -0.1116 -0.9247  1.4140
 1522SOL    HW216200   3.990   1.861   7.256 -1.7790  0.6321  3.7260
 1523SOL     OW16201   2.071   1.441   5.389 -0.0039 -0.0787  0.1532
 1523SOL    HW116202   2.131   1.369   5.411  0.3456 -0.0954 -0.8446
 1523SOL    HW216203   2.012   1.444   5.464  0.0862 -3.3679  0.3780
 1524SOL     OW16204   4.160   0.413  15.617  0.1951 -0.5370 -0.0396
 1524SOL    HW116205   4.085   0.356  15.634  0.4644 -0.6511  0.7475
 1524SOL    HW216206   4.132   0.497  15.652 -0.6271 -0.0059 -1.9858
 1525SOL     OW16207   2.956   3.345   7.240  0.3514  0.3567 -0.2062
 1525SOL    HW116208   2.959   3.260   7.283  0.3280 -0.1473 -1.2026
 1525SOL    HW216209   3.034   3.328   7.187  1.1404  0.6742  0.8537
 1526SOL     OW16210   0.811   2.806   3.362  0.0657 -0.8815  0.0070
 1526SOL    HW116211   0.834   2.715   3.380 -1.6440 -1.1249  0.9098
 1526SOL    HW216212   0.826   2.857   3.442 -0.2579 -2.7971  1.2736
 1527SOL     OW16213   3.614   4.191   7.524 -0.4298 -0.5482  0.9008
 1527SOL    HW116214   3.709   4.197   7.532 -0.5276  1.6623  0.5706
 1527SOL    HW216215   3.604   4.104   7.486 -0.2535 -0.9408  1.7530
 1528SOL     OW16216   3.229   2.140   6.804  0.2776 -0.2480  0.2947
 1528SOL    HW116217   3.168   2.191   6.752 -0.4556  0.1969  1.5949
 1528SOL    HW216218   3.258   2.081   6.734  1.4229 -0.5797  1.0528
 1529SOL     OW16219   2.952   1.502   3.331  0.0670 -0.6856 -0.3015
 1529SOL    HW116220   3.038   1.536   3.355 -0.7459  1.0653  0.0928
 1529SOL    HW216221   2.982   1.453   3.254  1.6786  0.0137 -0.1286
 1530SOL     OW16222   2.296   2.948  13.285  0.6217  0.2224 -0.0950
 1530SOL    HW116223   2.355   2.983  13.353  0.5274 -0.3593  0.2907
 1530SOL    HW216224   2.357   2.940  13.211  0.5242 -0.7231 -0.0682
 1531SOL     OW16225   0.666   4.280   6.083 -0.9464 -0.0575  0.2352
 1531SOL    HW116226   0.752   4.240   6.069 -1.1198 -0.5347  0.5448
 1531SOL    HW216227   0.659   4.285   6.178  0.4649  0.0370  0.3263
 1532SOL     OW16228   4.065   2.705  10.114  0.1116 -0.5496 -0.2201
 1532SOL    HW116229   4.014   2.786  10.120  0.5839 -0.2918  0.3213
 1532SOL    HW216230   4.106   2.715  10.200 -3.1585 -1.1726  1.3956
 1533SOL     OW16231   0.276   1.545   3.515 -0.0792 -0.2776 -0.3313
 1533SOL    HW116232   0.273   1.455   3.547  1.3591 -1.5638 -3.7954
 1533SOL    HW216233   0.367   1.565   3.537  0.1979 -1.3416 -0.4719
 1534SOL     OW16234   1.121   1.077   5.640  0.0818 -0.0916  0.4525
 1534SOL    HW116235   1.064   1.097   5.566  1.2721 -2.1487 -1.0258
 1534SOL    HW216236   1.111   1.159   5.688 -2.8235 -0.2198  0.0249
 1535SOL     OW16237   0.083   1.464   7.075 -0.1937  0.4898 -0.3972
 1535SOL    HW116238   0.105   1.406   7.003 -0.0420 -0.7240  0.6356
 1535SOL    HW216239   0.040   1.533   7.024  1.2278  0.2654 -1.8925
 1536SOL     OW16240   2.167   1.383   2.397  0.1156  0.4452 -0.8726
 1536SOL    HW116241   2.083   1.430   2.396 -0.1371 -0.0352 -1.8124
 1536SOL    HW216242   2.141   1.295   2.371 -2.2423  1.0517 -0.6558
 1537SOL     OW16243   0.756   0.542   8.677 -0.3043  0.3896 -0.2260
 1537SOL    HW116244   0.798   0.587   8.750  0.1947 -0.4814  0.0251
 1537SOL    HW216245   0.824   0.479   8.652 -1.5269 -0.6042 -1.0364
 1538SOL     OW16246   2.880   3.320   1.605  0.1013 -0.2185  0.1440
 1538SOL    HW116247   2.878   3.272   1.688  1.8554  0.4409  0.5687
 1538SOL    HW216248   2.787   3.318   1.586  0.2178  1.0088 -0.5226
 1539SOL     OW16249   0.172   0.345   1.520  0.4474  0.4523  0.1398
 1539SOL    HW116250   0.238   0.413   1.529  2.7059 -1.6172 -0.9752
 1539SOL    HW216251   0.156   0.355   1.427 -0.6693 -0.5895  0.2209
 1540SOL     OW16252   1.693   1.333   4.568 -0.0191  0.3857 -0.1414
 1540SOL    HW116253   1.640   1.412   4.582 -1.0247 -0.2085 -0.6468
 1540SOL    HW216254   1.627   1.266   4.551  0.4533 -0.3576  0.9621
 1541SOL     OW16255   3.730   3.154   8.330  0.0508  0.0056  0.3832
 1541SOL    HW116256   3.722   3.060   8.313 -4.3277  0.7579 -1.5303
 1541SOL    HW216257   3.649   3.169   8.380 -1.2583  2.3347 -2.4273
 1542SOL     OW16258   4.651   4.026   5.769  0.4883  0.4377  0.1136
 1542SOL    HW116259   4.624   4.117   5.782  0.9675  0.7775 -1.2963
 1542SOL    HW216260   0.007   4.036   5.793  0.5506  2.0897 -0.8464
 1543SOL     OW16261   3.599   3.970   8.101  0.1614  0.3759 -0.2787
 1543SOL    HW116262   3.649   3.924   8.033 -0.3263  1.5225 -1.4004
 1543SOL    HW216263   3.667   3.983   8.167  0.0692  2.0165 -0.5019
 1544SOL     OW16264   1.979   1.826   7.853 -0.3520 -0.2030  0.2525
 1544SOL    HW116265   2.021   1.774   7.921 -0.2732 -0.8873 -0.3269
 1544SOL    HW216266   1.911   1.865   7.908 -0.2085 -0.6908  0.7637
 1545SOL     OW16267   2.226   1.184   4.665 -0.4713 -0.1482  0.3320
 1545SOL    HW116268   2.296   1.131   4.703 -0.0545  0.2954  0.1879
 1545SOL    HW216269   2.223   1.166   4.571  1.1139 -0.0220  0.2621
 1546SOL     OW16270   3.073   1.666   2.577  0.2855 -0.2202 -0.2821
 1546SOL    HW116271   3.108   1.615   2.504  0.7959  0.3876 -0.4633
 1546SOL    HW216272   3.124   1.746   2.568  0.9740 -0.7213 -0.9216
 1547SOL     OW16273   1.455   3.934  17.378  0.2815  0.0039  0.1133
 1547SOL    HW116274   1.519   3.869  17.348 -0.1980  0.8628 -2.8039
 1547SOL    HW216275   1.389   3.871  17.409 -1.1479  2.0563  1.2141
 1548SOL     OW16276   1.476   1.602  12.267  0.4606  0.0996  0.3275
 1548SOL    HW116277   1.406   1.564  12.320  0.0425 -1.9090 -1.6402
 1548SOL    HW216278   1.430   1.657  12.204 -0.2546 -1.6447 -0.6694
 1549SOL     OW16279   0.230   4.144   4.011 -0.0996  0.4917  0.0766
 1549SOL    HW116280   0.319   4.124   3.983  1.7500  1.5103  5.2094
 1549SOL    HW216281   0.219   4.079   4.080  1.9532  0.0733 -0.0083
 1550SOL     OW16282   4.720   2.993   5.702 -0.3064  0.8020  0.5374
 1550SOL    HW116283   4.703   3.070   5.648  1.1038  0.1376 -0.8499
 1550SOL    HW216284   4.636   2.983   5.748 -1.0234  0.7474 -0.7781
 1551SOL     OW16285   1.505   1.930   2.252  0.1107  0.2563 -0.1550
 1551SOL    HW116286   1.522   2.003   2.311 -2.3215 -0.2249  1.1248
 1551SOL    HW216287   1.412   1.935   2.231 -0.1895 -1.5169  0.7239
 1552SOL     OW16288   1.693   2.389   3.716  0.1130 -0.1028 -0.2953
 1552SOL    HW116289   1.778   2.345   3.713 -0.7631 -1.6797 -2.1838
 1552SOL    HW216290   1.659   2.361   3.631  2.3519  0.3287 -1.3499
 1553SOL     OW16291   1.228   3.797   4.380 -1.4342 -0.2934 -0.0891
 1553SOL    HW116292   1.306   3.807   4.326  0.7011 -0.2101  3.0337
 1553SOL    HW216293   1.158   3.793   4.315 -1.7274 -0.4544  0.2394
 1554SOL     OW16294   2.149   3.198  16.708  0.0159  0.6456 -0.7142
 1554SOL    HW116295   2.196   3.274  16.742 -0.3426  0.2962  0.5714
 1554SOL    HW216296   2.227   3.153  16.675 -1.7772 -1.8815 -1.5199
 1555SOL     OW16297   1.485   4.634   2.961  0.2453 -0.1875 -0.1571
 1555SOL    HW116298   1.539   4.707   2.992  1.8803 -1.7843  0.7265
 1555SOL    HW216299   1.432   4.632   3.041  2.4958  0.1685  1.3660
 1556SOL     OW16300   0.319   4.595   7.847 -0.5049 -0.3112  0.2104
 1556SOL    HW116301   0.249   4.658   7.863  0.5624  0.7380  0.7579
 1556SOL    HW216302   0.380   4.621   7.917  0.1535 -1.0677 -0.0845
 1557SOL     OW16303   3.334   0.169   3.728  0.2156  0.4641 -0.4666
 1557SOL    HW116304   3.371   0.084   3.707 -0.7524 -0.0852  0.0229
 1557SOL    HW216305   3.240   0.152   3.715  1.1866 -3.9287 -1.6533
 1558SOL     OW16306   3.286   4.725   8.238 -0.0836  0.1767 -0.1395
 1558SOL    HW116307   3.297   4.634   8.264 -0.5782  0.3062  0.5308
 1558SOL    HW216308   3.309   0.032   8.321  0.9552  0.0435 -0.3494
 1559SOL     OW16309   3.449   0.600   2.727 -0.0722 -0.5898 -0.2162
 1559SOL    HW116310   3.500   0.675   2.698  1.7375 -1.8282 -0.2441
 1559SOL    HW216311   3.398   0.632   2.802 -0.0070 -2.2600  0.5435
 1560SOL     OW16312   1.433   1.408   9.136  0.2640  0.7347 -0.3288
 1560SOL    HW116313   1.511   1.404   9.082  1.6998  1.1605  1.7123
 1560SOL    HW216314   1.443   1.319   9.171  1.8852  1.0192 -0.1036
 1561SOL     OW16315   3.388   0.447   9.683  0.2829  0.0040  0.0376
 1561SOL    HW116316   3.416   0.406   9.765  2.3585 -2.0788 -1.7065
 1561SOL    HW216317   3.346   0.369   9.646 -1.1679  0.3358  0.9645
 1562SOL     OW16318   0.225   0.763  11.332  0.6567  0.5997  0.2035
 1562SOL    HW116319   0.144   0.714  11.338  0.3887  0.9907 -0.2196
 1562SOL    HW216320   0.219   0.818  11.410  1.4476 -2.1383  2.1791
 1563SOL     OW16321   2.771   2.473   9.206  0.5385 -0.1807 -0.8779
 1563SOL    HW116322   2.721   2.490   9.286  3.6947 -0.1888  1.1323
 1563SOL    HW216323   2.729   2.391   9.182 -0.2638  0.9620 -3.3810
 1564SOL     OW16324   0.702   2.256  17.351  0.4285  0.4141 -0.1296
 1564SOL    HW116325   0.657   2.218  17.276  4.2138  0.9502 -2.7186
 1564SOL    HW216326   0.720   2.346  17.322  1.9222 -0.6626 -2.5462
 1565SOL     OW16327   3.846   2.214   9.802  0.7838  0.0582  0.5016
 1565SOL    HW116328   3.861   2.190   9.711  0.4542 -1.6004  0.8782
 1565SOL    HW216329   3.937   2.217   9.833  1.2750  0.4546 -0.9680
 1566SOL     OW16330   4.413   0.951   5.269 -0.4779 -0.0821  0.3124
 1566SOL    HW116331   4.357   0.874   5.259 -3.9445  2.2896  1.4759
 1566SOL    HW216332   4.400   1.000   5.187 -2.5299  0.9180  1.2153
 1567SOL     OW16333   3.773   1.467   0.155  0.1235  0.0347 -0.2008
 1567SOL    HW116334   3.747   1.461   0.063 -2.0885  0.0737  0.4239
 1567SOL    HW216335   3.869   1.475   0.155  0.3087 -2.3578 -0.8572
 1568SOL     OW16336   4.127   1.269  16.312  0.1296  0.5812  0.3499
 1568SOL    HW116337   4.071   1.337  16.274  0.2823  1.1764  1.1814
 1568SOL    HW216338   4.057   1.215  16.349  1.0480 -0.6035  0.3610
 1569SOL     OW16339   0.026   0.905   4.953 -0.3117  0.5823 -0.0821
 1569SOL    HW116340   0.045   0.998   4.936 -0.9891  0.7647  0.1746
 1569SOL    HW216341   4.673   0.913   4.983 -0.8303 -3.1669 -0.6859
 1570SOL     OW16342   1.905   2.058   2.527 -0.4792  0.6390  0.0669
 1570SOL    HW116343   1.961   2.084   2.601  0.3199  2.2162 -1.0959
 1570SOL    HW216344   1.831   2.117   2.541 -1.7395 -0.7441 -0.7720
 1571SOL     OW16345   4.726   3.711   5.589 -0.3889  0.4471 -0.5728
 1571SOL    HW116346   4.708   3.797   5.551 -0.9186  0.4979 -0.2026
 1571SOL    HW216347   4.646   3.693   5.638 -2.0158  0.7623 -3.0998
 1572SOL     OW16348   1.729   1.297   3.906 -0.6265 -0.2848 -0.0194
 1572SOL    HW116349   1.779   1.219   3.928  1.5993  0.9794 -0.5588
 1572SOL    HW216350   1.675   1.264   3.834 -1.4384 -1.0838  0.9671
 1573SOL     OW16351   2.687   4.611   5.639 -0.2686 -0.2460 -0.5369
 1573SOL    HW116352   2.606   4.560   5.634 -1.3711  1.4707 -0.0551
 1573SOL    HW216353   2.724   4.584   5.556 -0.8310 -3.8123  0.3464
 1574SOL     OW16354   0.717   3.281   5.466  0.1254  0.0938  0.2906
 1574SOL    HW116355   0.623   3.287   5.452  0.2104 -0.6804 -0.6035
 1574SOL    HW216356   0.719   3.188   5.487  0.8344 -0.4751 -2.3159
 1575SOL     OW16357   1.531   1.265   3.433  0.4857  0.1014  0.4978
 1575SOL    HW116358   1.579   1.341   3.400 -0.8821  0.4174 -0.7201
 1575SOL    HW216359   1.445   1.279   3.394  0.7604 -0.3490 -0.2613
 1576SOL     OW16360   4.684   4.508   8.523  0.2685  0.6218 -0.4999
 1576SOL    HW116361   4.687   4.493   8.429  1.1877 -2.2820  0.0144
 1576SOL    HW216362   4.609   4.567   8.533 -0.5280 -0.4212 -0.3348
 1577SOL     OW16363   1.284   0.730   7.058 -0.1204  0.8738 -0.0300
 1577SOL    HW116364   1.375   0.731   7.029 -0.8030  1.2607 -2.1707
 1577SOL    HW216365   1.231   0.694   6.987  0.6194  1.4846 -0.8943
 1578SOL     OW16366   3.914   2.836   6.306  0.0025  0.0034 -0.0671
 1578SOL    HW116367   3.860   2.805   6.234 -0.2673 -4.1445  1.9167
 1578SOL    HW216368   3.856   2.902   6.344 -1.0916 -1.6276  1.1010
 1579SOL     OW16369   2.919   1.700   6.974 -0.5135 -0.1245  0.4014
 1579SOL    HW116370   3.009   1.670   6.989 -0.0566  2.7827  3.5562
 1579SOL    HW216371   2.906   1.660   6.888  1.8940  1.4834 -0.7046
 1580SOL     OW16372   1.731   0.794  15.321 -0.2137  0.5248 -0.4564
 1580SOL    HW116373   1.774   0.753  15.396  1.2654 -0.9687 -2.1059
 1580SOL    HW216374   1.743   0.734  15.248 -2.5764  1.2686 -1.4450
 1581SOL     OW16375   0.608   2.539  15.228  0.1475  0.3267  0.4905
 1581SOL    HW116376   0.540   2.484  15.190  1.9237 -0.9413 -0.8317
 1581SOL    HW216377   0.683   2.481  15.240  0.5836  1.5826  3.8382
 1582SOL     OW16378   2.283   4.234   7.946 -0.7783  0.0226  0.6172
 1582SOL    HW116379   2.221   4.163   7.931 -1.5869  1.1834 -1.3907
 1582SOL    HW216380   2.318   4.198   8.028  1.6678  0.1964 -0.3301
 1583SOL     OW16381   4.626   0.437   0.837 -0.4492 -0.7254 -0.1023
 1583SOL    HW116382   4.607   0.421   0.930 -0.0822 -0.6662 -0.0147
 1583SOL    HW216383   4.594   0.527   0.835 -2.7964 -1.5928 -1.1122
 1584SOL     OW16384   3.215   2.267   8.958 -0.4979  0.4111  0.0467
 1584SOL    HW116385   3.173   2.182   8.946 -1.5762  1.1294 -1.3213
 1584SOL    HW216386   3.282   2.273   8.891  1.0912  1.1490  1.7060
 1585SOL     OW16387   4.338   2.041  13.314  0.2642  0.5138 -0.0267
 1585SOL    HW116388   4.357   1.979  13.244 -0.2549  2.2861 -1.7215
 1585SOL    HW216389   4.251   2.069  13.288 -1.0486 -2.1881  1.4893
 1586SOL     OW16390   1.342   3.051  17.439  0.5211 -0.5247  0.0769
 1586SOL    HW116391   1.350   2.990  17.512  2.6651  0.4437  0.6548
 1586SOL    HW216392   1.246   3.053  17.440  0.5117 -0.9543  0.2244
 1587SOL     OW16393   1.764   1.892   6.286  0.2209  0.0145  0.3403
 1587SOL    HW116394   1.743   1.832   6.358  0.1675 -1.0230 -0.5510
 1587SOL    HW216395   1.820   1.830   6.239  1.5926  1.0055  0.6552
 1588SOL     OW16396   0.217   0.508   5.026  0.7554 -0.0967 -0.2336
 1588SOL    HW116397   0.198   0.422   5.062  1.2910 -0.9942 -2.1229
 1588SOL    HW216398   0.181   0.497   4.938  0.3713  2.4010 -0.4012
 1589SOL     OW16399   3.524   2.240   4.476 -0.1935  0.7267 -0.2392
 1589SOL    HW116400   3.455   2.178   4.452 -0.1789  0.2553  0.8872
 1589SOL    HW216401   3.471   2.288   4.541 -1.1587  0.9877 -1.2218
 1590SOL     OW16402   0.108   3.715   8.968  0.1163  0.1474 -0.0491
 1590SOL    HW116403   0.075   3.777   8.904 -1.5415  0.4917  1.1459
 1590SOL    HW216404   0.064   3.638   8.932 -0.1530  0.2810 -0.0049
 1591SOL     OW16405   2.100   4.398   7.544  0.2844  0.3264 -0.4404
 1591SOL    HW116406   2.164   4.444   7.598  1.4764 -1.3455 -0.4483
 1591SOL    HW216407   2.020   4.422   7.591 -0.2374 -0.8580 -0.7336
 1592SOL     OW16408   2.768   2.185   7.473 -0.6090  0.2730  0.1210
 1592SOL    HW116409   2.807   2.099   7.487  3.1141  1.8709 -0.4525
 1592SOL    HW216410   2.841   2.233   7.512  2.9525 -4.1669 -1.0534
 1593SOL     OW16411   3.588   3.119   4.987  0.1363  0.2905  0.2237
 1593SOL    HW116412   3.502   3.128   4.946  0.1860  1.5701  0.3989
 1593SOL    HW216413   3.590   3.200   5.039  0.0372  1.4561 -1.5935
 1594SOL     OW16414   3.460   4.625   2.518 -0.1189 -0.6043 -0.6536
 1594SOL    HW116415   3.373   4.638   2.479 -0.2922  1.1063  0.2779
 1594SOL    HW216416   3.445   4.635   2.612  2.6622 -1.2994 -0.1393
 1595SOL     OW16417   2.190   4.302   1.630  0.5502  0.7296 -0.3724
 1595SOL    HW116418   2.268   4.260   1.593 -0.7874 -0.7375 -1.4928
 1595SOL    HW216419   2.200   4.297   1.725  1.4142 -0.2913 -0.5133
 1596SOL     OW16420   3.330   2.107   3.444 -0.0571 -0.1646  0.0208
 1596SOL    HW116421   3.364   2.119   3.355  0.7826 -1.8703  0.1041
 1596SOL    HW216422   3.356   2.016   3.456 -2.6656 -0.8310  0.6904
 1597SOL     OW16423   2.985   1.208   7.651  0.2623  0.1236  0.1560
 1597SOL    HW116424   3.017   1.158   7.576 -0.0383  0.5488 -0.2552
 1597SOL    HW216425   2.966   1.292   7.610 -0.4607 -1.3671 -2.5353
 1598SOL     OW16426   3.123   4.578  17.523  0.0095 -0.0376 -0.0896
 1598SOL    HW116427   3.042   4.628  17.526 -1.3221 -2.0748 -1.8039
 1598SOL    HW216428   3.112   4.532  17.606 -0.6254  0.5549  0.1488
 1599SOL     OW16429   2.990   1.401   9.862 -0.1374 -0.1262  0.3222
 1599SOL    HW116430   3.085   1.410   9.871  0.1965 -1.6430 -1.8396
 1599SOL    HW216431   2.963   1.493   9.862  2.1261  0.5469 -2.5080
 1600SOL     OW16432   0.691   1.890  13.460  0.5522  0.4540  0.3291
 1600SOL    HW116433   0.772   1.855  13.422  1.0108  1.8324  0.0386
 1600SOL    HW216434   0.738   1.915  13.540 -0.1238 -0.9947  1.1800
 1601SOL     OW16435   2.720   3.253   2.853 -0.0622 -0.1582  0.4832
 1601SOL    HW116436   2.698   3.211   2.937  2.6200 -0.2393  1.1401
 1601SOL    HW216437   2.629   3.261   2.824 -0.5326 -1.6862  1.5182
 1602SOL     OW16438   0.105   2.625   1.730 -0.2478 -0.4995 -0.3504
 1602SOL    HW116439   0.065   2.675   1.658  0.3247  0.8106  0.2458
 1602SOL    HW216440   0.051   2.546   1.732 -1.0153 -0.0012 -1.4614
 1603SOL     OW16441   1.762   0.389  15.800 -0.1433  0.1396  0.4656
 1603SOL    HW116442   1.766   0.485  15.805 -0.2566  0.1232  0.8961
 1603SOL    HW216443   1.851   0.368  15.827  0.3862  0.7706 -0.7624
 1604SOL     OW16444   4.697   3.508   6.755  0.0062  0.5081 -0.1844
 1604SOL    HW116445   0.039   3.539   6.801  0.3280 -1.0856  0.3362
 1604SOL    HW216446   4.686   3.418   6.785  0.1077  0.3688 -0.5623
 1605SOL     OW16447   0.846   2.516   1.050 -0.3280 -0.1589  0.0126
 1605SOL    HW116448   0.788   2.440   1.047  0.5614 -0.7490 -2.5244
 1605SOL    HW216449   0.869   2.536   0.959  0.4307  1.3118  0.5245
 1606SOL     OW16450   1.007   0.596   5.817  0.1484  0.1808 -0.0241
 1606SOL    HW116451   0.945   0.568   5.884 -0.9909  2.7210 -0.0367
 1606SOL    HW216452   0.970   0.673   5.773  2.3329  0.1897 -1.8328
 1607SOL     OW16453   2.812   0.436   1.820  0.4946  0.3617 -0.4090
 1607SOL    HW116454   2.896   0.444   1.773  1.1863 -1.1887  0.5826
 1607SOL    HW216455   2.833   0.373   1.889  0.5777 -1.3063 -1.9553
 1608SOL     OW16456   3.722   0.464   2.155  0.4334 -0.0529 -0.2085
 1608SOL    HW116457   3.810   0.484   2.126  0.9671 -0.2300  1.2884
 1608SOL    HW216458   3.664   0.518   2.101  0.4483  2.5259  2.3779
 1609SOL     OW16459   3.550   2.735  14.842  0.5585  0.1469  0.2286
 1609SOL    HW116460   3.638   2.726  14.878  1.3497  0.9485 -1.5302
 1609SOL    HW216461   3.569   2.741  14.748 -2.1505 -0.5095 -0.3744
 1610SOL     OW16462   3.225   2.313   4.232 -0.2981 -0.8794 -0.1637
 1610SOL    HW116463   3.287   2.386   4.225  0.2876 -1.6755 -3.0375
 1610SOL    HW216464   3.182   2.336   4.149  0.1723 -1.7012 -0.6306
 1611SOL     OW16465   2.516   2.617   8.925  0.3796 -0.0971 -0.2087
 1611SOL    HW116466   2.609   2.635   8.910 -0.0511  2.1678 -0.1136
 1611SOL    HW216467   2.474   2.676   8.863 -1.1270 -0.5342  0.3979
 1612SOL     OW16468   3.551   3.652  16.774  0.0693 -0.1205  0.1082
 1612SOL    HW116469   3.634   3.609  16.791 -0.0473 -0.6641 -0.6982
 1612SOL    HW216470   3.520   3.587  16.711  1.7206 -1.3623  0.5673
 1613SOL     OW16471   0.576   3.926   5.287  0.7263 -0.2933  0.3284
 1613SOL    HW116472   0.628   3.932   5.207  1.0783 -2.6366  0.3716
 1613SOL    HW216473   0.502   3.978   5.255  0.2502  0.1072  2.0908
 1614SOL     OW16474   1.741   1.157   9.342  0.2488  0.4647  0.2995
 1614SOL    HW116475   1.799   1.218   9.387  1.4492 -2.5111  2.7770
 1614SOL    HW216476   1.793   1.121   9.271 -0.8434  0.4350 -0.4807
 1615SOL     OW16477   1.555   2.313  10.499  0.3406  0.0653 -0.5011
 1615SOL    HW116478   1.526   2.249  10.563 -0.1113 -0.5538 -1.3211
 1615SOL    HW216479   1.595   2.377  10.558  1.9719 -1.0589 -0.3660
 1616SOL     OW16480   1.200   1.460   5.466 -0.4923  0.1717 -0.2348
 1616SOL    HW116481   1.168   1.384   5.516 -4.3432  1.5217 -0.6814
 1616SOL    HW216482   1.144   1.532   5.493  0.6278  0.2734  1.8524
 1617SOL     OW16483   0.345   1.285   2.254 -0.2614 -0.0527  0.1676
 1617SOL    HW116484   0.369   1.377   2.259 -1.1828  0.3085 -1.8553
 1617SOL    HW216485   0.291   1.280   2.175 -1.1695  0.4770  0.7569
 1618SOL     OW16486   4.257   1.017  10.367 -0.6772  0.4768 -0.1244
 1618SOL    HW116487   4.298   0.978  10.290  1.4166  0.6665  0.8711
 1618SOL    HW216488   4.320   1.079  10.406 -1.1279  1.4519 -0.9558
 1619SOL     OW16489   4.300   0.615   7.447 -0.5763  0.2160  0.4881
 1619SOL    HW116490   4.252   0.653   7.521 -1.4075  1.4559 -0.6840
 1619SOL    HW216491   4.253   0.648   7.371  0.6407  1.8537  0.4428
 1620SOL     OW16492   0.391   1.007   8.498  0.5535  0.3512 -0.1010
 1620SOL    HW116493   0.336   1.001   8.576 -0.5314 -1.6582 -1.0123
 1620SOL    HW216494   0.343   0.971   8.423 -0.7930  1.3964  0.2518
 1621SOL     OW16495   1.277   1.951  16.712  0.2331  0.1210  0.8351
 1621SOL    HW116496   1.343   2.020  16.721 -2.7448  2.7057  2.6240
 1621SOL    HW216497   1.290   1.925  16.620  0.6959  0.9507  0.6667
 1622SOL     OW16498   1.321   4.101   9.002  0.1206  0.0977 -0.4613
 1622SOL    HW116499   1.380   4.026   9.001  0.8791  0.7070 -0.8098
 1622SOL    HW216500   1.380   4.159   9.051  1.2051  0.8925 -2.7152
 1623SOL     OW16501   0.307   1.856   4.752  0.0684  0.6477 -0.2866
 1623SOL    HW116502   0.226   1.879   4.708 -2.8484 -3.0683  3.0861
 1623SOL    HW216503   0.273   1.870   4.841  0.6216  1.9140 -0.2767
 1624SOL     OW16504   4.010   1.405  15.374 -0.4841 -0.0208 -0.0937
 1624SOL    HW116505   4.068   1.335  15.404  2.1020  1.4699 -1.6113
 1624SOL    HW216506   4.048   1.489  15.403 -0.6880  0.1923 -0.4432
 1625SOL     OW16507   1.959   1.068  16.769  0.6769 -0.1669 -0.2669
 1625SOL    HW116508   1.971   1.163  16.765  1.8113 -0.2443  0.9131
 1625SOL    HW216509   2.052   1.043  16.774  0.9048  0.4928 -1.3385
 1626SOL     OW16510   3.980   3.360   5.066 -0.0109 -0.2713  0.3757
 1626SOL    HW116511   4.061   3.386   5.022 -0.8986  3.5243  0.9850
 1626SOL    HW216512   3.928   3.358   4.987 -1.5103 -0.8393  1.3814
 1627SOL     OW16513   1.283   0.814   0.589  0.1894  0.4968  0.0321
 1627SOL    HW116514   1.370   0.781   0.571 -0.5484 -0.9049 -0.9770
 1627SOL    HW216515   1.274   0.885   0.525  2.0070  0.9019  0.2442
 1628SOL     OW16516   3.465   2.852   5.865  0.0019 -0.8477  0.3751
 1628SOL    HW116517   3.492   2.763   5.888 -0.8686 -1.3113 -0.3959
 1628SOL    HW216518   3.379   2.844   5.908 -1.2448 -1.2681 -2.2325
 1629SOL     OW16519   1.124   2.612  14.561  0.3972 -0.5279 -0.4007
 1629SOL    HW116520   1.035   2.637  14.538  1.0664  2.8912  0.8354
 1629SOL    HW216521   1.162   2.626  14.474 -0.6126 -0.6447 -0.8610
 1630SOL     OW16522   2.542   3.959  10.147 -0.5417  0.1723 -0.1469
 1630SOL    HW116523   2.554   4.002  10.231  0.5372  3.0475 -1.7895
 1630SOL    HW216524   2.630   3.921  10.139 -0.4164  0.2361  1.0141
 1631SOL     OW16525   3.676   1.952   3.234  0.0333 -0.4202 -0.5229
 1631SOL    HW116526   3.771   1.942   3.240  0.2399 -0.0359 -3.0059
 1631SOL    HW216527   3.664   1.959   3.139 -1.6834  1.9354 -0.1296
 1632SOL     OW16528   1.365   3.106   8.221 -0.2823 -0.2734 -0.3462
 1632SOL    HW116529   1.280   3.088   8.181  0.9052 -0.1109 -2.9972
 1632SOL    HW216530   1.379   3.199   8.237 -2.9116  0.2227 -0.9179
 1633SOL     OW16531   3.618   2.834   6.247 -0.2986  0.0268  0.2587
 1633SOL    HW116532   3.655   2.910   6.203  1.8374 -1.0623  0.1913
 1633SOL    HW216533   3.525   2.853   6.262 -0.1372  0.2296  0.9966
 1634SOL     OW16534   1.992   3.810  13.586  0.1228  0.7580 -0.1468
 1634SOL    HW116535   1.971   3.850  13.670  0.3897  0.5829  0.0043
 1634SOL    HW216536   2.086   3.794  13.596  0.4148  0.6593 -2.9912
 1635SOL     OW16537   4.583   2.590   6.321 -0.3361 -0.1741 -0.2441
 1635SOL    HW116538   4.506   2.539   6.299 -0.0312 -0.7728  0.0551
 1635SOL    HW216539   4.540   2.675   6.321 -2.2801 -1.1574 -2.1842
 1636SOL     OW16540   4.684   0.158  12.661 -0.2678  0.1848  0.0562
 1636SOL    HW116541   4.599   0.200  12.676  1.1151  2.0456  2.6923
 1636SOL    HW216542   4.737   0.217  12.715 -0.7839 -1.3187  2.1779
 1637SOL     OW16543   2.792   1.225   9.101 -0.4693 -0.2321  0.0833
 1637SOL    HW116544   2.855   1.295   9.085  0.6326 -0.9651  1.1999
 1637SOL    HW216545   2.716   1.247   9.048 -0.9032 -0.6008  0.5546
 1638SOL     OW16546   4.186   1.772   3.748  0.0314  0.4021  0.1872
 1638SOL    HW116547   4.115   1.709   3.735 -0.8609  1.3093  0.6347
 1638SOL    HW216548   4.249   1.746   3.815  1.0628 -0.1583 -0.9903
 1639SOL     OW16549   3.169   1.799   3.561  0.4305  0.3218  0.0553
 1639SOL    HW116550   3.172   1.793   3.465 -2.7305 -0.2919 -0.0160
 1639SOL    HW216551   3.150   1.706   3.578  3.6876 -0.0444  1.6778
 1640SOL     OW16552   0.887   4.127   8.487 -0.0516 -0.2560  0.5192
 1640SOL    HW116553   0.882   4.206   8.433 -1.2766 -1.0297 -0.5179
 1640SOL    HW216554   0.834   4.147   8.563 -2.0779 -0.3073 -0.8686
 1641SOL     OW16555   0.695   0.301  16.386 -0.6179  0.1812 -0.2896
 1641SOL    HW116556   0.697   0.397  16.392  1.3226  0.2906 -2.7208
 1641SOL    HW216557   0.749   0.272  16.460 -2.0874  0.0256  0.7106
 1642SOL     OW16558   0.401   2.638  16.734 -0.0626 -0.0983  0.2926
 1642SOL    HW116559   0.420   2.731  16.746 -1.7657  0.3612 -0.5389
 1642SOL    HW216560   0.476   2.617  16.678  0.3387  0.5311  0.5929
 1643SOL     OW16561   1.467   1.750   7.428 -0.4940  0.0075  0.5074
 1643SOL    HW116562   1.431   1.834   7.398 -0.1693 -0.7956 -2.1836
 1643SOL    HW216563   1.503   1.727   7.342  1.1274  1.4594  0.8166
 1644SOL     OW16564   0.573   0.647   3.417  0.0718  0.4602 -0.2470
 1644SOL    HW116565   0.515   0.658   3.342  0.3060 -2.3861 -0.8402
 1644SOL    HW216566   0.601   0.738   3.431  0.0347  0.7735 -2.1674
 1645SOL     OW16567   0.925   2.289   0.527 -0.7044  0.0626  0.8391
 1645SOL    HW116568   0.906   2.223   0.460 -1.4738  1.0790  0.0549
 1645SOL    HW216569   0.920   2.367   0.471  0.3104 -0.4327  0.0538
 1646SOL     OW16570   2.439   4.241   7.180  0.3145  0.4261  0.1107
 1646SOL    HW116571   2.409   4.305   7.244 -0.5262 -0.2937  0.4251
 1646SOL    HW216572   2.413   4.164   7.229 -0.1064  0.5691  0.1102
 1647SOL     OW16573   3.733   2.902   8.512 -0.2439 -0.3965  0.6080
 1647SOL    HW116574   3.647   2.936   8.539 -0.7068 -0.6700 -0.5031
 1647SOL    HW216575   3.721   2.902   8.417 -2.8751 -0.1765  0.9305
 1648SOL     OW16576   0.809   0.054   7.433 -0.8011 -0.3624  0.3260
 1648SOL    HW116577   0.808   4.696   7.445  0.3569 -0.0991  2.5744
 1648SOL    HW216578   0.713   0.060   7.432 -0.8699 -0.8794  3.1522
 1649SOL     OW16579   2.238   3.757   2.266  0.2887  0.7301 -0.1156
 1649SOL    HW116580   2.154   3.802   2.258 -0.0272 -0.1201 -1.6540
 1649SOL    HW216581   2.273   3.818   2.331 -0.1717 -1.0538  1.8198
 1650SOL     OW16582   2.242   3.025   8.596 -0.0961 -0.8866 -0.3808
 1650SOL    HW116583   2.255   2.937   8.560 -0.3398 -1.3275  0.6347
 1650SOL    HW216584   2.204   3.066   8.518 -0.3856 -0.1466  0.1540
 1651SOL     OW16585   0.503   2.931  16.783  0.0510  0.8525  0.3575
 1651SOL    HW116586   0.593   2.899  16.776  0.5674  2.3895  0.0314
 1651SOL    HW216587   0.492   3.008  16.727 -1.4397  1.5171  1.5796
 1652SOL     OW16588   3.839   1.153  10.300  0.5992 -0.4793 -0.2789
 1652SOL    HW116589   3.882   1.070  10.317  1.2310 -0.0987 -0.0397
 1652SOL    HW216590   3.908   1.214  10.274  0.8648 -0.9393 -0.6526
 1653SOL     OW16591   1.501   3.846   5.063  0.1922  0.0259 -0.6745
 1653SOL    HW116592   1.567   3.816   5.000  0.9109  0.6389 -0.2198
 1653SOL    HW216593   1.424   3.801   5.029 -0.1214  0.4206 -0.4830
 1654SOL     OW16594   3.823   1.521   0.524  0.0402 -0.3614  0.2679
 1654SOL    HW116595   3.769   1.461   0.473  1.8129 -1.6529 -0.0829
 1654SOL    HW216596   3.761   1.564   0.584  1.6509  1.8763  0.3500
 1655SOL     OW16597   2.156   1.644   5.224 -0.1609 -0.3843 -0.1592
 1655SOL    HW116598   2.198   1.607   5.146 -0.7071 -1.1485 -0.0907
 1655SOL    HW216599   2.131   1.576   5.287 -3.8297  0.8793 -0.2755
 1656SOL     OW16600   2.288   3.518   5.180 -0.9065  0.3993  0.0922
 1656SOL    HW116601   2.245   3.530   5.096  1.9806 -0.8118 -1.5536
 1656SOL    HW216602   2.354   3.587   5.188 -0.2202 -0.4783  2.0288
 1657SOL     OW16603   3.522   2.355   3.002  0.4169  0.4942 -0.2549
 1657SOL    HW116604   3.447   2.413   2.990 -0.9583 -1.6005 -1.7557
 1657SOL    HW216605   3.585   2.424   3.022 -1.0720  1.9377 -0.5704
 1658SOL     OW16606   1.812   4.333   3.156  0.1702  0.1688  0.0417
 1658SOL    HW116607   1.828   4.409   3.101  1.2877  0.7305  1.1391
 1658SOL    HW216608   1.717   4.346   3.162  0.1945 -0.3600  1.5915
 1659SOL     OW16609   1.813   4.599  17.461 -0.3044  0.0216  0.7417
 1659SOL    HW116610   1.896   4.639  17.435 -0.9209  2.6256  2.8003
 1659SOL    HW216611   1.758   4.665  17.418 -0.0468 -0.8942 -1.0107
 1660SOL     OW16612   3.052   2.284   2.049  0.3215 -0.7565  0.1372
 1660SOL    HW116613   3.064   2.349   2.118 -0.8557  1.1802 -1.4708
 1660SOL    HW216614   2.986   2.240   2.103  1.9509 -1.2720  1.6962
 1661SOL     OW16615   2.585   4.552   3.574  0.9478 -0.5891  0.3519
 1661SOL    HW116616   2.498   4.520   3.550  1.4848  0.7640 -3.3734
 1661SOL    HW216617   2.646   4.489   3.536  0.1354 -2.3648  1.9644
 1662SOL     OW16618   1.427   2.498   6.754 -0.7915  0.2199  0.1762
 1662SOL    HW116619   1.431   2.550   6.834 -1.0480  1.4035 -0.5698
 1662SOL    HW216620   1.448   2.558   6.682  2.5790 -2.1000 -0.7893
 1663SOL     OW16621   3.099   3.252   3.373  0.0545  0.0264 -0.1135
 1663SOL    HW116622   3.091   3.183   3.307 -0.0730  0.7945 -0.9027
 1663SOL    HW216623   3.136   3.321   3.317  0.9119  0.1869  0.6439
 1664SOL     OW16624   1.132   0.270   4.857  0.0767  0.2536 -0.0725
 1664SOL    HW116625   1.189   0.314   4.920 -0.3451 -0.8016  1.0492
 1664SOL    HW216626   1.083   0.208   4.911  0.0386 -1.8652 -2.5086
 1665SOL     OW16627   0.056   3.201   8.464 -0.2239 -0.5641 -0.2264
 1665SOL    HW116628   0.066   3.178   8.372  1.8261  1.7347 -0.5570
 1665SOL    HW216629   0.091   3.123   8.507  0.3272 -0.4813 -0.5333
 1666SOL     OW16630   1.371   4.638  13.716  0.3695  0.3201  0.2868
 1666SOL    HW116631   1.359   4.720  13.763 -1.3414 -0.5109  1.2980
 1666SOL    HW216632   1.440   4.655  13.652  1.0722  0.5720  1.1008
 1667SOL     OW16633   0.783   4.184   7.219  0.2772 -0.3778  0.1077
 1667SOL    HW116634   0.766   4.158   7.310  2.0995  1.4746  1.0015
 1667SOL    HW216635   0.705   4.236   7.200  0.1710 -0.9709 -1.0581
 1668SOL     OW16636   4.107   1.065   4.403 -0.3627 -0.3924 -0.2914
 1668SOL    HW116637   4.108   1.157   4.375 -1.0666 -0.6791 -1.2413
 1668SOL    HW216638   4.181   1.019   4.363 -0.2021  0.2511 -0.7492
 1669SOL     OW16639   2.605   4.531  16.112 -0.3386  0.3716 -0.1340
 1669SOL    HW116640   2.652   4.597  16.062  0.9224  2.3259  3.6608
 1669SOL    HW216641   2.514   4.554  16.092 -0.5293 -1.5834 -1.4936
 1670SOL     OW16642   3.124   3.794   7.311  0.0679 -0.1575  0.3140
 1670SOL    HW116643   3.190   3.770   7.245  1.6217  1.1358  1.4006
 1670SOL    HW216644   3.083   3.873   7.275  1.8424  0.6081 -0.0199
 1671SOL     OW16645   3.835   0.175   3.583 -0.3410  0.0085 -0.0043
 1671SOL    HW116646   3.891   0.153   3.657 -0.4289 -0.8434 -0.1835
 1671SOL    HW216647   3.758   0.174   3.639 -0.5861 -1.4424 -0.3678
 1672SOL     OW16648   0.924   4.686   2.542 -0.1265 -0.2331  0.2782
 1672SOL    HW116649   0.983   4.723   2.477  0.2959  0.2577  0.9426
 1672SOL    HW216650   0.854   4.655   2.484 -0.6999 -0.9977  1.3654
 1673SOL     OW16651   4.456   4.201   7.787 -0.1527  0.1955  0.6178
 1673SOL    HW116652   4.536   4.237   7.748 -0.1348 -1.6143 -1.0011
 1673SOL    HW216653   4.503   4.155   7.858 -0.1316 -0.0672  0.4322
 1674SOL     OW16654   1.013   0.270  14.943 -1.1361  0.3939 -0.2500
 1674SOL    HW116655   1.099   0.269  14.900  0.0777  1.7093  2.1647
 1674SOL    HW216656   0.968   0.314  14.871 -2.2421 -2.7072 -1.4571
 1675SOL     OW16657   3.852   1.578   6.637 -0.6124 -0.1728 -0.1259
 1675SOL    HW116658   3.945   1.582   6.658 -0.2842 -1.3919 -1.3749
 1675SOL    HW216659   3.854   1.654   6.578 -0.9811  0.2748  0.4359
 1676SOL     OW16660   1.319   3.375   3.560 -0.1132  0.1639 -0.0311
 1676SOL    HW116661   1.271   3.341   3.636  1.1430 -0.6999  0.3711
 1676SOL    HW216662   1.412   3.373   3.582  0.7131 -0.7590 -3.5538
 1677SOL     OW16663   4.717   4.516   5.174 -0.3377  0.8339 -0.1897
 1677SOL    HW116664   0.002   4.594   5.224  0.7920  1.2729 -1.3596
 1677SOL    HW216665   4.624   4.535   5.157  0.2560  2.0850 -2.0605
 1678SOL     OW16666   1.959   3.419   0.309 -0.6011  0.0947  0.2981
 1678SOL    HW116667   2.010   3.395   0.386 -2.5473  1.0106  1.8626
 1678SOL    HW216668   2.024   3.391   0.245 -1.5361 -1.2502 -0.0792
 1679SOL     OW16669   1.568   2.888   8.604  1.0569 -0.4839 -0.0720
 1679SOL    HW116670   1.541   2.851   8.688  1.1408  2.3321  1.1907
 1679SOL    HW216671   1.502   2.957   8.603  0.8799 -0.6055  2.0033
 1680SOL     OW16672   4.603   1.076   7.191 -0.2853  0.3974  0.1208
 1680SOL    HW116673   4.606   0.980   7.192  0.5842  0.4287  1.5002
 1680SOL    HW216674   4.529   1.089   7.250  0.5967  1.5712  0.9746
 1681SOL     OW16675   1.298   2.039   6.270 -0.0633 -0.2381  0.2495
 1681SOL    HW116676   1.319   2.118   6.319 -0.1735  0.7285 -1.2788
 1681SOL    HW216677   1.381   2.022   6.227 -1.5946 -1.8641 -2.0240
 1682SOL     OW16678   2.181   3.205   4.187 -0.1381 -0.2750 -0.0326
 1682SOL    HW116679   2.106   3.209   4.246 -0.4047 -1.4525 -0.2985
 1682SOL    HW216680   2.235   3.142   4.234 -0.2749 -1.1029 -0.9995
 1683SOL     OW16681   3.856   4.485  17.094  0.2164  0.1942 -1.0107
 1683SOL    HW116682   3.822   4.559  17.145 -0.6921 -0.1993 -1.0480
 1683SOL    HW216683   3.797   4.494  17.019  0.5101  2.0125 -1.0402
 1684SOL     OW16684   0.382   3.934  10.258 -0.2192  0.0268 -0.4021
 1684SOL    HW116685   0.430   3.862  10.300 -0.5384  0.1265  0.1431
 1684SOL    HW216686   0.308   3.937  10.318 -1.0913  1.5771 -1.5822
 1685SOL     OW16687   4.095   0.724   3.697 -0.2059 -0.6429 -0.5553
 1685SOL    HW116688   4.081   0.639   3.654  1.7680 -0.3253 -1.8531
 1685SOL    HW216689   4.062   0.784   3.631 -0.8090  0.1267  0.4588
 1686SOL     OW16690   2.117   2.829  14.317 -0.1898  0.0878 -0.2967
 1686SOL    HW116691   2.107   2.735  14.298  0.1794  0.2783 -1.4671
 1686SOL    HW216692   2.185   2.862  14.259  1.5995  0.5521  2.1008
 1687SOL     OW16693   3.946   3.618   2.957  0.0874  0.1054  0.3137
 1687SOL    HW116694   4.027   3.568   2.964  0.7417  1.1429  0.1174
 1687SOL    HW216695   3.910   3.590   2.873  1.3522  2.1900 -0.9197
 1688SOL     OW16696   4.158   2.694   2.720 -0.4659  0.5161 -0.0741
 1688SOL    HW116697   4.216   2.634   2.673 -2.0099 -1.4298  0.5475
 1688SOL    HW216698   4.128   2.640   2.792 -3.2149  2.2618  0.0756
 1689SOL     OW16699   4.207   1.299   8.607  0.3420 -0.8176 -0.3030
 1689SOL    HW116700   4.229   1.331   8.695 -0.6242 -0.3389 -0.2346
 1689SOL    HW216701   4.224   1.378   8.555  1.3071 -0.3980  0.6484
 1690SOL     OW16702   4.491   1.255   5.666 -0.0395 -0.5367 -0.0753
 1690SOL    HW116703   4.528   1.307   5.737  0.1693 -1.5487  0.5554
 1690SOL    HW216704   4.547   1.177   5.672  0.3147 -0.4765 -2.6528
 1691SOL     OW16705   4.321   4.575   7.943  0.0889  0.0267 -0.5842
 1691SOL    HW116706   4.358   4.569   8.031  0.8602 -0.6459 -0.9538
 1691SOL    HW216707   4.399   4.597   7.892 -0.1882 -0.5573 -1.2633
 1692SOL     OW16708   4.578   3.087   4.839  0.1139  0.5333  0.5602
 1692SOL    HW116709   4.585   2.991   4.839 -3.0581  0.2869  0.8030
 1692SOL    HW216710   4.494   3.100   4.882 -0.5845 -1.3797 -0.2116
 1693SOL     OW16711   0.442   3.847  15.299  0.5708  0.0135  0.0110
 1693SOL    HW116712   0.412   3.765  15.339  4.2094 -1.4817 -0.3733
 1693SOL    HW216713   0.531   3.821  15.276  1.0297  0.6005  1.1418
 1694SOL     OW16714   4.195   0.210   2.462 -0.1564  0.1215 -0.0181
 1694SOL    HW116715   4.149   0.227   2.545 -0.2480  1.2478 -0.2981
 1694SOL    HW216716   4.205   0.115   2.461 -1.3873 -0.0077 -0.4775
 1695SOL     OW16717   0.906   2.809   8.996 -0.3399  0.0830 -0.7456
 1695SOL    HW116718   0.909   2.845   8.908 -0.1606  1.1091 -0.3131
 1695SOL    HW216719   0.813   2.796   9.015  0.1221 -1.4260  0.5090
 1696SOL     OW16720   1.580   2.285   3.486  0.8582 -0.1034  0.1633
 1696SOL    HW116721   1.621   2.207   3.524  1.2670  1.3689  2.7215
 1696SOL    HW216722   1.604   2.280   3.393 -1.3072 -1.7433 -0.2925
 1697SOL     OW16723   2.755   2.290   5.621  0.2991 -0.2592 -0.4700
 1697SOL    HW116724   2.716   2.369   5.582 -2.3534 -1.5184 -0.3920
 1697SOL    HW216725   2.690   2.270   5.689 -0.3404  1.1462 -0.6683
 1698SOL     OW16726   1.240   1.698   7.153 -0.4485 -0.7428  0.2098
 1698SOL    HW116727   1.306   1.630   7.169  0.4538  0.2457  0.6897
 1698SOL    HW216728   1.260   1.722   7.062  2.6907 -1.8906  0.5782
 1699SOL     OW16729   4.450   0.347   6.464 -0.1896  0.0088  0.0442
 1699SOL    HW116730   4.464   0.366   6.557  0.4639  1.1594 -0.2871
 1699SOL    HW216731   4.423   0.255   6.468  0.6610 -0.2207  0.5365
 1700SOL     OW16732   2.340   0.824  15.273 -0.2982  0.4978 -0.2403
 1700SOL    HW116733   2.280   0.752  15.252  0.3356  0.4503 -1.9081
 1700SOL    HW216734   2.426   0.786  15.256 -1.0647 -1.0839 -0.6368
 1701SOL     OW16735   1.285   0.217   2.745 -0.5057  0.1444 -0.3215
 1701SOL    HW116736   1.290   0.130   2.706 -2.3064  1.3067 -3.1421
 1701SOL    HW216737   1.340   0.268   2.685  0.2783 -0.4580 -0.1195
 1702SOL     OW16738   3.931   0.675   2.111 -0.2183  0.3097 -0.0431
 1702SOL    HW116739   3.859   0.735   2.094 -1.8402 -1.8818 -0.8520
 1702SOL    HW216740   3.946   0.685   2.206 -1.0720  0.1107  0.1081
 1703SOL     OW16741   2.429   0.963   8.418 -0.3941 -0.2049  0.4653
 1703SOL    HW116742   2.503   0.963   8.479  1.6711 -0.0276 -2.0041
 1703SOL    HW216743   2.473   0.944   8.335  0.6366 -0.9866  1.1961
 1704SOL     OW16744   4.432   3.093   1.223  0.3020  0.2168  0.3003
 1704SOL    HW116745   4.492   3.019   1.233 -0.9335 -0.6561  1.1929
 1704SOL    HW216746   4.494   3.162   1.246  1.6957 -1.4623  1.6049
 1705SOL     OW16747   0.199   1.658   7.254  0.1610  0.2332  0.1371
 1705SOL    HW116748   0.152   1.645   7.337  0.3763 -3.3593 -0.3284
 1705SOL    HW216749   0.152   1.591   7.205  1.2831 -0.7039  0.3452
 1706SOL     OW16750   2.031   3.416   7.128 -0.2330  0.2369 -0.3034
 1706SOL    HW116751   2.049   3.363   7.050  2.3795  0.0963  0.3923
 1706SOL    HW216752   2.110   3.470   7.124  0.5615 -0.8828  0.3369
 1707SOL     OW16753   2.253   3.245   7.667  0.2933 -0.8197  0.1173
 1707SOL    HW116754   2.212   3.177   7.721 -0.3993 -0.5909 -0.1242
 1707SOL    HW216755   2.336   3.197   7.661  0.3072 -0.5028 -2.2651
 1708SOL     OW16756   3.530   0.394   7.206 -0.1768  0.1566 -0.4067
 1708SOL    HW116757   3.475   0.366   7.280 -1.3051  0.0699 -1.2903
 1708SOL    HW216758   3.489   0.335   7.144 -0.7490 -1.1634  1.2149
 1709SOL     OW16759   0.917   1.309   8.945 -0.0505  0.1788 -0.1350
 1709SOL    HW116760   0.986   1.323   8.880  0.6452 -0.7909  0.3906
 1709SOL    HW216761   0.835   1.334   8.903 -0.0108  0.8208  0.1660
 1710SOL     OW16762   4.656   1.212   3.709  0.3986 -0.0870 -0.5989
 1710SOL    HW116763   4.698   1.298   3.704 -2.4392  1.5038  2.5627
 1710SOL    HW216764   4.565   1.238   3.721  0.6149  0.1186  0.5750
 1711SOL     OW16765   1.572   3.946   3.958 -0.0439  0.4804 -0.1636
 1711SOL    HW116766   1.588   3.989   4.042  2.3328  0.9612 -0.8690
 1711SOL    HW216767   1.519   4.018   3.924  0.6732  0.7047 -0.8067
 1712SOL     OW16768   3.661   4.062   4.523  0.8157 -0.2224  0.0416
 1712SOL    HW116769   3.668   4.123   4.450 -1.3035  0.3562  0.3132
 1712SOL    HW216770   3.648   3.981   4.474  1.2108 -0.0192 -0.3937
 1713SOL     OW16771   4.075   2.862   2.209  0.2914 -0.0830  0.5478
 1713SOL    HW116772   4.070   2.846   2.303  0.9147  2.3423  1.0046
 1713SOL    HW216773   3.992   2.910   2.205  0.8405  0.8625  0.4955
 1714SOL     OW16774   1.805   3.768   5.361  0.0429 -0.4432  0.2256
 1714SOL    HW116775   1.849   3.732   5.284  2.4798  0.5990  1.1127
 1714SOL    HW216776   1.743   3.701   5.389 -0.5312 -0.5878 -1.3880
 1715SOL     OW16777   4.001   1.435   9.087  0.4263 -0.1287  0.1431
 1715SOL    HW116778   3.909   1.409   9.088 -0.1727  1.9536 -0.9828
 1715SOL    HW216779   4.037   1.380   9.156 -0.4386 -2.6653 -1.4278
 1716SOL     OW16780   1.807   1.333   6.476 -0.2098  0.0747 -0.2106
 1716SOL    HW116781   1.738   1.355   6.538  1.1934  0.6822  1.1444
 1716SOL    HW216782   1.764   1.343   6.391 -0.7147  0.3927  0.0861
 1717SOL     OW16783   4.543   1.046   6.607 -0.3178 -0.5228 -0.0095
 1717SOL    HW116784   4.539   0.980   6.538 -0.0575  0.7475 -1.2397
 1717SOL    HW216785   4.451   1.071   6.610  0.1036  1.0414 -0.1578
 1718SOL     OW16786   0.734   2.719   1.240  0.4114 -0.0520  0.7060
 1718SOL    HW116787   0.795   2.791   1.225 -0.7461  0.8380  0.2327
 1718SOL    HW216788   0.765   2.648   1.184  2.0651  1.2741 -0.0698
 1719SOL     OW16789   2.360   2.849   3.254 -0.7931  0.0364 -0.0143
 1719SOL    HW116790   2.356   2.939   3.222 -1.2933  1.1179  3.0881
 1719SOL    HW216791   2.359   2.857   3.349 -2.2771  2.4239 -0.2276
 1720SOL     OW16792   3.963   3.368  10.017  0.2955 -0.0372 -0.2734
 1720SOL    HW116793   4.002   3.429  10.079 -2.1788  1.5884 -0.3375
 1720SOL    HW216794   3.875   3.363  10.053 -0.0381 -1.5412 -1.3138
 1721SOL     OW16795   0.341   2.613  10.919  0.3921 -0.3424  0.2493
 1721SOL    HW116796   0.355   2.701  10.954  0.6872  0.2483 -1.3711
 1721SOL    HW216797   0.364   2.564  10.999 -1.9920  0.3651  1.3645
 1722SOL     OW16798   2.191   1.250   7.717 -0.0396  0.0452 -0.5115
 1722SOL    HW116799   2.114   1.254   7.774  2.0033  1.9112  2.1579
 1722SOL    HW216800   2.198   1.344   7.697  0.4433  0.7921  3.0730
 1723SOL     OW16801   3.881   4.151   7.487 -0.0538  0.1444  0.8205
 1723SOL    HW116802   3.920   4.210   7.422  0.4715  0.3729  1.3396
 1723SOL    HW216803   3.902   4.064   7.453  0.1399  0.6436 -0.3597
 1724SOL     OW16804   0.503   2.575  12.595 -0.3327 -0.1988 -0.4461
 1724SOL    HW116805   0.469   2.486  12.597  0.1636 -0.3534  0.7957
 1724SOL    HW216806   0.440   2.617  12.654  1.5893 -0.1126  1.5364
 1725SOL     OW16807   0.609   0.306   8.658  0.6380 -0.8547 -0.0572
 1725SOL    HW116808   0.692   0.298   8.704 -0.0568 -1.9013  1.0183
 1725SOL    HW216809   0.604   0.401   8.645 -1.6664 -0.8005  1.1468
 1726SOL     OW16810   0.512   2.185   6.703  0.1101 -0.3176 -0.3326
 1726SOL    HW116811   0.567   2.220   6.772  1.8057  1.7472 -2.7407
 1726SOL    HW216812   0.553   2.233   6.631 -0.8451 -1.0234 -1.3451
 1727SOL     OW16813   0.909   3.874   2.413 -0.2231 -0.4364  0.1435
 1727SOL    HW116814   0.997   3.894   2.443 -0.2557  0.5609 -0.4332
 1727SOL    HW216815   0.863   3.887   2.495  0.9128 -0.8619  0.8428
 1728SOL     OW16816   1.847   0.865  17.665  0.4608 -0.2454  0.8567
 1728SOL    HW116817   1.805   0.875   0.004 -1.0489  1.4906 -0.1078
 1728SOL    HW216818   1.856   0.959  17.648 -0.5290 -0.0203  1.6032
 1729SOL     OW16819   2.898   2.001   8.810 -0.8909  0.2002  0.4933
 1729SOL    HW116820   2.962   1.977   8.743 -1.7592  1.3959 -0.7738
 1729SOL    HW216821   2.957   2.040   8.874 -2.0731  1.8560  0.5679
 1730SOL     OW16822   4.448   0.772   4.494 -0.4332  0.3396 -0.2456
 1730SOL    HW116823   4.405   0.767   4.409 -1.8455 -1.0170  0.5374
 1730SOL    HW216824   4.443   0.864   4.520  0.4604 -0.3560  2.3853
 1731SOL     OW16825   0.609   4.013   6.774 -0.1515 -0.4186  0.7548
 1731SOL    HW116826   0.662   3.994   6.852  0.2988  1.7767  0.9719
 1731SOL    HW216827   0.518   3.992   6.797  0.2172 -0.5364  2.0987
 1732SOL     OW16828   1.526   3.793  14.560 -0.6768 -0.0649 -0.4358
 1732SOL    HW116829   1.610   3.762  14.526 -1.2559 -0.1406 -1.7923
 1732SOL    HW216830   1.474   3.714  14.574  0.4430 -0.5078  1.2869
 1733SOL     OW16831   2.903   4.192   3.084 -0.1066  0.2339 -0.0964
 1733SOL    HW116832   2.819   4.170   3.043 -0.1763 -1.6750  1.0844
 1733SOL    HW216833   2.912   4.129   3.155  1.2242  1.3355  0.7071
 1734SOL     OW16834   0.977   4.685   0.858 -0.4651  0.3428 -0.5500
 1734SOL    HW116835   0.960   4.689   0.764 -0.2985  0.7963 -0.5640
 1734SOL    HW216836   0.939   0.032   0.884  1.3243  0.7416  0.8251
 1735SOL     OW16837   0.267   0.067   1.363 -0.0569 -0.1653 -0.3367
 1735SOL    HW116838   0.331   0.110   1.305  0.0827  0.9971  0.6877
 1735SOL    HW216839   0.191   0.125   1.360 -1.0066 -1.2163  3.6085
 1736SOL     OW16840   0.046   4.133   8.530  0.2943  0.1118  0.0534
 1736SOL    HW116841   0.116   4.179   8.484 -0.3934 -1.0311 -2.1086
 1736SOL    HW216842   0.097   4.073   8.583 -0.8609 -0.4030  0.5908
 1737SOL     OW16843   0.962   1.073   4.896  0.5788 -0.3827 -0.3167
 1737SOL    HW116844   1.011   1.040   4.820 -0.8197  0.3700 -1.5294
 1737SOL    HW216845   1.037   1.078   4.956 -0.7706 -3.7084  1.6357
 1738SOL     OW16846   2.762   3.402   6.253 -0.0417 -0.1369 -0.2090
 1738SOL    HW116847   2.713   3.365   6.327  3.9405 -0.9671  1.9726
 1738SOL    HW216848   2.730   3.354   6.176 -0.4056 -0.8214  0.3670
 1739SOL     OW16849   0.407   2.806   7.968  0.3940 -0.5861 -0.3959
 1739SOL    HW116850   0.460   2.727   7.952  1.1231 -0.4629  1.4937
 1739SOL    HW216851   0.320   2.770   7.952 -1.8325  4.1277  1.2352
 1740SOL     OW16852   1.591   0.781   3.101 -0.2805  0.2213  0.2596
 1740SOL    HW116853   1.660   0.788   3.036 -0.7787  0.4067 -0.2440
 1740SOL    HW216854   1.551   0.868   3.094  0.5335  0.5287 -0.5120
 1741SOL     OW16855   2.730   0.138   6.069 -0.6185 -0.0224  0.1306
 1741SOL    HW116856   2.736   0.082   5.992  0.6975  2.8139 -1.8079
 1741SOL    HW216857   2.641   0.173   6.059 -0.0850  1.2064 -0.2716
 1742SOL     OW16858   0.074   3.997   3.816  0.0433 -0.2058 -0.9706
 1742SOL    HW116859   0.126   4.076   3.830 -0.0522 -0.1925 -0.6923
 1742SOL    HW216860   0.132   3.936   3.771 -0.2123 -0.9122 -0.3402
 1743SOL     OW16861   1.426   0.798   1.244  0.0468  0.0903 -0.2185
 1743SOL    HW116862   1.507   0.766   1.206  0.0529  0.0644 -0.1845
 1743SOL    HW216863   1.368   0.727   1.215 -1.0467  0.0843  1.9403
 1744SOL     OW16864   2.818   3.850   3.004 -0.1597 -0.3424  0.4389
 1744SOL    HW116865   2.762   3.927   2.992  0.1963 -0.0556  0.6009
 1744SOL    HW216866   2.783   3.784   2.945 -2.5481  0.8242  0.5758
 1745SOL     OW16867   0.621   1.164   4.443 -0.1681 -0.0881 -0.0174
 1745SOL    HW116868   0.551   1.110   4.479  0.0538 -0.2131  0.2257
 1745SOL    HW216869   0.688   1.096   4.435 -0.2856 -0.3612  1.3487
 1746SOL     OW16870   3.074   0.118   8.531  0.2315 -0.1948  0.3598
 1746SOL    HW116871   3.050   0.049   8.592  1.8372 -0.9114  0.1976
 1746SOL    HW216872   3.146   0.151   8.585  0.0192  0.1563  0.4229
 1747SOL     OW16873   0.849   4.031  11.498  0.1222  0.1230 -0.4064
 1747SOL    HW116874   0.917   3.974  11.534  0.4166 -0.0462 -1.2444
 1747SOL    HW216875   0.898   4.072  11.427  2.9061  2.1298  2.6807
 1748SOL     OW16876   0.506   3.080   7.434  0.2287 -0.0966 -0.2976
 1748SOL    HW116877   0.592   3.057   7.396 -0.0781 -2.5299  0.4712
 1748SOL    HW216878   0.536   3.118   7.516 -0.7573  1.8369 -0.8263
 1749SOL     OW16879   2.338   1.857   6.082 -0.5397  0.8319 -0.0976
 1749SOL    HW116880   2.307   1.904   6.160 -1.9620 -0.9765  0.4274
 1749SOL    HW216881   2.431   1.839   6.097 -0.4701  1.0231 -0.3090
 1750SOL     OW16882   2.962   1.927  16.522  0.5407  0.4155  0.7124
 1750SOL    HW116883   2.963   1.919  16.618  0.7827  1.4318  0.7953
 1750SOL    HW216884   2.882   1.978  16.512 -0.7573 -1.9616 -0.9164
 1751SOL     OW16885   4.334   3.811   1.125  0.4674 -0.4033  0.0897
 1751SOL    HW116886   4.397   3.766   1.069  0.7984  1.4222 -1.0195
 1751SOL    HW216887   4.256   3.756   1.116 -0.3363  0.4288  1.7947
 1752SOL     OW16888   0.369   1.320   4.209  0.5123  0.3861  0.0617
 1752SOL    HW116889   0.441   1.304   4.269  0.0413 -1.6070  0.0777
 1752SOL    HW216890   0.370   1.416   4.218 -0.6234  0.4819 -0.8448
 1753SOL     OW16891   1.563   1.571   4.585 -0.0815  0.3370 -0.1954
 1753SOL    HW116892   1.499   1.605   4.648  0.0662  0.9720 -0.3859
 1753SOL    HW216893   1.601   1.654   4.555  1.1030 -0.6806 -1.4852
 1754SOL     OW16894   4.000   3.146   5.243 -0.0581  0.5105  0.2868
 1754SOL    HW116895   4.081   3.108   5.208  1.1026  1.5328  1.8394
 1754SOL    HW216896   3.990   3.226   5.191  0.4469  1.0458  1.0053
 1755SOL     OW16897   2.670   1.196  17.232 -0.8993  0.9532  0.2914
 1755SOL    HW116898   2.663   1.288  17.206 -0.2218  0.9945  0.2452
 1755SOL    HW216899   2.693   1.156  17.148  1.8626  1.3719  0.8715
 1756SOL     OW16900   2.350   1.839   0.790 -0.2220  0.1603 -0.6616
 1756SOL    HW116901   2.348   1.894   0.712 -3.6941 -1.3199 -1.6405
 1756SOL    HW216902   2.417   1.892   0.835 -1.8241  0.0398  1.8961
 1757SOL     OW16903   2.568   0.391   6.049 -0.2625 -0.5593  0.2139
 1757SOL    HW116904   2.596   0.465   6.104 -0.5296 -1.6028  1.7715
 1757SOL    HW216905   2.602   0.418   5.964  0.1637 -1.2468  0.1726
 1758SOL     OW16906   1.077   3.687   5.678  0.0651  0.0241  0.1698
 1758SOL    HW116907   1.151   3.745   5.658 -1.5269  2.2056  0.5606
 1758SOL    HW216908   1.116   3.615   5.727  3.2240  1.2140 -0.5979
 1759SOL     OW16909   2.215   3.596  11.208 -0.7639 -0.1818  0.3879
 1759SOL    HW116910   2.168   3.573  11.128  0.5247 -1.3862 -0.0240
 1759SOL    HW216911   2.254   3.511  11.224 -1.0210 -0.1372  1.2447
 1760SOL     OW16912   1.227   4.560   4.429  0.3449 -0.3060 -0.7469
 1760SOL    HW116913   1.226   4.568   4.334 -2.4692 -2.2597 -0.8736
 1760SOL    HW216914   1.193   4.643   4.463  3.7474  0.8616 -0.2120
 1761SOL     OW16915   1.741   3.818  17.365  0.1842 -1.3359 -0.0940
 1761SOL    HW116916   1.781   3.895  17.405 -0.7488  0.2123 -2.1181
 1761SOL    HW216917   1.761   3.823  17.272  0.2105 -1.4067 -0.0915
 1762SOL     OW16918   4.563   3.560  15.554  0.3664 -0.0426  0.0471
 1762SOL    HW116919   4.490   3.551  15.493  0.0770  0.4892  0.3027
 1762SOL    HW216920   4.641   3.525  15.513  2.4016  2.3168  1.8547
 1763SOL     OW16921   2.866   2.193  16.859  0.1264  0.1917  0.1033
 1763SOL    HW116922   2.821   2.228  16.936 -1.2796  0.4532 -0.8437
 1763SOL    HW216923   2.928   2.263  16.840 -0.4283  0.4839 -0.6110
 1764SOL     OW16924   4.375   3.041  12.921  0.3869  0.6451 -0.6880
 1764SOL    HW116925   4.329   3.059  13.003 -1.0872  0.1587 -1.4004
 1764SOL    HW216926   4.310   2.987  12.876  1.6809 -0.5092 -1.1509
 1765SOL     OW16927   3.706   1.992   2.437 -0.2832 -0.0277 -0.1644
 1765SOL    HW116928   3.783   1.935   2.444  0.8421  1.4374 -0.4502
 1765SOL    HW216929   3.687   1.988   2.343  1.3465 -1.5797 -0.4377
 1766SOL     OW16930   0.266   3.680   8.439  0.1228  0.1401  0.0035
 1766SOL    HW116931   0.251   3.775   8.436  0.7273  0.1955 -1.2191
 1766SOL    HW216932   0.307   3.673   8.525  0.2681 -1.3711 -0.1863
 1767SOL     OW16933   3.209   3.795   8.721  0.4816  0.0472 -0.1622
 1767SOL    HW116934   3.188   3.886   8.742 -0.7425  0.3091 -2.5471
 1767SOL    HW216935   3.289   3.810   8.671  1.6647  1.2550  2.1039
 1768SOL     OW16936   3.504   4.384   1.349  0.1338  0.0661 -0.0460
 1768SOL    HW116937   3.410   4.393   1.334 -0.3493 -0.4584  2.6190
 1768SOL    HW216938   3.524   4.469   1.388  0.3077  0.8521 -1.8909
 1769SOL     OW16939   1.528   0.556   3.338  0.3281  0.3265 -0.1342
 1769SOL    HW116940   1.607   0.609   3.329  1.6628 -1.4200  1.3480
 1769SOL    HW216941   1.471   0.591   3.270  0.9160 -1.7402 -1.6855
 1770SOL     OW16942   4.257   2.399   9.291  0.1617  0.2667 -0.2501
 1770SOL    HW116943   4.332   2.350   9.324  2.1709  3.2950 -0.2389
 1770SOL    HW216944   4.250   2.478   9.346  0.3084  0.3718 -0.3793
 1771SOL     OW16945   1.316   1.811  15.296  0.3840 -0.1023  0.3026
 1771SOL    HW116946   1.396   1.794  15.347  0.3563 -0.0058  0.3789
 1771SOL    HW216947   1.281   1.723  15.287  1.0054 -0.3040 -0.0824
 1772SOL     OW16948   2.866   2.842  16.810  0.3808  0.2078  0.3408
 1772SOL    HW116949   2.955   2.868  16.788 -0.3732  1.7405 -0.9171
 1772SOL    HW216950   2.854   2.752  16.781 -2.0361  0.5006  0.3956
 1773SOL     OW16951   0.976   4.696  10.685 -0.1694 -0.1509  0.1846
 1773SOL    HW116952   1.063   4.690  10.725  0.1365 -0.5350 -0.5320
 1773SOL    HW216953   0.921   4.680  10.761 -0.8902  2.4917  0.2268
 1774SOL     OW16954   0.388   1.384   9.728  0.2137 -0.3148  0.1389
 1774SOL    HW116955   0.314   1.324   9.716 -0.6356  0.7644 -0.0070
 1774SOL    HW216956   0.355   1.462   9.685 -0.7532 -2.6966 -3.3897
 1775SOL     OW16957   2.765   1.771  12.020 -0.5136 -0.4583 -0.0083
 1775SOL    HW116958   2.696   1.705  12.031  0.1849 -0.6934  3.0737
 1775SOL    HW216959   2.726   1.849  12.059  1.6173  0.6914 -0.2283
 1776SOL     OW16960   1.387   2.287   2.950 -0.7608 -0.2317  0.6511
 1776SOL    HW116961   1.437   2.234   2.887 -1.8713  0.1783 -0.5715
 1776SOL    HW216962   1.333   2.343   2.894 -2.5427 -1.3704  1.2045
 1777SOL     OW16963   3.955   1.788   4.763 -0.4060 -0.0731  0.1230
 1777SOL    HW116964   3.944   1.734   4.841 -2.9937  0.3448  0.0391
 1777SOL    HW216965   3.863   1.774   4.739 -0.3697 -0.7483  0.3578
 1778SOL     OW16966   4.720   1.700   8.956 -0.1126  0.1154 -0.9322
 1778SOL    HW116967   0.060   1.671   8.907  0.5718 -1.9178  1.3349
 1778SOL    HW216968   4.694   1.624   9.007  0.3507  0.7142  0.2105
 1779SOL     OW16969   1.126   0.790  16.261 -0.1172  0.2843 -0.2543
 1779SOL    HW116970   1.161   0.879  16.264 -0.0626  0.2745 -0.5982
 1779SOL    HW216971   1.195   0.735  16.298 -0.3535  0.7523  0.8587
 1780SOL     OW16972   4.602   2.699   5.804 -0.3511 -0.0013  0.4072
 1780SOL    HW116973   4.581   2.766   5.869 -2.1148  1.4835 -1.7221
 1780SOL    HW216974   4.529   2.640   5.822  0.1928 -0.6384  0.5565
 1781SOL     OW16975   0.544   4.116   5.727  0.5527 -0.1617 -0.0341
 1781SOL    HW116976   0.510   4.203   5.706  3.6788  1.1334  0.3033
 1781SOL    HW216977   0.480   4.061   5.682 -0.6091  0.0696  1.3245
 1782SOL     OW16978   1.135   0.849  11.094 -0.5288 -0.1473  0.4302
 1782SOL    HW116979   1.205   0.871  11.032 -0.4784 -0.3065  0.4303
 1782SOL    HW216980   1.168   0.761  11.110 -0.0725  0.2983  1.9507
 1783SOL     OW16981   1.886   0.644   7.564  0.3402  0.1241  0.1146
 1783SOL    HW116982   1.896   0.561   7.611  0.0624 -1.6717 -3.0157
 1783SOL    HW216983   1.798   0.634   7.529  0.5330 -1.2055  0.0088
 1784SOL     OW16984   2.140   2.188   7.346 -0.7197 -0.0559  0.3058
 1784SOL    HW116985   2.143   2.131   7.269  0.0311  1.8395 -1.0783
 1784SOL    HW216986   2.131   2.113   7.406 -1.7078  0.9436  1.3977
 1785SOL     OW16987   4.345   3.203   9.394  0.5004 -0.1733 -0.0479
 1785SOL    HW116988   4.412   3.272   9.398 -0.9108  1.2128 -0.1022
 1785SOL    HW216989   4.333   3.197   9.299  1.2675 -0.1088 -0.1466
 1786SOL     OW16990   3.056   3.217   1.009 -0.4347  0.4311 -0.3603
 1786SOL    HW116991   3.112   3.293   0.994  0.2210  0.2330  1.1688
 1786SOL    HW216992   3.094   3.174   1.085 -0.3947  2.2402  0.6296
 1787SOL     OW16993   0.969   0.491   7.532  0.1646  0.2296 -0.2321
 1787SOL    HW116994   0.988   0.397   7.535 -1.5108 -0.0860  0.3697
 1787SOL    HW216995   1.048   0.522   7.577  0.9763 -1.3204 -0.5921
 1788SOL     OW16996   0.240   3.305   6.222  0.2443 -0.3334  0.2858
 1788SOL    HW116997   0.288   3.287   6.302  0.0837 -1.0014  0.2316
 1788SOL    HW216998   0.195   3.221   6.210  0.3943 -0.2653 -0.7277
 1789SOL     OW16999   1.365   1.281   1.260 -0.1894 -0.7503  0.3016
 1789SOL    HW117000   1.275   1.296   1.290  0.1964  0.3083  0.9186
 1789SOL    HW217001   1.410   1.362   1.235 -2.4773  0.1572 -0.8952
 1790SOL     OW17002   2.448   3.397  13.873  0.1185  0.0516 -0.1696
 1790SOL    HW117003   2.385   3.461  13.839  0.0868 -0.1067 -0.4080
 1790SOL    HW217004   2.522   3.429  13.821  0.4769 -0.5986 -0.0535
 1791SOL     OW17005   0.293   0.184   4.849  0.4952 -0.1713  0.0599
 1791SOL    HW117006   0.383   0.219   4.843 -0.2468  1.3805 -1.9975
 1791SOL    HW217007   0.271   0.172   4.756 -0.8926  0.8403  0.2605
 1792SOL     OW17008   3.354   0.730   9.074  0.0041 -0.0632 -0.0222
 1792SOL    HW117009   3.332   0.725   9.167 -0.9285  1.2953 -0.1591
 1792SOL    HW217010   3.319   0.642   9.058 -0.8129  0.3353 -0.4775
 1793SOL     OW17011   4.145   4.378   1.222  0.6687 -0.3011 -0.5012
 1793SOL    HW117012   4.102   4.308   1.172  0.0746 -0.2811 -0.0106
 1793SOL    HW217013   4.237   4.356   1.207  0.5956 -1.2363  0.4519
 1794SOL     OW17014   2.256   0.173  15.173 -0.3968 -0.0890  0.5000
 1794SOL    HW117015   2.333   0.176  15.231 -0.6544 -1.5995  0.9316
 1794SOL    HW217016   2.198   0.218  15.235  0.4322 -0.8858  1.8702
 1795SOL     OW17017   1.482   3.654   5.767 -0.0923  0.2681 -0.0808
 1795SOL    HW117018   1.495   3.739   5.726  0.4134  1.2885  2.1705
 1795SOL    HW217019   1.458   3.602   5.691  0.4557  2.5107 -1.7773
 1796SOL     OW17020   1.299   3.668   8.872  0.5932 -0.3909  0.0698
 1796SOL    HW117021   1.224   3.701   8.922 -0.2117  0.6439 -1.8302
 1796SOL    HW217022   1.294   3.731   8.800  0.4498  1.6165  1.8347
 1797SOL     OW17023   3.995   0.647   1.002  0.1175 -0.2975  0.1976
 1797SOL    HW117024   4.052   0.638   0.925 -0.3677  0.8662 -0.3086
 1797SOL    HW217025   3.948   0.565   1.016  0.6330 -0.4131  1.2276
 1798SOL     OW17026   2.678   2.290   5.181 -0.0404  0.5371 -0.2201
 1798SOL    HW117027   2.636   2.208   5.207  1.3122  0.4726  1.7808
 1798SOL    HW217028   2.684   2.348   5.257  1.2786 -1.0788  0.9122
 1799SOL     OW17029   1.693   2.606  16.793 -0.7316 -0.2762 -0.6210
 1799SOL    HW117030   1.672   2.593  16.886 -1.9433  0.5429 -0.7952
 1799SOL    HW217031   1.633   2.672  16.759 -0.4830  0.4093  0.2951
 1800SOL     OW17032   1.267   0.259   5.895  0.0530  0.6331 -0.0965
 1800SOL    HW117033   1.248   0.206   5.972 -2.4085 -0.5968 -1.5604
 1800SOL    HW217034   1.186   0.244   5.847 -0.1361 -0.8574  0.6934
 1801SOL     OW17035   0.077   4.410  17.020  0.1745 -0.4162  0.0284
 1801SOL    HW117036   0.109   4.378  16.935  2.5906  0.9022  0.4180
 1801SOL    HW217037   0.116   4.497  17.029  2.2320 -1.4718  1.2994
 1802SOL     OW17038   3.910   4.012  13.065 -0.4978  0.3024  0.0383
 1802SOL    HW117039   3.856   3.935  13.045  0.2803 -0.1711 -0.2086
 1802SOL    HW217040   3.882   4.036  13.154 -0.0886 -0.7349  0.4439
 1803SOL     OW17041   3.963   0.337   6.168  0.2674  0.3448 -0.2469
 1803SOL    HW117042   3.906   0.271   6.208 -2.0082  2.0018 -0.7081
 1803SOL    HW217043   3.979   0.390   6.246  0.9445  0.4320 -0.4436
 1804SOL     OW17044   0.012   3.408   0.977 -0.1368 -0.0855  0.4713
 1804SOL    HW117045   0.031   3.474   1.044  1.3817  0.6308 -0.6403
 1804SOL    HW217046   0.053   3.448   0.900  2.6581 -1.5359  1.1981
 1805SOL     OW17047   3.036   2.473   7.149 -0.0888 -0.6600  0.3607
 1805SOL    HW117048   2.951   2.429   7.155 -0.0318 -0.4870  2.6810
 1805SOL    HW217049   3.010   2.561   7.124  0.5802 -0.8079 -0.8281
 1806SOL     OW17050   1.909   2.824   3.662  0.6247  0.0275 -0.3611
 1806SOL    HW117051   1.844   2.844   3.730  1.4800  1.7936 -0.0588
 1806SOL    HW217052   1.992   2.815   3.708  1.1713  0.4390 -1.2676
 1807SOL     OW17053   1.127   3.418  16.986 -0.3505  0.7243 -0.3247
 1807SOL    HW117054   1.192   3.370  17.036 -2.2450 -1.9591 -0.4132
 1807SOL    HW217055   1.072   3.454  17.055  1.8685  1.6440  0.9289
 1808SOL     OW17056   0.353   1.692   5.939 -0.6801 -0.0259  0.3281
 1808SOL    HW117057   0.300   1.724   5.867 -0.1778 -0.2055 -0.1169
 1808SOL    HW217058   0.284   1.645   5.986  0.5886 -1.6543  0.5784
 1809SOL     OW17059   0.617   1.679   6.281  1.0504  0.0881  0.1712
 1809SOL    HW117060   0.579   1.743   6.220 -0.8557 -1.1750  0.0738
 1809SOL    HW217061   0.707   1.713   6.284 -0.3500  3.6849  1.2738
 1810SOL     OW17062   1.214   1.779   5.370 -0.2607 -0.0314 -0.2920
 1810SOL    HW117063   1.150   1.836   5.413 -0.9437 -1.2069  0.2525
 1810SOL    HW217064   1.155   1.705   5.357 -0.9458  0.0486  2.3234
 1811SOL     OW17065   2.714   0.235   3.285  0.4149  0.1204 -0.1165
 1811SOL    HW117066   2.687   0.212   3.374 -0.8493  1.3027 -0.1811
 1811SOL    HW217067   2.808   0.230   3.298  0.0229  0.6029  2.9130
 1812SOL     OW17068   3.118   1.231   1.816 -0.1201 -0.4162  0.3980
 1812SOL    HW117069   3.157   1.150   1.781 -1.6950 -1.0888  0.1829
 1812SOL    HW217070   3.036   1.231   1.766  0.2249 -2.0403 -0.1717
 1813SOL     OW17071   1.260   4.387   3.253 -0.0716 -0.7222  0.5759
 1813SOL    HW117072   1.167   4.392   3.230  0.1755  1.7469  0.0558
 1813SOL    HW217073   1.299   4.463   3.208 -1.0898 -0.9431 -0.6747
 1814SOL     OW17074   0.477   0.202   8.943 -0.5306  0.2137  0.1888
 1814SOL    HW117075   0.394   0.161   8.919  1.0609 -2.1478 -1.2669
 1814SOL    HW217076   0.499   0.256   8.868 -0.0886  1.2554  1.0677
 1815SOL     OW17077   3.941   3.285   2.045 -0.2263 -0.0781 -0.2526
 1815SOL    HW117078   4.000   3.238   1.986  2.4636  0.8633  1.6903
 1815SOL    HW217079   3.858   3.250   2.013  0.2891 -1.7581  0.2260
 1816SOL     OW17080   0.514   0.640   4.850  0.4457  0.2786  0.2918
 1816SOL    HW117081   0.439   0.697   4.866 -0.7038 -0.6888 -1.7949
 1816SOL    HW217082   0.560   0.695   4.787 -1.2158  2.0454  0.6049
 1817SOL     OW17083   2.203   0.509  10.950  0.3135  0.0574  0.5121
 1817SOL    HW117084   2.235   0.574  11.012 -1.0729  0.5051  0.7468
 1817SOL    HW217085   2.265   0.436  10.956  2.2987  1.6644 -0.3754
 1818SOL     OW17086   2.700   3.055   7.979  0.2785  0.2886 -0.4590
 1818SOL    HW117087   2.736   3.143   7.966  2.8184 -0.7685 -0.6234
 1818SOL    HW217088   2.778   2.999   7.979  0.6670  0.8298 -0.7003
 1819SOL     OW17089   1.169   4.653   7.238  0.5686 -0.1344 -0.3001
 1819SOL    HW117090   1.108   4.722   7.214  0.4674 -0.6049 -1.3963
 1819SOL    HW217091   1.113   4.580   7.212  0.7779 -0.5796  0.4674
 1820SOL     OW17092   1.158   0.196  12.744  0.2419  0.0195 -0.2786
 1820SOL    HW117093   1.115   0.161  12.666 -0.0880  0.0184 -0.0944
 1820SOL    HW217094   1.091   0.251  12.784  0.4744  1.4808 -1.8806
 1821SOL     OW17095   0.538   1.906   6.762 -0.1333  0.0687 -0.1193
 1821SOL    HW117096   0.556   2.000   6.765 -0.3003  0.1637 -1.7004
 1821SOL    HW217097   0.490   1.904   6.679  1.3404 -0.9700 -0.9428
 1822SOL     OW17098   3.715   0.835   2.171 -0.0236 -0.4285  0.0818
 1822SOL    HW117099   3.709   0.805   2.262 -0.5730  1.1375  0.5617
 1822SOL    HW217100   3.623   0.851   2.149  0.0886 -1.2660 -0.9851
 1823SOL     OW17101   3.472   0.885  14.041  0.0524  0.1072 -0.3357
 1823SOL    HW117102   3.547   0.943  14.028 -2.3527  3.1976 -0.1486
 1823SOL    HW217103   3.402   0.948  14.056 -0.3291  0.0718 -1.9899
 1824SOL     OW17104   0.318   3.658  17.366 -0.2210 -0.2032 -0.4634
 1824SOL    HW117105   0.388   3.680  17.428 -0.0216 -0.6420 -0.5339
 1824SOL    HW217106   0.238   3.681  17.414  0.5422  0.0750  0.6867
 1825SOL     OW17107   2.283   1.281  10.890 -0.3603 -0.1614 -0.3334
 1825SOL    HW117108   2.297   1.369  10.925  2.4917 -1.0590  0.7895
 1825SOL    HW217109   2.311   1.299  10.800 -0.5338  0.6160 -0.2250
 1826SOL     OW17110   1.334   2.592   7.685  0.1930 -0.0073  0.1005
 1826SOL    HW117111   1.392   2.516   7.682  1.5461  0.9653  2.1026
 1826SOL    HW217112   1.345   2.619   7.594  2.5897  0.7771  0.6208
 1827SOL     OW17113   4.060   1.211   2.877  0.5384  0.2437  0.2323
 1827SOL    HW117114   4.124   1.273   2.910  2.4705 -0.3714 -2.4012
 1827SOL    HW217115   4.086   1.185   2.789 -1.0832 -1.5579  0.2736
 1828SOL     OW17116   1.764   2.138  17.653 -0.0056 -0.3029  0.2569
 1828SOL    HW117117   1.798   2.049  17.647  1.9896  0.5326 -0.6273
 1828SOL    HW217118   1.697   2.109  17.715 -0.7682  0.6222 -0.1185
 1829SOL     OW17119   1.691   1.515   8.235  0.6437 -0.0823  0.8345
 1829SOL    HW117120   1.726   1.585   8.290  0.8461  0.6342 -0.1991
 1829SOL    HW217121   1.708   1.437   8.287  3.2235  0.4143  0.7367
 1830SOL     OW17122   2.155   4.417   6.572  0.1870 -0.8118 -0.1509
 1830SOL    HW117123   2.181   4.505   6.542  1.0100 -0.8682  0.3862
 1830SOL    HW217124   2.069   4.436   6.610  0.6912  4.4272 -1.5267
 1831SOL     OW17125   2.390   2.007   5.154 -0.1919  0.3526  0.0534
 1831SOL    HW117126   2.362   1.941   5.091 -0.7377  2.0835 -1.5171
 1831SOL    HW217127   2.484   2.007   5.135 -0.1421 -1.4934  0.2327
 1832SOL     OW17128   1.611   1.083   2.818 -0.3142 -0.3527  0.0684
 1832SOL    HW117129   1.641   1.143   2.751  1.5881  1.8939  2.9492
 1832SOL    HW217130   1.595   1.129   2.900 -0.9151 -0.5011  0.0411
 1833SOL     OW17131   3.449   1.411   5.726  0.3609  0.3778  0.5496
 1833SOL    HW117132   3.531   1.393   5.772  0.8297  0.0696 -0.4116
 1833SOL    HW217133   3.387   1.440   5.794 -1.1067 -1.6306  0.0423
 1834SOL     OW17134   3.302   4.689   5.019 -0.3916  0.6973 -0.4109
 1834SOL    HW117135   3.266   4.656   5.101  2.4313  1.8367  1.2635
 1834SOL    HW217136   3.389   4.649   5.018  0.1217  1.8698 -2.9376
 1835SOL     OW17137   3.627   3.673   3.739  0.2282 -0.4807 -0.6193
 1835SOL    HW117138   3.626   3.615   3.815 -1.0403  0.5490  0.1452
 1835SOL    HW217139   3.652   3.751   3.789  1.2740 -2.8640  2.5824
 1836SOL     OW17140   1.154   0.837   3.091 -0.5067 -0.3191  0.0225
 1836SOL    HW117141   1.178   0.745   3.078  0.8307  0.2609 -1.5237
 1836SOL    HW217142   1.117   0.839   3.179  1.5299  2.6511  0.7688
 1837SOL     OW17143   3.747   2.282   5.173 -0.0510  0.1855  0.4657
 1837SOL    HW117144   3.724   2.291   5.081  1.8010  0.4038  0.0257
 1837SOL    HW217145   3.835   2.244   5.163 -0.0271  0.7437 -1.3393
 1838SOL     OW17146   1.344   3.097   5.287  0.8890  0.2887 -0.2192
 1838SOL    HW117147   1.251   3.108   5.310  0.8582 -0.0293 -0.1883
 1838SOL    HW217148   1.343   3.031   5.218 -0.3625 -0.3463  0.3940
 1839SOL     OW17149   3.930   2.860   9.576  0.5894 -0.0668 -0.0578
 1839SOL    HW117150   3.931   2.948   9.613 -1.1304  0.0534 -0.2978
 1839SOL    HW217151   3.999   2.817   9.626  1.4023  0.1184 -1.0181
 1840SOL     OW17152   1.977   0.374   6.532  0.4174 -0.1262  0.1276
 1840SOL    HW117153   1.882   0.387   6.535  0.1716 -2.0926  0.7698
 1840SOL    HW217154   2.002   0.323   6.609  2.0968  1.4909  0.6585
 1841SOL     OW17155   0.874   0.686   3.691  0.1864  0.1428  0.4649
 1841SOL    HW117156   0.926   0.703   3.770  1.1315  0.9665 -0.3289
 1841SOL    HW217157   0.826   0.610   3.724  0.6161 -0.2837  0.0926
 1842SOL     OW17158   1.644   4.015  12.597 -0.0083  0.0395  0.3120
 1842SOL    HW117159   1.681   3.945  12.542  1.1436 -1.2244  2.7042
 1842SOL    HW217160   1.584   4.058  12.536 -1.6379  0.4882  2.2404
 1843SOL     OW17161   3.740   0.367   0.710 -0.0873  0.1809 -0.1156
 1843SOL    HW117162   3.798   0.437   0.679 -0.4159  0.3322 -0.3896
 1843SOL    HW217163   3.666   0.371   0.650 -1.7278  0.4443  1.9474
 1844SOL     OW17164   1.075   1.537   1.823 -0.3004  0.0107  0.3789
 1844SOL    HW117165   1.089   1.448   1.854  1.6257  0.4817  0.8480
 1844SOL    HW217166   1.022   1.520   1.745 -1.1592 -0.2608  1.0264
 1845SOL     OW17167   0.140   2.623   5.199 -0.1504  0.1483 -0.3618
 1845SOL    HW117168   0.148   2.590   5.289 -0.9491  2.4254  0.5341
 1845SOL    HW217169   0.168   2.712   5.217  1.0218 -0.1511 -0.6751
 1846SOL     OW17170   1.616   3.206   4.609  0.6027  0.0936 -0.4463
 1846SOL    HW117171   1.586   3.117   4.587  0.0903  0.1546 -0.0174
 1846SOL    HW217172   1.568   3.268   4.555 -1.0003 -0.5648  0.1991
 1847SOL     OW17173   2.399   2.653   5.404 -0.2544  0.2013  0.3704
 1847SOL    HW117174   2.310   2.620   5.418 -0.9181  1.6841 -0.3293
 1847SOL    HW217175   2.433   2.665   5.492  1.9987  0.4863 -0.5367
 1848SOL     OW17176   0.773   2.878  13.805  0.1141 -0.3444  0.1410
 1848SOL    HW117177   0.779   2.878  13.710  2.2370 -1.4242  0.2648
 1848SOL    HW217178   0.822   2.959  13.820  0.4442 -0.7501  1.3238
 1849SOL     OW17179   0.261   0.697   5.524 -0.1057 -0.2300 -0.2367
 1849SOL    HW117180   0.342   0.708   5.473 -0.0838  0.5115 -0.0442
 1849SOL    HW217181   0.229   0.788   5.518  1.8787  0.3773 -1.7147
 1850SOL     OW17182   4.179   0.964   1.396 -0.6055  0.5498 -0.3340
 1850SOL    HW117183   4.246   0.933   1.456  1.2788  0.7430 -2.3383
 1850SOL    HW217184   4.229   1.022   1.339 -0.5784  1.6844  0.8557
 1851SOL     OW17185   2.533   0.458  12.456 -0.2579  0.0722 -0.3448
 1851SOL    HW117186   2.597   0.388  12.469 -1.2125 -1.0012 -1.4691
 1851SOL    HW217187   2.561   0.501  12.375  1.7638  0.2332  0.4299
 1852SOL     OW17188   3.653   1.641  12.572  0.4297  0.4441 -0.2129
 1852SOL    HW117189   3.720   1.699  12.537 -0.2477 -0.5801 -3.2180
 1852SOL    HW217190   3.577   1.699  12.581  0.1358 -0.2509  1.7982
 1853SOL     OW17191   2.574   2.090   7.323 -0.3121 -0.3037  0.3669
 1853SOL    HW117192   2.644   2.118   7.383  2.9555 -3.4356 -1.9878
 1853SOL    HW217193   2.498   2.142   7.349  1.7631  2.2185  1.3067
 1854SOL     OW17194   2.287   0.576   5.191  0.1313  0.2283  0.0942
 1854SOL    HW117195   2.252   0.499   5.145 -0.7996  0.0528  1.0996
 1854SOL    HW217196   2.275   0.562   5.285 -1.1554  0.9507  0.0365
 1855SOL     OW17197   2.508   1.288  16.129 -0.4154 -0.9341 -0.4705
 1855SOL    HW117198   2.600   1.284  16.155 -0.6074 -0.4641  0.2774
 1855SOL    HW217199   2.491   1.381  16.140 -1.0388 -0.9773 -1.0721
 1856SOL     OW17200   0.316   1.901  16.357  0.2686 -0.5107  0.8835
 1856SOL    HW117201   0.316   1.943  16.271 -0.8645  1.2019  1.7227
 1856SOL    HW217202   0.398   1.852  16.347  0.6859 -0.0013  1.8057
 1857SOL     OW17203   2.761   4.365  11.929 -0.2710  0.0371 -0.2355
 1857SOL    HW117204   2.782   4.457  11.944  0.1982  0.0437 -0.9642
 1857SOL    HW217205   2.799   4.324  12.007  3.9457  0.9739 -1.7942
 1858SOL     OW17206   1.928   1.092   6.556 -0.2771  0.6298  0.5062
 1858SOL    HW117207   2.009   1.092   6.505 -0.4332 -2.2033  0.2357
 1858SOL    HW217208   1.883   1.167   6.516  1.3700  2.8718  2.8844
 1859SOL     OW17209   1.513   0.460  16.287  0.2135 -0.0100  0.1441
 1859SOL    HW117210   1.526   0.415  16.204 -2.5099 -0.1379 -0.2040
 1859SOL    HW217211   1.541   0.548  16.261 -0.1651 -0.2686 -1.1545
 1860SOL     OW17212   2.342   3.903   3.841  0.4088 -0.2935 -0.9608
 1860SOL    HW117213   2.252   3.931   3.823 -0.3554 -1.2411  1.3645
 1860SOL    HW217214   2.341   3.878   3.933 -0.8149  2.1262 -0.3065
 1861SOL     OW17215   2.066   3.880   7.362 -0.2234  0.5913  0.3699
 1861SOL    HW117216   2.079   3.975   7.364 -0.3345  0.5608  2.0069
 1861SOL    HW217217   2.114   3.847   7.286 -1.3901 -2.3183  0.8942
 1862SOL     OW17218   3.304   2.080   7.069  0.4535 -0.1160  0.5750
 1862SOL    HW117219   3.283   2.086   6.976  0.7448  0.0104  0.5189
 1862SOL    HW217220   3.374   2.145   7.071 -0.3977  0.8101 -0.1638
 1863SOL     OW17221   0.070   0.501   2.915  0.0479 -0.0309  0.3750
 1863SOL    HW117222   0.061   0.408   2.894 -1.1146  0.0074  0.7379
 1863SOL    HW217223   4.714   0.524   2.909 -0.3613 -1.6103  0.5140
 1864SOL     OW17224   3.829   1.085  15.314  0.0149 -0.0847  0.3533
 1864SOL    HW117225   3.901   1.096  15.376  1.3640 -2.8800 -0.7285
 1864SOL    HW217226   3.758   1.094  15.377 -1.1665 -0.1586 -0.9666
 1865SOL     OW17227   1.191   2.468   0.461  0.4419 -0.5592  0.3618
 1865SOL    HW117228   1.274   2.503   0.494  1.1462 -2.0090  0.0893
 1865SOL    HW217229   1.211   2.402   0.395  0.4503  0.2159 -0.4060
 1866SOL     OW17230   2.374   3.314   1.827  0.0877 -0.3369  0.3569
 1866SOL    HW117231   2.402   3.226   1.800  0.9030 -0.7581  2.5465
 1866SOL    HW217232   2.282   3.292   1.838  0.0744  0.6146  2.1259
 1867SOL     OW17233   1.663   1.614   4.180  0.0590 -0.3655 -0.0085
 1867SOL    HW117234   1.580   1.579   4.145  0.1193  1.2772 -1.7785
 1867SOL    HW217235   1.632   1.643   4.266  1.1135 -0.5922  0.4463
 1868SOL     OW17236   2.706   0.571  12.279 -0.0340 -0.1964  0.2382
 1868SOL    HW117237   2.733   0.547  12.367 -3.0995 -2.8105  0.4695
 1868SOL    HW217238   2.784   0.603  12.234  1.0399  1.2559  3.1924
 1869SOL     OW17239   1.687   3.833  14.815  0.0184  0.8175  0.3549
 1869SOL    HW117240   1.614   3.803  14.761  2.3177  1.3591 -3.0673
 1869SOL    HW217241   1.652   3.866  14.897 -1.3748  1.7395 -0.6029
 1870SOL     OW17242   0.302   0.657   9.936  0.0180 -0.4489 -0.2722
 1870SOL    HW117243   0.366   0.663  10.007  0.0321  1.1403 -0.4318
 1870SOL    HW217244   0.348   0.629   9.857 -1.1389  0.1019 -1.1392
 1871SOL     OW17245   1.739   0.023   5.983  0.4835 -0.3275 -0.1463
 1871SOL    HW117246   1.780   4.735   5.900  0.3862 -1.9418  0.2829
 1871SOL    HW217247   1.716   0.115   5.976 -0.3583 -0.6394 -1.4924
 1872SOL     OW17248   1.998   0.386   8.672  0.2082  0.2800 -0.3355
 1872SOL    HW117249   1.943   0.325   8.721  0.2301  1.7132  1.5046
 1872SOL    HW217250   2.021   0.334   8.595  1.0558  1.2871 -0.7719
 1873SOL     OW17251   4.450   1.514   6.119  0.2954 -0.8662  0.1584
 1873SOL    HW117252   4.375   1.497   6.178 -0.2026  1.2313  0.1040
 1873SOL    HW217253   4.425   1.598   6.083  0.3874 -0.0650  1.9415
 1874SOL     OW17254   0.427   2.871  17.033 -0.2300 -0.2111  0.5417
 1874SOL    HW117255   0.358   2.833  16.979  0.0711 -2.5040  1.7849
 1874SOL    HW217256   0.470   2.931  16.972 -3.1117  0.9363 -0.3958
 1875SOL     OW17257   3.959   2.702   7.206 -0.2209 -0.0493  0.5297
 1875SOL    HW117258   3.921   2.790   7.200  2.3534  1.1308  1.8514
 1875SOL    HW217259   3.903   2.656   7.269  3.0572 -2.6333  1.5438
 1876SOL     OW17260   1.504   2.292   0.552  0.0866  0.2466  0.4235
 1876SOL    HW117261   1.485   2.284   0.459 -0.7138  1.9853  0.4431
 1876SOL    HW217262   1.465   2.217   0.596 -0.1075 -2.0761 -3.6844
 1877SOL     OW17263   0.702   4.501   8.889  0.3586 -0.2045  1.1850
 1877SOL    HW117264   0.684   4.583   8.935  0.3582 -0.4501  1.6252
 1877SOL    HW217265   0.707   4.443   8.965 -1.3504 -0.3355  1.2036
 1878SOL     OW17266   1.013   4.663   6.963  0.4085 -0.6445  0.1754
 1878SOL    HW117267   1.069   4.693   6.891  0.7534 -0.1947  0.6353
 1878SOL    HW217268   0.945   4.731   6.966  0.1857 -0.9127  1.3635
 1879SOL     OW17269   4.230   0.395   7.637 -0.7314  0.0242 -0.3760
 1879SOL    HW117270   4.184   0.317   7.669  0.8925 -1.8754 -2.6649
 1879SOL    HW217271   4.176   0.414   7.560 -0.6333 -0.0846 -0.4708
 1880SOL     OW17272   4.116   2.402   4.339  0.1441  0.1673  0.4279
 1880SOL    HW117273   4.186   2.397   4.404 -1.2489 -0.4451  1.8495
 1880SOL    HW217274   4.155   2.366   4.259 -2.5186  0.5773 -1.0666
 1881SOL     OW17275   3.553   1.459   7.180 -0.0650 -0.5297  0.0435
 1881SOL    HW117276   3.467   1.499   7.174  0.0039 -0.4566 -0.4534
 1881SOL    HW217277   3.555   1.402   7.102  0.4047 -0.5292  0.0532
 1882SOL     OW17278   1.708   2.243   4.841 -0.3296  0.6933 -0.1055
 1882SOL    HW117279   1.660   2.160   4.843 -0.8108  0.9581 -0.7371
 1882SOL    HW217280   1.779   2.232   4.777 -1.4210 -0.5592 -1.0897
 1883SOL     OW17281   3.253   3.719  12.452 -0.4878  0.4131 -0.3518
 1883SOL    HW117282   3.216   3.709  12.540  2.2122 -1.3989  0.5941
 1883SOL    HW217283   3.302   3.798  12.473 -0.2885  0.1364  0.2098
 1884SOL     OW17284   2.538   0.787   3.629 -0.2224 -0.0424 -0.4595
 1884SOL    HW117285   2.482   0.725   3.675 -0.5393  0.1569 -0.5788
 1884SOL    HW217286   2.500   0.866   3.667 -1.3241 -0.6940 -0.1836
 1885SOL     OW17287   4.676   2.309   5.300  0.1911 -0.0274 -0.5146
 1885SOL    HW117288   0.006   2.305   5.369 -0.2179  2.4414  0.0254
 1885SOL    HW217289   4.596   2.291   5.348 -0.4115  1.4999 -0.9773
 1886SOL     OW17290   1.027   2.161  13.531  0.2264  0.1706  0.0069
 1886SOL    HW117291   0.978   2.196  13.457  1.4557  0.9478 -0.4304
 1886SOL    HW217292   1.063   2.084  13.486  0.8463  0.3570  0.1793
 1887SOL     OW17293   4.566   1.143   8.780 -0.4130 -0.4406 -0.0870
 1887SOL    HW117294   4.586   1.109   8.867 -0.5968 -1.5614 -0.4788
 1887SOL    HW217295   4.471   1.146   8.791 -0.6639 -0.6894 -2.1231
 1888SOL     OW17296   1.546   3.502   2.673 -0.4674 -0.1332 -0.1490
 1888SOL    HW117297   1.571   3.592   2.693  1.5879 -0.4152 -1.5006
 1888SOL    HW217298   1.485   3.511   2.599  0.6159  1.8904 -0.7979
 1889SOL     OW17299   3.035   0.117   6.058 -0.2402  0.0970 -0.5020
 1889SOL    HW117300   2.942   0.129   6.076 -0.0087  0.3694  0.4779
 1889SOL    HW217301   3.028   0.109   5.962 -1.4240 -0.5380 -0.3661
 1890SOL     OW17302   4.361   2.622  17.450  0.3672 -0.1213 -0.1898
 1890SOL    HW117303   4.374   2.708  17.410  1.5786  0.0674  0.6217
 1890SOL    HW217304   4.381   2.568  17.373  2.9609  0.1269  0.3100
 1891SOL     OW17305   3.321   4.226   1.791 -0.4942 -0.4199  0.5921
 1891SOL    HW117306   3.312   4.316   1.762  1.6491  0.0364  1.3450
 1891SOL    HW217307   3.343   4.240   1.883  1.0996 -1.6271  0.3924
 1892SOL     OW17308   3.893   0.477   0.486  0.7633  0.4230 -0.0817
 1892SOL    HW117309   3.870   0.549   0.545 -0.7147 -1.1472  1.2414
 1892SOL    HW217310   3.863   0.523   0.408 -0.5449  0.0810  0.2196
 1893SOL     OW17311   3.410   4.596  15.931 -0.6393  0.3352 -0.0063
 1893SOL    HW117312   3.479   4.582  15.866 -0.0225  1.6761  0.3753
 1893SOL    HW217313   3.396   4.509  15.969  3.4170 -0.7888 -1.0828
 1894SOL     OW17314   2.173   4.390  12.506  0.3419  1.2110 -0.0342
 1894SOL    HW117315   2.120   4.409  12.583 -1.0696 -0.5025 -0.5771
 1894SOL    HW217316   2.118   4.332  12.453  1.2028  0.3031  0.0838
 1895SOL     OW17317   3.305   4.354   0.347  0.3489  0.0957 -0.4631
 1895SOL    HW117318   3.241   4.310   0.403 -0.8974  0.1050 -1.8996
 1895SOL    HW217319   3.362   4.368   0.423 -1.0372 -0.7701  0.7362
 1896SOL     OW17320   4.126   4.334  11.062 -0.2923  0.6483  0.4131
 1896SOL    HW117321   4.182   4.403  11.026 -0.1741 -0.4962 -1.5756
 1896SOL    HW217322   4.102   4.370  11.147 -1.9311 -3.0097  1.4746
 1897SOL     OW17323   4.694   2.296   8.538 -0.4134 -0.3608 -0.2800
 1897SOL    HW117324   4.606   2.333   8.530 -1.1961 -1.9258  0.9860
 1897SOL    HW217325   4.698   2.302   8.634 -1.0664 -2.4265 -0.1201
 1898SOL     OW17326   0.961   3.587  17.226  0.0263 -0.3835 -0.4307
 1898SOL    HW117327   0.875   3.546  17.220 -1.0562  1.7419  0.7999
 1898SOL    HW217328   0.952   3.667  17.174 -0.6183 -1.2139 -1.5839
 1899SOL     OW17329   0.872   4.450   8.640 -0.7545 -0.4664  0.3904
 1899SOL    HW117330   0.880   4.363   8.681  1.8995  0.0247  0.9050
 1899SOL    HW217331   0.813   4.491   8.703 -0.7679 -0.2176  0.2151
 1900SOL     OW17332   1.339   0.525  10.823 -0.2444  0.5622 -0.2501
 1900SOL    HW117333   1.403   0.589  10.853 -0.3444  0.8960 -0.7507
 1900SOL    HW217334   1.260   0.576  10.842 -0.9854 -0.4475 -0.5875
 1901SOL     OW17335   1.600   4.067   5.358 -0.5300 -0.0478 -0.0959
 1901SOL    HW117336   1.690   4.091   5.380 -0.2705  0.0031 -1.1965
 1901SOL    HW217337   1.570   4.135   5.298  1.0670 -0.6556 -1.6067
 1902SOL     OW17338   3.049   2.538   5.583 -0.3437 -0.2654 -0.0553
 1902SOL    HW117339   3.007   2.531   5.669  2.6410 -0.3686  1.3783
 1902SOL    HW217340   3.071   2.447   5.567  1.1136  0.3040 -1.2954
 1903SOL     OW17341   0.813   3.307   8.558  0.1949  0.2494 -0.3143
 1903SOL    HW117342   0.824   3.243   8.488  0.4952  0.5524 -0.5423
 1903SOL    HW217343   0.876   3.262   8.614 -0.0832  1.3714  0.9211
 1904SOL     OW17344   0.380   4.275   7.810 -0.3332 -0.9304 -0.4188
 1904SOL    HW117345   0.313   4.227   7.761 -0.5697  0.1369 -1.1437
 1904SOL    HW217346   0.406   4.342   7.746  2.3522  0.9003  2.6211
 1905SOL     OW17347   4.401   0.339   7.389  0.0170  0.3519  0.0313
 1905SOL    HW117348   4.403   0.289   7.471 -0.2328 -1.1151 -0.8553
 1905SOL    HW217349   4.375   0.421   7.430  2.2552  1.2343 -0.2810
 1906SOL     OW17350   2.424   3.106  13.093  0.1669  0.1682  0.3509
 1906SOL    HW117351   2.436   3.195  13.125 -0.6885  0.4746 -0.1892
 1906SOL    HW217352   2.402   3.127  13.002  1.6011  0.0101 -0.0426
 1907SOL     OW17353   1.821   3.665  13.407  0.6528  0.4703 -0.2086
 1907SOL    HW117354   1.766   3.734  13.370  1.7943  0.8045 -1.2803
 1907SOL    HW217355   1.892   3.713  13.449  1.3506 -0.4329 -0.3718
 1908SOL     OW17356   4.219   3.145   3.642  0.0439  0.6677 -0.3279
 1908SOL    HW117357   4.197   3.238   3.651 -0.5941  0.5080 -0.2412
 1908SOL    HW217358   4.257   3.122   3.727 -0.3365  0.5232 -0.1963
 1909SOL     OW17359   0.890   2.492   5.894 -0.0276  0.3178  0.1854
 1909SOL    HW117360   0.802   2.460   5.913 -0.0512 -0.3530 -1.0918
 1909SOL    HW217361   0.923   2.410   5.857 -1.1693 -0.5102  0.9969
 1910SOL     OW17362   2.018   4.595   4.756  0.5727  0.2415 -0.2207
 1910SOL    HW117363   2.031   4.646   4.836 -1.9733 -1.9579  1.5815
 1910SOL    HW217364   1.970   4.521   4.794 -1.5461  1.0383 -1.3797
 1911SOL     OW17365   0.475   0.220  12.957 -0.4289 -0.3933 -0.0315
 1911SOL    HW117366   0.424   0.293  12.992 -1.5076 -1.5304  0.7387
 1911SOL    HW217367   0.407   0.171  12.913 -0.9753  0.2640  0.0819
 1912SOL     OW17368   0.934   3.745   5.049  0.3388  0.1985  0.3595
 1912SOL    HW117369   1.016   3.789   5.070  0.8636  0.7496 -2.8621
 1912SOL    HW217370   0.919   3.768   4.957 -3.2907 -2.5265  0.2561
 1913SOL     OW17371   3.557   4.423   6.358  0.2543  0.0128  0.3895
 1913SOL    HW117372   3.472   4.446   6.320 -0.3205 -1.8478  0.5764
 1913SOL    HW217373   3.544   4.464   6.443  2.1208 -0.6080  0.9756
 1914SOL     OW17374   1.046   1.855   5.970  0.2323 -0.5726 -0.1774
 1914SOL    HW117375   1.025   1.912   5.896  1.1953 -3.0768 -2.3777
 1914SOL    HW217376   0.966   1.846   6.022 -1.0022  2.0261 -1.6278
 1915SOL     OW17377   1.308   1.219   7.880  0.6096 -0.8421 -0.4864
 1915SOL    HW117378   1.244   1.148   7.884  0.4287 -0.5290  2.0504
 1915SOL    HW217379   1.303   1.242   7.787 -0.2660  0.6925 -0.0498
 1916SOL     OW17380   3.033   3.642   3.268  0.5473 -0.1209 -0.1051
 1916SOL    HW117381   3.088   3.565   3.251  1.8073  1.3411 -2.5817
 1916SOL    HW217382   3.055   3.641   3.362  0.2787  1.3901 -0.0331
 1917SOL     OW17383   0.116   0.303   3.814  0.4088 -0.4470  0.0414
 1917SOL    HW117384   0.122   0.286   3.720 -2.6866 -1.5087  0.0344
 1917SOL    HW217385   0.188   0.256   3.855  0.8213 -1.2811 -1.6869
 1918SOL     OW17386   2.686   1.271   3.214 -0.3970  0.3361 -0.2879
 1918SOL    HW117387   2.746   1.325   3.162  0.8629  2.0036  2.8789
 1918SOL    HW217388   2.674   1.330   3.289  0.3141 -1.3914  1.1954
 1919SOL     OW17389   0.296   4.555   6.995  0.2187 -0.3912 -0.6558
 1919SOL    HW117390   0.203   4.543   6.976 -0.2151 -0.3358  1.4383
 1919SOL    HW217391   0.304   4.566   7.089  0.3883 -0.6411 -0.6405
 1920SOL     OW17392   4.192   0.706  11.320 -0.1726  0.1176  0.1077
 1920SOL    HW117393   4.196   0.798  11.294 -1.2872 -0.0994 -0.8310
 1920SOL    HW217394   4.161   0.676  11.235 -0.0180  1.9332 -0.6036
 1921SOL     OW17395   1.639   3.941   6.543  0.7684 -0.2305  0.0751
 1921SOL    HW117396   1.637   3.863   6.599  0.4751 -1.8570 -2.1985
 1921SOL    HW217397   1.560   3.979   6.582 -0.0964 -1.7305 -0.1933
 1922SOL     OW17398   4.700   3.971   4.099 -0.4669  0.2326  0.1757
 1922SOL    HW117399   0.011   3.938   4.023  0.1172  2.2171 -0.2994
 1922SOL    HW217400   4.658   4.045   4.056 -2.2910  0.7661  2.8884
 1923SOL     OW17401   4.321   0.541  13.355 -0.2296  0.0353  0.3167
 1923SOL    HW117402   4.256   0.568  13.289  0.7888  0.4864 -0.4944
 1923SOL    HW217403   4.282   0.468  13.404  1.0489 -0.6804  0.2531
 1924SOL     OW17404   3.602   2.235   2.371  1.1903  0.2065  0.2739
 1924SOL    HW117405   3.585   2.269   2.459 -1.2567 -0.9023  0.2281
 1924SOL    HW217406   3.644   2.151   2.389  1.4770  0.4734  0.8617
 1925SOL     OW17407   1.646   3.655   6.955 -0.2789 -0.1771 -0.0112
 1925SOL    HW117408   1.601   3.729   6.996  1.2049  0.4120  0.5338
 1925SOL    HW217409   1.569   3.603   6.930  0.5965 -0.8613 -1.2633
 1926SOL     OW17410   4.530   2.878   5.996 -0.1058  0.5056  0.0592
 1926SOL    HW117411   4.563   2.909   6.080 -0.2051 -1.5551  0.8597
 1926SOL    HW217412   4.435   2.875   6.012  0.0385  2.0831  1.1388
 1927SOL     OW17413   0.420   1.469   1.998 -0.0026 -0.0044  0.1744
 1927SOL    HW117414   0.452   1.556   2.023 -0.1678 -0.4292  1.9054
 1927SOL    HW217415   0.497   1.419   2.023  0.7915  0.8746 -0.5418
 1928SOL     OW17416   1.165   3.041  16.784  0.4961 -0.2784 -0.0726
 1928SOL    HW117417   1.073   3.069  16.777  0.7355  0.7541  0.8750
 1928SOL    HW217418   1.210   3.105  16.728 -3.6401  2.7274  0.0246
 1929SOL     OW17419   1.237   0.778   5.209  0.1091 -0.1952 -0.3892
 1929SOL    HW117420   1.215   0.725   5.285  2.8121 -3.6839 -2.0304
 1929SOL    HW217421   1.180   0.745   5.141 -1.6973  0.1137  0.9780
 1930SOL     OW17422   0.982   3.634   5.328  0.1228 -0.4399 -0.1711
 1930SOL    HW117423   0.982   3.697   5.256  0.1643 -1.0653 -0.7175
 1930SOL    HW217424   0.950   3.696   5.393 -0.4043 -0.2007 -0.6482
 1931SOL     OW17425   3.008   2.694   8.756  0.4346  0.0707  0.3686
 1931SOL    HW117426   2.958   2.629   8.707 -0.2045  1.9478 -1.4854
 1931SOL    HW217427   2.971   2.677   8.843 -0.0823 -0.5566  0.0252
 1932SOL     OW17428   3.700   0.290  13.852 -0.8150  0.5626  0.1762
 1932SOL    HW117429   3.792   0.317  13.857 -1.0350  1.3306  0.1527
 1932SOL    HW217430   3.689   0.254  13.940 -2.1234 -1.2385 -0.7281
 1933SOL     OW17431   1.810   2.615   5.721  0.1895  0.2026  0.1855
 1933SOL    HW117432   1.838   2.524   5.716 -2.1342 -0.5004  0.2880
 1933SOL    HW217433   1.725   2.610   5.678 -0.4943  0.7960  1.4543
 1934SOL     OW17434   3.553   0.359  16.848  0.1678 -0.5712 -0.6336
 1934SOL    HW117435   3.572   0.452  16.860  1.1895 -0.8611 -0.0070
 1934SOL    HW217436   3.635   0.326  16.811  0.9122 -0.2567  0.7213
 1935SOL     OW17437   3.264   4.496  16.718 -0.3722  0.8253 -0.1665
 1935SOL    HW117438   3.305   4.468  16.636  0.7219 -1.1190  1.0310
 1935SOL    HW217439   3.273   4.591  16.717  1.7960  0.6254  0.3008
 1936SOL     OW17440   2.120   0.862   8.851 -0.1549 -0.7040  0.4453
 1936SOL    HW117441   2.132   0.778   8.896  3.4924 -0.2310  0.2983
 1936SOL    HW217442   2.176   0.844   8.776 -1.1104 -2.3102  0.1259
 1937SOL     OW17443   1.907   2.422  17.424 -0.7348 -0.6382 -0.0412
 1937SOL    HW117444   1.898   2.437  17.518 -2.1089 -1.7058 -0.0037
 1937SOL    HW217445   1.867   2.499  17.383  0.3023 -0.6491 -1.0826
 1938SOL     OW17446   1.695   2.030  15.220  0.1121  0.4502 -0.7047
 1938SOL    HW117447   1.736   2.031  15.134  1.9137 -0.3619  0.1564
 1938SOL    HW217448   1.678   2.122  15.243 -0.7196  0.1649 -0.1850
 1939SOL     OW17449   2.400   3.231   8.920 -0.0938  0.7027  0.3310
 1939SOL    HW117450   2.306   3.212   8.917 -0.1255  0.9099 -0.1333
 1939SOL    HW217451   2.437   3.151   8.955 -0.5110  0.0934 -0.6189
 1940SOL     OW17452   3.943   2.637   4.890 -0.1426  0.2419  0.4720
 1940SOL    HW117453   3.894   2.693   4.950  0.0251 -0.5563  1.3508
 1940SOL    HW217454   3.998   2.593   4.954 -0.0305  1.3278  1.1217
 1941SOL     OW17455   3.185   2.061   8.426 -0.0228  0.3959 -0.2310
 1941SOL    HW117456   3.234   2.083   8.505  3.2155  0.9748 -2.4469
 1941SOL    HW217457   3.157   1.974   8.454  0.1985  0.6793  0.8548
 1942SOL     OW17458   0.421   4.697   7.626 -0.5865  0.0391  0.2708
 1942SOL    HW117459   0.380   4.654   7.700 -0.3065 -0.6899  0.0005
 1942SOL    HW217460   0.371   0.042   7.628 -0.3592  0.1350  1.5948
 1943SOL     OW17461   2.738   1.054   5.216  0.1955 -0.4815  0.8032
 1943SOL    HW117462   2.831   1.031   5.226  0.2986 -1.2352 -1.7282
 1943SOL    HW217463   2.688   0.973   5.225  1.7546 -1.8380 -2.5397
 1944SOL     OW17464   2.700   1.664   7.472  0.2294 -0.2929  0.2142
 1944SOL    HW117465   2.724   1.725   7.402  0.9340  0.2555  0.9394
 1944SOL    HW217466   2.613   1.636   7.443  0.8741 -0.0987 -1.9571
 1945SOL     OW17467   4.131   4.418  17.077  0.2561 -0.3015 -0.1106
 1945SOL    HW117468   4.051   4.438  17.125  1.0618  1.5717  0.4183
 1945SOL    HW217469   4.099   4.382  16.994  0.1583  1.3887 -0.8069
 1946SOL     OW17470   2.790   1.071  11.521  0.1650  0.4817  0.7278
 1946SOL    HW117471   2.712   1.024  11.491  0.9245 -0.5759  0.4196
 1946SOL    HW217472   2.760   1.100  11.607  0.0720  0.1176  0.8182
 1947SOL     OW17473   2.732   1.895   6.831  0.0853 -0.4036 -0.6149
 1947SOL    HW117474   2.800   1.829   6.823 -0.3511 -1.0454  1.0903
 1947SOL    HW217475   2.762   1.917   6.919 -1.5593 -1.3736  0.1899
 1948SOL     OW17476   2.747   3.422   8.163  0.0069  0.7111 -0.0643
 1948SOL    HW117477   2.774   3.364   8.092 -1.4210  2.5986 -2.1403
 1948SOL    HW217478   2.747   3.508   8.122  0.6387  1.4515  1.4868
 1949SOL     OW17479   1.820   1.385   4.141 -0.1246  0.4102  0.0901
 1949SOL    HW117480   1.761   1.458   4.160  2.7112  2.2236  1.8624
 1949SOL    HW217481   1.761   1.338   4.082 -0.0567  3.0257 -2.0886
 1950SOL     OW17482   2.556   3.003   8.975 -0.0332  0.0522  0.2033
 1950SOL    HW117483   2.651   2.991   8.974  0.0112  0.3431  1.2095
 1950SOL    HW217484   2.534   2.923   8.928 -0.8056  2.0750 -2.8492
 1951SOL     OW17485   2.374   2.088  17.343 -0.0987 -0.1993  0.1625
 1951SOL    HW117486   2.312   2.073  17.271 -0.4643 -2.9219  1.0439
 1951SOL    HW217487   2.316   2.111  17.416  1.4958  0.4140  1.2225
 1952SOL     OW17488   0.476   3.876   2.205 -0.3634 -0.2010  0.1810
 1952SOL    HW117489   0.560   3.864   2.160  1.6314 -0.1970  3.9027
 1952SOL    HW217490   0.499   3.832   2.286 -0.0716  0.2792  0.3600
 1953SOL     OW17491   0.895   2.008  13.318 -0.0817  0.1112  0.8580
 1953SOL    HW117492   0.877   2.102  13.324  0.4776  0.2245  0.6944
 1953SOL    HW217493   0.844   1.984  13.241 -1.1688 -1.2331  1.9790
 1954SOL     OW17494   1.540   2.216   5.628  0.3409 -0.3152  0.1052
 1954SOL    HW117495   1.572   2.175   5.709 -1.5484  0.1823  1.0933
 1954SOL    HW217496   1.547   2.310   5.647  1.5247  0.2226 -2.9871
 1955SOL     OW17497   3.421   2.275   0.749 -0.5410 -0.2220 -0.3916
 1955SOL    HW117498   3.497   2.229   0.783  0.5932 -0.2399 -3.0459
 1955SOL    HW217499   3.416   2.354   0.803  0.3312  0.3629 -1.1892
 1956SOL     OW17500   1.933   0.419   2.587  0.0374  0.0202  0.0326
 1956SOL    HW117501   1.994   0.368   2.534  1.0934 -0.1374  1.3981
 1956SOL    HW217502   1.994   0.481   2.627 -0.5765  0.2515  0.6080
 1957SOL     OW17503   3.436   3.561   6.735  0.4578 -0.7166 -0.2744
 1957SOL    HW117504   3.381   3.489   6.705 -1.1571  0.7739 -0.8911
 1957SOL    HW217505   3.363   3.623   6.737 -0.6237 -2.0012 -0.0761
 1958SOL     OW17506   1.519   2.607   4.545 -0.2305  0.5283  0.3563
 1958SOL    HW117507   1.502   2.512   4.547 -0.5634  0.5531 -1.5125
 1958SOL    HW217508   1.529   2.613   4.450  0.1192 -3.1993  0.1386
 1959SOL     OW17509   2.355   3.917  17.539 -0.1457 -0.2988  0.7683
 1959SOL    HW117510   2.426   3.909  17.603  0.5821 -0.2821 -0.0367
 1959SOL    HW217511   2.400   3.924  17.455 -0.8295 -0.7542  0.3708
 1960SOL     OW17512   0.706   2.508   7.169  0.3907  0.1856 -0.4318
 1960SOL    HW117513   0.648   2.570   7.215 -1.1882 -2.0511  0.5855
 1960SOL    HW217514   0.680   2.417   7.184 -1.5382  1.6342  5.2204
 1961SOL     OW17515   3.806   3.727   5.943 -0.6213  0.3305 -0.1505
 1961SOL    HW117516   3.740   3.715   5.875 -2.3116  2.7542  1.0429
 1961SOL    HW217517   3.887   3.709   5.894 -0.8221 -0.8154 -0.0431
 1962SOL     OW17518   3.633   0.858   7.991  0.6110 -0.5015 -0.0800
 1962SOL    HW117519   3.558   0.813   7.951 -0.3475  1.6892 -0.8017
 1962SOL    HW217520   3.598   0.947   7.996  1.3592 -0.2963  1.2408
 1963SOL     OW17521   0.041   3.443   6.510 -0.1361  0.0868 -0.4989
 1963SOL    HW117522   0.006   3.478   6.592 -2.9795 -3.5778 -0.1570
 1963SOL    HW217523   0.128   3.419   6.542  0.9894  2.9214 -1.3650
 1964SOL     OW17524   1.374   2.633   5.005  0.4637 -0.3890 -0.4601
 1964SOL    HW117525   1.393   2.561   4.944  0.6145  0.1202 -1.0112
 1964SOL    HW217526   1.463   2.653   5.034 -0.4264  2.4377  0.2975
 1965SOL     OW17527   3.963   0.335  14.193  0.7701  0.3612  0.2581
 1965SOL    HW117528   4.054   0.331  14.223  0.7417  3.3413  0.6856
 1965SOL    HW217529   3.966   0.422  14.154  1.1140  0.0627 -0.3824
 1966SOL     OW17530   1.090   4.237   5.475 -0.3854  0.1270 -0.1722
 1966SOL    HW117531   1.150   4.256   5.403  0.1225 -0.8806 -0.0285
 1966SOL    HW217532   1.045   4.160   5.438  1.7706  0.0299 -2.5726
 1967SOL     OW17533   4.208   0.437  15.360  0.5944 -0.1238  0.7101
 1967SOL    HW117534   4.291   0.479  15.381  1.4574 -0.6701 -1.5400
 1967SOL    HW217535   4.167   0.429  15.446 -0.1405  1.2516  0.4789
 1968SOL     OW17536   4.500   3.998   7.328  0.5826  0.0123 -0.0566
 1968SOL    HW117537   4.547   3.975   7.408  1.0305 -2.6753 -1.0863
 1968SOL    HW217538   4.500   4.093   7.337 -3.4382  0.0747 -0.9815
 1969SOL     OW17539   0.975   0.206   7.603  0.2682  0.1879  0.2774
 1969SOL    HW117540   0.937   0.152   7.672  1.1781 -1.0814 -0.2181
 1969SOL    HW217541   0.934   0.157   7.532 -2.0715  1.5617  0.6730
 1970SOL     OW17542   1.612   0.909   2.372  0.7364 -0.2241  0.0350
 1970SOL    HW117543   1.639   0.909   2.463  1.0842 -0.0727 -0.0686
 1970SOL    HW217544   1.638   0.824   2.337 -1.8844 -0.8213 -0.5177
 1971SOL     OW17545   3.943   2.315   6.918 -0.1183  0.2114  0.2376
 1971SOL    HW117546   3.989   2.382   6.968  1.2112 -1.9225  1.8471
 1971SOL    HW217547   3.864   2.365   6.894 -0.7621 -0.7370  0.3632
 1972SOL     OW17548   0.324   4.080   2.527 -0.3480  0.0330  0.2450
 1972SOL    HW117549   0.307   4.161   2.576  1.4397  2.2633 -2.8136
 1972SOL    HW217550   0.405   4.048   2.567  0.3273  2.0385  0.4760
 1973SOL     OW17551   4.690   3.680   8.235  0.8087  0.4414  0.0328
 1973SOL    HW117552   4.612   3.643   8.194  3.0161 -1.9311 -2.0131
 1973SOL    HW217553   0.006   3.604   8.262  1.5625  0.0463 -2.5237
 1974SOL     OW17554   1.780   4.579   9.032  0.1366 -0.0798  0.1632
 1974SOL    HW117555   1.845   4.596   8.963 -1.6734  3.8497 -0.5802
 1974SOL    HW217556   1.722   4.643   8.991 -0.7150 -1.8009 -1.3235
 1975SOL     OW17557   1.393   3.787   1.654  0.1869  0.7438  0.3560
 1975SOL    HW117558   1.314   3.820   1.610 -0.8248 -0.5698  1.1657
 1975SOL    HW217559   1.429   3.866   1.696 -1.1307  0.6300  1.7168
 1976SOL     OW17560   4.701   0.509  10.347  0.3089 -0.4156 -0.0959
 1976SOL    HW117561   4.723   0.435  10.403 -3.3614 -0.4884  1.2600
 1976SOL    HW217562   0.040   0.563  10.371  0.2484 -0.3921  0.0437
 1977SOL     OW17563   1.312   2.324   8.483 -0.2530  0.3437  0.5855
 1977SOL    HW117564   1.219   2.301   8.491  0.1736 -1.8841 -0.7457
 1977SOL    HW217565   1.314   2.401   8.539 -1.1293  0.3209  0.6419
 1978SOL     OW17566   3.736   1.402   9.107 -0.9000 -0.4024 -0.7989
 1978SOL    HW117567   3.661   1.386   9.049 -1.2437  0.6693 -0.6693
 1978SOL    HW217568   3.696   1.412   9.193 -0.0799  0.4162 -0.5163
 1979SOL     OW17569   2.372   3.717  11.934 -0.0473 -0.3743  0.3425
 1979SOL    HW117570   2.428   3.768  11.875 -0.9246  0.8920  0.6122
 1979SOL    HW217571   2.291   3.767  11.925 -0.9315 -1.9457 -0.6279
 1980SOL     OW17572   2.348   4.626   2.307 -0.5493 -0.0435  0.1857
 1980SOL    HW117573   2.256   4.651   2.314 -0.6261 -0.2115 -0.2427
 1980SOL    HW217574   2.372   4.677   2.230 -2.3461  0.6805  0.0857
 1981SOL     OW17575   0.459   0.969   6.324  0.4556  0.0091 -0.1518
 1981SOL    HW117576   0.409   0.914   6.384 -0.9818 -1.1673 -2.4262
 1981SOL    HW217577   0.392   1.017   6.274  2.1120  0.5102 -1.8788
 1982SOL     OW17578   4.489   0.131   6.977  0.2660 -0.2054  0.2503
 1982SOL    HW117579   4.511   0.063   7.040  0.9267  0.2629  0.5185
 1982SOL    HW217580   4.537   0.210   7.002  1.0192 -1.0813  1.5370
 1983SOL     OW17581   3.819   3.922   1.608 -0.2222  0.5501  0.0671
 1983SOL    HW117582   3.738   3.890   1.568 -0.5196  0.3596  0.8254
 1983SOL    HW217583   3.805   3.891   1.698  1.5911  0.0551  0.1801
 1984SOL     OW17584   3.277   0.859   1.184  0.3239 -0.0765  0.2762
 1984SOL    HW117585   3.205   0.894   1.132  1.3231 -2.2763 -2.6085
 1984SOL    HW217586   3.350   0.875   1.124 -2.0129  3.7279 -1.4646
 1985SOL     OW17587   1.984   2.262  16.200  0.3802 -0.2013 -0.1201
 1985SOL    HW117588   2.050   2.270  16.268  0.2420 -0.6247  0.0637
 1985SOL    HW217589   1.968   2.355  16.182 -0.0685 -0.2906 -0.1832
 1986SOL     OW17590   3.827   3.753   3.310 -0.0956 -0.3000 -0.5356
 1986SOL    HW117591   3.788   3.706   3.237 -1.5253 -2.0147  1.3172
 1986SOL    HW217592   3.912   3.710   3.314  0.5543  0.9289 -1.1968
 1987SOL     OW17593   2.104   1.460  12.146  0.7923  0.4498  0.3379
 1987SOL    HW117594   2.059   1.432  12.225  2.0308  1.2452  1.3171
 1987SOL    HW217595   2.080   1.386  12.089  2.0793 -0.8971  1.5357
 1988SOL     OW17596   1.380   2.510   2.135  0.4568 -0.0439  0.3112
 1988SOL    HW117597   1.431   2.573   2.186  2.7079 -0.2880 -1.6360
 1988SOL    HW217598   1.401   2.530   2.043 -1.0603  1.8644  0.3717
 1989SOL     OW17599   1.523   1.113   0.107 -0.0209  0.1554  0.3218
 1989SOL    HW117600   1.552   1.142   0.020  2.4585 -1.8172  0.4770
 1989SOL    HW217601   1.586   1.044   0.128 -0.9528 -1.1806 -1.2990
 1990SOL     OW17602   0.178   2.283   5.489 -0.1696  0.3500 -0.3985
 1990SOL    HW117603   0.176   2.348   5.559  0.8950  0.5366 -0.5398
 1990SOL    HW217604   0.272   2.280   5.473 -0.0008 -1.3209  0.8600
 1991SOL     OW17605   4.474   0.978   2.715 -0.0605 -0.1237  0.1912
 1991SOL    HW117606   4.529   1.049   2.747  3.1427 -2.9130  0.9487
 1991SOL    HW217607   4.385   1.003   2.741  1.3093  1.9210  2.9025
 1992SOL     OW17608   1.521   3.035   3.716 -0.2319 -0.0194  1.0101
 1992SOL    HW117609   1.586   3.042   3.646 -2.2004  0.9645 -0.6831
 1992SOL    HW217610   1.573   3.080   3.783  2.0621  1.7024 -1.9497
 1993SOL     OW17611   4.667   2.263  11.921 -0.2455 -0.2618  0.0649
 1993SOL    HW117612   4.661   2.293  11.830 -0.0882 -1.0547 -0.2099
 1993SOL    HW217613   4.654   2.343  11.971 -3.5712 -0.3654 -0.6401
 1994SOL     OW17614   3.556   0.104  11.838 -0.0514 -0.1671  0.0426
 1994SOL    HW117615   3.568   0.047  11.762  1.2977 -0.8181  0.7464
 1994SOL    HW217616   3.645   0.124  11.864 -1.3870  2.1637  2.8517
 1995SOL     OW17617   3.209   2.455   5.913 -0.5031  0.0638  0.4093
 1995SOL    HW117618   3.284   2.510   5.891 -2.1005  2.0540 -0.0478
 1995SOL    HW217619   3.253   2.371   5.900  0.9367  0.8979 -0.0798
 1996SOL     OW17620   3.696   0.629  12.245  0.1437 -0.0008 -0.4357
 1996SOL    HW117621   3.731   0.672  12.166  2.9917  0.8698  1.2941
 1996SOL    HW217622   3.656   0.553  12.202 -4.1736  2.9427 -1.5429
 1997SOL     OW17623   2.183   4.421   2.813 -0.2745  0.0063  0.7127
 1997SOL    HW117624   2.223   4.492   2.763 -1.8263 -0.4341 -1.1301
 1997SOL    HW217625   2.237   4.344   2.795 -1.6503 -0.6028 -0.7612
 1998SOL     OW17626   1.145   2.571   2.457  0.3046  0.0549  0.1751
 1998SOL    HW117627   1.096   2.499   2.418  1.8641 -1.1272  0.4036
 1998SOL    HW217628   1.223   2.523   2.487 -0.3405 -0.8496  0.3978
 1999SOL     OW17629   4.106   0.490   8.695  1.0178 -0.0210 -0.0724
 1999SOL    HW117630   4.196   0.456   8.702  1.7291  1.5676 -1.5332
 1999SOL    HW217631   4.128   0.579   8.720  0.7136 -0.3618  1.4175
 2000SOL     OW17632   4.674   2.857   1.870  0.0403  0.7318  0.0964
 2000SOL    HW117633   4.590   2.820   1.842  1.1036 -2.0646  0.5378
 2000SOL    HW217634   4.733   2.788   1.840 -1.4762 -0.1808 -0.8019
 2001SOL     OW17635   4.339   3.145   8.032 -0.1216  0.8533 -0.0014
 2001SOL    HW117636   4.380   3.217   7.983 -0.1807  0.1837 -1.0281
 2001SOL    HW217637   4.324   3.186   8.117 -0.0982  0.7552  0.0486
 2002SOL     OW17638   1.855   0.568   4.405  0.1110  0.3358 -0.0545
 2002SOL    HW117639   1.785   0.504   4.416 -0.5485  0.9656 -0.5491
 2002SOL    HW217640   1.905   0.530   4.334 -1.6272 -0.4864 -0.8307
 2003SOL     OW17641   0.916   3.888  16.680 -0.1623  0.1441  0.2365
 2003SOL    HW117642   0.936   3.934  16.762  2.2624  0.6459 -0.6379
 2003SOL    HW217643   0.855   3.826  16.720  1.4753 -2.0759 -0.6986
 2004SOL     OW17644   3.494   2.478   9.000 -0.1739 -0.0206 -0.0152
 2004SOL    HW117645   3.447   2.488   8.917 -0.3540  0.9466  0.1935
 2004SOL    HW217646   3.543   2.560   9.010  2.5516 -1.6067 -0.3241
 2005SOL     OW17647   3.890   2.232   5.831  0.0628 -0.1221 -0.1891
 2005SOL    HW117648   3.855   2.314   5.866  0.9543  0.2548 -0.2017
 2005SOL    HW217649   3.966   2.226   5.888 -1.2264 -0.0805  1.5394
 2006SOL     OW17650   0.337   3.281   2.221 -0.2990  0.1525  1.0437
 2006SOL    HW117651   0.307   3.203   2.267 -1.4384  0.1453  0.2798
 2006SOL    HW217652   0.265   3.344   2.221 -0.3706  0.0671  0.5244
 2007SOL     OW17653   2.657   1.881   7.733  0.4741 -0.1885 -0.2745
 2007SOL    HW117654   2.571   1.877   7.690  1.7963 -0.5979 -2.8400
 2007SOL    HW217655   2.653   1.964   7.782  1.0294 -0.2613 -0.1057
 2008SOL     OW17656   0.256   0.556   9.383  0.3606  0.6778  0.3263
 2008SOL    HW117657   0.341   0.511   9.383 -0.9591 -1.7542  0.2797
 2008SOL    HW217658   0.287   0.647   9.374  1.7582 -0.1748 -3.7858
 2009SOL     OW17659   0.806   2.172   0.799  0.4111  0.2789 -0.4143
 2009SOL    HW117660   0.733   2.124   0.760 -0.0289 -0.8259  1.7210
 2009SOL    HW217661   0.858   2.207   0.727 -0.8937  2.0775 -0.4748
 2010SOL     OW17662   0.873   0.087   8.035  0.7971  0.1231 -0.4637
 2010SOL    HW117663   0.870   0.182   8.042  1.4906  0.0474  0.9219
 2010SOL    HW217664   0.824   0.053   8.110  0.6887 -1.3328 -1.2043
 2011SOL     OW17665   3.804   2.768  14.963  0.2593  0.9772 -0.1185
 2011SOL    HW117666   3.863   2.839  14.938  0.8489  1.3757  2.4302
 2011SOL    HW217667   3.815   2.779  15.057 -1.1901  0.9507  0.0649
 2012SOL     OW17668   0.806   2.253   8.729 -0.2616 -0.0237 -0.2503
 2012SOL    HW117669   0.774   2.257   8.820 -1.2929 -1.9382 -0.5290
 2012SOL    HW217670   0.726   2.235   8.679  0.2850 -2.9864 -0.0377
 2013SOL     OW17671   3.579   3.860   1.518 -0.1759  0.4559  0.1405
 2013SOL    HW117672   3.501   3.817   1.555  0.2368 -1.1339 -0.8337
 2013SOL    HW217673   3.568   3.947   1.555  2.0106  0.3474  1.0201
 2014SOL     OW17674   0.417   2.509   7.298 -0.1227 -0.8615 -0.0439
 2014SOL    HW117675   0.328   2.481   7.319 -1.1066  1.4655 -1.1438
 2014SOL    HW217676   0.462   2.445   7.353 -0.0836  0.1147  1.0755
 2015SOL     OW17677   1.660   3.593  15.483 -0.1001 -0.0847  0.2108
 2015SOL    HW117678   1.616   3.672  15.451  0.7604  1.2948  2.4047
 2015SOL    HW217679   1.750   3.619  15.464  0.5313 -2.9992 -0.7405
 2016SOL     OW17680   4.343   4.123   2.623  0.3730 -0.0198  0.0882
 2016SOL    HW117681   4.349   4.094   2.532 -0.6811  1.5313 -0.4820
 2016SOL    HW217682   4.311   4.213   2.620 -1.1266 -0.6196 -2.1824
 2017SOL     OW17683   2.463   1.959   8.423 -0.9423 -0.1932  0.1904
 2017SOL    HW117684   2.446   2.049   8.397  1.5544  0.5187  1.0631
 2017SOL    HW217685   2.491   1.915   8.343 -2.7571  0.2904 -0.6971
 2018SOL     OW17686   3.491   0.680  11.964 -0.3697 -0.4378  0.1540
 2018SOL    HW117687   3.546   0.616  12.008 -2.3998 -0.6029  2.4519
 2018SOL    HW217688   3.551   0.712  11.897 -0.5722  1.9841  1.1252
 2019SOL     OW17689   0.750   1.710   5.217 -0.4049  0.0108  0.4549
 2019SOL    HW117690   0.689   1.642   5.186 -1.3404  2.0518 -2.1466
 2019SOL    HW217691   0.763   1.761   5.137 -1.9057 -2.6985 -1.5188
 2020SOL     OW17692   3.239   1.150   3.577 -0.0504  0.2313  0.1089
 2020SOL    HW117693   3.152   1.164   3.614  0.1195 -0.6203  0.8324
 2020SOL    HW217694   3.233   1.194   3.492 -0.3068  0.7629  0.4056
 2021SOL     OW17695   0.286   2.834   5.779 -0.1016 -0.4134  0.0154
 2021SOL    HW117696   0.249   2.901   5.837  3.0213  1.6546 -0.3673
 2021SOL    HW217697   0.286   2.757   5.836  1.4075 -2.0676 -2.2342
 2022SOL     OW17698   0.339   0.667   7.426 -0.2610 -0.2266 -0.3577
 2022SOL    HW117699   0.267   0.713   7.383 -0.6490  1.0607  1.6300
 2022SOL    HW217700   0.382   0.613   7.360  0.4093 -1.5243  1.1338
 2023SOL     OW17701   1.528   1.020   4.212  1.3950  0.3907 -0.1208
 2023SOL    HW117702   1.605   0.993   4.260  1.9556  1.3192 -0.4966
 2023SOL    HW217703   1.534   0.978   4.126 -0.8742  0.8858 -0.5392
 2024SOL     OW17704   1.016   2.364   6.602 -0.5561 -0.1956  0.7080
 2024SOL    HW117705   1.025   2.402   6.690  0.5239 -0.7173  0.8112
 2024SOL    HW217706   1.078   2.423   6.560 -0.5501 -0.9820 -0.3784
 2025SOL     OW17707   2.797   4.378   4.040 -0.1240  0.1279  0.5920
 2025SOL    HW117708   2.792   4.406   4.132 -0.3867  1.6884  0.1034
 2025SOL    HW217709   2.761   4.450   3.988 -1.8111 -0.9723  0.2355
 2026SOL     OW17710   1.010   3.713   2.779  0.4035 -0.7120  0.3690
 2026SOL    HW117711   1.040   3.634   2.823  0.6148  0.3744  2.1960
 2026SOL    HW217712   1.054   3.781   2.831  0.2699  0.2784 -0.8017
 2027SOL     OW17713   3.083   4.725   1.594 -0.4494  0.1371  0.5999
 2027SOL    HW117714   3.079   0.081   1.570  0.6631 -0.3991 -1.7528
 2027SOL    HW217715   3.161   4.704   1.542  0.1589  1.9622  0.7613
 2028SOL     OW17716   2.541   2.187  15.312  1.0553 -0.2290 -0.3128
 2028SOL    HW117717   2.495   2.146  15.240  1.1477  1.0070 -1.0776
 2028SOL    HW217718   2.567   2.108  15.360  0.4821  1.5291  2.9068
 2029SOL     OW17719   2.366   0.134   7.277  0.2032 -0.7012 -0.5115
 2029SOL    HW117720   2.363   0.225   7.249  0.5124 -0.4934  0.1234
 2029SOL    HW217721   2.282   0.137   7.322  1.1201  0.7499  1.0754
 2030SOL     OW17722   0.684   3.466   3.469  0.2110  0.1569 -0.3036
 2030SOL    HW117723   0.685   3.555   3.433 -0.4092  0.0215 -0.6549
 2030SOL    HW217724   0.606   3.478   3.522  0.9417 -0.2154  0.8446
 2031SOL     OW17725   3.472   3.848   7.723 -0.0182 -0.7403 -0.2648
 2031SOL    HW117726   3.450   3.889   7.639 -1.4506  0.7336  0.8198
 2031SOL    HW217727   3.381   3.838   7.751 -0.6084 -0.6090 -2.1249
 2032SOL     OW17728   0.417   1.330   6.018  0.3228  0.0897 -0.2956
 2032SOL    HW117729   0.433   1.235   6.016  0.1836  0.1726 -5.3500
 2032SOL    HW217730   0.325   1.344   5.996  0.5181  1.1758 -0.3783
 2033SOL     OW17731   4.009   2.794   4.036  0.0596 -0.2107  0.5124
 2033SOL    HW117732   4.024   2.736   4.111  0.1108  0.3643  0.9464
 2033SOL    HW217733   3.962   2.858   4.089  1.8809  1.8077 -0.2797
 2034SOL     OW17734   1.514   3.030   6.921  0.5773  0.1741 -0.0608
 2034SOL    HW117735   1.458   2.974   6.867  1.2954 -1.4233  0.8234
 2034SOL    HW217736   1.577   2.971   6.963  1.2918 -0.2901 -1.8010
 2035SOL     OW17737   1.329   3.225   7.228  0.2391  0.2937 -0.2463
 2035SOL    HW117738   1.415   3.237   7.188  0.3511 -1.3459 -0.5254
 2035SOL    HW217739   1.296   3.313   7.208  0.5134  0.3251 -0.5610
 2036SOL     OW17740   3.433   2.351   6.793 -0.1814  0.1803 -0.0187
 2036SOL    HW117741   3.489   2.337   6.869 -0.0445  1.7739  0.1613
 2036SOL    HW217742   3.376   2.274   6.790  1.3855 -1.0718  2.2228
 2037SOL     OW17743   1.344   2.285  17.662 -0.5998  0.6569  0.4740
 2037SOL    HW117744   1.351   2.259   0.008  1.6328  0.4592  0.2370
 2037SOL    HW217745   1.398   2.364  17.659 -1.5652  1.3108  0.2947
 2038SOL     OW17746   2.757   4.192   5.246  0.4506  0.1005  0.7532
 2038SOL    HW117747   2.693   4.130   5.282  0.4218 -0.2181  0.1510
 2038SOL    HW217748   2.826   4.202   5.311  0.8877 -0.9185  0.4418
 2039SOL     OW17749   0.062   0.037  12.412 -0.5769  0.2973 -0.0055
 2039SOL    HW117750   0.139   0.090  12.390 -0.2217 -1.2097 -2.4188
 2039SOL    HW217751   0.020   0.083  12.484  1.4388  0.9203  0.7681
 2040SOL     OW17752   2.647   0.697   2.485  0.8138  1.0176  0.3890
 2040SOL    HW117753   2.693   0.770   2.444 -0.8671  2.0665  0.3918
 2040SOL    HW217754   2.714   0.628   2.482  0.4859  0.6627  0.9508
 2041SOL     OW17755   4.551   4.251   5.218 -0.2053  0.5643 -0.6971
 2041SOL    HW117756   4.562   4.162   5.184  0.6702  1.2786 -2.2897
 2041SOL    HW217757   4.633   4.265   5.266  0.2338  0.1266 -1.3193
 2042SOL     OW17758   1.221   4.055   7.649 -0.2630  0.0019  0.2937
 2042SOL    HW117759   1.148   4.110   7.621  1.3604  1.4652 -1.0204
 2042SOL    HW217760   1.254   4.097   7.728 -0.8819 -1.3055  1.2615
 2043SOL     OW17761   4.161   2.283   1.359  0.1284  0.1336 -0.3749
 2043SOL    HW117762   4.190   2.232   1.435 -0.8171  1.2284  0.7127
 2043SOL    HW217763   4.139   2.218   1.292 -1.4742  0.0521  0.2561
 2044SOL     OW17764   2.133   2.461  12.152  0.0849 -0.1503  0.6443
 2044SOL    HW117765   2.091   2.395  12.207  0.4799 -0.5078  0.5109
 2044SOL    HW217766   2.145   2.533  12.215 -2.1365 -0.1096  1.0406
 2045SOL     OW17767   2.635   4.625   0.651  0.0998  0.2641 -0.0317
 2045SOL    HW117768   2.710   4.616   0.591 -1.1463  0.4252 -1.6004
 2045SOL    HW217769   2.610   4.533   0.663 -1.0099  0.4476 -0.9964
 2046SOL     OW17770   4.490   2.653  17.673 -0.1789 -0.0295  0.0019
 2046SOL    HW117771   4.517   2.745  17.671 -2.7765  0.7969  3.0060
 2046SOL    HW217772   4.434   2.650  17.596  0.4583  1.0889 -0.4984
 2047SOL     OW17773   1.366   1.811   3.698  0.4766 -0.2091 -0.2935
 2047SOL    HW117774   1.460   1.808   3.712  0.4686 -3.8494 -1.1713
 2047SOL    HW217775   1.370   1.821   3.603  0.5800  0.0591 -0.2621
 2048SOL     OW17776   1.368   4.501   7.901  0.1639 -0.2227  0.4737
 2048SOL    HW117777   1.408   4.446   7.833 -1.6358  0.3694 -1.0464
 2048SOL    HW217778   1.444   4.542   7.943  1.0919  0.0215 -1.4168
 2049SOL     OW17779   3.757   0.571   6.494  0.5069  0.0576  0.7811
 2049SOL    HW117780   3.768   0.639   6.560  0.5841 -0.6679  1.5179
 2049SOL    HW217781   3.672   0.595   6.458  1.3033  1.6390 -0.0144
 2050SOL     OW17782   0.051   2.150   4.674 -0.6072  0.3930  0.1631
 2050SOL    HW117783   0.033   2.219   4.611  0.3439  1.7288  1.3332
 2050SOL    HW217784   0.104   2.194   4.741  0.2322  0.8365 -0.7880
 2051SOL     OW17785   0.566   3.119   0.888 -0.1803  0.4765 -0.4007
 2051SOL    HW117786   0.560   3.214   0.878 -2.8653  0.4675  1.0343
 2051SOL    HW217787   0.606   3.103   0.803 -0.9206 -3.2618 -0.0464
 2052SOL     OW17788   0.480   3.499   4.298 -0.3516  0.1950  0.0116
 2052SOL    HW117789   0.507   3.431   4.237 -0.3922  0.8165 -0.6931
 2052SOL    HW217790   0.387   3.483   4.309 -0.1830 -0.4016  0.6042
 2053SOL     OW17791   4.680   0.157   9.029  0.5296  0.2286  0.8412
 2053SOL    HW117792   0.019   0.108   9.061 -0.1335 -2.3276 -1.5206
 2053SOL    HW217793   4.680   0.244   9.069  0.4684  0.9103 -0.6489
 2054SOL     OW17794   4.075   1.577   5.931 -0.1435  0.2949 -0.1564
 2054SOL    HW117795   4.000   1.557   5.987  0.1222  0.3153  0.2097
 2054SOL    HW217796   4.130   1.634   5.985  0.1123  0.9881 -1.1499
 2055SOL     OW17797   1.860   3.088   6.849 -0.4826 -0.1326 -0.5874
 2055SOL    HW117798   1.880   3.042   6.931  0.0844 -1.9830 -1.7507
 2055SOL    HW217799   1.930   3.153   6.857  0.6336 -1.3195 -0.5730
 2056SOL     OW17800   2.755   3.245  16.329 -0.6895  0.1715  0.2415
 2056SOL    HW117801   2.700   3.321  16.347 -1.1811 -0.0871 -0.1629
 2056SOL    HW217802   2.768   3.256  16.235 -1.3962  1.5723  0.3113
 2057SOL     OW17803   2.352   4.428   4.776 -0.2096  0.2982 -0.1432
 2057SOL    HW117804   2.314   4.347   4.809  1.8283 -0.6639 -0.1497
 2057SOL    HW217805   2.434   4.414   4.730 -0.4785 -1.4822 -0.0713
 2058SOL     OW17806   1.107   1.948   1.726  0.0818 -0.2785 -0.3067
 2058SOL    HW117807   1.055   1.976   1.650 -1.6608  1.8444  1.6975
 2058SOL    HW217808   1.150   1.868   1.695 -0.5890 -1.0700  0.8229
 2059SOL     OW17809   3.431   2.965   3.594  0.5644 -0.6290  0.0820
 2059SOL    HW117810   3.450   2.872   3.589  0.4483 -0.7140  1.2015
 2059SOL    HW217811   3.401   2.965   3.685  1.8849  0.5163  0.5154
 2060SOL     OW17812   0.568   1.344   8.248  0.7683 -0.2036  0.5175
 2060SOL    HW117813   0.555   1.300   8.332  0.7256 -0.3915  0.4114
 2060SOL    HW217814   0.662   1.361   8.253  0.6329  0.7912 -0.2652
 2061SOL     OW17815   2.011   0.756   2.446 -0.5986  0.0439 -0.0377
 2061SOL    HW117816   2.081   0.727   2.387 -0.5774 -2.0557  1.0162
 2061SOL    HW217817   2.058   0.748   2.529 -0.9356  0.2573  0.1722
 2062SOL     OW17818   0.755   1.212   7.509 -0.2498 -0.2925 -0.1031
 2062SOL    HW117819   0.689   1.195   7.576 -0.8455  1.1164 -0.3356
 2062SOL    HW217820   0.827   1.160   7.544 -0.8869 -1.0514  0.0725
 2063SOL     OW17821   4.359   2.357   3.368 -0.7236 -0.8638 -0.0151
 2063SOL    HW117822   4.283   2.415   3.357  0.7940  1.3138  0.7962
 2063SOL    HW217823   4.433   2.418   3.364 -2.4880  1.2489 -0.5228
 2064SOL     OW17824   1.283   3.743   1.348 -0.0420 -0.3443 -0.5555
 2064SOL    HW117825   1.372   3.709   1.359 -0.6191 -2.0557 -1.3401
 2064SOL    HW217826   1.221   3.675   1.374 -0.7834 -0.1493 -1.8285
 2065SOL     OW17827   0.486   2.581   0.580 -0.0106 -0.0934  0.0740
 2065SOL    HW117828   0.515   2.628   0.501  0.1137  1.4143  1.0253
 2065SOL    HW217829   0.455   2.498   0.543 -0.5360 -0.0037  0.3092
 2066SOL     OW17830   2.948   1.499   5.820 -0.3488  0.4107  0.5801
 2066SOL    HW117831   3.043   1.487   5.828 -0.9322 -1.5853  4.1882
 2066SOL    HW217832   2.954   1.472   5.728  3.9568  0.2454  0.8835
 2067SOL     OW17833   2.610   1.999   6.613 -0.4046  0.6533  0.0029
 2067SOL    HW117834   2.647   1.956   6.690 -1.4091  1.9226  1.1755
 2067SOL    HW217835   2.678   2.060   6.584 -0.8697  2.3194  2.5061
 2068SOL     OW17836   2.374   3.002  17.558 -0.1413  0.1439  0.3575
 2068SOL    HW117837   2.459   2.959  17.547 -0.1977  0.5539 -1.7449
 2068SOL    HW217838   2.407   3.068  17.620  1.4720  1.0295 -1.4292
 2069SOL     OW17839   3.668   1.482   8.539  0.2217  0.0824  0.5385
 2069SOL    HW117840   3.734   1.499   8.607 -0.2418  0.5539  0.8694
 2069SOL    HW217841   3.638   1.394   8.561  2.4555 -0.6629  0.6042
 2070SOL     OW17842   0.522   1.150   2.867  0.0598 -0.4081 -0.0283
 2070SOL    HW117843   0.546   1.148   2.774  0.0143  1.8508 -0.0740
 2070SOL    HW217844   0.428   1.134   2.870 -0.2335  0.6962 -3.5556
 2071SOL     OW17845   4.135   3.632   7.365 -0.2902 -0.1106 -0.3007
 2071SOL    HW117846   4.061   3.620   7.426 -1.6465  3.2884 -1.2981
 2071SOL    HW217847   4.159   3.724   7.368 -0.5703 -0.1476  2.9517
 2072SOL     OW17848   4.598   0.515   8.237 -0.0927 -0.3875 -0.3650
 2072SOL    HW117849   4.547   0.503   8.317  1.4683 -0.1159  0.6702
 2072SOL    HW217850   4.536   0.473   8.177 -0.1259  0.3749 -0.8741
 2073SOL     OW17851   2.539   1.839   5.492 -0.5994  0.2233 -0.0797
 2073SOL    HW117852   2.448   1.857   5.465 -1.2113 -3.7455 -0.6055
 2073SOL    HW217853   2.540   1.744   5.483  1.1576  0.2744 -0.4548
 2074SOL     OW17854   1.872   2.068   4.229  0.3744 -0.1273  0.1313
 2074SOL    HW117855   1.819   2.078   4.150  0.4538 -2.2850 -0.1984
 2074SOL    HW217856   1.948   2.032   4.184 -1.7593 -1.5466 -2.3194
 2075SOL     OW17857   4.300   4.441   4.074  0.4819  0.6548  0.1297
 2075SOL    HW117858   4.213   4.473   4.052 -1.2373 -0.1381  5.6784
 2075SOL    HW217859   4.274   4.378   4.141 -0.0539 -0.9957 -1.6498
 2076SOL     OW17860   1.773   0.169  11.016  0.5718  0.2738  0.4725
 2076SOL    HW117861   1.845   0.202  10.962 -0.0074  2.3083  0.9620
 2076SOL    HW217862   1.714   0.142  10.946  1.2573 -0.1062  0.0301
 2077SOL     OW17863   3.342   1.106   5.748 -0.2653 -0.0318 -0.0638
 2077SOL    HW117864   3.307   1.144   5.668 -2.1754 -1.2160  0.1997
 2077SOL    HW217865   3.317   1.168   5.816  0.8824 -1.1012  1.3334
 2078SOL     OW17866   0.765   2.243  14.486 -0.6266 -0.0073  0.0592
 2078SOL    HW117867   0.726   2.170  14.534  0.6144  1.3601  3.1550
 2078SOL    HW217868   0.733   2.314  14.541 -0.8142  0.0728 -0.1546
 2079SOL     OW17869   3.265   1.039   4.486  0.1386  0.0208  0.0841
 2079SOL    HW117870   3.352   1.060   4.520  0.9715 -2.4546 -0.4751
 2079SOL    HW217871   3.251   0.956   4.531  1.8049 -1.0298 -1.2914
 2080SOL     OW17872   2.787   0.908   3.645 -0.0374 -0.0433  0.4326
 2080SOL    HW117873   2.703   0.864   3.632 -0.0408 -0.2763  1.2701
 2080SOL    HW217874   2.777   0.938   3.735 -0.0821  1.7198 -0.1697
 2081SOL     OW17875   1.399   1.491  11.936 -0.2853 -0.3446  0.1631
 2081SOL    HW117876   1.455   1.432  11.987 -1.0926 -0.6246  0.7141
 2081SOL    HW217877   1.468   1.556  11.925 -1.4393  0.5787 -1.6400
 2082SOL     OW17878   0.609   1.562   0.039  0.5850 -0.2919  0.1998
 2082SOL    HW117879   0.668   1.620  17.736 -1.3475  1.4053 -0.1214
 2082SOL    HW217880   0.628   1.589   0.129 -0.1745 -1.0589  0.5935
 2083SOL     OW17881   2.478   3.518   5.760  0.5740  0.2538 -0.3064
 2083SOL    HW117882   2.477   3.575   5.684 -1.0273  0.2659 -0.2867
 2083SOL    HW217883   2.433   3.441   5.724  0.8309 -0.7698  1.5464
 2084SOL     OW17884   2.225   0.264   7.736 -1.0121 -0.0261  0.1410
 2084SOL    HW117885   2.289   0.283   7.804  1.5513 -2.8127 -1.5062
 2084SOL    HW217886   2.236   0.326   7.663 -0.3575  3.0265  2.8516
 2085SOL     OW17887   3.306   0.582   9.346 -0.2181  0.2669  0.1540
 2085SOL    HW117888   3.325   0.608   9.436 -4.1849 -0.2495  1.1355
 2085SOL    HW217889   3.248   0.508   9.365 -0.4433  0.3470 -0.2268
 2086SOL     OW17890   3.261   1.836   4.434 -0.1516  0.2025 -0.4323
 2086SOL    HW117891   3.207   1.757   4.438  0.7178 -0.3676 -0.0728
 2086SOL    HW217892   3.209   1.887   4.496  1.3347 -1.0074  1.8060
 2087SOL     OW17893   0.405   3.683   8.962  0.4804 -0.2170 -0.2515
 2087SOL    HW117894   0.309   3.688   8.961  0.4604 -0.6327 -0.4461
 2087SOL    HW217895   0.415   3.601   8.914 -1.2275 -0.1566 -0.7366
 2088SOL     OW17896   1.448   1.917  17.483  0.3911 -0.7490 -0.2073
 2088SOL    HW117897   1.478   2.005  17.462 -0.0440 -0.0899  1.8906
 2088SOL    HW217898   1.401   1.894  17.403 -0.1354  1.4555 -0.5432
 2089SOL     OW17899   2.311   2.799   4.129  0.8690  0.4219  0.0275
 2089SOL    HW117900   2.318   2.713   4.089  2.9071  0.4892  0.2433
 2089SOL    HW217901   2.359   2.785   4.211 -0.4172 -2.1532  0.3326
 2090SOL     OW17902   0.501   1.188  14.130  0.5677  0.2972 -0.2744
 2090SOL    HW117903   0.407   1.204  14.137  0.5601  0.5237 -0.9439
 2090SOL    HW217904   0.499   1.120  14.063 -2.1377  0.0263  0.0780
 2091SOL     OW17905   3.143   4.413   4.669 -0.6525  0.1761  0.2257
 2091SOL    HW117906   3.073   4.460   4.713  0.1642  2.5009 -0.9144
 2091SOL    HW217907   3.210   4.414   4.738 -0.8851  1.7019  0.4212
 2092SOL     OW17908   2.600   0.569   9.204 -0.2754  0.0769 -0.0362
 2092SOL    HW117909   2.585   0.660   9.181 -0.7924  0.0537  0.2059
 2092SOL    HW217910   2.678   0.581   9.257 -0.1987  1.5785 -0.4931
 2093SOL     OW17911   2.889   2.663   5.402  0.1443 -0.6282  0.0846
 2093SOL    HW117912   2.846   2.746   5.422  1.2082  0.0974 -0.6428
 2093SOL    HW217913   2.909   2.625   5.488 -1.0876  0.1549  0.7123
 2094SOL     OW17914   3.608   1.112   1.114  0.7800  0.2172  0.0501
 2094SOL    HW117915   3.560   1.035   1.084  1.5566 -0.2317 -0.0260
 2094SOL    HW217916   3.671   1.064   1.169 -0.5673  0.3910  1.7433
 2095SOL     OW17917   2.297   3.030  13.735 -0.2592 -0.5119  0.0467
 2095SOL    HW117918   2.269   2.961  13.675  0.4605 -0.0545 -0.8087
 2095SOL    HW217919   2.330   3.092  13.670  2.0559 -2.1617 -0.3424
 2096SOL     OW17920   4.130   4.120   4.664  0.2950  0.1847 -1.0804
 2096SOL    HW117921   4.073   4.100   4.739  4.4089 -1.3781  1.6675
 2096SOL    HW217922   4.081   4.070   4.598  0.4393  0.9008 -1.7224
 2097SOL     OW17923   3.184   2.516  13.651 -0.3283  0.0599  0.5069
 2097SOL    HW117924   3.188   2.453  13.723 -1.2636  0.0163  0.5183
 2097SOL    HW217925   3.100   2.489  13.615  0.4151  0.3592 -1.4919
 2098SOL     OW17926   1.706   2.265   6.208  0.4101  0.1923 -0.4724
 2098SOL    HW117927   1.797   2.274   6.234  0.8188 -2.5265 -0.9442
 2098SOL    HW217928   1.670   2.347   6.243 -2.7836 -0.1197 -2.9995
 2099SOL     OW17929   0.253   1.120   0.666 -0.1458  0.1181  0.1040
 2099SOL    HW117930   0.281   1.208   0.690  2.2662 -0.3194 -1.0167
 2099SOL    HW217931   0.191   1.139   0.596  1.9971  3.6785 -0.8216
 2100SOL     OW17932   4.170   0.746   5.281 -0.4944 -0.3294  0.3367
 2100SOL    HW117933   4.098   0.729   5.342 -0.1584  0.9592  1.0795
 2100SOL    HW217934   4.127   0.817   5.234  0.8821  0.2559 -0.0330
 2101SOL     OW17935   1.316   2.259   6.427 -0.0008 -0.0081 -0.2299
 2101SOL    HW117936   1.385   2.325   6.436 -0.6910  0.6205  0.5576
 2101SOL    HW217937   1.238   2.315   6.437  1.6137  1.9928  1.1454
 2102SOL     OW17938   3.929   4.729   0.545 -0.2583 -0.2217 -0.2528
 2102SOL    HW117939   4.007   4.691   0.587  0.7291  2.7910  0.6332
 2102SOL    HW217940   3.885   0.019   0.625 -0.5613 -1.5386  0.0246
 2103SOL     OW17941   3.340   4.548   6.268 -0.2428 -0.1594 -0.2359
 2103SOL    HW117942   3.317   4.641   6.264 -1.4975 -0.3396  3.0805
 2103SOL    HW217943   3.264   4.508   6.311  0.7395 -0.4379  1.2317
 2104SOL     OW17944   0.606   3.644   3.882  0.4321 -0.1439  0.3282
 2104SOL    HW117945   0.616   3.586   3.806  2.8386 -0.5871  0.9851
 2104SOL    HW217946   0.560   3.722   3.852  0.5222 -0.4609 -0.6353
 2105SOL     OW17947   3.598   4.250  16.563  0.0864 -0.3828 -0.5812
 2105SOL    HW117948   3.661   4.323  16.559  0.3336 -0.5249  0.6679
 2105SOL    HW217949   3.630   4.213  16.645  0.9186 -4.3921 -2.7360
 2106SOL     OW17950   3.632   2.910   7.504 -0.9810  0.3840 -0.4771
 2106SOL    HW117951   3.632   2.969   7.428  1.4988 -1.1036 -1.6254
 2106SOL    HW217952   3.693   2.947   7.567  0.4090 -1.1497 -0.9237
 2107SOL     OW17953   1.204   3.090   1.887  0.0023  0.2679  0.5211
 2107SOL    HW117954   1.170   3.017   1.940 -0.9559  0.0758 -0.3482
 2107SOL    HW217955   1.127   3.147   1.877  0.2811  0.7698  1.1911
 2108SOL     OW17956   4.299   1.237  12.792  0.2809  0.2581 -0.4875
 2108SOL    HW117957   4.354   1.295  12.844  1.0549 -1.3369  0.4750
 2108SOL    HW217958   4.228   1.298  12.773  1.2975  1.7765  0.5499
 2109SOL     OW17959   3.946   3.306   8.296  0.5495  0.0560  0.0186
 2109SOL    HW117960   4.003   3.232   8.275 -0.8973 -1.0683  0.0373
 2109SOL    HW217961   3.873   3.251   8.325  2.5967 -2.5609  0.1024
 2110SOL     OW17962   0.192   0.024   3.037 -0.6612  0.0730 -0.6600
 2110SOL    HW117963   0.277   4.730   3.068 -2.3458 -2.9887  0.8897
 2110SOL    HW217964   0.210   0.116   3.021  0.9545 -0.1912 -0.3289
 2111SOL     OW17965   3.021   4.054   7.269  0.2110  0.2860 -0.2616
 2111SOL    HW117966   2.928   4.033   7.266 -0.5000  3.8894 -3.9634
 2111SOL    HW217967   3.005   4.143   7.300 -1.3180 -0.2047  0.3232
 2112SOL     OW17968   2.905   1.969   7.087 -0.1218 -0.3509  0.3954
 2112SOL    HW117969   2.970   2.031   7.120  0.5750 -1.7570  1.6704
 2112SOL    HW217970   2.948   1.884   7.093  0.8966  0.0843 -0.6774
 2113SOL     OW17971   4.726   2.059   9.996 -0.3764  0.2886 -0.5810
 2113SOL    HW117972   0.058   2.022  10.051 -0.5188 -0.1979 -0.7261
 2113SOL    HW217973   4.657   2.079  10.060 -0.9684 -1.4912 -0.6328
 2114SOL     OW17974   0.432   2.252   2.365 -0.0233  0.0206  0.5607
 2114SOL    HW117975   0.481   2.232   2.445  0.1324 -1.3501  0.1336
 2114SOL    HW217976   0.401   2.341   2.382  2.0061  0.9986 -0.8794
 2115SOL     OW17977   4.596   4.663   2.418 -0.3668 -0.4256  0.8424
 2115SOL    HW117978   4.586   4.589   2.479 -1.2841 -0.1165  1.0748
 2115SOL    HW217979   4.575   4.617   2.337 -0.0438 -0.4780  0.7882
 2116SOL     OW17980   4.186   0.788   1.981  0.0313  0.0248 -0.4783
 2116SOL    HW117981   4.251   0.728   2.017  2.0087  2.0621 -0.7116
 2116SOL    HW217982   4.109   0.742   2.016 -0.6347  0.3456 -1.5116
 2117SOL     OW17983   0.868   4.688   6.352 -0.4759  0.2691  0.3483
 2117SOL    HW117984   0.900   0.025   6.301 -2.1733  0.6358 -0.1588
 2117SOL    HW217985   0.935   4.620   6.342 -0.0901  0.3945  2.0112
 2118SOL     OW17986   3.953   2.437   2.642  0.1556  0.2351 -0.1463
 2118SOL    HW117987   3.863   2.464   2.664  0.2266  0.6645 -0.3716
 2118SOL    HW217988   3.951   2.445   2.546  2.2813 -0.9476 -0.2686
 2119SOL     OW17989   4.001   1.279   6.123 -0.5004  0.2257  0.2844
 2119SOL    HW117990   3.909   1.252   6.131 -0.9574  1.6137 -0.3311
 2119SOL    HW217991   4.045   1.196   6.106 -2.7339 -0.7006 -0.9252
 2120SOL     OW17992   0.632   2.638   4.754  0.0417 -0.1863 -0.7748
 2120SOL    HW117993   0.571   2.581   4.707  0.3598 -0.4909 -0.8163
 2120SOL    HW217994   0.714   2.639   4.705  0.8596  2.4434  0.6289
 2121SOL     OW17995   3.398   4.295   7.183 -0.2362 -0.2663  0.3649
 2121SOL    HW117996   3.375   4.232   7.115 -1.4712 -1.7585  2.1649
 2121SOL    HW217997   3.490   4.273   7.197 -0.5054 -1.8105 -0.2405
 2122SOL     OW17998   2.377   2.313   9.100 -0.1386  0.2089  0.7064
 2122SOL    HW117999   2.444   2.313   9.032 -0.9785  1.6828 -0.1410
 2122SOL    HW218000   2.414   2.244   9.155  0.8222  0.3790  0.2720
 2123SOL     OW18001   2.914   3.752   2.565  0.2073  0.4638  0.3438
 2123SOL    HW118002   2.976   3.792   2.626  1.6639 -1.6363  0.2795
 2123SOL    HW218003   2.969   3.728   2.490  0.9621  0.4861  0.8914
 2124SOL     OW18004   3.686   3.523   0.436  0.2091 -0.1961 -0.5900
 2124SOL    HW118005   3.743   3.459   0.481 -0.2023  0.3227  0.6600
 2124SOL    HW218006   3.641   3.455   0.386  0.8119 -0.7538 -0.3863
 2125SOL     OW18007   2.840   2.861   3.698 -0.0642  0.3708  0.3839
 2125SOL    HW118008   2.788   2.927   3.743  1.9348  1.2092  1.4768
 2125SOL    HW218009   2.781   2.819   3.636 -0.8728 -0.4782  1.7407
 2126SOL     OW18010   0.756   2.430   1.487  0.0850  0.2567  0.2174
 2126SOL    HW118011   0.789   2.342   1.465  1.2326  1.0334 -1.2125
 2126SOL    HW218012   0.680   2.427   1.544  1.3986 -0.3655  1.9126
 2127SOL     OW18013   0.517   2.334  10.183  0.4974 -0.0933  0.2730
 2127SOL    HW118014   0.529   2.368  10.094 -0.3329  1.7621  0.8781
 2127SOL    HW218015   0.605   2.310  10.211  1.5026  1.0005 -1.9382
 2128SOL     OW18016   0.014   3.339   2.466  0.1052  0.0204 -0.7237
 2128SOL    HW118017   4.667   3.294   2.456  0.7224 -1.1945 -0.5075
 2128SOL    HW218018   4.731   3.392   2.543  0.7065 -0.7790 -0.0209
 2129SOL     OW18019   0.206   2.592  14.054  0.0329  0.0786 -0.1453
 2129SOL    HW118020   0.121   2.623  14.023 -1.2404  0.4240  3.6955
 2129SOL    HW218021   0.204   2.503  14.019  1.2432 -0.1240  0.2967
 2130SOL     OW18022   1.286   2.231   5.163  0.1033  0.6842 -0.2182
 2130SOL    HW118023   1.306   2.138   5.148 -0.0428  1.0022 -2.3461
 2130SOL    HW218024   1.259   2.253   5.074  3.5917  2.7558 -0.7447
 2131SOL     OW18025   0.993   4.473   3.475  0.3703  0.4155 -0.5169
 2131SOL    HW118026   1.025   4.514   3.394  0.1679 -0.2412 -0.9281
 2131SOL    HW218027   1.055   4.400   3.482  0.1272  0.3317  0.7596
 2132SOL     OW18028   2.232   1.766   5.852 -0.2778 -0.0382 -0.3002
 2132SOL    HW118029   2.168   1.820   5.806 -0.3529  1.0567  1.0805
 2132SOL    HW218030   2.272   1.821   5.920  2.0020  0.2681 -1.9094
 2133SOL     OW18031   0.913   0.011  15.078 -0.1130  0.2353 -0.2363
 2133SOL    HW118032   0.818   0.021  15.075 -0.0501 -0.0368 -3.9799
 2133SOL    HW218033   0.942   0.092  15.119 -0.6075 -0.0488  0.6846
 2134SOL     OW18034   3.958   4.036   7.152 -0.1707 -0.3307  0.0284
 2134SOL    HW118035   3.880   4.091   7.144  0.7646  0.8232 -1.1225
 2134SOL    HW218036   3.924   3.957   7.109 -4.0340  0.0671  2.2876
 2135SOL     OW18037   1.008   3.106   2.214  0.1104 -0.0533 -0.5783
 2135SOL    HW118038   1.005   3.013   2.235  0.1959  0.0467 -0.1156
 2135SOL    HW218039   0.968   3.101   2.127 -0.0953 -0.4905 -0.4596
 2136SOL     OW18040   1.024   1.382   7.456 -0.3018  0.4128  0.2581
 2136SOL    HW118041   1.028   1.387   7.551  1.0065 -0.1221  0.2295
 2136SOL    HW218042   0.929   1.381   7.440 -0.5704 -0.6767  1.9450
 2137SOL     OW18043   2.503   3.721   9.647 -0.1123  0.3111  0.4110
 2137SOL    HW118044   2.502   3.813   9.623  0.0128  0.6221  1.5877
 2137SOL    HW218045   2.586   3.714   9.695 -0.6323 -0.1753  1.2353
 2138SOL     OW18046   0.637   3.992  16.129 -0.5637  0.1761 -0.2450
 2138SOL    HW118047   0.580   3.918  16.107 -1.5756  0.8367  0.1939
 2138SOL    HW218048   0.726   3.959  16.114  0.2679  1.2871  2.3164
 2139SOL     OW18049   0.440   2.163  13.199  0.6016  0.1610 -0.7088
 2139SOL    HW118050   0.344   2.165  13.200  0.6249  1.0159 -0.3930
 2139SOL    HW218051   0.455   2.077  13.239  3.0516 -0.4113 -2.8591
 2140SOL     OW18052   0.445   2.022  12.926 -0.8305  0.2288  0.5944
 2140SOL    HW118053   0.374   1.974  12.969 -0.7030 -1.9538 -1.6471
 2140SOL    HW218054   0.525   1.984  12.962 -1.9318 -2.4455  0.1707
 2141SOL     OW18055   1.414   3.594  17.219 -0.1846 -0.2600  0.0994
 2141SOL    HW118056   1.335   3.569  17.268  0.5341  0.0220  1.3955
 2141SOL    HW218057   1.476   3.536  17.263  0.6072  0.7351  0.2969
 2142SOL     OW18058   3.476   1.387   8.949  0.2306 -0.0845  0.5445
 2142SOL    HW118059   3.493   1.302   8.907 -1.2128  0.4361 -1.0993
 2142SOL    HW218060   3.405   1.363   9.010  0.1118 -3.5629 -0.9442
 2143SOL     OW18061   3.647   2.106   5.834 -0.4124 -0.4945  0.5722
 2143SOL    HW118062   3.648   2.054   5.754 -0.5746 -1.3902  1.1574
 2143SOL    HW218063   3.721   2.162   5.812 -1.2615  1.0283  1.5344
 2144SOL     OW18064   2.617   1.979  14.651 -0.4284 -0.2172 -0.5403
 2144SOL    HW118065   2.592   1.886  14.652  2.0554 -0.8906 -0.0534
 2144SOL    HW218066   2.613   1.996  14.557 -0.7080  1.8790 -0.1424
 2145SOL     OW18067   4.078   1.964   5.962 -0.5185 -0.6189  0.3180
 2145SOL    HW118068   4.072   2.032   6.029  2.1465  0.7838 -0.8732
 2145SOL    HW218069   4.105   1.892   6.020 -0.3148  0.2433  1.2820
 2146SOL     OW18070   4.481   0.904   5.577  0.1905  0.4828 -0.1407
 2146SOL    HW118071   4.474   0.913   5.482  0.7092  0.0593 -0.2178
 2146SOL    HW218072   4.431   0.822   5.573 -1.6070  1.5473  0.2913
 2147SOL     OW18073   0.186   1.621   2.583  0.4287  0.5548  0.6553
 2147SOL    HW118074   0.275   1.586   2.577  0.7827  1.3362  1.3636
 2147SOL    HW218075   0.191   1.657   2.672 -0.1353  0.0462  0.8984
 2148SOL     OW18076   4.095   4.413   1.496  0.3696 -0.0957  0.0218
 2148SOL    HW118077   4.150   4.337   1.516  1.6968  0.1023 -2.9414
 2148SOL    HW218078   4.095   4.406   1.401 -2.3584  2.5384 -0.1927
 2149SOL     OW18079   3.225   2.284   5.626 -0.2414 -0.5396  0.0008
 2149SOL    HW118080   3.141   2.240   5.636  0.2702 -1.8477 -1.4445
 2149SOL    HW218081   3.280   2.211   5.657 -0.0981 -0.2326  0.4656
 2150SOL     OW18082   0.163   2.710   4.730 -0.2068 -0.2613  0.4772
 2150SOL    HW118083   0.084   2.683   4.684 -1.2414  0.8914  1.5635
 2150SOL    HW218084   0.232   2.669   4.677 -0.4606 -0.0320 -0.0249
 2151SOL     OW18085   0.610   4.503   0.658 -0.3565  0.1431 -0.0853
 2151SOL    HW118086   0.633   4.593   0.681  0.0630 -0.1067  0.4582
 2151SOL    HW218087   0.588   4.500   0.565  0.1933  0.7871 -0.2375
 2152SOL     OW18088   0.502   1.846   2.776 -0.6100  0.4914 -0.0643
 2152SOL    HW118089   0.449   1.919   2.743 -2.9374 -0.6181  1.2386
 2152SOL    HW218090   0.437   1.780   2.798 -0.6468  0.2641 -0.8882
 2153SOL     OW18091   2.055   4.065   3.540  0.0340  0.0408  0.2694
 2153SOL    HW118092   1.969   4.105   3.525  0.4329  0.4375 -0.9661
 2153SOL    HW218093   2.055   4.035   3.631  3.4990  3.6471  1.4472
 2154SOL     OW18094   3.511   0.934   4.719  0.1943  0.1598  0.4369
 2154SOL    HW118095   3.477   1.009   4.671  1.6638 -1.0050 -2.4375
 2154SOL    HW218096   3.576   0.968   4.781  0.3445  1.6102 -0.5350
 2155SOL     OW18097   2.499   0.766   6.394 -0.2332  0.2794  0.0635
 2155SOL    HW118098   2.468   0.810   6.314  1.6090 -0.2532 -0.9550
 2155SOL    HW218099   2.470   0.817   6.469  1.7574 -0.5933  1.4422
 2156SOL     OW18100   2.561   0.002   8.716  0.1068  0.5193 -0.5078
 2156SOL    HW118101   2.573   0.003   8.621  0.6524  1.2726 -0.4290
 2156SOL    HW218102   2.633   0.056   8.748  1.1397 -0.3766 -1.3133
 2157SOL     OW18103   2.848   1.865  10.311 -0.2327  0.0870  0.2077
 2157SOL    HW118104   2.890   1.865  10.397  2.0460 -2.4428 -0.9190
 2157SOL    HW218105   2.906   1.821  10.249  0.9854  0.5843  0.9776
 2158SOL     OW18106   2.546   2.540   6.198 -0.7631  0.5894 -0.3694
 2158SOL    HW118107   2.513   2.455   6.228 -1.1200 -0.3234 -3.2690
 2158SOL    HW218108   2.467   2.594   6.187 -0.9466  0.5827  0.9100
 2159SOL     OW18109   4.651   0.290   7.861  0.5852  0.1280 -0.2921
 2159SOL    HW118110   4.582   0.341   7.818 -0.0120 -0.9140 -0.5739
 2159SOL    HW218111   4.702   0.357   7.907  0.8035 -0.9578  1.0441
 2160SOL     OW18112   1.400   3.843   2.435  0.7721 -0.1144 -0.0855
 2160SOL    HW118113   1.422   3.936   2.429 -0.5156  0.3199  1.9134
 2160SOL    HW218114   1.322   3.850   2.490  1.1082 -1.1502  0.5252
 2161SOL     OW18115   3.320   2.766   2.394 -1.1014  0.0641  0.7295
 2161SOL    HW118116   3.251   2.823   2.427  0.8222  2.7807  0.0546
 2161SOL    HW218117   3.282   2.723   2.318 -0.8993  2.3646 -0.6721
 2162SOL     OW18118   0.147   0.254   2.760  0.0478 -0.0409 -0.6402
 2162SOL    HW118119   0.083   0.185   2.776  0.2297  0.0710  0.5553
 2162SOL    HW218120   0.141   0.260   2.664  2.6467 -1.4127 -0.8724
 2163SOL     OW18121   4.583   2.092   3.330 -0.2304 -0.7754  0.0022
 2163SOL    HW118122   4.643   2.160   3.360 -2.1719  1.0823 -0.3096
 2163SOL    HW218123   4.552   2.067   3.417 -3.0775 -0.5459 -0.9563
 2164SOL     OW18124   2.539   3.123  13.838 -0.2468  0.4967  0.0207
 2164SOL    HW118125   2.517   3.216  13.848 -2.0723  0.1044 -0.3238
 2164SOL    HW218126   2.455   3.081  13.817 -0.4412  0.9984 -0.2049
 2165SOL     OW18127   4.587   2.605   5.295 -0.2323  0.5382 -0.3774
 2165SOL    HW118128   4.620   2.516   5.297  1.0889  1.0429  1.1368
 2165SOL    HW218129   4.549   2.606   5.207  0.8335  1.8105 -0.8275
 2166SOL     OW18130   4.721   4.019   9.022  0.1218 -0.2158  0.9282
 2166SOL    HW118131   0.062   4.051   8.978 -1.1561 -0.2335 -1.3617
 2166SOL    HW218132   4.653   4.049   8.961 -0.7122 -0.9333  1.5025
 2167SOL     OW18133   4.512   3.020   7.337  0.2326  0.1924 -0.2624
 2167SOL    HW118134   4.467   3.038   7.420 -0.0606  0.7681 -0.5415
 2167SOL    HW218135   4.560   3.100   7.317 -2.0159  2.1434  1.9786
 2168SOL     OW18136   3.032   1.255   3.163  0.2314  0.1874 -0.4634
 2168SOL    HW118137   3.028   1.219   3.075  0.8336 -1.7400  0.3087
 2168SOL    HW218138   2.999   1.177   3.207 -1.9487  1.5210  0.2259
 2169SOL     OW18139   3.488   2.577   0.117 -0.0126  0.0950 -0.2829
 2169SOL    HW118140   3.404   2.534   0.098 -0.7334  1.0155  0.7745
 2169SOL    HW218141   3.539   2.498   0.134 -0.8347 -0.2305  0.7327
 2170SOL     OW18142   1.296   2.052   3.316 -0.2986 -0.5723 -0.3677
 2170SOL    HW118143   1.325   2.130   3.269 -0.3574 -0.7775 -0.7427
 2170SOL    HW218144   1.314   2.080   3.406 -0.0475 -1.4135 -0.1563
 2171SOL     OW18145   0.889   0.795   9.931  0.2402  0.4518  0.0859
 2171SOL    HW118146   0.856   0.880   9.961 -0.8363 -0.1505  0.5800
 2171SOL    HW218147   0.810   0.742   9.921 -0.2998  1.1898  0.4898
 2172SOL     OW18148   4.639   4.332   6.597  0.4103  0.1182  0.5057
 2172SOL    HW118149   4.638   4.401   6.531  2.2617 -0.6354 -0.3088
 2172SOL    HW218150   4.667   4.271   6.529  0.2397  2.0991 -1.3458
 2173SOL     OW18151   1.513   3.663  13.323 -0.2455 -0.1800 -0.3509
 2173SOL    HW118152   1.462   3.703  13.253 -1.3792  0.0592  0.6011
 2173SOL    HW218153   1.565   3.736  13.356 -2.1792  1.7572 -1.6103
 2174SOL     OW18154   4.268   0.226   8.542 -0.5052 -0.5136  1.1031
 2174SOL    HW118155   4.233   0.282   8.473  0.5831  0.5647  1.4223
 2174SOL    HW218156   4.327   0.282   8.592  1.2460 -1.6658  0.3281
 2175SOL     OW18157   0.070   1.903   7.035 -0.2324 -0.2244  0.3220
 2175SOL    HW118158   0.149   1.867   6.993 -0.2549 -0.6215  0.6210
 2175SOL    HW218159   0.098   1.964   7.103 -1.9378  2.1862 -1.1343
 2176SOL     OW18160   0.854   4.462   4.288  0.1098 -0.6584 -0.2663
 2176SOL    HW118161   0.762   4.439   4.272  0.2879 -0.8215 -1.0795
 2176SOL    HW218162   0.895   4.400   4.228  1.2135 -0.5602  0.3930
 2177SOL     OW18163   3.906   1.524  12.350  0.3144  0.1043 -0.2308
 2177SOL    HW118164   4.000   1.513  12.341  0.5201  0.8106  0.9945
 2177SOL    HW218165   3.878   1.511  12.260  2.2935  1.4021 -1.0303
 2178SOL     OW18166   0.894   0.109  16.851 -0.0827  0.0579  0.0287
 2178SOL    HW118167   0.953   0.036  16.870 -0.9403 -0.8131 -0.6861
 2178SOL    HW218168   0.821   0.082  16.906  0.4411 -1.4098  0.0068
 2179SOL     OW18169   3.604   0.401   0.937 -0.1776 -0.1313 -0.0266
 2179SOL    HW118170   3.620   0.327   0.996  2.9734  0.3363 -0.3118
 2179SOL    HW218171   3.659   0.380   0.861  0.3927  0.5917  0.1942
 2180SOL     OW18172   2.256   3.473   4.083  0.2855  0.4494 -0.4429
 2180SOL    HW118173   2.332   3.424   4.112 -0.6648  0.9611  2.8768
 2180SOL    HW218174   2.196   3.407   4.119  2.4180 -2.1155 -1.6036
 2181SOL     OW18175   1.232   2.533   2.876  0.2215  0.1222  0.5478
 2181SOL    HW118176   1.209   2.536   2.969 -2.1421  0.8884 -0.0680
 2181SOL    HW218177   1.164   2.583   2.832  0.9255  0.9327  0.3702
 2182SOL     OW18178   4.560   2.603   4.031 -0.2451  0.6462 -0.5544
 2182SOL    HW118179   4.474   2.646   4.028 -0.7005 -0.4487 -2.8939
 2182SOL    HW218180   4.528   2.515   4.016  0.2147  0.6449 -1.5434
 2183SOL     OW18181   0.793   0.292   3.217  0.5141  0.4984 -0.0050
 2183SOL    HW118182   0.859   0.353   3.185 -0.1045  0.9323 -0.4565
 2183SOL    HW218183   0.758   0.340   3.292  0.7719 -0.2878  0.6200
 2184SOL     OW18184   4.076   4.167  10.125  0.1548  0.2749  0.0441
 2184SOL    HW118185   4.080   4.083  10.079 -2.2568 -0.1897  0.6911
 2184SOL    HW218186   3.984   4.188  10.113  0.0631 -1.7802 -2.8731
 2185SOL     OW18187   2.993   3.470   6.892  0.3681 -0.2935  0.8733
 2185SOL    HW118188   3.015   3.563   6.901  0.9167 -0.1947 -1.4851
 2185SOL    HW218189   2.918   3.470   6.833  2.0975  1.2145 -1.3426
 2186SOL     OW18190   0.553   1.396  16.201  0.0223  0.9974 -0.1101
 2186SOL    HW118191   0.531   1.369  16.112 -0.1119 -0.2469  0.2983
 2186SOL    HW218192   0.642   1.426  16.183  1.1586 -1.8727  0.7430
 2187SOL     OW18193   2.463   3.950  17.310 -0.3972  0.8958 -0.3426
 2187SOL    HW118194   2.474   4.041  17.282  0.8075  0.1538 -2.2732
 2187SOL    HW218195   2.517   3.908  17.244 -0.4802 -0.9002  0.7539
 2188SOL     OW18196   4.727   0.850   7.965 -0.6144  0.2393  0.0572
 2188SOL    HW118197   4.693   0.818   8.049  3.8401  0.3703  1.8702
 2188SOL    HW218198   0.021   0.939   7.981  0.0887  0.1412 -0.7280
 2189SOL     OW18199   3.381   3.947   2.806 -0.6927 -0.7607  0.5172
 2189SOL    HW118200   3.422   3.885   2.866 -0.2941 -1.5298 -0.5604
 2189SOL    HW218201   3.317   3.985   2.866 -0.0317  0.9224  0.1636
 2190SOL     OW18202   0.620   4.040   7.738  0.7053 -0.1789  0.0198
 2190SOL    HW118203   0.711   4.038   7.770  1.0584  3.1708 -0.7436
 2190SOL    HW218204   0.599   4.133   7.734 -1.2929 -0.6935 -1.5490
 2191SOL     OW18205   3.520   3.421  12.325 -0.1180 -0.0447 -0.5588
 2191SOL    HW118206   3.571   3.501  12.311 -0.6340  0.4655  0.5037
 2191SOL    HW218207   3.573   3.367  12.265  0.0855 -0.8599  0.3466
 2192SOL     OW18208   0.042   0.042   5.275  0.1702 -0.3175  0.3281
 2192SOL    HW118209   0.072   0.088   5.197 -0.4384  1.6133  1.2538
 2192SOL    HW218210   4.689   0.075   5.279 -0.4295 -1.9095  0.0106
 2193SOL     OW18211   2.841   1.774   3.264  0.1331  0.3091 -0.4901
 2193SOL    HW118212   2.769   1.739   3.211 -0.4461 -0.8205  1.0513
 2193SOL    HW218213   2.891   1.698   3.294  0.0236  0.3667 -0.1664
 2194SOL     OW18214   0.931   4.079  16.989  0.0695  0.1963 -0.1433
 2194SOL    HW118215   0.934   4.160  17.039 -0.5506  0.8123 -1.1025
 2194SOL    HW218216   0.942   4.122  16.904 -0.5262  1.3079  0.3399
 2195SOL     OW18217   4.626   3.993  16.529 -0.1334  0.0445 -0.3853
 2195SOL    HW118218   4.661   4.056  16.465  0.2706 -0.8127 -1.0021
 2195SOL    HW218219   4.616   4.042  16.611 -1.5271  1.6573 -1.4908
 2196SOL     OW18220   1.438   0.279  10.138  0.1799 -0.0366  0.4941
 2196SOL    HW118221   1.428   0.252  10.047  0.5189  0.5912  0.2693
 2196SOL    HW218222   1.389   0.361  10.137  1.7515  0.8964 -0.0518
 2197SOL     OW18223   3.601   4.389   4.577  0.6181 -0.0156 -0.0868
 2197SOL    HW118224   3.566   4.391   4.488  0.2049  2.3065  0.1260
 2197SOL    HW218225   3.545   4.317   4.607 -0.3071  0.6868 -0.1019
 2198SOL     OW18226   3.907   2.094  16.471 -0.2304 -0.1079 -0.2620
 2198SOL    HW118227   3.874   2.184  16.462 -0.6019 -0.3196 -1.0103
 2198SOL    HW218228   3.855   2.048  16.405  0.0811 -2.8566  1.4077
 2199SOL     OW18229   3.396   0.969  14.320 -0.0515  0.2844  0.1817
 2199SOL    HW118230   3.392   1.048  14.266 -0.2977 -0.8679 -1.4891
 2199SOL    HW218231   3.392   1.009  14.407  0.1692  0.2699  0.1979
 2200SOL     OW18232   0.428   4.407   2.338  0.0397  0.1863  0.5417
 2200SOL    HW118233   0.333   4.417   2.340 -0.3366 -3.4258 -0.0707
 2200SOL    HW218234   0.436   4.323   2.293 -3.1306 -0.8387  1.9005
 2201SOL     OW18235   1.970   4.266  11.392  0.0174 -0.0758  0.1110
 2201SOL    HW118236   1.997   4.175  11.376  0.2752  0.2845 -1.5142
 2201SOL    HW218237   2.043   4.315  11.431  0.0891 -0.6410  0.6962
 2202SOL     OW18238   1.322   4.320  14.876  0.5554  0.2358 -0.2245
 2202SOL    HW118239   1.315   4.234  14.918  2.1733  0.5410  0.6503
 2202SOL    HW218240   1.410   4.314  14.841  1.3763  0.9602  1.7246
 2203SOL     OW18241   3.551   2.098  12.972 -0.1941 -0.0427 -0.7465
 2203SOL    HW118242   3.565   2.189  12.945 -1.0507  0.1764 -0.4589
 2203SOL    HW218243   3.465   2.107  13.014 -0.3145  3.4184 -1.6733
 2204SOL     OW18244   1.928   1.144   6.837 -0.2445  0.3108  0.4513
 2204SOL    HW118245   2.021   1.162   6.820 -0.1911 -0.1764  0.2090
 2204SOL    HW218246   1.896   1.151   6.747  1.2439  0.1898 -0.1009
 2205SOL     OW18247   4.586   4.219   9.330  0.3834  0.0165  0.5428
 2205SOL    HW118248   4.604   4.300   9.282 -1.7265  0.3923  0.4014
 2205SOL    HW218249   4.592   4.252   9.420  1.1484 -1.9975  1.2336
 2206SOL     OW18250   2.346   1.981   0.166 -0.0800  0.0700  0.0045
 2206SOL    HW118251   2.379   1.919   0.101  1.7506  0.5910  0.4634
 2206SOL    HW218252   2.268   2.004   0.115 -1.0555 -0.9812  1.0192
 2207SOL     OW18253   3.083   3.327   6.019  0.1501  0.2912 -0.2164
 2207SOL    HW118254   3.176   3.342   6.029  0.4729 -0.5126 -1.8999
 2207SOL    HW218255   3.055   3.321   6.110  0.3056 -0.8843 -0.2528
 2208SOL     OW18256   3.352   1.246   1.155 -0.2014  0.3807  0.0208
 2208SOL    HW118257   3.385   1.317   1.100  0.3828  1.1471  1.3616
 2208SOL    HW218258   3.435   1.199   1.154  0.6305  1.7523  3.7866
 2209SOL     OW18259   4.513   1.164   9.896 -0.0704 -0.3047 -0.3272
 2209SOL    HW118260   4.547   1.180   9.808  0.2835 -0.6916 -0.2581
 2209SOL    HW218261   4.596   1.136   9.935 -1.1229 -1.1331  1.3203
 2210SOL     OW18262   1.377   2.844  14.797 -0.2144  0.2466  0.4573
 2210SOL    HW118263   1.436   2.843  14.872  2.1703  0.8779 -1.4229
 2210SOL    HW218264   1.291   2.833  14.838  0.1425  1.2216  1.4835
 2211SOL     OW18265   2.547   0.998   1.850 -0.7057  0.1499  0.0747
 2211SOL    HW118266   2.452   0.998   1.862 -0.7930 -2.4771 -0.5175
 2211SOL    HW218267   2.545   1.038   1.763 -0.6683  0.2951  0.1415
 2212SOL     OW18268   1.522   3.541   8.976 -0.4589  0.1208  0.2636
 2212SOL    HW118269   1.435   3.576   8.956 -0.2170 -0.2556 -1.4264
 2212SOL    HW218270   1.512   3.446   8.984  0.0212  0.0606  0.1262
 2213SOL     OW18271   0.315   0.689   3.713  0.7119  0.4636 -0.2832
 2213SOL    HW118272   0.248   0.726   3.771  0.7813 -0.7325  0.5486
 2213SOL    HW218273   0.282   0.718   3.628  1.7445 -0.3146 -0.9524
 2214SOL     OW18274   4.026   3.060   6.604  0.2729 -0.2257  0.4647
 2214SOL    HW118275   4.116   3.034   6.585  0.5297  0.2719  0.9748
 2214SOL    HW218276   4.024   3.077   6.698  0.5781 -0.4130  0.5025
 2215SOL     OW18277   3.889   0.795  11.608 -0.4206  0.2881 -0.5555
 2215SOL    HW118278   3.935   0.856  11.550  0.7327  0.9767  1.0825
 2215SOL    HW218279   3.952   0.793  11.679 -0.7676  0.9437 -0.2294
 2216SOL     OW18280   3.185   3.426   8.050 -0.1837  0.0689 -0.1275
 2216SOL    HW118281   3.118   3.480   8.007 -0.3920 -0.7781 -0.8496
 2216SOL    HW218282   3.264   3.479   8.037  0.1188 -0.5026 -0.5923
 2217SOL     OW18283   3.047   2.122   4.335 -0.1471  0.1211  0.1141
 2217SOL    HW118284   3.117   2.168   4.290  0.0261 -0.8259 -0.5858
 2217SOL    HW218285   3.043   2.041   4.285  0.3433  1.5971 -2.2846
 2218SOL     OW18286   0.731   0.803  16.775 -0.3020  0.0494  0.2435
 2218SOL    HW118287   0.713   0.712  16.799 -0.2610 -0.8898 -3.3487
 2218SOL    HW218288   0.680   0.841  16.846  1.8019  3.1275  0.0855
 2219SOL     OW18289   3.118   3.077   9.616 -0.0207 -0.0300  0.2498
 2219SOL    HW118290   3.133   3.048   9.526  0.4066  0.3246  0.2066
 2219SOL    HW218291   3.113   3.172   9.601 -0.6853 -0.3338 -1.5118
 2220SOL     OW18292   4.514   0.826   6.417  0.5154  0.3407 -0.4010
 2220SOL    HW118293   4.490   0.740   6.451 -0.8761  1.4924  1.5609
 2220SOL    HW218294   4.451   0.829   6.344 -0.9568  1.5428  0.9083
 2221SOL     OW18295   1.941   2.222   4.697  0.6513  0.2061 -0.5308
 2221SOL    HW118296   1.991   2.141   4.694  2.4508  1.2798  0.1611
 2221SOL    HW218297   2.000   2.293   4.673  0.3727  0.3250 -0.8704
 2222SOL     OW18298   4.233   2.959   2.705  0.4848 -0.1976  0.0583
 2222SOL    HW118299   4.198   2.872   2.724  4.8070 -1.6911  1.2132
 2222SOL    HW218300   4.279   2.940   2.623  0.4441  1.2561 -0.2988
 2223SOL     OW18301   0.248   0.120   1.636  1.0711 -0.3830 -0.3692
 2223SOL    HW118302   0.293   0.106   1.553  2.0694  0.4588  0.0351
 2223SOL    HW218303   0.208   0.206   1.620 -0.1205 -0.8194  0.2019
 2224SOL     OW18304   0.277   1.723   2.856  1.0363 -0.0333  0.3881
 2224SOL    HW118305   0.221   1.658   2.897  1.0098 -2.0884 -2.8443
 2224SOL    HW218306   0.243   1.805   2.890  1.9513 -0.1884  1.6724
 2225SOL     OW18307   4.016   3.137   1.809 -0.0489  0.0035  0.2128
 2225SOL    HW118308   4.053   3.061   1.764  1.6951  0.1603  1.3633
 2225SOL    HW218309   4.033   3.200   1.739 -2.0513 -1.3192 -1.4527
 2226SOL     OW18310   0.692   3.637   4.679 -0.5344  0.5551 -0.0617
 2226SOL    HW118311   0.701   3.620   4.586  1.2577 -1.2511  0.4516
 2226SOL    HW218312   0.598   3.654   4.687 -0.9786 -2.4420  0.8338
 2227SOL     OW18313   0.370   0.595  11.161 -0.5742 -0.4741  0.1173
 2227SOL    HW118314   0.317   0.588  11.081  0.7308  1.6068 -0.9321
 2227SOL    HW218315   0.322   0.669  11.198 -0.2636 -0.5105  0.5825
 2228SOL     OW18316   0.926   1.000   7.635 -0.0346 -0.1695  0.1985
 2228SOL    HW118317   0.871   0.926   7.662 -0.4841 -0.3633 -1.2315
 2228SOL    HW218318   0.973   1.026   7.714 -1.3790  0.5420  0.7495
 2229SOL     OW18319   2.823   0.396   4.731  0.0669 -0.2391  0.6291
 2229SOL    HW118320   2.776   0.475   4.706  0.9645 -0.5417 -1.9955
 2229SOL    HW218321   2.770   0.375   4.808 -0.7239  0.1083  0.1720
 2230SOL     OW18322   0.997   4.702   8.764 -0.2706 -0.0852 -0.6353
 2230SOL    HW118323   0.921   4.733   8.714  0.1295  0.1889 -1.0673
 2230SOL    HW218324   0.987   4.608   8.747 -0.8104 -0.5746  2.3563
 2231SOL     OW18325   3.688   4.661   6.325 -0.1136  0.3795  0.2329
 2231SOL    HW118326   3.629   4.586   6.322  0.7008 -0.2719  0.5056
 2231SOL    HW218327   3.769   4.612   6.313 -0.6235 -0.5589  0.6081
 2232SOL     OW18328   1.081   2.026   9.128  0.6356  0.0085  0.0634
 2232SOL    HW118329   1.163   1.988   9.095  1.9165  2.5714  0.2611
 2232SOL    HW218330   1.076   1.980   9.211  2.7423  1.3785  0.9498
 2233SOL     OW18331   1.378   1.727   4.006 -0.1007 -0.6704 -0.1511
 2233SOL    HW118332   1.286   1.713   4.032 -0.0735 -2.5799 -1.0806
 2233SOL    HW218333   1.389   1.689   3.919 -0.0272  0.4359 -0.6274
 2234SOL     OW18334   4.638   2.748   9.755  0.3878  0.1974 -0.5630
 2234SOL    HW118335   4.566   2.807   9.775  3.5940  3.1356  2.4014
 2234SOL    HW218336   4.597   2.691   9.690  1.4710  1.4758 -2.3855
 2235SOL     OW18337   0.213   2.759   2.437  0.6074 -0.1575 -0.0577
 2235SOL    HW118338   0.144   2.775   2.501  0.6216  0.8817 -0.2986
 2235SOL    HW218339   0.197   2.819   2.364 -2.8181 -0.4807  0.3920
 2236SOL     OW18340   2.322   1.172   8.752  0.1215  0.2788 -0.1717
 2236SOL    HW118341   2.270   1.191   8.673  1.6023  1.2111 -0.9211
 2236SOL    HW218342   2.408   1.156   8.713  1.9456  3.9020  2.4203
 2237SOL     OW18343   0.099   4.253   7.982 -0.4572  0.3287 -0.3254
 2237SOL    HW118344   0.084   4.297   7.899 -0.1480  1.4388  0.2041
 2237SOL    HW218345   0.012   4.231   8.015  0.3267 -1.2648  0.6687
 2238SOL     OW18346   0.005   2.446   6.042 -0.4087 -0.1167  0.4280
 2238SOL    HW118347   0.013   2.355   6.069  1.2545 -0.7634 -2.3973
 2238SOL    HW218348   4.660   2.473   6.086  0.5311  1.6264  1.1273
 2239SOL     OW18349   0.515   3.341   2.549  0.4178 -0.0605  0.0181
 2239SOL    HW118350   0.438   3.390   2.579 -1.7744 -0.5960 -4.6445
 2239SOL    HW218351   0.471   3.258   2.531  0.2945 -0.3180  1.4872
 2240SOL     OW18352   1.084   3.087   5.389  0.3523 -0.2531 -0.4773
 2240SOL    HW118353   1.038   3.168   5.366 -1.0349 -1.7086 -2.7271
 2240SOL    HW218354   1.043   3.059   5.471  0.0244 -0.4391 -0.7089
 2241SOL     OW18355   0.289   1.818   7.588 -0.1051  0.1702  0.1903
 2241SOL    HW118356   0.307   1.727   7.611 -3.3055 -0.3243  0.7144
 2241SOL    HW218357   0.290   1.826   7.493 -2.1734  1.3556  0.2908
 2242SOL     OW18358   4.683   3.272  10.924  0.1110  0.0436 -0.6957
 2242SOL    HW118359   4.672   3.185  10.961  2.1924 -0.9182 -2.3016
 2242SOL    HW218360   4.676   3.328  11.001  2.2459  1.8195 -1.7879
 2243SOL     OW18361   0.699   2.602  13.433 -0.1367 -0.3469  0.6841
 2243SOL    HW118362   0.622   2.606  13.490 -0.3365 -0.6753  0.4409
 2243SOL    HW218363   0.663   2.539  13.370  0.0139  0.9526 -0.7270
 2244SOL     OW18364   1.111   0.338   6.306  0.6120  0.2045 -0.4969
 2244SOL    HW118365   1.120   0.267   6.242  1.5169 -0.2749  0.1606
 2244SOL    HW218366   1.022   0.373   6.302  0.9466  0.9309 -1.8680
 2245SOL     OW18367   1.309   4.117  10.941 -0.3097 -0.2572  0.0315
 2245SOL    HW118368   1.266   4.052  10.996  0.2967 -0.4996  0.2152
 2245SOL    HW218369   1.382   4.154  10.990  0.3036 -0.0492 -1.0400
 2246SOL     OW18370   4.701   1.038   5.305  0.0752  0.3617  0.0851
 2246SOL    HW118371   4.648   1.102   5.258  0.5711  0.5152 -0.2629
 2246SOL    HW218372   4.629   0.982   5.336  1.3094 -0.2277  1.8825
 2247SOL     OW18373   4.549   4.545   7.429  0.1012  0.9648  0.5381
 2247SOL    HW118374   4.462   4.573   7.403  0.2984  0.5537 -0.5378
 2247SOL    HW218375   4.601   4.618   7.463 -0.1346  0.5577  1.7710
 2248SOL     OW18376   1.393   0.131  12.624 -0.0457 -0.0475 -0.3545
 2248SOL    HW118377   1.316   0.147  12.678  1.1705  0.8130  1.1152
 2248SOL    HW218378   1.461   0.126  12.692 -0.0891 -1.1965 -0.3964
 2249SOL     OW18379   0.257   1.242  17.315 -0.4854 -0.2621  0.6183
 2249SOL    HW118380   0.278   1.191  17.236 -1.0967  0.0107  0.2779
 2249SOL    HW218381   0.200   1.191  17.372 -0.4225 -1.2052 -0.1595
 2250SOL     OW18382   4.390   0.898  10.139  0.4787 -0.1173 -0.2052
 2250SOL    HW118383   4.424   0.809  10.134 -0.7901 -0.5852 -0.5615
 2250SOL    HW218384   4.325   0.891  10.068  0.7513 -0.9029 -0.3759
 2251SOL     OW18385   3.908   0.726   6.046  0.3330  0.0411 -0.0900
 2251SOL    HW118386   3.822   0.710   6.085 -0.1999  3.9645  0.4260
 2251SOL    HW218387   3.888   0.806   5.997 -0.3828  1.0774  1.8868
 2252SOL     OW18388   4.672   1.128  17.528 -0.3228 -0.2646 -0.3270
 2252SOL    HW118389   4.735   1.073  17.574  1.0232 -0.0296 -1.9308
 2252SOL    HW218390   4.595   1.073  17.518  0.3975 -1.2364 -0.4395
 2253SOL     OW18391   4.513   3.216   3.763  0.5109 -0.3199 -0.3872
 2253SOL    HW118392   4.450   3.285   3.744  0.3693  0.1372  1.7209
 2253SOL    HW218393   4.583   3.223   3.698 -0.4424 -1.9047 -1.5681
 2254SOL     OW18394   0.686   4.294   6.352  0.4628 -0.1104 -0.0060
 2254SOL    HW118395   0.682   4.314   6.445  0.9602  1.0860 -0.2504
 2254SOL    HW218396   0.655   4.204   6.360 -0.9391 -0.3122 -7.0341
 2255SOL     OW18397   4.208   1.558  10.776 -0.5168 -0.1975 -0.0724
 2255SOL    HW118398   4.287   1.599  10.812  0.0811  1.5598 -3.3926
 2255SOL    HW218399   4.158   1.541  10.855 -0.7866 -1.0129 -0.4125
 2256SOL     OW18400   4.091   2.959   7.934 -0.1420  0.2322  0.3422
 2256SOL    HW118401   4.019   2.941   7.995 -0.0176 -2.9277 -0.4150
 2256SOL    HW218402   4.150   3.013   7.986 -0.2435 -0.3376  1.0444
 2257SOL     OW18403   0.134   1.398   4.605 -0.0505  0.8771 -0.0978
 2257SOL    HW118404   0.064   1.337   4.628  0.9163 -0.2464 -0.1476
 2257SOL    HW218405   0.218   1.358   4.630 -0.3315  0.1521 -0.3270
 2258SOL     OW18406   2.601   2.640  12.777 -0.6011  0.1686 -0.3263
 2258SOL    HW118407   2.583   2.669  12.866 -1.8947  0.9145 -0.8217
 2258SOL    HW218408   2.697   2.636  12.779 -0.7007 -1.9039  0.5407
 2259SOL     OW18409   4.403   1.775  17.323  0.3068  0.3540  0.0314
 2259SOL    HW118410   4.316   1.734  17.320  0.3922 -0.0044  2.5212
 2259SOL    HW218411   4.455   1.717  17.267  0.5337  0.6752 -0.0860
 2260SOL     OW18412   2.439   0.927   0.373  0.1145  0.3833  0.3200
 2260SOL    HW118413   2.473   0.947   0.286  2.0362  0.2481  1.0472
 2260SOL    HW218414   2.462   1.006   0.422 -1.2466  1.4167 -0.6931
 2261SOL     OW18415   2.394   0.804   5.542  0.2226  0.0200 -0.7409
 2261SOL    HW118416   2.343   0.738   5.495 -1.1805 -1.1209  2.3684
 2261SOL    HW218417   2.332   0.876   5.552  0.7340  0.4683 -0.7966
 2262SOL     OW18418   4.579   2.911   4.257 -0.6474 -0.0083  0.0285
 2262SOL    HW118419   4.598   2.988   4.204  3.3623 -0.1182  1.3020
 2262SOL    HW218420   4.485   2.901   4.241 -0.1666  0.9826 -3.4042
 2263SOL     OW18421   1.310   0.563   6.179 -0.6432 -0.0262  0.6688
 2263SOL    HW118422   1.244   0.519   6.233  1.2745 -1.3482  1.9340
 2263SOL    HW218423   1.289   0.541   6.088  1.5179 -0.0527  0.1955
 2264SOL     OW18424   3.757   1.341   7.344  0.0497 -0.4706 -0.4733
 2264SOL    HW118425   3.700   1.380   7.277  0.2467  0.6760  0.0228
 2264SOL    HW218426   3.714   1.255   7.343 -0.0216 -0.4099 -2.5086
 2265SOL     OW18427   2.984   1.833  11.075 -0.2515 -0.4058 -0.2665
 2265SOL    HW118428   2.901   1.811  11.119 -0.1579  0.2806  0.2483
 2265SOL    HW218429   3.050   1.857  11.140 -1.0241  0.4508  0.1955
 2266SOL     OW18430   3.488   2.411  16.698 -0.0573  0.2132  0.1073
 2266SOL    HW118431   3.416   2.426  16.637  0.0300 -2.0457 -0.5674
 2266SOL    HW218432   3.442   2.383  16.777  1.8786  1.8546  1.7983
 2267SOL     OW18433   0.243   1.592   8.638  0.0022  0.5350  0.3132
 2267SOL    HW118434   0.169   1.586   8.579  1.4511 -0.4143 -1.3955
 2267SOL    HW218435   0.308   1.621   8.574 -0.9474  1.7707 -0.0879
 2268SOL     OW18436   1.009   3.946   3.886 -0.4890 -0.1188 -0.2255
 2268SOL    HW118437   1.072   3.891   3.837  1.4922  2.7440 -0.9140
 2268SOL    HW218438   1.047   4.029   3.856 -0.1730  0.0606  0.6997
 2269SOL     OW18439   3.452   0.755   5.693 -0.2935 -0.4932  0.3195
 2269SOL    HW118440   3.525   0.711   5.737  0.1825  0.9247  0.9235
 2269SOL    HW218441   3.413   0.809   5.762 -0.6229  0.1266 -0.3534
 2270SOL     OW18442   4.238   2.771   7.191  0.1291 -0.4955  0.3935
 2270SOL    HW118443   4.275   2.743   7.275 -0.4402  0.3581  0.9331
 2270SOL    HW218444   4.148   2.740   7.196 -0.4044  0.5521 -2.4800
 2271SOL     OW18445   2.203   0.945   9.684  0.2453 -0.0569  0.1470
 2271SOL    HW118446   2.148   0.976   9.613 -1.5782 -1.6275  0.8658
 2271SOL    HW218447   2.266   1.015   9.677  0.6536 -0.2831  1.5498
 2272SOL     OW18448   2.499   3.406   3.660  0.4120  0.0152  0.4624
 2272SOL    HW118449   2.432   3.345   3.629 -0.4841  1.3930 -0.3473
 2272SOL    HW218450   2.439   3.456   3.715 -0.2616 -0.5088  0.2049
 2273SOL     OW18451   4.686   0.401   6.272  0.2367 -0.9499  0.8166
 2273SOL    HW118452   4.627   0.429   6.342  1.4422 -1.5886  2.0887
 2273SOL    HW218453   0.036   0.397   6.310  0.5464 -0.0262  0.1892
 2274SOL     OW18454   4.324   3.328   7.102 -0.1682  0.1143  0.0247
 2274SOL    HW118455   4.399   3.345   7.157  0.1317 -0.8390 -0.0773
 2274SOL    HW218456   4.362   3.283   7.026  2.0588  3.7131 -0.9519
 2275SOL     OW18457   1.631   4.205   7.538 -0.2342  0.4253 -0.0937
 2275SOL    HW118458   1.701   4.166   7.486 -1.1213  0.1747 -1.1186
 2275SOL    HW218459   1.625   4.134   7.601 -2.1297 -0.3768 -1.1728
 2276SOL     OW18460   3.185   3.358   7.072 -0.0144  0.4017 -0.2298
 2276SOL    HW118461   3.253   3.315   7.020 -0.1098 -0.2896  0.2272
 2276SOL    HW218462   3.132   3.404   7.007 -1.8262  0.9007  1.6186
 2277SOL     OW18463   3.037   3.724  16.132 -0.3110  0.0456  1.0472
 2277SOL    HW118464   3.048   3.643  16.081 -0.0896  0.3297  0.6430
 2277SOL    HW218465   3.122   3.750  16.167  0.5336  0.2715 -1.1368
 2278SOL     OW18466   0.070   0.299   2.500 -0.3216 -0.3066 -0.2231
 2278SOL    HW118467   4.715   0.285   2.475 -0.4335  2.5634 -1.4179
 2278SOL    HW218468   0.119   0.262   2.426  1.0892 -0.7595  0.9523
 2279SOL     OW18469   2.067   2.885   3.966  0.0378  0.2709  0.2960
 2279SOL    HW118470   2.117   2.889   4.048  0.3740  0.8327  0.0604
 2279SOL    HW218471   2.143   2.891   3.909 -0.0006  0.4191  0.2613
 2280SOL     OW18472   3.256   0.017   1.148  0.0318 -0.3003 -0.0876
 2280SOL    HW118473   3.161   0.016   1.133  0.3798 -1.7835 -2.2816
 2280SOL    HW218474   3.263   4.660   1.165 -0.5229 -0.1239  1.0825
 2281SOL     OW18475   1.762   4.172  10.667 -0.4084 -0.2810 -0.6914
 2281SOL    HW118476   1.750   4.251  10.719  0.8823  0.1887 -1.1182
 2281SOL    HW218477   1.693   4.120  10.708 -3.2391  2.1341 -2.4253
 2282SOL     OW18478   1.351   0.322  15.580 -0.0150 -0.3673  0.1627
 2282SOL    HW118479   1.441   0.291  15.579  0.0525 -0.2600  1.7313
 2282SOL    HW218480   1.313   0.272  15.508  0.7621 -0.5857 -0.0883
 2283SOL     OW18481   3.792   1.246   2.902  0.3148 -0.0032 -0.1134
 2283SOL    HW118482   3.790   1.157   2.865  1.0458  0.0285 -0.2238
 2283SOL    HW218483   3.886   1.252   2.916  0.1727 -0.9351  1.3314
 2284SOL     OW18484   1.875   0.375   4.941 -0.0476 -0.5140  0.1553
 2284SOL    HW118485   1.893   0.296   4.992  1.7101  1.1555  2.1309
 2284SOL    HW218486   1.931   0.445   4.976 -0.8436 -0.2067  0.8313
 2285SOL     OW18487   2.462   0.524   4.795 -0.4009 -0.4390 -0.2296
 2285SOL    HW118488   2.527   0.558   4.734  0.4272 -1.2619  0.1852
 2285SOL    HW218489   2.453   0.435   4.760 -2.1875 -0.1201 -0.5772
 2286SOL     OW18490   2.660   1.247  14.778 -0.0148  0.2315 -0.0265
 2286SOL    HW118491   2.737   1.197  14.754 -1.0691 -1.0163 -0.8225
 2286SOL    HW218492   2.591   1.216  14.720 -1.1348  0.1372  1.3418
 2287SOL     OW18493   0.253   2.613   0.824 -0.1466 -0.2176 -0.1348
 2287SOL    HW118494   0.216   2.571   0.746  1.2212 -3.2584  0.8609
 2287SOL    HW218495   0.179   2.615   0.885  0.6087 -2.2860  0.8517
 2288SOL     OW18496   1.734   0.651   5.164 -0.4616  0.3136 -0.2987
 2288SOL    HW118497   1.638   0.646   5.160 -0.5030 -0.1187  1.3181
 2288SOL    HW218498   1.747   0.661   5.258  0.7753 -0.1378 -0.4226
 2289SOL     OW18499   3.517   4.699  16.512  0.1346 -0.7423 -0.5865
 2289SOL    HW118500   3.594   4.703  16.568 -2.2521 -2.4908  2.8267
 2289SOL    HW218501   3.558   4.667  16.432  0.4558  0.9596 -1.1066
 2290SOL     OW18502   0.359   1.862   8.786  0.3348 -0.1060  0.2795
 2290SOL    HW118503   0.339   1.938   8.840  2.0530 -1.0599  2.2445
 2290SOL    HW218504   0.306   1.872   8.707  3.2566  1.1463 -1.5483
 2291SOL     OW18505   3.814   4.473  16.243  0.5628 -0.0827 -0.2096
 2291SOL    HW118506   3.799   4.392  16.194  0.5351 -1.0848  1.4279
 2291SOL    HW218507   3.894   4.506  16.203  0.4249  0.7766  0.2445
 2292SOL     OW18508   0.664   1.485   4.135 -0.3495 -0.5170 -0.4289
 2292SOL    HW118509   0.664   1.577   4.162 -0.0216 -0.9737  1.1583
 2292SOL    HW218510   0.643   1.492   4.042  0.9800 -2.0447 -0.8444
 2293SOL     OW18511   4.241   0.656  11.594  0.0738 -0.3755  0.0088
 2293SOL    HW118512   4.226   0.659  11.499  2.9861 -1.9949 -0.4931
 2293SOL    HW218513   4.254   0.751  11.598 -0.7625 -0.3526  1.8924
 2294SOL     OW18514   1.521   2.910   2.797  0.2991 -0.2747  0.5214
 2294SOL    HW118515   1.469   2.911   2.877  0.4601 -2.9224  0.6711
 2294SOL    HW218516   1.482   2.986   2.753 -1.3459 -0.5938  1.4006
 2295SOL     OW18517   2.210   1.578   4.906 -0.1035  0.0885 -0.3186
 2295SOL    HW118518   2.161   1.495   4.897 -0.5581  0.2052  0.9568
 2295SOL    HW218519   2.153   1.633   4.852  1.1723  0.6036 -1.1159
 2296SOL     OW18520   1.968   1.565   1.187  0.0491  0.0561  0.1662
 2296SOL    HW118521   1.977   1.536   1.096 -0.6400 -0.5159  0.2767
 2296SOL    HW218522   1.920   1.648   1.186 -1.0050 -0.5439  0.6814
 2297SOL     OW18523   2.911   2.304   8.908 -0.2527  0.1559  0.3748
 2297SOL    HW118524   2.951   2.274   8.827 -2.8814 -2.0856 -0.1142
 2297SOL    HW218525   2.964   2.272   8.981 -0.9275  0.5721  1.0502
 2298SOL     OW18526   4.046   0.097  12.979  0.4057 -0.6669  0.2962
 2298SOL    HW118527   3.985   0.129  12.912  0.0234 -0.6736  0.6374
 2298SOL    HW218528   4.116   0.161  12.976 -0.5052  0.3139  0.0636
 2299SOL     OW18529   1.888   3.168   9.656  0.2339  0.5543  0.4347
 2299SOL    HW118530   1.798   3.195   9.673 -0.0090  1.0019 -1.5831
 2299SOL    HW218531   1.919   3.150   9.745  0.9349  1.2594  0.3307
 2300SOL     OW18532   2.940   0.586   6.446 -0.1239 -0.2951 -0.3201
 2300SOL    HW118533   2.972   0.514   6.391  1.5894  0.0114  0.2717
 2300SOL    HW218534   2.935   0.540   6.529  1.2318  0.6338  0.2870
 2301SOL     OW18535   2.688   0.830   6.757 -0.3677 -0.0929  0.2057
 2301SOL    HW118536   2.760   0.853   6.699 -1.0372  1.6062  0.0552
 2301SOL    HW218537   2.702   0.893   6.827 -0.6595 -0.5156  0.6502
 2302SOL     OW18538   2.068   1.801  16.066  0.5948  0.3225  0.5124
 2302SOL    HW118539   1.981   1.835  16.045  0.4258 -0.1729  0.4108
 2302SOL    HW218540   2.109   1.794  15.980 -1.5918  1.0937 -0.5777
 2303SOL     OW18541   4.071   4.304   2.868 -0.4972 -0.2970  0.4837
 2303SOL    HW118542   4.120   4.228   2.898 -0.4051 -1.7769 -3.4126
 2303SOL    HW218543   3.982   4.289   2.899 -0.9815 -1.3177 -1.3822
 2304SOL     OW18544   2.072   0.226   8.462  0.9439  0.5078  0.1971
 2304SOL    HW118545   2.128   0.150   8.471  0.4621  0.3751  2.2092
 2304SOL    HW218546   2.123   0.283   8.404 -1.4518  0.5476 -1.8722
 2305SOL     OW18547   3.601   2.504  12.410 -0.0305 -0.4088 -0.5284
 2305SOL    HW118548   3.597   2.599  12.419 -1.1506 -0.2469 -2.6678
 2305SOL    HW218549   3.510   2.478  12.393 -0.7413  1.8940 -0.2374
 2306SOL     OW18550   2.850   1.785   6.116  0.7380 -0.6489  0.0475
 2306SOL    HW118551   2.826   1.800   6.025  1.5893 -1.6508 -0.3466
 2306SOL    HW218552   2.862   1.690   6.110  0.4399 -0.7280  0.7663
 2307SOL     OW18553   0.700   0.758   5.766  0.6546 -0.1585 -0.5165
 2307SOL    HW118554   0.712   0.693   5.696 -1.0312 -1.1411  0.1169
 2307SOL    HW218555   0.790   0.791   5.766  0.2088  1.0378  1.8353
 2308SOL     OW18556   4.640   1.333   7.994  0.4422  0.0153 -0.3064
 2308SOL    HW118557   4.676   1.403   8.047  0.0520  0.9129 -1.2268
 2308SOL    HW218558   4.581   1.383   7.938 -0.8459 -0.0981  0.9533
 2309SOL     OW18559   2.570   2.886   4.924 -0.1646  0.1974  0.2830
 2309SOL    HW118560   2.549   2.792   4.924  0.9229 -0.0358  0.2081
 2309SOL    HW218561   2.528   2.920   5.004 -0.1918  1.4559 -0.2690
 2310SOL     OW18562   2.859   2.505   4.560 -0.3076  0.0769 -0.1419
 2310SOL    HW118563   2.931   2.442   4.552  0.4077  0.9167 -0.2902
 2310SOL    HW218564   2.879   2.558   4.637  0.6247 -0.1001 -0.2664
 2311SOL     OW18565   3.219   0.979   8.209 -0.3879  0.4646 -0.1555
 2311SOL    HW118566   3.217   1.074   8.218  1.0318  0.3224  1.5172
 2311SOL    HW218567   3.308   0.949   8.228  0.4546  1.9632 -1.6938
 2312SOL     OW18568   2.187   0.720  15.635 -0.3492  0.7261  0.1007
 2312SOL    HW118569   2.141   0.796  15.670 -1.9845  0.7253 -2.0137
 2312SOL    HW218570   2.247   0.705  15.708  0.1211  3.1455  0.1932
 2313SOL     OW18571   0.506   1.605   8.759 -0.7135  0.1880  0.5160
 2313SOL    HW118572   0.492   1.605   8.664 -2.3726  2.4328  0.7516
 2313SOL    HW218573   0.475   1.693   8.779  0.6528  0.5142  1.1563
 2314SOL     OW18574   2.682   4.384   2.545  0.6792 -0.6265 -0.4037
 2314SOL    HW118575   2.633   4.413   2.468  1.2114 -1.7961 -1.1840
 2314SOL    HW218576   2.763   4.359   2.502 -0.0483 -2.2656 -0.8184
 2315SOL     OW18577   0.808   0.654   2.352 -0.2727 -0.5843 -0.1166
 2315SOL    HW118578   0.768   0.715   2.413 -1.3396  0.6000 -1.9978
 2315SOL    HW218579   0.740   0.598   2.314 -1.2733  1.2939 -1.0785
 2316SOL     OW18580   1.196   2.938   5.868 -0.0530  0.6518  0.3494
 2316SOL    HW118581   1.204   2.938   5.772  0.4560 -0.1235  0.3936
 2316SOL    HW218582   1.108   2.905   5.884 -0.0104 -0.2396 -1.2953
 2317SOL     OW18583   3.110   2.807   4.340 -0.1700 -0.2894 -0.3102
 2317SOL    HW118584   3.179   2.749   4.372  0.8831  1.5922  0.8217
 2317SOL    HW218585   3.126   2.882   4.397 -1.0722 -0.0381 -0.3897
 2318SOL     OW18586   1.518   0.736   7.970  0.6854 -0.0422  0.4013
 2318SOL    HW118587   1.504   0.643   7.951  0.0233  0.3326 -0.9512
 2318SOL    HW218588   1.468   0.781   7.902  0.5148 -1.6659 -0.5345
 2319SOL     OW18589   3.790   2.560  16.138 -0.3411 -0.1552  0.1181
 2319SOL    HW118590   3.860   2.512  16.181  0.7403 -0.1323 -1.6253
 2319SOL    HW218591   3.845   2.636  16.118  0.0348 -0.7451 -1.1379
 2320SOL     OW18592   2.544   1.736   8.533  0.3588  0.1216  0.5993
 2320SOL    HW118593   2.605   1.723   8.461 -0.9789  1.3288 -0.7573
 2320SOL    HW218594   2.510   1.824   8.519  0.9864  0.3718  0.6620
 2321SOL     OW18595   0.866   1.084   9.930  0.5052 -0.3756 -0.1885
 2321SOL    HW118596   0.800   1.101   9.863 -0.2733 -1.0340  0.4259
 2321SOL    HW218597   0.861   1.158   9.992 -0.7800 -0.0843 -0.6411
 2322SOL     OW18598   4.285   0.087   1.384  0.0916  0.7225  0.1003
 2322SOL    HW118599   4.239   0.032   1.448  1.4678  1.4742  1.7275
 2322SOL    HW218600   4.275   0.038   1.303 -0.2644 -1.6542  1.5783
 2323SOL     OW18601   1.077   3.502   2.934  0.7326 -0.0794  0.1716
 2323SOL    HW118602   1.167   3.471   2.936  0.9743  0.6951  1.2949
 2323SOL    HW218603   1.067   3.499   3.029  0.9919  2.5787  0.2673
 2324SOL     OW18604   1.417   4.598  15.653  0.2499 -0.2571 -0.2385
 2324SOL    HW118605   1.507   4.596  15.621 -0.0697 -0.3388 -1.1165
 2324SOL    HW218606   1.444   4.652  15.727 -0.5000 -0.4304  0.1667
 2325SOL     OW18607   2.093   3.664   3.769  0.8193 -0.1904  0.5719
 2325SOL    HW118608   2.006   3.624   3.772  0.9113 -0.3793  0.6705
 2325SOL    HW218609   2.063   3.753   3.751  1.6348 -0.4639 -2.1727
 2326SOL     OW18610   0.071   2.702  15.798 -0.8526 -0.7147  0.1252
 2326SOL    HW118611   0.067   2.796  15.783  2.0352 -0.6178 -0.1032
 2326SOL    HW218612   0.106   2.697  15.887  0.2832  1.5441 -0.2042
 2327SOL     OW18613   0.879   4.048   6.502  0.0286 -0.0510 -0.0259
 2327SOL    HW118614   0.829   4.036   6.422 -0.2737 -1.1105  0.3173
 2327SOL    HW218615   0.833   4.129   6.522 -0.6574 -1.4760  4.2491
 2328SOL     OW18616   1.650   3.948  10.796 -0.2572 -0.3357 -0.5115
 2328SOL    HW118617   1.691   3.975  10.878  0.1190 -3.9691  0.4914
 2328SOL    HW218618   1.593   3.874  10.818 -1.8298  0.8719 -0.6087
 2329SOL     OW18619   1.012   0.889   0.092 -0.0052 -0.0423  0.4358
 2329SOL    HW118620   0.959   0.919   0.166  0.4547  3.3914 -0.6477
 2329SOL    HW218621   0.998   0.962   0.033 -0.3014 -0.3143  0.1707
 2330SOL     OW18622   4.410   2.043  14.400 -0.0143 -0.1433  0.5081
 2330SOL    HW118623   4.321   2.010  14.390  0.7358 -1.3833 -2.0309
 2330SOL    HW218624   4.458   1.970  14.440 -2.2876 -1.1572  1.3974
 2331SOL     OW18625   0.836   1.958   8.993 -0.0429  0.0980  0.3420
 2331SOL    HW118626   0.929   1.975   9.008 -0.2743  1.0827  0.6721
 2331SOL    HW218627   0.824   2.049   8.964 -0.6327  0.6305  2.2600
 2332SOL     OW18628   3.997   0.931   5.206  0.0531 -0.5659 -0.3966
 2332SOL    HW118629   3.903   0.915   5.196 -0.0740  0.2894 -0.5949
 2332SOL    HW218630   4.021   0.907   5.117 -0.1060 -0.4649 -0.4672
 2333SOL     OW18631   2.804   1.004  11.163 -0.1265  0.3617  0.3862
 2333SOL    HW118632   2.796   1.058  11.084  2.4802  1.3345  0.8189
 2333SOL    HW218633   2.713   0.982  11.185 -0.0993  0.5601  0.6974
 2334SOL     OW18634   3.849   0.994   5.944  0.0363 -0.3091 -0.0316
 2334SOL    HW118635   3.771   0.990   5.889 -0.8624  0.2604  1.2154
 2334SOL    HW218636   3.809   1.041   6.018 -2.1009  1.6305 -2.4318
 2335SOL     OW18637   4.480   0.059   6.226  0.6000  0.1745  0.0512
 2335SOL    HW118638   4.460   0.076   6.318 -0.9886  0.1972 -0.3001
 2335SOL    HW218639   4.561   0.009   6.232 -0.8138 -1.9033  2.1210
 2336SOL     OW18640   3.263   2.776   7.465  0.0069  0.0762  0.5500
 2336SOL    HW118641   3.297   2.862   7.487  1.2968 -0.5858  1.1782
 2336SOL    HW218642   3.249   2.789   7.371 -3.3272 -2.1936  0.6970
 2337SOL     OW18643   4.058   1.062   7.770 -0.1721 -0.2926  0.2410
 2337SOL    HW118644   3.979   1.107   7.741  0.3906  0.7859  0.3393
 2337SOL    HW218645   4.030   0.971   7.771  2.4317 -1.1014  0.9064
 2338SOL     OW18646   3.724   4.644   1.727 -0.1180 -0.0222 -0.6004
 2338SOL    HW118647   3.790   4.578   1.704  2.3341  2.2512 -0.0877
 2338SOL    HW218648   3.776   4.722   1.710 -0.5270  0.7711  1.8038
 2339SOL     OW18649   0.238   4.151   7.627 -0.3857  0.0803  0.3001
 2339SOL    HW118650   0.282   4.128   7.546 -1.4283 -1.6887  0.2585
 2339SOL    HW218651   0.202   4.066   7.650  1.0678 -1.4056 -3.0644
 2340SOL     OW18652   4.102   2.407   6.147 -0.0474  0.0421  0.1125
 2340SOL    HW118653   4.080   2.465   6.220 -0.2055 -0.2385  0.2877
 2340SOL    HW218654   4.146   2.336   6.193 -0.8464  0.2095  1.1286
 2341SOL     OW18655   2.025   0.305  13.639 -0.1627 -0.1301  0.2293
 2341SOL    HW118656   2.049   0.229  13.586  1.7120 -0.3213  1.3554
 2341SOL    HW218657   2.111   0.344  13.655 -0.7929  0.9222  1.0562
 2342SOL     OW18658   3.060   4.294   6.634  0.1814  0.7919  0.5388
 2342SOL    HW118659   3.078   4.200   6.632  2.3225  1.2127 -0.5843
 2342SOL    HW218660   3.075   4.303   6.728  2.5931  5.0023 -0.2410
 2343SOL     OW18661   2.962   0.687   8.210 -0.0103  0.0591 -0.3029
 2343SOL    HW118662   2.968   0.622   8.140  0.2022  0.3782 -0.5861
 2343SOL    HW218663   2.999   0.629   8.276  0.0223 -0.5997 -0.9100
 2344SOL     OW18664   0.619   2.106   5.020 -0.2017  0.8513 -0.8537
 2344SOL    HW118665   0.621   2.189   4.972 -2.4819  0.0395 -2.3688
 2344SOL    HW218666   0.589   2.121   5.109  1.1438  0.9643 -0.4169
 2345SOL     OW18667   4.369   2.069   7.677  0.2350 -0.0156  0.1915
 2345SOL    HW118668   4.378   2.105   7.766 -1.3497  0.6079  0.0950
 2345SOL    HW218669   4.302   2.004   7.699 -1.0302  1.1433 -0.2682
 2346SOL     OW18670   1.805   1.771   1.853 -0.4693  0.1821 -0.1360
 2346SOL    HW118671   1.820   1.865   1.853  0.0775  0.0989  3.1407
 2346SOL    HW218672   1.841   1.746   1.768 -2.3298 -1.1337 -0.5506
 2347SOL     OW18673   0.103   1.295   8.440 -0.2835 -0.0348  0.1530
 2347SOL    HW118674   0.147   1.234   8.380 -1.1059 -0.5349  0.0676
 2347SOL    HW218675   0.020   1.305   8.394  0.1359 -0.3686 -0.6786
 2348SOL     OW18676   2.079   3.653   4.468  0.5682 -0.0348  0.4918
 2348SOL    HW118677   2.050   3.679   4.555 -0.6061  3.0856 -0.8420
 2348SOL    HW218678   2.160   3.607   4.492  1.4352  0.0786 -2.1898
 2349SOL     OW18679   2.439   0.694   4.983 -0.2432  0.2331  0.2888
 2349SOL    HW118680   2.460   0.621   4.924 -2.8168  2.1702 -3.0652
 2349SOL    HW218681   2.380   0.656   5.047 -0.8614  1.2655  0.3317
 2350SOL     OW18682   0.314   1.654   5.176 -0.2230  0.2573  0.2107
 2350SOL    HW118683   0.229   1.617   5.151 -0.2511 -0.8952  2.0373
 2350SOL    HW218684   0.280   1.730   5.224 -2.6002 -0.4760 -0.3010
 2351SOL     OW18685   2.161   1.522  11.354  0.3684 -0.5718 -0.2443
 2351SOL    HW118686   2.221   1.586  11.317 -0.2274 -0.6970 -1.4224
 2351SOL    HW218687   2.129   1.490  11.270 -1.2731  2.9733 -0.9590
 2352SOL     OW18688   1.187   0.158   1.485 -1.1215 -0.2260  0.3727
 2352SOL    HW118689   1.224   0.071   1.493 -3.6501 -1.4108 -0.8864
 2352SOL    HW218690   1.127   0.159   1.560 -1.7688  1.9781 -0.1654
 2353SOL     OW18691   3.263   3.050  17.672  0.5473 -0.3624  0.2896
 2353SOL    HW118692   3.279   2.981  17.737 -0.4503 -0.2158  0.6928
 2353SOL    HW218693   3.348   3.061  17.631  0.6978 -1.0964  0.3957
 2354SOL     OW18694   4.014   1.950   2.632  0.1656  0.3272  0.0689
 2354SOL    HW118695   4.104   1.925   2.615  0.0236 -0.3921  0.3972
 2354SOL    HW218696   3.970   1.871   2.599 -1.5825  0.6001  1.7087
 2355SOL     OW18697   1.330   0.687  16.419  0.5809 -0.3907 -0.9630
 2355SOL    HW118698   1.323   0.594  16.394 -1.2647 -1.2790  2.7969
 2355SOL    HW218699   1.412   0.718  16.383 -0.3825  1.6662 -1.3910
 2356SOL     OW18700   2.054   4.360  13.083 -0.1500  0.2492 -0.4560
 2356SOL    HW118701   2.075   4.335  12.993  0.6269  2.2975 -0.8499
 2356SOL    HW218702   1.962   4.335  13.086  0.1041 -0.5734  0.4755
 2357SOL     OW18703   4.669   3.351   5.350 -0.0631 -0.2177 -0.4156
 2357SOL    HW118704   4.666   3.284   5.282 -1.5267  0.0786 -0.6300
 2357SOL    HW218705   0.023   3.383   5.346 -0.4797  0.7591 -1.9658
 2358SOL     OW18706   3.421   1.714   2.862 -0.3238  0.0303 -0.1372
 2358SOL    HW118707   3.513   1.734   2.847 -0.4420 -0.0936 -1.0066
 2358SOL    HW218708   3.378   1.795   2.836 -0.4003 -0.1954 -0.7132
 2359SOL     OW18709   1.738   4.199   2.811 -0.1739  0.3402  0.0501
 2359SOL    HW118710   1.684   4.244   2.876 -0.9270  2.2371 -1.8918
 2359SOL    HW218711   1.805   4.268   2.812  1.0300 -0.8092 -2.3638
 2360SOL     OW18712   0.717   4.721   8.247  0.4768  1.3939 -0.3526
 2360SOL    HW118713   0.670   0.056   8.289  1.2949  2.2359 -0.8937
 2360SOL    HW218714   0.802   4.721   8.290  0.1720 -1.9556  0.2682
 2361SOL     OW18715   3.951   2.093  10.113  0.0922  0.0869  0.1188
 2361SOL    HW118716   4.005   2.090  10.034 -0.4880  0.1823 -0.2792
 2361SOL    HW218717   3.973   2.007  10.149 -2.7676 -0.5776  0.2418
 2362SOL     OW18718   2.656   1.085   9.570  0.4933 -0.0291  0.7455
 2362SOL    HW118719   2.690   1.003   9.608 -0.5194 -0.3110  1.0547
 2362SOL    HW218720   2.698   1.153   9.623  0.7289  0.1746  0.2941
 2363SOL     OW18721   3.983   1.069  11.648  0.7347  0.2272  0.0882
 2363SOL    HW118722   3.940   1.106  11.725 -0.1638  0.1384 -0.3661
 2363SOL    HW218723   4.074   1.059  11.674  0.7121 -0.3160 -0.0571
 2364SOL     OW18724   1.289   0.576   5.862 -0.3550  0.3548 -0.1752
 2364SOL    HW118725   1.195   0.560   5.868 -0.1879 -0.7773 -0.5280
 2364SOL    HW218726   1.283   0.672   5.856  2.7201  0.5768  0.7011
 2365SOL     OW18727   2.329   3.839   2.937  0.2077  0.4817 -0.1758
 2365SOL    HW118728   2.337   3.863   3.030 -0.8502 -1.2554  0.3728
 2365SOL    HW218729   2.294   3.922   2.906 -1.5336  0.0984  0.7368
 2366SOL     OW18730   2.674   1.644   4.386  0.2451 -0.6025 -0.3711
 2366SOL    HW118731   2.629   1.713   4.338  1.5661  0.7393  0.3146
 2366SOL    HW218732   2.622   1.613   4.460 -0.5458  0.9716 -0.2889
 2367SOL     OW18733   4.559   4.192   3.951 -0.7849  0.2740 -0.1762
 2367SOL    HW118734   4.580   4.267   4.007  1.2104 -0.9979  0.7906
 2367SOL    HW218735   4.514   4.235   3.878  0.6884 -1.0471 -1.8418
 2368SOL     OW18736   3.971   2.090   1.842 -0.2404  0.3158  0.5611
 2368SOL    HW118737   4.021   2.109   1.921  0.4663 -1.1359  0.4680
 2368SOL    HW218738   4.045   2.059   1.789 -1.0528  0.9022 -0.9289
 2369SOL     OW18739   0.510   3.328   0.367 -0.7703 -0.2660 -0.0376
 2369SOL    HW118740   0.440   3.392   0.351  0.5714  0.8391 -1.4785
 2369SOL    HW218741   0.467   3.245   0.348  1.0208 -1.6271  1.9810
 2370SOL     OW18742   1.431   0.187   9.867  0.1094 -0.3998 -0.4776
 2370SOL    HW118743   1.388   0.134   9.800  1.4846 -1.9212 -0.1613
 2370SOL    HW218744   1.516   0.194   9.822  1.9575 -2.2791  2.6952
 2371SOL     OW18745   2.677   0.040  15.541 -0.0180 -0.0190 -0.4859
 2371SOL    HW118746   2.626   0.106  15.588  2.0482  2.1933 -1.3077
 2371SOL    HW218747   2.608   4.721  15.506 -0.3683  0.5175 -0.6491
 2372SOL     OW18748   2.637   2.548   4.395  0.4410 -0.1817 -0.0309
 2372SOL    HW118749   2.677   2.622   4.349  0.8611 -0.0626  0.5325
 2372SOL    HW218750   2.710   2.525   4.451 -0.0152 -1.6958 -0.0389
 2373SOL     OW18751   2.968   2.243   2.469 -0.0511 -0.6321 -0.2800
 2373SOL    HW118752   2.916   2.323   2.465  0.2356 -0.3606  1.5509
 2373SOL    HW218753   2.995   2.249   2.560  1.8035  0.7640 -0.9420
 2374SOL     OW18754   1.530   2.769   9.257  0.0096  0.1010  0.8740
 2374SOL    HW118755   1.532   2.858   9.292 -0.7601  0.2026  0.6695
 2374SOL    HW218756   1.576   2.788   9.175 -3.0681  0.8481 -0.6906
 2375SOL     OW18757   2.896   3.720   9.905 -0.4037  0.2081 -0.1860
 2375SOL    HW118758   2.842   3.677   9.839 -1.2272  0.2568  0.4636
 2375SOL    HW218759   2.935   3.651   9.959  0.5832  3.2079  2.8985
 2376SOL     OW18760   4.038   2.209   7.239 -0.3524  0.5793  0.0400
 2376SOL    HW118761   4.131   2.232   7.233 -0.2471 -0.3255 -1.8267
 2376SOL    HW218762   4.004   2.293   7.209 -0.0052  1.4532  2.0500
 2377SOL     OW18763   3.621   2.126  15.555 -0.7007 -0.1493 -0.4459
 2377SOL    HW118764   3.597   2.108  15.646 -3.5547 -2.7557 -1.6987
 2377SOL    HW218765   3.554   2.185  15.522 -1.6776 -0.6511  0.6292
 2378SOL     OW18766   0.239   1.153  17.578  0.0181 -0.7098  0.1607
 2378SOL    HW118767   0.192   1.109  17.649 -0.3274  0.7455  0.8327
 2378SOL    HW218768   0.300   1.216  17.617 -1.3547  0.8104 -0.1270
 2379SOL     OW18769   0.920   1.353   2.313  0.1106  0.1557  0.6805
 2379SOL    HW118770   0.895   1.428   2.367 -1.7771  0.6094 -0.8197
 2379SOL    HW218771   1.003   1.330   2.353  0.7130  0.7612 -0.2193
 2380SOL     OW18772   0.498   3.461   6.740  0.0265 -0.2777 -0.1482
 2380SOL    HW118773   0.553   3.463   6.818 -1.9065  2.1313  1.1565
 2380SOL    HW218774   0.415   3.456   6.787  0.9018 -0.0468  1.4417
 2381SOL     OW18775   3.741   2.595   5.593  0.1743 -0.1962  0.6077
 2381SOL    HW118776   3.793   2.667   5.558 -0.5611  0.3185  0.5680
 2381SOL    HW218777   3.744   2.524   5.529  2.0547  0.6576 -0.2215
 2382SOL     OW18778   0.368   3.169  17.704  0.2534  0.2767 -0.5608
 2382SOL    HW118779   0.430   3.106  17.666 -1.8344  0.6032 -4.5555
 2382SOL    HW218780   0.435   3.219   0.005 -2.2303  2.4560  0.6869
 2383SOL     OW18781   2.071   4.250   0.470 -0.2690 -0.0350 -0.5061
 2383SOL    HW118782   2.028   4.302   0.539  0.1214  2.4410 -2.1255
 2383SOL    HW218783   2.067   4.161   0.503 -0.0511  0.1456  0.0044
 2384SOL     OW18784   0.369   0.537   1.469 -0.2059 -0.1713 -0.2655
 2384SOL    HW118785   0.400   0.612   1.519  1.1892 -0.6740 -0.3570
 2384SOL    HW218786   0.343   0.584   1.391 -2.7220  0.4611  0.9667
 2385SOL     OW18787   0.462   4.554   4.824 -0.1768 -0.3256  0.2181
 2385SOL    HW118788   0.464   4.608   4.745  0.1569 -0.2810  0.2570
 2385SOL    HW218789   0.549   4.515   4.817  0.3290  0.9847 -0.8420
 2386SOL     OW18790   4.137   1.676   8.806  0.1626  0.4053  0.6349
 2386SOL    HW118791   4.181   1.707   8.727 -1.0517 -0.2528 -0.3005
 2386SOL    HW218792   4.047   1.709   8.796  0.0293 -0.4908 -1.1103
 2387SOL     OW18793   3.328   0.408   6.923  0.1910 -0.6648 -0.3145
 2387SOL    HW118794   3.369   0.447   6.845  1.5504 -0.6820  0.3929
 2387SOL    HW218795   3.298   0.483   6.974  0.0011 -1.2327  0.4039
 2388SOL     OW18796   4.417   4.035   5.915 -0.3229  0.2181 -0.0045
 2388SOL    HW118797   4.502   4.000   5.887  1.5695  3.2226  2.0176
 2388SOL    HW218798   4.359   4.027   5.839 -2.3957  2.2470  1.3769
 2389SOL     OW18799   4.458   0.831   3.277  0.6385  0.0002 -0.1095
 2389SOL    HW118800   4.383   0.785   3.315  0.5029  2.0708  2.1000
 2389SOL    HW218801   4.414   0.904   3.234 -1.2596  0.1834  2.1429
 2390SOL     OW18802   1.342   2.097   3.583  0.1063 -0.5357  0.5268
 2390SOL    HW118803   1.290   2.090   3.664  2.0589 -1.1172  1.7321
 2390SOL    HW218804   1.428   2.119   3.619  0.1866  2.5430 -1.5131
 2391SOL     OW18805   1.896   0.175   3.388 -0.3541 -0.0777  0.5644
 2391SOL    HW118806   1.815   0.213   3.354 -0.3816 -1.3256 -0.7920
 2391SOL    HW218807   1.881   0.080   3.392 -0.3606  0.0547  3.2653
 2392SOL     OW18808   3.770   4.149   5.347 -0.2849 -0.5748  0.0949
 2392SOL    HW118809   3.832   4.170   5.416  0.9819  0.2744 -1.2992
 2392SOL    HW218810   3.684   4.192   5.354 -0.3643 -0.8248  0.6659
 2393SOL     OW18811   2.244   0.822   3.945 -0.6554  0.0102 -0.0452
 2393SOL    HW118812   2.236   0.729   3.926 -1.2382  0.3526 -1.4946
 2393SOL    HW218813   2.168   0.862   3.902 -0.6888 -2.3417 -2.1632
 2394SOL     OW18814   0.790   0.102   6.938 -0.6960  0.3160  0.1682
 2394SOL    HW118815   0.801   0.191   6.972  2.0652  0.9936 -2.6031
 2394SOL    HW218816   0.724   0.116   6.870  2.6389  0.5606 -2.9827
 2395SOL     OW18817   0.012   0.542   9.489 -0.1864 -0.0149  0.0708
 2395SOL    HW118818   0.103   0.562   9.471  0.0473 -2.4197 -1.4931
 2395SOL    HW218819   0.037   0.469   9.546 -0.1677 -0.4351 -0.4774
 2396SOL     OW18820   0.841   3.215   2.402 -0.2956  0.0341  0.2433
 2396SOL    HW118821   0.911   3.232   2.465  0.6214  0.2267 -0.8285
 2396SOL    HW218822   0.875   3.153   2.338 -1.5383 -0.3117 -0.0759
 2397SOL     OW18823   2.448   1.774  15.981 -0.0447  0.1910 -0.0012
 2397SOL    HW118824   2.387   1.813  16.044  0.8572  0.1850  0.8762
 2397SOL    HW218825   2.419   1.683  15.977  1.7225 -0.3999  0.8063
 2398SOL     OW18826   4.074   0.312   2.702 -0.4116 -0.1081  0.1855
 2398SOL    HW118827   3.979   0.299   2.701 -0.6458  1.4788  1.5516
 2398SOL    HW218828   4.078   0.310   2.797 -1.9465  2.8312  0.3394
 2399SOL     OW18829   2.047   4.377  10.977 -0.6106 -0.2602 -0.4072
 2399SOL    HW118830   1.974   4.412  11.028  0.8370  0.9803  0.8258
 2399SOL    HW218831   2.113   4.445  10.991  0.0516 -0.7576 -1.1474
 2400SOL     OW18832   3.873   1.482   4.067 -0.1129  0.2103  0.3912
 2400SOL    HW118833   3.927   1.411   4.033  0.4088  0.7594  0.0859
 2400SOL    HW218834   3.811   1.481   3.993  0.6428 -3.1083 -0.1968
 2401SOL     OW18835   0.086   3.857   7.697 -0.3920  0.0932  0.0155
 2401SOL    HW118836   0.074   3.774   7.652 -1.1042 -0.8148  1.8950
 2401SOL    HW218837   0.126   3.820   7.775 -1.1817 -0.1729  0.2943
 2402SOL     OW18838   4.521   1.544  14.554  0.8815  0.3502 -0.0938
 2402SOL    HW118839   4.565   1.577  14.475 -1.3080  0.9723 -1.0559
 2402SOL    HW218840   4.599   1.537  14.609  0.5625 -1.7915  0.0872
 2403SOL     OW18841   4.629   0.729   4.700 -0.2426 -0.0694 -0.6234
 2403SOL    HW118842   4.710   0.778   4.683 -0.3765 -0.0245 -1.1032
 2403SOL    HW218843   4.575   0.752   4.624 -1.0846 -2.3513 -0.7110
 2404SOL     OW18844   1.809   1.735  12.667 -0.2525  0.0812 -0.1489
 2404SOL    HW118845   1.773   1.764  12.583 -0.4608  1.4274  0.4097
 2404SOL    HW218846   1.894   1.696  12.645 -1.2251  0.0119 -3.6554
 2405SOL     OW18847   1.344   1.571   1.386 -0.0086 -0.3993  0.0822
 2405SOL    HW118848   1.250   1.568   1.374  0.0975  1.3186 -1.1735
 2405SOL    HW218849   1.352   1.631   1.460  1.1728 -3.2427  2.3190
 2406SOL     OW18850   2.571   4.360   9.920 -0.1398 -0.5940  0.1201
 2406SOL    HW118851   2.567   4.270   9.888 -1.7082 -0.5896  0.2898
 2406SOL    HW218852   2.563   4.352  10.015 -3.0226 -0.2023 -0.0871
 2407SOL     OW18853   0.825   3.620  11.027 -0.5716 -0.1211  0.0747
 2407SOL    HW118854   0.875   3.561  11.083 -1.5835 -0.8090  0.2642
 2407SOL    HW218855   0.774   3.665  11.094 -0.9172 -0.8358  0.2960
 2408SOL     OW18856   3.368   4.257   3.937  0.3338  0.2920 -0.2733
 2408SOL    HW118857   3.274   4.277   3.942  0.8412  2.5511  0.0481
 2408SOL    HW218858   3.408   4.330   3.983  0.1185  1.2077 -1.5602
 2409SOL     OW18859   4.451   4.005   6.486  0.1433  0.2489 -0.6234
 2409SOL    HW118860   4.443   3.924   6.537 -0.2550  1.2705  0.9488
 2409SOL    HW218861   4.545   4.024   6.493 -0.5512  3.9768 -1.5675
 2410SOL     OW18862   3.669   3.806   6.927 -0.0438  0.4449 -0.1413
 2410SOL    HW118863   3.761   3.781   6.933 -0.9050 -2.1963  2.2754
 2410SOL    HW218864   3.670   3.894   6.891  0.2983  0.5333  0.0911
 2411SOL     OW18865   4.153   4.362   0.407 -0.0505  0.0144  0.7494
 2411SOL    HW118866   4.198   4.433   0.453 -2.2497  2.0700 -0.1906
 2411SOL    HW218867   4.074   4.404   0.371  1.0120  1.1377 -0.2875
 2412SOL     OW18868   2.479   4.201   3.859 -0.4338  0.3953  0.0615
 2412SOL    HW118869   2.574   4.196   3.846 -0.3065 -2.3330  2.1946
 2412SOL    HW218870   2.442   4.169   3.776  0.1054 -0.0147 -0.0202
 2413SOL     OW18871   0.871   4.066   2.773  0.2270 -0.0306 -0.1244
 2413SOL    HW118872   0.944   4.005   2.784 -1.3853 -2.2580 -1.5959
 2413SOL    HW218873   0.919   4.147   2.760  0.4240 -0.4318 -1.9171
 2414SOL     OW18874   4.202   4.676  10.731  0.4635  0.2529  0.1289
 2414SOL    HW118875   4.132   4.727  10.690  0.5844  0.3411  0.0288
 2414SOL    HW218876   4.269   4.689  10.663  1.8640 -2.5777  0.9596
 2415SOL     OW18877   0.243   1.954  14.060  0.3352 -0.4464  0.3276
 2415SOL    HW118878   0.318   1.971  14.003 -1.1242  1.1210 -1.1357
 2415SOL    HW218879   0.288   1.918  14.137  0.4966 -2.9042 -0.9098
 2416SOL     OW18880   4.447   2.017   8.020  0.1518  0.5216  0.2431
 2416SOL    HW118881   4.420   2.080   8.087 -2.0935  0.0184 -0.1721
 2416SOL    HW218882   4.451   1.929   8.059 -0.1664  0.6536  0.5775
 2417SOL     OW18883   0.582   1.542   5.917  0.2277 -0.2377 -0.7428
 2417SOL    HW118884   0.546   1.457   5.943  1.0130 -0.3439  0.0132
 2417SOL    HW218885   0.514   1.604   5.943  0.0834 -1.3178  1.5070
 2418SOL     OW18886   3.597   1.692   6.195  0.4648  0.1437 -0.1400
 2418SOL    HW118887   3.557   1.740   6.267  0.6396 -1.2973  0.9122
 2418SOL    HW218888   3.630   1.771   6.151  0.0860  0.5789  0.3566
 2419SOL     OW18889   0.593   0.217   4.337 -0.6428 -0.3550  0.5660
 2419SOL    HW118890   0.528   0.216   4.267 -1.8454 -2.3237  1.6857
 2419SOL    HW218891   0.542   0.263   4.404 -0.3622 -0.1479  0.6385
 2420SOL     OW18892   4.021   2.179  15.982 -0.1419 -0.2947 -0.5029
 2420SOL    HW118893   4.062   2.093  15.969 -0.9897 -1.2099  2.8331
 2420SOL    HW218894   4.056   2.238  15.916  3.4099 -2.4570 -0.5423
 2421SOL     OW18895   1.831   0.699  17.456  0.3376  0.1601  0.5781
 2421SOL    HW118896   1.917   0.721  17.419 -0.7001  0.8181 -1.4712
 2421SOL    HW218897   1.841   0.726  17.547 -0.0660  0.2368  0.5969
 2422SOL     OW18898   3.045   0.299  17.396  0.1845  0.1665  0.0497
 2422SOL    HW118899   3.043   0.234  17.325 -2.9203  0.9054 -0.5402
 2422SOL    HW218900   3.138   0.297  17.419  0.5669  1.6314 -1.3225
 2423SOL     OW18901   1.064   0.032   4.542  0.0167 -0.2482 -0.0517
 2423SOL    HW118902   1.089   0.021   4.633  2.6590 -0.2245 -0.7725
 2423SOL    HW218903   1.074   0.127   4.531  1.5526 -0.2441  1.5830
 2424SOL     OW18904   1.324   4.192   1.629  0.0807 -0.4849 -0.1298
 2424SOL    HW118905   1.364   4.139   1.698  1.3013 -0.0603 -0.4940
 2424SOL    HW218906   1.303   4.119   1.570  0.7014 -0.5189 -0.3086
 2425SOL     OW18907   4.127   3.151   4.843 -0.0855 -0.3126 -0.2716
 2425SOL    HW118908   4.050   3.095   4.837 -2.4426  2.9132  0.1088
 2425SOL    HW218909   4.104   3.220   4.781 -2.0984 -0.7138  0.0456
 2426SOL     OW18910   3.404   0.214  12.030 -0.0674 -0.6779 -0.1210
 2426SOL    HW118911   3.439   0.163  11.957 -4.1370 -0.7330 -2.0298
 2426SOL    HW218912   3.456   0.175  12.100  0.0084  0.3986  0.4207
 2427SOL     OW18913   2.784   2.895   6.834  0.0082 -0.6153  0.0173
 2427SOL    HW118914   2.781   2.875   6.740 -0.1426 -1.0966  0.1233
 2427SOL    HW218915   2.775   2.990   6.837  2.5040 -0.3022 -1.8197
 2428SOL     OW18916   2.929   3.887   4.074  0.0143 -0.5688 -0.0744
 2428SOL    HW118917   2.994   3.922   4.133 -0.8360 -0.4037  0.7627
 2428SOL    HW218918   2.871   3.963   4.081  2.1213  1.0479 -0.4295
 2429SOL     OW18919   0.996   3.186  10.291  0.8464  0.1727 -0.0089
 2429SOL    HW118920   1.014   3.095  10.311  0.4804  0.8501  3.2984
 2429SOL    HW218921   0.972   3.229  10.373 -1.6408 -2.2846  0.5456
 2430SOL     OW18922   0.720   4.128  10.945 -0.2832  0.5616  0.2930
 2430SOL    HW118923   0.625   4.124  10.960 -0.2045  2.5910  1.2257
 2430SOL    HW218924   0.734   4.162  11.033  0.2601  1.8988 -0.3204
 2431SOL     OW18925   0.172   3.526   8.684  0.4767 -0.3900  0.1772
 2431SOL    HW118926   0.138   3.552   8.598  0.5132  0.8781  0.5540
 2431SOL    HW218927   0.096   3.482   8.722  1.5289 -0.7895  1.7904
 2432SOL     OW18928   3.813   2.132   7.053  0.0854 -0.4503  0.1137
 2432SOL    HW118929   3.852   2.206   7.008 -1.5743 -0.8115 -1.9281
 2432SOL    HW218930   3.886   2.074   7.075 -0.0007 -1.0134 -1.1221
 2433SOL     OW18931   2.648   2.265   8.943 -0.2429  0.4988  0.8091
 2433SOL    HW118932   2.743   2.262   8.954 -0.0392  1.2018 -0.7428
 2433SOL    HW218933   2.633   2.177   8.910  1.1479  1.0138 -1.1800
 2434SOL     OW18934   3.397   2.475   7.200 -0.1607  0.1003  0.0668
 2434SOL    HW118935   3.322   2.531   7.182  0.0128  0.9072  1.8193
 2434SOL    HW218936   3.394   2.470   7.296  1.9819  1.3407  0.2106
 2435SOL     OW18937   3.257   2.518   6.625  0.2652  0.0658 -0.0441
 2435SOL    HW118938   3.188   2.491   6.686 -1.5046  2.9807 -0.7791
 2435SOL    HW218939   3.327   2.460   6.655 -0.0669 -0.9736 -1.2748
 2436SOL     OW18940   0.254   0.783   4.902 -0.0175  0.1066 -0.0295
 2436SOL    HW118941   0.186   0.841   4.936 -0.3613 -0.6700  0.6105
 2436SOL    HW218942   0.248   0.710   4.964 -2.2830  0.0087 -0.3470
 2437SOL     OW18943   0.217   3.566   1.939  0.3219 -0.1615 -0.0662
 2437SOL    HW118944   0.190   3.646   1.892  0.5652 -0.3711 -0.5601
 2437SOL    HW218945   0.241   3.606   2.023  0.8948 -1.3296  0.3232
 2438SOL     OW18946   2.625   1.753   9.692  0.3959  0.5375 -0.1920
 2438SOL    HW118947   2.586   1.839   9.701 -2.3485 -0.8264  0.8403
 2438SOL    HW218948   2.671   1.753   9.776 -0.5989 -0.8957  0.3517
 2439SOL     OW18949   3.157   0.260   8.087  0.5197  0.9742 -0.1469
 2439SOL    HW118950   3.117   0.178   8.119 -0.2173  1.0771 -0.8034
 2439SOL    HW218951   3.200   0.233   8.006  0.1889  0.1708 -0.0598
 2440SOL     OW18952   1.915   4.635   5.760 -0.1370 -0.0722 -0.1312
 2440SOL    HW118953   1.935   4.729   5.757 -2.3433  0.4379  0.6873
 2440SOL    HW218954   1.977   4.604   5.694  1.0929 -0.6260  1.2924
 2441SOL     OW18955   4.525   3.835   8.453  0.9877 -1.1276  0.5004
 2441SOL    HW118956   4.448   3.779   8.450  1.7907 -2.2835  1.1522
 2441SOL    HW218957   4.545   3.840   8.359 -0.4598 -1.6025  0.1722
 2442SOL     OW18958   3.138   4.085   8.867  0.0845  0.2709 -0.8304
 2442SOL    HW118959   3.185   4.168   8.859  0.1313  0.0362 -3.1282
 2442SOL    HW218960   3.166   4.057   8.954  1.0889 -0.4349 -1.3774
 2443SOL     OW18961   3.381   4.296   6.832 -0.3601  0.2643 -0.6022
 2443SOL    HW118962   3.361   4.377   6.784  0.2940  0.5685 -0.3554
 2443SOL    HW218963   3.359   4.233   6.764  2.1696 -0.9635 -0.2691
 2444SOL     OW18964   4.400   2.921   6.614  0.3525 -0.7620 -0.0673
 2444SOL    HW118965   4.396   3.017   6.612 -2.1660 -0.8242  1.1215
 2444SOL    HW218966   4.450   2.906   6.694  2.8552 -2.1652 -1.9305
 2445SOL     OW18967   3.318   1.568   3.085 -0.0779 -0.4919  0.1373
 2445SOL    HW118968   3.402   1.531   3.110  0.6764  3.0583  2.8829
 2445SOL    HW218969   3.344   1.597   2.998 -1.2115 -1.9732 -0.7027
 2446SOL     OW18970   2.127   4.425   8.035  0.6463  0.7231 -0.0179
 2446SOL    HW118971   2.105   4.384   8.119 -2.3355  3.4024  0.4940
 2446SOL    HW218972   2.183   4.355   7.999  0.2264 -0.6615  2.0311
 2447SOL     OW18973   2.584   0.338   7.681  0.4901 -0.5000 -0.2204
 2447SOL    HW118974   2.633   0.420   7.677 -0.5861  0.1833  0.3564
 2447SOL    HW218975   2.583   0.312   7.589  1.4914  0.9034 -0.6156
 2448SOL     OW18976   1.207   2.222   8.915 -0.1264 -0.3593 -0.2577
 2448SOL    HW118977   1.301   2.204   8.913  0.0359  0.5904 -1.0977
 2448SOL    HW218978   1.172   2.150   8.862 -0.1504  0.5725 -1.5138
 2449SOL     OW18979   3.808   0.777  14.104 -0.1482 -0.2564 -0.0936
 2449SOL    HW118980   3.778   0.860  14.068  2.7989 -0.8094 -3.8620
 2449SOL    HW218981   3.741   0.761  14.170 -0.3808  1.4545  0.0779
 2450SOL     OW18982   2.117   4.167   7.408 -0.4085  0.0975 -0.4032
 2450SOL    HW118983   2.213   4.168   7.401 -0.4262  1.8278 -0.3481
 2450SOL    HW218984   2.114   4.250   7.456 -0.7349  1.4134 -2.6914
 2451SOL     OW18985   2.200   0.903   2.607  0.3762  0.1156  0.1868
 2451SOL    HW118986   2.253   0.823   2.609  0.5261  0.2015 -0.3139
 2451SOL    HW218987   2.251   0.955   2.545 -0.2085  1.0104  0.4534
 2452SOL     OW18988   1.557   3.458   0.176 -0.0749  0.3510 -0.0134
 2452SOL    HW118989   1.470   3.440   0.213 -0.8560 -0.8920 -2.4666
 2452SOL    HW218990   1.541   3.529   0.115  3.8282  2.7994  1.8789
 2453SOL     OW18991   3.511   1.664   7.724 -0.3471 -0.0903 -0.1808
 2453SOL    HW118992   3.541   1.598   7.661 -2.7957 -0.2821 -1.1441
 2453SOL    HW218993   3.573   1.735   7.711 -0.4797  0.2664  1.2423
 2454SOL     OW18994   0.038   2.280   9.193 -0.5566 -0.0601  0.1723
 2454SOL    HW118995   0.054   2.210   9.130 -1.5897  0.3494 -0.5393
 2454SOL    HW218996   4.706   2.251   9.252  0.1071 -0.7944  0.5929
 2455SOL     OW18997   2.318   2.916   3.773  0.0460 -0.2617  0.4491
 2455SOL    HW118998   2.386   2.902   3.707  1.9206  1.9325  1.9149
 2455SOL    HW218999   2.324   3.011   3.789  2.8461 -0.2878 -0.4022
 2456SOL     OW19000   0.439   2.360   8.920  0.0369 -0.1187 -0.1696
 2456SOL    HW119001   0.411   2.451   8.908  1.5227  0.0888 -2.0308
 2456SOL    HW219002   0.351   2.322   8.921  0.4701 -1.1012  0.6175
 2457SOL     OW19003   2.181   2.923   5.338  0.2364  0.5159  0.6333
 2457SOL    HW119004   2.098   2.937   5.292  2.1213  0.9118 -2.6576
 2457SOL    HW219005   2.153   2.862   5.406  0.7706  0.6574  0.9734
 2458SOL     OW19006   4.291   3.416   1.184 -0.0475 -0.0495 -0.5533
 2458SOL    HW119007   4.271   3.355   1.113 -1.2127 -0.3673  0.0379
 2458SOL    HW219008   4.215   3.415   1.242  1.8065 -2.1276  1.8174
 2459SOL     OW19009   4.709   4.267   7.624  0.1165  0.0325  0.1488
 2459SOL    HW119010   0.062   4.235   7.616  0.5988  1.4125 -0.0108
 2459SOL    HW219011   4.727   4.355   7.658  0.1300 -0.2160  0.7743
 2460SOL     OW19012   2.652   3.270   8.766 -1.1818 -0.2300 -0.2092
 2460SOL    HW119013   2.669   3.288   8.858 -0.7803 -1.6343 -0.0101
 2460SOL    HW219014   2.618   3.353   8.732  0.8230  0.5312 -0.3772
 2461SOL     OW19015   2.052   1.560  11.078 -0.2462  0.8001  0.1875
 2461SOL    HW119016   2.137   1.560  11.033 -0.9975 -1.6140 -1.2296
 2461SOL    HW219017   1.993   1.615  11.028 -2.3932 -0.6065  1.1917
 2462SOL     OW19018   0.349   0.793   9.271 -0.5805  0.3360 -0.2756
 2462SOL    HW119019   0.362   0.850   9.195  1.9972 -0.0035 -0.0917
 2462SOL    HW219020   0.386   0.853   9.335  0.7375 -0.3091 -0.4214
 2463SOL     OW19021   3.837   3.622  16.815  0.1893 -0.1067  0.5965
 2463SOL    HW119022   3.903   3.685  16.845  0.7267 -0.4982  0.2467
 2463SOL    HW219023   3.839   3.561  16.889  0.1582 -0.7424  0.0696
 2464SOL     OW19024   0.410   4.409  16.887 -0.4968 -0.1097 -0.2244
 2464SOL    HW119025   0.330   4.394  16.836 -0.2931 -1.4234 -0.1552
 2464SOL    HW219026   0.436   4.498  16.864  2.1855 -1.0826 -1.0147
 2465SOL     OW19027   2.189   1.332   4.271  0.3981  0.1773 -0.8159
 2465SOL    HW119028   2.113   1.359   4.322  0.4750  0.8302 -1.0438
 2465SOL    HW219029   2.210   1.256   4.325 -2.2991 -2.1664 -2.9993
 2466SOL     OW19030   2.321   0.209   8.822  0.2381 -0.2103 -0.0329
 2466SOL    HW119031   2.377   0.141   8.861 -2.1624 -0.5382  2.8697
 2466SOL    HW219032   2.281   0.234   8.906  0.7573  0.8632 -0.1110
 2467SOL     OW19033   3.559   2.030   6.664 -0.3268  0.1472  0.3890
 2467SOL    HW119034   3.510   1.949   6.649 -1.7076  1.1884 -0.7512
 2467SOL    HW219035   3.514   2.075   6.592  1.7812 -1.0927 -1.7019
 2468SOL     OW19036   4.508   3.998   3.263 -0.6987  0.0359  0.6155
 2468SOL    HW119037   4.583   4.047   3.296  0.3754 -0.0190 -1.6901
 2468SOL    HW219038   4.438   4.063   3.266 -0.6687  0.0223  1.6673
 2469SOL     OW19039   0.110   3.517   6.268  0.2478  1.0664 -0.4098
 2469SOL    HW119040   0.093   3.501   6.361 -1.3284 -2.3167 -1.2797
 2469SOL    HW219041   0.157   3.439   6.238 -0.1122 -0.2252  2.3865
 2470SOL     OW19042   0.629   0.375   4.029 -0.5186  0.2233 -0.0828
 2470SOL    HW119043   0.554   0.387   4.088 -1.5278 -1.4748 -1.0333
 2470SOL    HW219044   0.666   0.464   4.029 -0.0141 -0.0035 -3.0228
 2471SOL     OW19045   3.375   3.093   2.641  0.2372  0.1952  0.0042
 2471SOL    HW119046   3.394   3.156   2.711 -1.1502  1.6336 -0.9116
 2471SOL    HW219047   3.281   3.104   2.628  0.8271  0.4784 -3.9516
 2472SOL     OW19048   0.882   4.736   7.766 -0.2359  0.0455  0.0910
 2472SOL    HW119049   0.965   4.691   7.780 -1.0073 -1.5590 -0.5406
 2472SOL    HW219050   0.864   0.010   7.859  2.2230  1.1185  0.4474
 2473SOL     OW19051   4.463   2.988   2.277 -0.1469 -0.0994 -0.3624
 2473SOL    HW119052   4.392   3.015   2.219  0.9097  2.6107 -0.3910
 2473SOL    HW219053   4.544   2.980   2.226  0.1077  1.6325 -0.2412
 2474SOL     OW19054   1.881   2.724   7.689 -0.6180 -0.3439  0.0560
 2474SOL    HW119055   1.903   2.764   7.605 -0.9347 -2.8709 -1.2124
 2474SOL    HW219056   1.951   2.747   7.751 -1.5016  1.0010  0.5780
 2475SOL     OW19057   1.702   2.719   3.074  0.1907 -0.2283  0.0230
 2475SOL    HW119058   1.722   2.668   3.153  0.7114  0.9440  0.6658
 2475SOL    HW219059   1.632   2.667   3.036 -0.4584 -1.1429  2.4531
 2476SOL     OW19060   1.795   2.122   6.621 -0.0389  0.8827  0.2705
 2476SOL    HW119061   1.805   2.050   6.559  0.0370 -1.1170  2.6250
 2476SOL    HW219062   1.710   2.102   6.659 -0.1550  0.2506 -0.3148
 2477SOL     OW19063   4.562   4.294  16.795 -0.3681  0.8009  0.0719
 2477SOL    HW119064   4.474   4.272  16.766 -0.2185 -0.2342  0.3800
 2477SOL    HW219065   4.554   4.381  16.756 -0.6924  0.5678 -0.3765
 2478SOL     OW19066   0.304   1.127  16.080  0.2490 -0.2768 -0.0514
 2478SOL    HW119067   0.214   1.112  16.110 -0.4207  3.1571 -0.3149
 2478SOL    HW219068   0.344   1.058  16.132  0.1106  0.1845  0.6704
 2479SOL     OW19069   4.204   4.637   1.208 -0.1258 -0.1548 -0.0703
 2479SOL    HW119070   4.178   4.545   1.209  0.0073 -0.1865  1.0264
 2479SOL    HW219071   4.122   4.677   1.179  0.2502  0.2223 -0.6030
 2480SOL     OW19072   0.505   3.588   1.293  0.1335  0.5376  0.4960
 2480SOL    HW119073   0.562   3.643   1.240  1.6884  0.3948  2.0154
 2480SOL    HW219074   0.489   3.645   1.368  1.0235  2.1492 -0.5473
 2481SOL     OW19075   4.077   3.057  11.247  0.2187 -0.2671 -0.3142
 2481SOL    HW119076   4.057   3.051  11.341  0.4404 -1.9660 -0.3630
 2481SOL    HW219077   3.989   3.045  11.213  1.0357 -0.7746 -2.2291
 2482SOL     OW19078   3.371   1.411   4.573  0.6092  0.3574 -0.2388
 2482SOL    HW119079   3.288   1.364   4.579  0.1502  1.2152  0.1497
 2482SOL    HW219080   3.352   1.460   4.493 -1.3589 -0.9976 -0.5819
 2483SOL     OW19081   4.366   1.401   2.860  0.1387  0.6314 -0.5954
 2483SOL    HW119082   4.300   1.470   2.853  0.8588  1.3018 -0.6404
 2483SOL    HW219083   4.439   1.454   2.830 -0.1750  1.5244  0.2188
 2484SOL     OW19084   1.211   2.985  17.684  0.2863 -0.2360 -0.1240
 2484SOL    HW119085   1.117   2.967  17.675  0.0768 -0.3501  2.1995
 2484SOL    HW219086   1.224   3.008   0.030 -2.2584 -1.2346  0.4981
 2485SOL     OW19087   0.256   0.325   6.691  0.6617 -0.1805  0.7554
 2485SOL    HW119088   0.251   0.257   6.624  2.4569  1.7291 -1.3246
 2485SOL    HW219089   0.173   0.309   6.736 -0.2506  1.6588 -0.2531
 2486SOL     OW19090   0.145   2.858   3.586 -0.0796 -0.5716  0.1416
 2486SOL    HW119091   0.092   2.814   3.652  1.1838 -1.3467  0.6476
 2486SOL    HW219092   0.089   2.892   3.516 -0.0425 -1.0868 -0.1349
 2487SOL     OW19093   2.458   3.164   7.883 -0.0688  0.3373 -0.1041
 2487SOL    HW119094   2.490   3.228   7.819  0.9019  1.0670  1.0960
 2487SOL    HW219095   2.534   3.106   7.879 -0.9463 -0.8496  0.6216
 2488SOL     OW19096   2.811   1.825   3.986  0.3036  0.1719 -0.0265
 2488SOL    HW119097   2.906   1.814   3.980  0.0429 -1.0673 -2.1502
 2488SOL    HW219098   2.800   1.914   4.019  0.9037  0.6089 -0.9979
 2489SOL     OW19099   3.604   1.800  16.685 -0.0467  0.4711  0.2215
 2489SOL    HW119100   3.535   1.753  16.732 -0.0804  0.3224  0.0227
 2489SOL    HW219101   3.637   1.729  16.630 -1.0405 -1.9925  2.7673
 2490SOL     OW19102   1.116   3.480   7.664 -0.3979 -0.2088  0.0658
 2490SOL    HW119103   1.120   3.550   7.598  0.0378  0.0050  0.3190
 2490SOL    HW219104   1.153   3.409   7.612 -4.5964 -1.9816 -0.5286
 2491SOL     OW19105   1.582   0.343  13.331  0.6757 -0.0750  0.5273
 2491SOL    HW119106   1.524   0.272  13.359  0.0841  0.8777  1.7032
 2491SOL    HW219107   1.555   0.417  13.384  0.4333 -1.3396  2.1650
 2492SOL     OW19108   1.483   3.293  14.926 -0.5710  0.1102  0.3681
 2492SOL    HW119109   1.562   3.245  14.948 -0.5142  0.3901  0.7639
 2492SOL    HW219110   1.455   3.240  14.851 -1.3656  0.5598  0.3338
 2493SOL     OW19111   0.270   2.050   9.737  0.0118  0.0450 -0.2195
 2493SOL    HW119112   0.335   2.062   9.668 -0.5776  0.7993 -0.6488
 2493SOL    HW219113   0.324   2.041   9.815 -1.4805  0.5883  0.8823
 2494SOL     OW19114   0.940   0.581   5.173 -0.1897  0.6016 -0.0069
 2494SOL    HW119115   0.865   0.543   5.129  0.1498  1.5229 -1.3817
 2494SOL    HW219116   0.962   0.652   5.112 -2.1042 -0.4771 -1.9485
 2495SOL     OW19117   0.505   1.581   9.176  0.4181 -1.0105 -0.6465
 2495SOL    HW119118   0.572   1.649   9.170  0.3569 -1.0527 -1.8260
 2495SOL    HW219119   0.538   1.497   9.143  0.3887 -2.2783  2.4941
 2496SOL     OW19120   3.765   3.765   6.212 -0.1022  0.2549 -0.1432
 2496SOL    HW119121   3.775   3.757   6.117 -1.0069  1.2803 -0.3177
 2496SOL    HW219122   3.853   3.800   6.228  0.8824 -2.8366  1.2987
 2497SOL     OW19123   3.821   3.467   4.801  0.0691  0.1517  0.1732
 2497SOL    HW119124   3.758   3.527   4.842 -1.2168 -1.1154  0.0571
 2497SOL    HW219125   3.755   3.428   4.744  2.8556 -1.2726 -2.0356
 2498SOL     OW19126   2.103   2.512   7.537 -0.1164  0.3779  0.3662
 2498SOL    HW119127   2.158   2.570   7.484  0.6702 -1.3332 -0.6944
 2498SOL    HW219128   2.159   2.435   7.542 -0.0731  0.3779 -0.0620
 2499SOL     OW19129   2.036   1.191   7.333 -0.0874 -0.2274 -0.2652
 2499SOL    HW119130   2.040   1.117   7.394  0.4806 -1.0789 -1.3447
 2499SOL    HW219131   2.022   1.165   7.242 -0.3093 -0.7420 -0.0842
 2500SOL     OW19132   2.949   0.434  10.615  0.2124 -0.1842 -0.3502
 2500SOL    HW119133   2.985   0.496  10.552  0.4624  1.0671  1.0408
 2500SOL    HW219134   3.037   0.398  10.629 -0.5491 -0.7769  2.8164
 2501SOL     OW19135   1.751   2.292   2.523 -0.4593 -0.2177  0.4982
 2501SOL    HW119136   1.680   2.312   2.462  0.8561  0.5261 -0.7809
 2501SOL    HW219137   1.820   2.358   2.514  2.2476 -3.2664 -0.6486
 2502SOL     OW19138   2.894   2.731   2.417 -0.1347 -1.1183 -0.8184
 2502SOL    HW119139   2.974   2.723   2.469  1.1482  2.5138 -2.2768
 2502SOL    HW219140   2.863   2.817   2.445 -0.3293 -1.3492 -0.3044
 2503SOL     OW19141   2.845   2.383   3.710  0.5991  0.2756  0.5984
 2503SOL    HW119142   2.789   2.414   3.639  3.8608 -0.9166 -2.5020
 2503SOL    HW219143   2.924   2.427   3.675 -0.8899 -0.6824 -4.0038
 2504SOL     OW19144   2.923   4.032  14.341 -0.1854 -0.5090  0.0125
 2504SOL    HW119145   2.917   4.003  14.250 -1.0112  0.1928 -0.1603
 2504SOL    HW219146   2.835   4.068  14.353 -1.4418 -3.3128 -0.8995
 2505SOL     OW19147   1.411   2.774   7.050 -0.3789 -0.4727 -0.0484
 2505SOL    HW119148   1.493   2.734   7.079 -0.1638  0.4092  0.5558
 2505SOL    HW219149   1.365   2.692   7.034  3.0107 -2.9254  2.9012
 2506SOL     OW19150   1.299   4.207   2.610 -0.2016  0.0530  0.1826
 2506SOL    HW119151   1.368   4.269   2.585 -1.7933  1.1160 -1.6503
 2506SOL    HW219152   1.221   4.258   2.586  0.2793 -0.7098 -3.0517
 2507SOL     OW19153   2.283   1.445   3.159 -0.1915 -0.2114  0.1784
 2507SOL    HW119154   2.353   1.499   3.196  0.1943 -0.0690 -0.7671
 2507SOL    HW219155   2.329   1.404   3.086  0.0590 -0.5936  0.5515
 2508SOL     OW19156   1.039   3.743   7.093 -0.6840 -0.1137  0.0232
 2508SOL    HW119157   0.979   3.734   7.019  0.1229 -0.8047 -0.5501
 2508SOL    HW219158   1.064   3.651   7.105 -0.6781 -0.2229 -0.7950
 2509SOL     OW19159   4.332   0.829   6.224 -0.1059  0.5103  0.4844
 2509SOL    HW119160   4.272   0.755   6.233  0.2833 -0.3447 -3.9488
 2509SOL    HW219161   4.363   0.830   6.134 -0.0828  2.0379  0.5029
 2510SOL     OW19162   1.968   2.635   3.944  0.4917  0.2793 -0.3176
 2510SOL    HW119163   2.042   2.639   3.882 -1.2574  0.5210 -2.3848
 2510SOL    HW219164   1.988   2.709   4.001  1.0606  0.1804 -0.3879
 2511SOL     OW19165   2.048   1.834   4.226 -0.1011 -0.0347  0.0304
 2511SOL    HW119166   2.004   1.778   4.162  0.4571  2.1960 -2.2973
 2511SOL    HW219167   2.103   1.885   4.168  0.0420  0.4824  0.6193
 2512SOL     OW19168   4.646   3.632   4.605  0.0410  0.0654 -0.0443
 2512SOL    HW119169   4.725   3.663   4.648 -0.4642 -0.1785  1.0553
 2512SOL    HW219170   4.613   3.558   4.657  3.0528  0.2607  2.1051
 2513SOL     OW19171   1.805   1.600  15.363 -0.3333  0.4086  0.0340
 2513SOL    HW119172   1.765   1.651  15.433 -1.5462  1.4613 -1.4286
 2513SOL    HW219173   1.764   1.637  15.284  1.1314  0.0759 -0.8856
 2514SOL     OW19174   1.502   1.538   6.332 -0.3217 -0.4756  0.0171
 2514SOL    HW119175   1.424   1.485   6.317  0.8702 -2.2955  0.1932
 2514SOL    HW219176   1.459   1.614   6.370  0.7666 -0.2069  0.7150
 2515SOL     OW19177   1.615   1.750   1.029 -0.0860 -0.2658  0.1396
 2515SOL    HW119178   1.673   1.766   1.103  0.8143  0.1608 -0.6566
 2515SOL    HW219179   1.580   1.662   1.045  1.3266 -0.9132 -0.2986
 2516SOL     OW19180   0.485   1.700   0.417  0.1716  0.4976 -0.1598
 2516SOL    HW119181   0.426   1.626   0.405  1.1860 -0.6572  1.8444
 2516SOL    HW219182   0.441   1.748   0.348  0.5791  1.3414  0.1630
 2517SOL     OW19183   4.015   1.571  14.327  0.2625 -0.2939 -0.4226
 2517SOL    HW119184   4.090   1.516  14.305  0.7253  0.8050 -1.6344
 2517SOL    HW219185   3.945   1.514  14.296  0.6328 -1.3749  0.7066
 2518SOL     OW19186   1.186   2.087   3.820 -0.2784 -0.1660  0.3608
 2518SOL    HW119187   1.108   2.107   3.871 -1.3747 -1.5173 -0.7571
 2518SOL    HW219188   1.244   2.086   3.896 -0.5997  1.9554  0.6410
 2519SOL     OW19189   2.028   3.229   3.508  0.6134 -0.6863  0.8134
 2519SOL    HW119190   2.011   3.212   3.601 -1.1238 -2.3877  0.1888
 2519SOL    HW219191   2.009   3.144   3.469 -1.3963  0.4860 -0.8091
 2520SOL     OW19192   3.588   0.623  16.805 -0.0346  0.0373 -0.2307
 2520SOL    HW119193   3.573   0.695  16.866 -0.1921  0.1374 -0.3851
 2520SOL    HW219194   3.503   0.603  16.765 -0.8307  2.4399  0.2552
 2521SOL     OW19195   2.525   1.566   6.435  0.0914 -0.0922 -0.4940
 2521SOL    HW119196   2.512   1.660   6.441 -1.1547 -0.3525  0.7434
 2521SOL    HW219197   2.454   1.540   6.377  2.6645 -1.1913 -3.2088
 2522SOL     OW19198   4.706   3.173   6.028  0.0553  0.0777  0.4355
 2522SOL    HW119199   4.704   3.094   6.083 -1.4113 -1.5708 -1.9890
 2522SOL    HW219200   0.028   3.146   5.958 -0.3442 -0.8231  0.4416
 2523SOL     OW19201   3.121   3.873   8.040  0.3213 -0.1789 -0.1936
 2523SOL    HW119202   3.098   3.786   8.071  1.7765 -1.0600 -1.6045
 2523SOL    HW219203   3.106   3.933   8.113  0.2988 -0.9706  0.4448
 2524SOL     OW19204   1.505   0.976  16.443 -0.0016  0.5177 -0.0098
 2524SOL    HW119205   1.534   0.938  16.361 -1.4693 -0.8936  0.1291
 2524SOL    HW219206   1.565   0.938  16.507 -1.3880 -0.4009  0.7478
 2525SOL     OW19207   4.252   2.550   1.380 -0.7555 -0.2655 -0.6295
 2525SOL    HW119208   4.166   2.509   1.376 -1.3427  1.0826 -1.3514
 2525SOL    HW219209   4.303   2.476   1.414  1.2830  1.9760  1.1853
 2526SOL     OW19210   4.569   1.207   5.152 -0.0885  0.1741  0.2625
 2526SOL    HW119211   4.516   1.171   5.081  0.6187 -0.0709 -0.1464
 2526SOL    HW219212   4.604   1.291   5.121 -0.2603  1.1564  2.7670
 2527SOL     OW19213   4.283   2.366   2.360 -0.6763  0.3964  0.8419
 2527SOL    HW119214   4.362   2.376   2.308  0.3369 -0.4973  2.2223
 2527SOL    HW219215   4.219   2.342   2.293  0.7640 -0.4241 -0.2206
 2528SOL     OW19216   2.048   0.191   4.752 -0.5214 -0.3654  0.3121
 2528SOL    HW119217   1.975   0.136   4.725  1.1135 -3.1120  1.5490
 2528SOL    HW219218   2.010   0.274   4.782 -1.4519 -0.8766  0.5583
 2529SOL     OW19219   0.770   1.106   6.980 -0.1209  0.1548  0.0985
 2529SOL    HW119220   0.726   1.141   7.056 -0.9593  0.0142 -0.3206
 2529SOL    HW219221   0.716   1.031   6.955 -2.3103  1.2817  1.5032
 2530SOL     OW19222   1.214   0.046   6.805  0.0289  0.4224  0.6807
 2530SOL    HW119223   1.213   0.141   6.818 -0.2643 -0.0963  4.4796
 2530SOL    HW219224   1.225   0.031   6.711  1.2454  2.2104  0.5283
 2531SOL     OW19225   0.781   1.663  16.800 -0.1353 -0.9287 -0.3777
 2531SOL    HW119226   0.785   1.617  16.716  0.3901 -0.7100 -0.4704
 2531SOL    HW219227   0.873   1.668  16.826 -0.3927  0.8401  0.1590
 2532SOL     OW19228   3.359   1.927  16.330 -0.0885 -0.7100 -0.4357
 2532SOL    HW119229   3.381   1.834  16.331  0.6106 -0.5283  1.2354
 2532SOL    HW219230   3.440   1.974  16.309 -0.0170  0.3968  2.2451
 2533SOL     OW19231   3.504   3.906   1.891  0.1366 -0.4311 -0.5394
 2533SOL    HW119232   3.512   3.814   1.916 -0.0473 -0.5501 -0.9171
 2533SOL    HW219233   3.575   3.938   1.947 -1.4182 -2.9234  2.8565
 2534SOL     OW19234   3.336   4.459   8.303 -0.0642  0.2517 -0.1375
 2534SOL    HW119235   3.304   4.415   8.224  0.7620 -0.7873  0.1045
 2534SOL    HW219236   3.314   4.393   8.369 -0.0407 -0.3253 -0.7085
 2535SOL     OW19237   4.229   3.445   4.984  0.1359  0.7321 -0.2525
 2535SOL    HW119238   4.249   3.494   4.904 -0.8626 -0.0617 -1.0086
 2535SOL    HW219239   4.296   3.377   4.976  0.3746  0.6842  2.3107
 2536SOL     OW19240   1.087   2.498   7.551  0.0137  0.0756  0.4541
 2536SOL    HW119241   1.070   2.444   7.473 -0.7671 -1.8710  1.9870
 2536SOL    HW219242   1.151   2.557   7.511  1.0326 -2.5715 -1.8730
 2537SOL     OW19243   2.602   1.147   4.779 -0.1677  0.4795  0.2697
 2537SOL    HW119244   2.654   1.227   4.773  0.4989  0.0505  0.3207
 2537SOL    HW219245   2.565   1.131   4.866 -0.6666 -0.1735 -0.0566
 2538SOL     OW19246   0.895   0.668   9.115  0.6339 -0.3141 -0.1034
 2538SOL    HW119247   0.836   0.697   9.046  1.9175  0.0296 -1.0471
 2538SOL    HW219248   0.975   0.720   9.107  1.2726 -1.6700 -2.4804
 2539SOL     OW19249   3.306   4.625   1.480  0.0765 -0.2166  0.3846
 2539SOL    HW119250   3.399   4.604   1.470 -0.1934 -0.4699 -1.6065
 2539SOL    HW219251   3.262   4.594   1.400  1.4206 -0.8084 -0.1251
 2540SOL     OW19252   0.467   2.805   0.001 -0.4211  0.1697  0.2326
 2540SOL    HW119253   0.518   2.807  17.665 -3.2951  2.8954 -1.5202
 2540SOL    HW219254   0.377   2.819  17.717  0.4767 -1.1102 -3.0535
 2541SOL     OW19255   2.278   3.580  14.022 -0.6237  0.1642  0.0131
 2541SOL    HW119256   2.245   3.593  14.111  0.7814  0.0874  0.5406
 2541SOL    HW219257   2.316   3.493  14.036 -0.3545  0.4519  1.0043
 2542SOL     OW19258   2.544   3.987   8.607 -0.3955  0.4024  0.3087
 2542SOL    HW119259   2.546   4.018   8.516 -1.1417  0.6005  0.3633
 2542SOL    HW219260   2.631   4.002   8.643 -0.6510  0.0425  1.0573
 2543SOL     OW19261   1.744   2.816   6.859  0.1400  0.0862 -0.0358
 2543SOL    HW119262   1.832   2.840   6.888 -0.0019 -0.2857  0.6977
 2543SOL    HW219263   1.753   2.839   6.766 -1.7819  1.5491  0.1595
 2544SOL     OW19264   3.280   2.638   4.512  0.4706  0.1816  0.4698
 2544SOL    HW119265   3.265   2.600   4.598 -1.1819  1.2327  0.6519
 2544SOL    HW219266   3.375   2.646   4.518  0.3560  1.0162  1.0967
 2545SOL     OW19267   1.393   3.568   2.471  0.0301  0.1912 -0.2969
 2545SOL    HW119268   1.413   3.661   2.463 -0.0002  0.2035 -0.2328
 2545SOL    HW219269   1.304   3.568   2.505  0.4235 -0.3902  0.7500
 2546SOL     OW19270   3.520   3.193   6.563  0.1445 -0.0916  0.6578
 2546SOL    HW119271   3.611   3.211   6.586  0.6358 -0.4958 -0.9746
 2546SOL    HW219272   3.476   3.255   6.621 -0.9597  0.7761 -1.1225
 2547SOL     OW19273   3.710   3.194  11.720 -0.2906 -0.9821 -0.0199
 2547SOL    HW119274   3.700   3.235  11.634  2.6040 -0.2130  0.0042
 2547SOL    HW219275   3.710   3.272  11.776 -0.5698 -1.7695  1.0724
 2548SOL     OW19276   1.209   0.256  14.687  0.1964 -0.1080 -0.4648
 2548SOL    HW119277   1.135   0.196  14.674  0.1493 -0.4068  1.1628
 2548SOL    HW219278   1.171   0.336  14.652 -0.9743 -0.1370  0.7492
 2549SOL     OW19279   1.702   3.747   9.616 -0.1418  0.1405  0.2631
 2549SOL    HW119280   1.619   3.752   9.665  0.4222 -1.1043  1.3360
 2549SOL    HW219281   1.757   3.814   9.657 -1.1147  0.2453  1.3996
 2550SOL     OW19282   1.760   1.295   7.743 -0.2223  0.0942 -0.2255
 2550SOL    HW119283   1.799   1.211   7.770  1.3981  0.9169 -0.0130
 2550SOL    HW219284   1.734   1.338   7.824  1.9992  2.1364 -0.5971
 2551SOL     OW19285   0.233   3.273   1.233  0.1473  0.3048  0.0966
 2551SOL    HW119286   0.174   3.205   1.265  0.4638 -0.5030 -1.0241
 2551SOL    HW219287   0.321   3.238   1.249  0.7516  1.2019 -1.1850
 2552SOL     OW19288   0.551   1.310  15.179 -0.1387 -0.0471 -0.1351
 2552SOL    HW119289   0.505   1.387  15.146  1.2491  0.4424 -0.9415
 2552SOL    HW219290   0.578   1.335  15.267  1.8017  3.3284 -1.6958
 2553SOL     OW19291   0.557   0.217   9.467 -0.2133 -0.1134 -0.1491
 2553SOL    HW119292   0.485   0.239   9.526  0.9452  1.6810  0.6275
 2553SOL    HW219293   0.516   0.224   9.381 -1.8909  0.7971  0.7265
 2554SOL     OW19294   2.470   0.480   4.408  0.4087  0.1100 -0.2910
 2554SOL    HW119295   2.479   0.567   4.445 -0.4919  0.2527 -0.4259
 2554SOL    HW219296   2.549   0.469   4.355 -0.6306 -1.6765 -1.4896
 2555SOL     OW19297   1.720   0.577   7.347  0.5975  0.6080  0.5738
 2555SOL    HW119298   1.721   0.520   7.270 -0.1564 -0.2400  1.1905
 2555SOL    HW219299   1.711   0.666   7.312  3.7403  0.8840  0.5333
 2556SOL     OW19300   3.190   0.448   5.266 -0.8140  0.5847 -0.4103
 2556SOL    HW119301   3.267   0.500   5.242 -1.3433  2.4565  1.9327
 2556SOL    HW219302   3.119   0.498   5.225 -2.2843 -0.3848  0.9781
 2557SOL     OW19303   4.507   3.131   4.541 -0.3759 -0.0513  0.2852
 2557SOL    HW119304   4.524   3.113   4.448 -0.0229  0.5860  0.2222
 2557SOL    HW219305   4.574   3.189   4.577 -0.2252 -0.5998  0.8866
 2558SOL     OW19306   3.538   4.621  12.039  0.2274 -0.0143  0.6784
 2558SOL    HW119307   3.609   4.609  11.976  0.0154  3.2087 -0.2050
 2558SOL    HW219308   3.525   4.716  12.031  0.7191 -0.0370 -0.3257
 2559SOL     OW19309   0.374   0.398   4.404 -0.2835 -0.2362 -0.6815
 2559SOL    HW119310   0.433   0.472   4.415  0.9376 -1.1025 -1.4869
 2559SOL    HW219311   0.317   0.437   4.337  0.4133 -1.9734 -2.2708
 2560SOL     OW19312   2.168   1.127   5.049  0.8735  0.3794 -0.2609
 2560SOL    HW119313   2.135   1.193   4.988 -1.1176 -1.1949 -0.8965
 2560SOL    HW219314   2.239   1.179   5.086  0.5829  0.7746 -0.2562
 2561SOL     OW19315   0.623   3.844  17.229  0.0953  0.1703  0.5777
 2561SOL    HW119316   0.600   3.933  17.253 -0.7387  0.7201 -2.3253
 2561SOL    HW219317   0.618   3.793  17.310  4.1222  0.0554  0.7739
 2562SOL     OW19318   2.412   4.625   5.887  0.0015 -0.4456 -0.5975
 2562SOL    HW119319   2.445   4.691   5.827  0.4346 -0.8495 -0.8010
 2562SOL    HW219320   2.322   4.606   5.859  0.0447 -1.7739  0.1738
 2563SOL     OW19321   3.981   3.960   4.501 -0.0735  0.0907  0.4231
 2563SOL    HW119322   4.047   3.915   4.448  0.6124 -0.2096  1.5332
 2563SOL    HW219323   3.903   3.922   4.462 -0.0456  1.2201 -0.7072
 2564SOL     OW19324   1.223   2.492   5.537  0.8452 -0.0503  0.3253
 2564SOL    HW119325   1.134   2.457   5.547  0.8376  0.2230  1.2914
 2564SOL    HW219326   1.229   2.519   5.446 -0.2952 -0.5265  0.1107
 2565SOL     OW19327   2.669   1.597   8.731 -0.1148  0.2062 -0.1852
 2565SOL    HW119328   2.628   1.670   8.685 -0.6341 -0.1724 -0.3203
 2565SOL    HW219329   2.708   1.548   8.658  0.0255 -0.0230  0.0441
 2566SOL     OW19330   1.919   3.695   9.860  0.5172  0.2092  0.1283
 2566SOL    HW119331   1.884   3.773   9.904  2.6326  1.2417 -0.0258
 2566SOL    HW219332   1.852   3.632   9.887  0.1926  0.5000  0.0106
 2567SOL     OW19333   2.114   4.399  16.577 -0.1022 -0.0240 -0.5803
 2567SOL    HW119334   2.019   4.394  16.587  0.3960 -1.3623  3.3304
 2567SOL    HW219335   2.125   4.492  16.559  0.2342  0.0748  0.1751
 2568SOL     OW19336   2.426   2.643  12.197 -0.0269  0.3181 -0.0936
 2568SOL    HW119337   2.376   2.662  12.118  1.5983 -0.1158 -1.2095
 2568SOL    HW219338   2.386   2.558  12.217  0.2027 -0.1067 -1.4591
 2569SOL     OW19339   0.611   3.372  15.623  0.3240 -0.0097 -0.2970
 2569SOL    HW119340   0.624   3.403  15.713 -0.4087 -1.3884  0.2777
 2569SOL    HW219341   0.527   3.415  15.605  1.2178  1.1688 -1.6501
 2570SOL     OW19342   4.238   1.900  16.972  0.0120 -0.0896 -0.1769
 2570SOL    HW119343   4.274   1.818  17.006 -0.5822  0.1092  0.9412
 2570SOL    HW219344   4.289   1.965  17.019 -0.8355  0.5210 -0.0914
 2571SOL     OW19345   1.914   4.459  11.207 -0.4831 -0.0699 -0.1125
 2571SOL    HW119346   1.944   4.379  11.250  0.2880  0.0904 -0.3551
 2571SOL    HW219347   1.969   4.527  11.248  0.6313  0.0560 -1.8297
 2572SOL     OW19348   2.136   0.643  15.125 -0.9368 -0.1152 -0.0933
 2572SOL    HW119349   2.112   0.669  15.213  0.9320 -1.5903  0.8554
 2572SOL    HW219350   2.071   0.688  15.070 -1.7761 -0.3099  0.7308
 2573SOL     OW19351   1.111   3.006   8.011 -0.6152 -0.2113 -1.0483
 2573SOL    HW119352   1.160   2.924   8.005  0.7892  0.4826  0.6957
 2573SOL    HW219353   1.104   3.018   7.917  0.0797  1.7312 -0.8424
 2574SOL     OW19354   0.010   2.566  16.465  0.7076 -0.3433  0.5317
 2574SOL    HW119355   4.729   2.581  16.372  1.8669  1.5102  0.6234
 2574SOL    HW219356   0.086   2.622  16.478 -1.4029  2.4518  0.8105
 2575SOL     OW19357   3.520   2.969   0.389  0.5988 -0.3262 -0.5937
 2575SOL    HW119358   3.532   2.964   0.483 -1.9168  1.8012 -0.1328
 2575SOL    HW219359   3.453   2.905   0.364  1.8172 -0.7198 -2.8299
 2576SOL     OW19360   0.168   0.445  10.069  0.2550 -0.2558  0.1732
 2576SOL    HW119361   0.208   0.523  10.032 -0.4083  0.1648  0.3464
 2576SOL    HW219362   0.086   0.470  10.111  0.0363  1.5599 -1.3632
 2577SOL     OW19363   0.241   2.882  17.623 -0.0354 -0.1801  0.7327
 2577SOL    HW119364   0.158   2.930  17.617 -0.3612 -0.7330  0.8206
 2577SOL    HW219365   0.263   2.863  17.532  1.7011  0.0070  1.1209
 2578SOL     OW19366   1.676   4.370   3.942 -0.8552 -0.8372  0.2241
 2578SOL    HW119367   1.642   4.418   3.866  2.3376 -0.0498 -0.7135
 2578SOL    HW219368   1.600   4.385   3.998  0.6396 -1.0145  2.2991
 2579SOL     OW19369   3.198   1.809   2.192  0.0777  0.0752 -0.6352
 2579SOL    HW119370   3.115   1.827   2.236 -0.1914 -1.0359 -0.6776
 2579SOL    HW219371   3.156   1.739   2.141  0.3013  0.8068 -1.8296
 2580SOL     OW19372   2.328   4.680   4.943 -0.0975  0.7289  0.2690
 2580SOL    HW119373   2.327   4.613   4.875 -2.6285  1.5376 -0.4874
 2580SOL    HW219374   2.325   0.026   4.895 -3.5277  0.8835  0.7168
 2581SOL     OW19375   0.443   0.050   8.066  0.0010  0.0854  0.1833
 2581SOL    HW119376   0.505   0.078   7.999 -0.6347 -1.2333 -0.9636
 2581SOL    HW219377   0.512   0.043   8.132  0.3557  3.4324  0.1695
 2582SOL     OW19378   3.739   2.779  16.357 -0.2951 -0.1182  0.3096
 2582SOL    HW119379   3.719   2.783  16.450 -0.0270  1.2772  0.2974
 2582SOL    HW219380   3.655   2.747  16.324 -0.6427 -0.6711  1.7372
 2583SOL     OW19381   1.888   0.822   1.996  0.5311  0.3134  0.1202
 2583SOL    HW119382   1.934   0.891   1.948  0.6620 -0.4766 -0.8971
 2583SOL    HW219383   1.800   0.851   1.971  0.1251 -1.0117 -0.0300
 2584SOL     OW19384   3.186   1.803  11.401 -0.2123  0.4921  0.1014
 2584SOL    HW119385   3.151   1.872  11.345 -0.0795 -0.5114 -1.2480
 2584SOL    HW219386   3.160   1.822  11.490 -0.7940  0.5165 -0.0745
 2585SOL     OW19387   0.979   0.229  17.259  0.0847 -0.0322 -0.1050
 2585SOL    HW119388   0.892   0.240  17.221 -0.6536 -0.3344  1.4707
 2585SOL    HW219389   0.981   0.134  17.246  2.0500  0.0019 -0.0704
 2586SOL     OW19390   1.023   2.170  14.418  0.6077  0.6683  0.7349
 2586SOL    HW119391   0.929   2.187  14.421  0.8907  2.4997 -1.0420
 2586SOL    HW219392   1.044   2.165  14.512  0.6279  1.0652  0.7511
 2587SOL     OW19393   1.735   2.867   6.604 -0.5116 -0.4758 -0.2578
 2587SOL    HW119394   1.717   2.960   6.589 -2.8510 -0.6737  1.2610
 2587SOL    HW219395   1.767   2.840   6.518  1.5072 -0.8809  0.6123
 2588SOL     OW19396   0.132   1.194   1.221  0.3301 -0.0981 -0.0232
 2588SOL    HW119397   0.226   1.206   1.203  0.0240  0.9820 -0.8554
 2588SOL    HW219398   0.110   1.258   1.288  0.9620  0.0259  0.0679
 2589SOL     OW19399   0.422   3.806  16.156 -0.6882 -0.4776 -0.3706
 2589SOL    HW119400   0.493   3.747  16.183  0.0349  0.9249  0.7889
 2589SOL    HW219401   0.393   3.840  16.240  0.5731  1.8258 -0.8742
 2590SOL     OW19402   4.335   3.729   0.062  0.3035  0.0503  0.3400
 2590SOL    HW119403   4.335   3.824   0.046  0.3398 -0.1840 -1.0519
 2590SOL    HW219404   4.334   3.706  17.715  4.2372  0.6704  0.1440
 2591SOL     OW19405   4.110   1.253  10.287  0.5632 -0.7376 -0.4968
 2591SOL    HW119406   4.168   1.222  10.217  0.2070  1.0172 -1.5629
 2591SOL    HW219407   4.158   1.232  10.367 -1.1743  0.4542  0.8603
 2592SOL     OW19408   1.132   2.523   3.609 -0.0872 -0.2558  0.0749
 2592SOL    HW119409   1.214   2.529   3.561  2.0296  1.1786  3.9125
 2592SOL    HW219410   1.142   2.590   3.676  0.0177 -1.8313  1.6531
 2593SOL     OW19411   0.116   2.051   5.645  0.5714 -0.2980 -0.3546
 2593SOL    HW119412   0.160   2.121   5.597  0.4155  0.8617  1.2273
 2593SOL    HW219413   0.032   2.094   5.659  0.3723 -0.8055  0.0116
 2594SOL     OW19414   2.549   1.282  16.877 -0.1025 -0.5143 -0.3204
 2594SOL    HW119415   2.506   1.310  16.796 -0.9393  1.2164  0.7312
 2594SOL    HW219416   2.594   1.205  16.840 -0.1366 -0.3304 -0.7458
 2595SOL     OW19417   1.783   1.785   4.613 -0.0891 -0.3708  0.0331
 2595SOL    HW119418   1.744   1.840   4.681  1.6743 -0.9472  1.5206
 2595SOL    HW219419   1.782   1.862   4.556  1.6101 -0.3182  0.0843
 2596SOL     OW19420   2.188   0.477  10.654  0.6493 -0.4116 -0.0956
 2596SOL    HW119421   2.191   0.488  10.750  1.4749  1.5893 -0.3551
 2596SOL    HW219422   2.172   0.383  10.645  1.3569 -0.5250 -0.1485
 2597SOL     OW19423   0.422   0.508   6.406 -0.1115 -0.2777  0.4021
 2597SOL    HW119424   0.336   0.466   6.404  0.9117 -2.3771  0.3130
 2597SOL    HW219425   0.455   0.483   6.319 -0.8716 -2.0213  0.6107
 2598SOL     OW19426   4.156   0.399   3.306  0.7165  0.2444 -0.3886
 2598SOL    HW119427   4.151   0.480   3.357  0.3331  0.6927 -1.1305
 2598SOL    HW219428   4.118   0.424   3.222 -1.1100  3.2724  1.3595
 2599SOL     OW19429   3.487   1.508   5.127  0.3181  0.5184 -0.6625
 2599SOL    HW119430   3.539   1.528   5.205  0.9642 -0.6730 -0.7777
 2599SOL    HW219431   3.469   1.415   5.140  0.4146  0.5578 -0.2665
 2600SOL     OW19432   3.775   2.848   2.585  0.1774 -0.1933 -0.0006
 2600SOL    HW119433   3.744   2.934   2.612 -0.9440  0.2932 -2.8162
 2600SOL    HW219434   3.733   2.844   2.499  0.4942  2.9390 -0.3002
 2601SOL     OW19435   4.479   3.592   1.675  0.0107  0.7086 -0.0682
 2601SOL    HW119436   4.572   3.603   1.654 -0.0536  0.6374 -0.4005
 2601SOL    HW219437   4.469   3.497   1.686  4.8645  0.1535 -0.4300
 2602SOL     OW19438   3.565   1.013  12.997  0.8349 -0.1276 -0.2052
 2602SOL    HW119439   3.485   1.012  13.050 -1.0614  1.1416 -3.0391
 2602SOL    HW219440   3.610   1.091  13.028 -2.4373  2.3906 -1.7592
 2603SOL     OW19441   1.680   4.101   4.719  0.3525  0.5400  0.1157
 2603SOL    HW119442   1.654   4.138   4.804  2.1559 -0.6904  1.2147
 2603SOL    HW219443   1.611   4.034   4.718  0.3005  0.6367 -1.4698
 2604SOL     OW19444   0.157   2.481   0.544  0.0325  0.0698  0.0235
 2604SOL    HW119445   0.123   2.391   0.545  2.7078 -0.9530 -0.4457
 2604SOL    HW219446   0.178   2.497   0.452 -2.0625 -0.8884 -0.6321
 2605SOL     OW19447   2.464   2.671   5.695  0.0409 -0.0834 -0.0227
 2605SOL    HW119448   2.547   2.664   5.742  1.4580 -0.6182 -2.6188
 2605SOL    HW219449   2.424   2.749   5.733 -1.6704  0.2679 -2.4994
 2606SOL     OW19450   1.464   2.761   2.378 -0.1634  0.0904  0.3646
 2606SOL    HW119451   1.452   2.854   2.398  1.4705 -0.0685  2.0256
 2606SOL    HW219452   1.429   2.720   2.457 -3.0011  2.8164  0.5338
 2607SOL     OW19453   1.103   2.488   7.829  0.2874 -0.2468 -0.4134
 2607SOL    HW119454   1.115   2.505   7.736 -0.4784 -0.4710 -0.5499
 2607SOL    HW219455   1.196   2.480   7.850  0.3034 -0.0317 -0.4002
 2608SOL     OW19456   3.039   0.468   7.189 -0.2437  0.1062  0.3797
 2608SOL    HW119457   3.100   0.397   7.206  0.2343  0.3207 -0.4440
 2608SOL    HW219458   3.002   0.476   7.277 -1.6362  0.2464 -0.2087
 2609SOL     OW19459   3.881   4.087  12.346  0.2505  0.4024 -0.6105
 2609SOL    HW119460   3.854   4.101  12.437  1.6767 -0.3375 -0.0678
 2609SOL    HW219461   3.822   4.143  12.296  1.2923  0.4488 -1.7926
 2610SOL     OW19462   3.923   2.136   8.884  0.0428  0.0322  0.1072
 2610SOL    HW119463   3.862   2.204   8.913 -0.1115 -0.1153  0.1354
 2610SOL    HW219464   4.006   2.180   8.867  0.4750  0.1875  2.5635
 2611SOL     OW19465   3.162   0.820   6.732 -0.4241 -0.3074 -0.0410
 2611SOL    HW119466   3.094   0.879   6.767  0.1502  0.8084 -0.7885
 2611SOL    HW219467   3.239   0.863   6.770 -1.3894  0.2497  1.2811
 2612SOL     OW19468   1.953   4.352   6.917 -0.1444 -0.1923 -0.2383
 2612SOL    HW119469   1.992   4.313   6.995 -1.2353 -0.9390 -0.0706
 2612SOL    HW219470   1.915   4.271   6.882  0.6391 -1.4095  1.7591
 2613SOL     OW19471   2.268   3.359   3.054  0.0457 -0.0760  0.2583
 2613SOL    HW119472   2.215   3.437   3.034 -1.4434 -0.9230  0.9415
 2613SOL    HW219473   2.232   3.347   3.142 -1.4300  1.2591 -0.1663
 2614SOL     OW19474   2.059   4.727   1.665  0.1983 -0.0936  0.3091
 2614SOL    HW119475   2.023   0.078   1.666 -1.3828 -0.7469  0.6643
 2614SOL    HW219476   2.149   0.002   1.694  0.3994 -1.7504  0.4007
 2615SOL     OW19477   3.959   4.179   8.948 -0.4293  0.6353 -0.3816
 2615SOL    HW119478   3.999   4.250   8.999  0.4744 -1.4028  1.7342
 2615SOL    HW219479   3.883   4.167   9.005  0.9710  0.7218  1.5006
 2616SOL     OW19480   2.673   1.043   5.715 -0.1125  0.4283  0.1877
 2616SOL    HW119481   2.582   1.026   5.739 -0.0530 -0.1983 -0.0136
 2616SOL    HW219482   2.657   1.130   5.679  0.1085  0.2505 -0.3443
 2617SOL     OW19483   4.683   2.412  17.140 -0.4878  0.4584 -0.4368
 2617SOL    HW119484   4.729   2.335  17.174 -0.1353  0.2382 -1.4162
 2617SOL    HW219485   4.687   2.401  17.045  3.2971 -0.0063 -0.2417
 2618SOL     OW19486   1.982   1.851   2.146  0.2272  0.3457  0.2455
 2618SOL    HW119487   2.042   1.867   2.073  2.0546  0.4649  1.7853
 2618SOL    HW219488   1.898   1.866   2.104  0.6363  1.0404 -0.3236
 2619SOL     OW19489   2.073   3.452   9.994 -0.1565 -0.1734  0.4157
 2619SOL    HW119490   2.139   3.409   9.939 -0.2196  0.0788  0.1431
 2619SOL    HW219491   2.041   3.530   9.947  1.1139 -0.0567 -0.2558
 2620SOL     OW19492   0.952   0.850   5.767 -0.0489  0.2139  0.0263
 2620SOL    HW119493   0.995   0.905   5.833  2.3803 -0.0054 -1.3724
 2620SOL    HW219494   0.970   0.894   5.684  0.2027  0.4384  0.2005
 2621SOL     OW19495   0.367   4.636   6.526 -0.9416  0.3224  0.3957
 2621SOL    HW119496   0.412   4.553   6.510  0.5659  1.3299 -0.6316
 2621SOL    HW219497   0.333   4.646   6.438 -1.4610  0.4217  0.6073
 2622SOL     OW19498   1.880   1.162   8.764 -0.5287  0.1804  0.1224
 2622SOL    HW119499   1.939   1.179   8.691 -0.3207 -1.3543 -0.0684
 2622SOL    HW219500   1.881   1.067   8.754 -3.2905  0.3662 -1.6491
 2623SOL     OW19501   0.598   0.134   7.866 -0.1626 -0.0605 -0.1282
 2623SOL    HW119502   0.666   0.092   7.814  1.0590  2.1881 -0.3079
 2623SOL    HW219503   0.549   0.187   7.803 -0.2208 -0.5055 -0.4587
 2624SOL     OW19504   2.961   1.978   1.942 -0.2101  0.5484 -0.6037
 2624SOL    HW119505   2.961   1.949   2.033 -0.4026 -2.1914 -1.4775
 2624SOL    HW219506   2.879   2.027   1.941  1.1970  2.9224  0.2473
 2625SOL     OW19507   1.309   2.228   7.269 -0.5391 -0.4434 -0.5440
 2625SOL    HW119508   1.359   2.147   7.269 -0.0084 -0.1218  0.8052
 2625SOL    HW219509   1.265   2.231   7.354  1.1028  2.3107  0.2291
 2626SOL     OW19510   2.395   1.783   1.748  0.4285 -0.0500  0.3789
 2626SOL    HW119511   2.484   1.808   1.774  1.2500 -3.0505  0.4527
 2626SOL    HW219512   2.347   1.865   1.758  0.2029 -0.2182  0.6849
 2627SOL     OW19513   1.912   2.678   8.787 -0.0710 -0.0265 -0.1749
 2627SOL    HW119514   2.008   2.678   8.787 -0.0626 -1.7847 -1.6744
 2627SOL    HW219515   1.901   2.700   8.694  2.5420 -0.8966 -0.6735
 2628SOL     OW19516   3.213   1.155   7.798  0.2487 -0.3433  0.0119
 2628SOL    HW119517   3.149   1.105   7.847 -0.0240 -1.0136 -1.0246
 2628SOL    HW219518   3.156   1.205   7.739  2.2847  1.6449 -0.2737
 2629SOL     OW19519   3.377   4.561  12.819  0.2766 -0.3225 -0.6746
 2629SOL    HW119520   3.364   4.654  12.838  0.6879 -0.2468 -0.7588
 2629SOL    HW219521   3.409   4.561  12.729  1.2764 -0.3780 -0.3150
 2630SOL     OW19522   4.452   1.943   4.646  0.4688  0.2318 -0.3549
 2630SOL    HW119523   4.480   1.879   4.580  2.9949 -1.7451  2.6376
 2630SOL    HW219524   4.360   1.919   4.658  1.3250 -3.2086 -0.8335
 2631SOL     OW19525   1.843   0.281  16.126 -0.0562  0.0234 -0.0961
 2631SOL    HW119526   1.889   0.247  16.049  0.0762  1.2346 -0.5574
 2631SOL    HW219527   1.907   0.341  16.166  1.0474 -0.9937 -0.3322
 2632SOL     OW19528   3.011   0.334  13.837  0.0872  0.5604 -0.2949
 2632SOL    HW119529   2.939   0.356  13.897  0.9007 -1.9803  1.6196
 2632SOL    HW219530   2.981   0.372  13.755 -0.0792 -2.2746 -1.5316
 2633SOL     OW19531   3.553   4.562  16.248  0.6825  0.0181  0.0274
 2633SOL    HW119532   3.646   4.540  16.247  0.5379 -0.6988  1.7528
 2633SOL    HW219533   3.548   4.602  16.161  1.9102  1.5126  0.6216
 2634SOL     OW19534   1.832   2.592   7.296 -0.0100 -0.2145  0.3079
 2634SOL    HW119535   1.867   2.520   7.242  0.5131  1.4591 -1.5806
 2634SOL    HW219536   1.798   2.539   7.369 -0.4432 -0.0247  0.2436
 2635SOL     OW19537   1.080   3.052   7.752  0.5061  0.4031 -0.7434
 2635SOL    HW119538   0.995   3.096   7.744 -0.3430 -1.1448 -0.2991
 2635SOL    HW219539   1.134   3.128   7.733  0.2597  0.3367 -1.7084
 2636SOL     OW19540   2.327   0.846   9.314 -0.1745  0.0200 -0.0202
 2636SOL    HW119541   2.322   0.805   9.400  0.5734 -0.1500 -0.0568
 2636SOL    HW219542   2.246   0.897   9.302 -0.4740 -0.7851 -1.4152
 2637SOL     OW19543   4.088   2.504   7.063  0.2158  0.2943 -0.4081
 2637SOL    HW119544   4.055   2.563   7.131  2.0810 -0.0353  0.7826
 2637SOL    HW219545   4.109   2.566   6.993  0.2729  1.3642  0.5642
 2638SOL     OW19546   3.948   2.126   7.503 -0.0684 -0.6993  0.1074
 2638SOL    HW119547   3.998   2.146   7.424 -1.4758 -0.4127 -0.6983
 2638SOL    HW219548   3.999   2.176   7.567  1.0590 -2.1683  0.3584
 2639SOL     OW19549   2.620   2.557   3.612  0.5637 -0.2214 -0.2102
 2639SOL    HW119550   2.608   2.650   3.594  0.4392  0.2397  2.1830
 2639SOL    HW219551   2.608   2.519   3.525  0.1551 -0.8335  0.1089
 2640SOL     OW19552   2.237   1.486   4.578 -0.4923  0.2353  0.1368
 2640SOL    HW119553   2.160   1.528   4.617  0.5696  1.6513  0.7216
 2640SOL    HW219554   2.209   1.489   4.486 -1.0133 -3.2142  0.2014
 2641SOL     OW19555   2.768   1.468   3.047 -0.0095 -0.0133  0.1226
 2641SOL    HW119556   2.850   1.498   3.086  1.7398 -3.4857 -0.9127
 2641SOL    HW219557   2.761   1.520   2.967  2.7592  3.7565  2.3014
 2642SOL     OW19558   3.432   1.538   7.468 -0.4940  0.0351 -0.2985
 2642SOL    HW119559   3.397   1.627   7.469 -0.7532 -0.0857  1.6776
 2642SOL    HW219560   3.525   1.539   7.447 -0.1016  0.0325  1.3975
 2643SOL     OW19561   3.801   3.064   5.676  0.6175 -0.3404  0.3786
 2643SOL    HW119562   3.771   3.144   5.720 -3.2082 -1.1840 -0.7012
 2643SOL    HW219563   3.865   3.102   5.616  0.0402  0.0496  0.0054
 2644SOL     OW19564   3.692   3.691   0.235 -0.4586  0.2334 -0.5397
 2644SOL    HW119565   3.713   3.618   0.294 -2.1067  1.2226  1.2812
 2644SOL    HW219566   3.598   3.697   0.253 -0.0021  0.9324  1.6998
 2645SOL     OW19567   1.178   2.790   7.839  0.0394 -0.3840  0.5948
 2645SOL    HW119568   1.096   2.830   7.811  0.3724  0.6298  1.0381
 2645SOL    HW219569   1.170   2.696   7.823  0.1490 -0.1370 -0.9398
 2646SOL     OW19570   2.517   0.541   3.773  0.1891  0.2785 -0.4442
 2646SOL    HW119571   2.480   0.453   3.771 -0.4927  0.5205  0.8776
 2646SOL    HW219572   2.496   0.567   3.863 -1.5141  0.9354 -1.0340
 2647SOL     OW19573   0.737   3.542   5.535 -0.1114 -0.2956 -0.6100
 2647SOL    HW119574   0.806   3.520   5.597 -1.0742  1.1832  0.9668
 2647SOL    HW219575   0.726   3.456   5.493  3.9030 -0.9235 -0.3589
 2648SOL     OW19576   4.236   0.485   9.131 -0.1643 -0.7171 -0.3202
 2648SOL    HW119577   4.163   0.541   9.159  0.2788 -1.0237  1.4023
 2648SOL    HW219578   4.288   0.558   9.098 -0.4574  0.4275  1.7460
 2649SOL     OW19579   3.704   1.108   9.428  0.5456 -0.5579  0.3506
 2649SOL    HW119580   3.653   1.180   9.463 -0.9120 -0.8395 -1.1953
 2649SOL    HW219581   3.683   1.041   9.493 -0.2524  0.8834  1.5744
 2650SOL     OW19582   1.387   0.970   2.700  0.2634  0.3580 -0.0918
 2650SOL    HW119583   1.312   0.978   2.759  0.1521  0.0917 -0.1974
 2650SOL    HW219584   1.454   1.021   2.746  1.0991 -0.6072 -0.2339
 2651SOL     OW19585   2.300   0.102   6.605  0.0552  0.2279  0.4922
 2651SOL    HW119586   2.350   0.048   6.543 -0.4144  1.6016 -1.1004
 2651SOL    HW219587   2.217   0.108   6.557  1.0096  2.1490 -0.9311
 2652SOL     OW19588   0.968   3.757   6.174  0.3582 -1.0820 -0.1572
 2652SOL    HW119589   1.060   3.783   6.163  0.6908 -2.1402  0.1798
 2652SOL    HW219590   0.963   3.739   6.268  0.9603 -0.1248  0.0654
 2653SOL     OW19591   1.190   0.998   0.361 -0.1073 -0.4735  0.1062
 2653SOL    HW119592   1.123   0.964   0.301  1.6894 -2.3918 -0.8246
 2653SOL    HW219593   1.227   1.066   0.304 -1.8271  0.1430 -0.3063
 2654SOL     OW19594   2.718   0.243  11.776 -0.3074 -0.1301  0.5976
 2654SOL    HW119595   2.641   0.301  11.775  0.1759  0.5182  0.7872
 2654SOL    HW219596   2.768   0.284  11.847  1.7562  1.6380 -1.8601
 2655SOL     OW19597   4.466   1.679   2.557  0.0490 -0.5783 -0.2292
 2655SOL    HW119598   4.392   1.731   2.527  1.4552  0.7232 -1.4597
 2655SOL    HW219599   4.513   1.692   2.475 -0.8210 -1.3912 -0.8432
 2656SOL     OW19600   3.990   1.149   8.536  0.1999 -0.4426 -0.1766
 2656SOL    HW119601   3.947   1.170   8.619  0.0729 -1.4892  0.0289
 2656SOL    HW219602   4.066   1.205   8.547  0.0725  0.0228 -1.6010
 2657SOL     OW19603   3.597   4.047  14.128 -0.3008 -0.1703 -0.0106
 2657SOL    HW119604   3.515   4.093  14.108 -0.0462  0.4559  0.3739
 2657SOL    HW219605   3.659   4.111  14.163 -0.3085 -1.1393  1.7599
 2658SOL     OW19606   3.869   3.756   4.719  0.0236 -0.3665 -0.1375
 2658SOL    HW119607   3.897   3.748   4.810 -0.1337 -1.2610 -0.1628
 2658SOL    HW219608   3.832   3.844   4.725  1.0042  0.1912 -2.4338
 2659SOL     OW19609   1.645   3.681   3.901  0.3396 -0.4571  0.5007
 2659SOL    HW119610   1.625   3.753   3.962  1.0193 -0.9107  1.2587
 2659SOL    HW219611   1.581   3.613   3.920 -1.1107  0.2458 -1.9568
 2660SOL     OW19612   1.934   1.142   9.133  0.4305  0.0469  0.2721
 2660SOL    HW119613   1.986   1.100   9.201  1.1085  1.3914  0.5946
 2660SOL    HW219614   2.003   1.159   9.069  0.8163  1.1851  0.9933
 2661SOL     OW19615   0.961   4.309   2.760  1.0075  0.3904 -0.1828
 2661SOL    HW119616   0.935   4.320   2.852 -3.3267  4.2167 -1.8848
 2661SOL    HW219617   1.022   4.377   2.734 -0.8321  1.2514 -2.1739
 2662SOL     OW19618   4.451   2.457   8.081  0.2769 -0.7627 -0.3600
 2662SOL    HW119619   4.426   2.534   8.132 -1.7940  0.3250 -3.0128
 2662SOL    HW219620   4.546   2.449   8.090  0.5876  1.0856 -2.0769
 2663SOL     OW19621   4.592   0.374   0.527  0.0886 -0.8350 -1.1633
 2663SOL    HW119622   4.604   0.287   0.488 -0.7603 -1.4419 -0.0675
 2663SOL    HW219623   4.539   0.419   0.460  0.2712 -0.1803 -0.8601
 2664SOL     OW19624   2.904   3.839   3.514 -0.0786 -0.2662 -0.3520
 2664SOL    HW119625   2.819   3.802   3.537 -0.7465  2.2524  1.2248
 2664SOL    HW219626   2.953   3.762   3.541 -0.5270  0.4613  2.5363
 2665SOL     OW19627   1.973   0.767   4.590  0.3236  0.3462 -0.9159
 2665SOL    HW119628   1.945   0.710   4.518  2.0739  0.7983 -1.9318
 2665SOL    HW219629   2.064   0.788   4.570  0.7419 -0.2773  0.3217
 2666SOL     OW19630   4.488   0.687   7.840  0.1096 -0.0389 -0.0083
 2666SOL    HW119631   4.421   0.722   7.899  0.4992 -1.0686  1.0340
 2666SOL    HW219632   4.573   0.720   7.869 -0.6847 -0.1060  2.3529
 2667SOL     OW19633   0.626   1.406   1.721  0.4318  0.4993  0.4837
 2667SOL    HW119634   0.582   1.334   1.677 -1.3367  1.5842  0.4938
 2667SOL    HW219635   0.581   1.482   1.683 -0.6793 -0.1323  0.5432
 2668SOL     OW19636   4.685   0.068   5.700 -0.1008  0.0187  0.0270
 2668SOL    HW119637   4.696   0.067   5.795 -1.4757  0.5045  0.1911
 2668SOL    HW219638   0.035   0.074   5.662 -1.4450 -0.4477 -3.1693
 2669SOL     OW19639   0.818   3.271   0.080  0.7745  0.2731 -0.1076
 2669SOL    HW119640   0.836   3.269   0.174  1.4275 -0.7975 -0.2549
 2669SOL    HW219641   0.907   3.280   0.045  1.0394  0.6376  0.6620
 2670SOL     OW19642   0.221   3.000   2.256  0.2234  0.3093  0.2357
 2670SOL    HW119643   0.316   2.987   2.262 -0.0728 -1.4363  1.3942
 2670SOL    HW219644   0.205   2.934   2.188  1.0232 -0.9481  1.2457
 2671SOL     OW19645   4.294   2.623   6.245  0.0663 -0.6931 -0.0512
 2671SOL    HW119646   4.216   2.581   6.283 -0.2502  0.9558  1.1035
 2671SOL    HW219647   4.267   2.715   6.240  0.3926 -0.6280 -0.5838
 2672SOL     OW19648   3.183   0.249   7.226 -0.5003  0.1579  0.5495
 2672SOL    HW119649   3.237   0.206   7.292  0.1264 -0.2981 -0.2723
 2672SOL    HW219650   3.168   0.182   7.159 -0.2142  0.1429  0.5028
 2673SOL     OW19651   4.012   1.316  16.868  0.0917 -0.4962 -0.7258
 2673SOL    HW119652   4.039   1.390  16.921 -2.7703  0.3768 -0.5136
 2673SOL    HW219653   3.980   1.249  16.929 -2.9661  1.9895  0.3684
 2674SOL     OW19654   3.942   2.480  13.985 -0.3138 -0.5306  0.0947
 2674SOL    HW119655   3.964   2.448  14.072 -0.4886 -1.7119 -0.3034
 2674SOL    HW219656   3.943   2.575  13.996  0.0237 -0.3562 -1.4141
 2675SOL     OW19657   2.720   3.760  14.244  0.2230 -0.9913  0.4606
 2675SOL    HW119658   2.666   3.805  14.179  0.7563 -1.2718 -0.1790
 2675SOL    HW219659   2.803   3.781  14.201 -0.0915 -0.5532  0.0738
 2676SOL     OW19660   1.346   1.344   3.230 -0.3534 -0.5453  0.1490
 2676SOL    HW119661   1.304   1.426   3.202  0.8154 -0.4672 -1.3416
 2676SOL    HW219662   1.274   1.282   3.239 -1.3027  0.7962  1.8119
 2677SOL     OW19663   1.054   4.044   5.060  0.1361 -0.0007 -0.8039
 2677SOL    HW119664   1.105   3.979   5.109 -0.6799  1.2113  1.6529
 2677SOL    HW219665   1.055   4.122   5.115  0.4166  2.1762 -3.9286
 2678SOL     OW19666   2.625   3.670   7.265  0.5225  0.0698 -0.1957
 2678SOL    HW119667   2.640   3.669   7.170  1.5798 -0.1365 -0.0293
 2678SOL    HW219668   2.625   3.576   7.285 -1.5447  0.0470 -0.2825
 2679SOL     OW19669   0.169   2.096   3.249 -0.1063  0.1435  0.6869
 2679SOL    HW119670   0.144   2.159   3.316 -1.5697 -0.2941  0.5419
 2679SOL    HW219671   0.222   2.154   3.193 -2.0720  1.4773  0.2076
 2680SOL     OW19672   4.395   0.812   5.952 -0.4392 -0.0000  0.5945
 2680SOL    HW119673   4.452   0.735   5.944  0.4570  0.6238  0.9848
 2680SOL    HW219674   4.332   0.776   5.890 -0.9169  0.0972  1.0238
 2681SOL     OW19675   1.960   2.856  12.256  0.5928  0.0719 -0.0220
 2681SOL    HW119676   1.911   2.851  12.175 -2.3475  1.6696  1.6413
 2681SOL    HW219677   1.921   2.924  12.310 -1.1603 -1.9318  1.2092
 2682SOL     OW19678   3.905   3.905   2.915  0.1221  0.0796 -0.3368
 2682SOL    HW119679   3.985   3.947   2.884  0.0103  1.1246  0.8155
 2682SOL    HW219680   3.940   3.818   2.939  0.0679  0.3564  0.7545
 2683SOL     OW19681   2.306   3.580   8.449 -0.0684 -0.2715 -0.3202
 2683SOL    HW119682   2.217   3.546   8.459 -0.3910  0.3651 -0.9901
 2683SOL    HW219683   2.300   3.639   8.524 -0.0629  0.3869 -0.8326
 2684SOL     OW19684   2.927   0.486  17.733 -0.1403 -0.6031 -0.0197
 2684SOL    HW119685   2.951   0.571   0.025 -1.1322 -0.9628  1.4484
 2684SOL    HW219686   2.845   0.506  17.687  0.2355 -0.1551 -0.4882
 2685SOL     OW19687   2.380   3.634   5.985  0.2156 -0.0643 -0.0067
 2685SOL    HW119688   2.292   3.625   5.948  1.8329 -3.2676 -3.0483
 2685SOL    HW219689   2.426   3.581   5.921 -0.9168 -1.4953  0.3590
 2686SOL     OW19690   1.714   1.734  11.240  0.7045  0.3017  0.3151
 2686SOL    HW119691   1.796   1.746  11.286  0.8280  1.7362 -0.2681
 2686SOL    HW219692   1.743   1.675  11.170 -2.7693  1.6170 -2.2319
 2687SOL     OW19693   1.811   1.251  11.834  0.2751 -0.0649  0.1515
 2687SOL    HW119694   1.795   1.292  11.749  1.4348 -1.2877 -0.6499
 2687SOL    HW219695   1.788   1.160  11.816 -0.4111 -0.0817  1.1020
 2688SOL     OW19696   0.838   1.426   7.071  0.8178 -0.2618 -0.0007
 2688SOL    HW119697   0.783   1.443   6.994  0.5739  0.7208  0.3944
 2688SOL    HW219698   0.912   1.483   7.052 -0.7041  2.1193  1.3312
 2689SOL     OW19699   0.642   0.340   9.893 -0.7283  0.6912 -0.3807
 2689SOL    HW119700   0.695   0.272   9.854 -0.9909 -0.1152  0.6623
 2689SOL    HW219701   0.557   0.296   9.900  1.1499 -2.5069  1.7089
 2690SOL     OW19702   1.317   1.766  12.076  0.4342  0.4377  0.0288
 2690SOL    HW119703   1.251   1.826  12.038  1.4480  0.7743 -1.2211
 2690SOL    HW219704   1.259   1.691  12.084 -0.1655  0.9058  0.1014
 2691SOL     OW19705   2.833   0.279   7.861 -0.4530  0.0270 -0.0140
 2691SOL    HW119706   2.883   0.199   7.879 -2.6536 -0.7260  2.7428
 2691SOL    HW219707   2.744   0.246   7.876 -0.4617  0.4272  0.7823
 2692SOL     OW19708   4.145   2.895   0.587 -0.6159  0.1760 -0.0645
 2692SOL    HW119709   4.064   2.904   0.637  1.2922  1.2198  2.8231
 2692SOL    HW219710   4.115   2.913   0.498 -3.4565  1.1090  1.0793
 2693SOL     OW19711   3.542   0.419   4.273 -0.2201 -0.3565  0.3065
 2693SOL    HW119712   3.476   0.488   4.276 -1.0926 -1.1975  0.5574
 2693SOL    HW219713   3.615   0.467   4.235  1.1096 -1.7798  1.0611
 2694SOL     OW19714   2.254   3.750  13.623  0.0128 -0.2047 -0.4563
 2694SOL    HW119715   2.302   3.744  13.705 -3.2416  0.3991  1.5246
 2694SOL    HW219716   2.323   3.759  13.558 -0.8173  2.7595 -0.9665
 2695SOL     OW19717   4.729   1.469   1.073 -0.4038 -0.2591  0.2145
 2695SOL    HW119718   0.056   1.398   1.073  1.1681  1.1470 -2.2375
 2695SOL    HW219719   4.698   1.471   1.163  1.4487  0.4659  0.8329
 2696SOL     OW19720   2.504   1.057   5.015  0.1700  0.2403 -0.4296
 2696SOL    HW119721   2.475   1.116   5.084  0.7096 -0.0488  0.0479
 2696SOL    HW219722   2.559   0.994   5.062  0.0341  2.4963  2.7421
 2697SOL     OW19723   0.404   3.469   8.823 -0.6768 -0.2300  0.1608
 2697SOL    HW119724   0.470   3.468   8.754 -0.1929 -0.5788  0.6332
 2697SOL    HW219725   0.324   3.494   8.777 -0.0083  0.2718 -0.7271
 2698SOL     OW19726   0.523   2.352   9.690 -0.0706  0.0883 -0.0835
 2698SOL    HW119727   0.510   2.398   9.607 -0.0293  1.3227  0.5928
 2698SOL    HW219728   0.502   2.262   9.665 -0.5358  0.4314 -0.9540
 2699SOL     OW19729   0.222   1.444   7.870  0.4209 -0.3053 -0.0568
 2699SOL    HW119730   0.168   1.368   7.846 -0.0534  0.3353 -1.0219
 2699SOL    HW219731   0.282   1.405   7.933  0.1532 -0.2199  0.2524
 2700SOL     OW19732   1.482   1.884   0.011  0.1136  0.5353  0.2428
 2700SOL    HW119733   1.443   1.801   0.039  2.3645 -0.0932  1.5591
 2700SOL    HW219734   1.447   1.898  17.669 -0.0171  1.4644  0.4466
 2701SOL     OW19735   0.555   1.057  10.826 -0.3915 -0.4747  0.4899
 2701SOL    HW119736   0.602   1.012  10.896 -1.7320 -2.6276  0.0106
 2701SOL    HW219737   0.547   1.147  10.859  1.2242 -0.1932  0.1346
 2702SOL     OW19738   4.221   0.611   4.652  0.7449  0.5300  0.4996
 2702SOL    HW119739   4.289   0.627   4.718  1.5403 -1.5822  0.2132
 2702SOL    HW219740   4.260   0.625   4.565  3.2462  2.0332  1.8549
 2703SOL     OW19741   2.873   1.208   8.040 -0.4858 -0.8044  0.0342
 2703SOL    HW119742   2.842   1.230   8.128  2.3286 -4.5532  1.9205
 2703SOL    HW219743   2.931   1.282   8.025 -0.3898 -0.4108  2.2846
 2704SOL     OW19744   4.687   4.136  13.858  0.6451 -0.1333  0.2800
 2704SOL    HW119745   0.030   4.106  13.901  1.3095  1.9255  0.5184
 2704SOL    HW219746   4.635   4.056  13.857 -1.7355  1.3998  1.1677
 2705SOL     OW19747   4.229   3.881   7.348 -0.0028 -0.0080  0.1173
 2705SOL    HW119748   4.286   3.869   7.272 -1.2681  1.9530 -1.1326
 2705SOL    HW219749   4.285   3.943   7.395  0.0963 -1.7576  2.3104
 2706SOL     OW19750   0.254   2.879   2.014  0.1769  0.2271  0.0519
 2706SOL    HW119751   0.239   2.820   1.940  4.9151 -2.1341  1.0019
 2706SOL    HW219752   0.269   2.963   1.972 -1.9134  0.3541 -0.4494
 2707SOL     OW19753   3.460   0.349  10.511  0.1609  0.2210 -0.1726
 2707SOL    HW119754   3.520   0.274  10.511  0.7205  0.6671 -1.4264
 2707SOL    HW219755   3.457   0.369  10.605 -2.0482 -1.7411  0.1807
 2708SOL     OW19756   0.053   4.689   7.927 -0.5136  0.0703 -0.1127
 2708SOL    HW119757   4.695   4.704   7.933 -0.2678  0.8493  1.7345
 2708SOL    HW219758   0.081   0.041   7.947 -0.9054 -0.0455  1.0026
 2709SOL     OW19759   3.268   1.100   8.529 -0.6927 -0.3125  0.5041
 2709SOL    HW119760   3.249   1.006   8.525 -1.4241 -0.2202  1.7470
 2709SOL    HW219761   3.326   1.100   8.453 -0.2244 -1.5424  0.8676
 2710SOL     OW19762   0.690   4.407   4.760 -0.3312  0.0884 -0.4020
 2710SOL    HW119763   0.766   4.427   4.705 -0.3410  0.4789 -0.2737
 2710SOL    HW219764   0.724   4.363   4.838 -0.0758 -2.2142 -1.8194
 2711SOL     OW19765   3.507   3.166  14.045 -0.0078  0.4577  0.1395
 2711SOL    HW119766   3.582   3.170  14.105  0.6771 -0.8606 -0.6186
 2711SOL    HW219767   3.552   3.191  13.965 -0.5629  0.2172 -0.2434
 2712SOL     OW19768   2.337   0.199   3.045  0.3954  0.4552  0.0257
 2712SOL    HW119769   2.275   0.126   3.051  1.1339 -0.2115 -0.4133
 2712SOL    HW219770   2.422   0.155   3.039  0.4165  0.7650 -2.0379
 2713SOL     OW19771   1.339   4.244   6.452  0.4954  0.1695  0.2652
 2713SOL    HW119772   1.367   4.290   6.373 -0.4883  1.6248  0.7555
 2713SOL    HW219773   1.344   4.318   6.513 -3.1096  0.2743  0.4225
 2714SOL     OW19774   4.539   0.113   7.264 -0.5205 -0.5827  0.4258
 2714SOL    HW119775   4.461   0.061   7.244  0.2511 -1.3835 -0.4709
 2714SOL    HW219776   4.492   0.187   7.301  3.1708  1.6558  0.6303
 2715SOL     OW19777   1.177   1.991   9.413 -0.3403 -0.0658 -0.5483
 2715SOL    HW119778   1.255   2.045   9.405 -0.0417 -0.3568  0.3368
 2715SOL    HW219779   1.211   1.922   9.470 -0.1059  0.7543  0.3069
 2716SOL     OW19780   0.816   2.416  10.638 -0.0575 -0.1372 -0.8274
 2716SOL    HW119781   0.850   2.480  10.575  2.0738 -0.6719 -0.2418
 2716SOL    HW219782   0.739   2.396  10.586 -2.2585  0.9845  1.9567
 2717SOL     OW19783   4.342   2.878  14.922 -0.3275 -0.0948 -0.0927
 2717SOL    HW119784   4.390   2.796  14.935  0.0954  0.1362 -0.1961
 2717SOL    HW219785   4.419   2.935  14.933  0.7337 -1.1629 -1.9433
 2718SOL     OW19786   3.042   1.553   3.054 -0.0806  0.4725 -0.4227
 2718SOL    HW119787   3.132   1.577   3.077 -0.2533  2.1009 -1.4507
 2718SOL    HW219788   3.057   1.491   2.983 -0.3295 -0.7451  0.5815
 2719SOL     OW19789   0.798   1.947   3.841 -0.1473 -0.6588  0.3617
 2719SOL    HW119790   0.878   1.991   3.870  0.6701 -0.4650 -2.1961
 2719SOL    HW219791   0.729   2.013   3.848  1.1751  0.6200  1.5499
 2720SOL     OW19792   0.044   4.060   0.595  0.3164 -1.0182  0.0789
 2720SOL    HW119793   0.075   3.974   0.624  0.3423 -0.4781  1.6292
 2720SOL    HW219794   4.686   4.055   0.605 -0.1427  1.1837 -3.0572
 2721SOL     OW19795   1.510   0.288   5.027  0.1190  0.3220  0.0515
 2721SOL    HW119796   1.559   0.291   4.945 -3.0364  0.5419 -1.8096
 2721SOL    HW219797   1.573   0.300   5.098 -1.6891  3.0056  1.2360
 2722SOL     OW19798   3.300   4.257   6.203 -0.1652 -0.2386 -0.1096
 2722SOL    HW119799   3.295   4.211   6.119 -1.9354 -0.6246  0.2001
 2722SOL    HW219800   3.335   4.345   6.185  1.2035 -1.0887 -1.6152
 2723SOL     OW19801   0.498   4.055   4.854  0.7923  0.1386  0.0265
 2723SOL    HW119802   0.425   3.996   4.870 -0.5705  1.8898  0.2344
 2723SOL    HW219803   0.453   4.138   4.872 -0.0441 -0.2216 -0.3947
 2724SOL     OW19804   0.611   2.775  17.519 -0.0090 -0.0104 -0.0894
 2724SOL    HW119805   0.615   2.682  17.497 -0.5193 -0.0623  0.0408
 2724SOL    HW219806   0.597   2.812  17.432 -0.5737 -1.2107 -0.5079
 2725SOL     OW19807   3.186   3.013   9.363  0.8678  0.2081  0.2697
 2725SOL    HW119808   3.230   2.942   9.317  0.9689 -0.0162  0.7134
 2725SOL    HW219809   3.136   3.059   9.295  1.7393 -0.0591 -0.5458
 2726SOL     OW19810   2.963   4.615   9.187  0.1184 -0.2574 -0.2141
 2726SOL    HW119811   2.974   4.550   9.256 -0.1976  1.0179  1.0359
 2726SOL    HW219812   3.026   4.682   9.213 -1.2164  1.3344 -1.1128
 2727SOL     OW19813   3.017   4.699   2.221 -0.0912  0.2416 -0.1804
 2727SOL    HW119814   2.979   4.629   2.168  1.8800 -1.4474  0.6368
 2727SOL    HW219815   2.936   0.011   2.238 -0.7034 -0.4359 -1.1232
 2728SOL     OW19816   0.965   1.282   8.626  0.0614 -0.0030  0.2532
 2728SOL    HW119817   1.018   1.270   8.548  0.5239  0.2140  0.5319
 2728SOL    HW219818   1.004   1.361   8.665 -1.9496  1.7387 -1.2891
 2729SOL     OW19819   1.131   3.053   4.642  0.5426 -0.9638 -0.4369
 2729SOL    HW119820   1.060   3.111   4.670  1.0712  0.0880 -1.2331
 2729SOL    HW219821   1.203   3.105   4.677 -0.2216 -0.5276  0.4734
 2730SOL     OW19822   2.547   4.376  13.264 -0.4949 -0.0805  0.4058
 2730SOL    HW119823   2.453   4.384  13.249 -0.5905 -0.2224  0.9440
 2730SOL    HW219824   2.588   4.414  13.186 -1.8123  0.0072 -0.2428
 2731SOL     OW19825   0.948   0.632   6.207  0.2932 -0.1169 -0.7870
 2731SOL    HW119826   0.881   0.605   6.269  0.4996 -1.0724 -0.9851
 2731SOL    HW219827   0.892   0.672   6.140 -1.1553 -1.2793 -0.2699
 2732SOL     OW19828   1.987   3.164   5.244 -0.1337 -0.0302 -0.1782
 2732SOL    HW119829   1.949   3.088   5.200 -0.5732  0.6973 -1.0640
 2732SOL    HW219830   1.925   3.228   5.210 -0.5260 -1.0452 -1.3643
 2733SOL     OW19831   1.554   2.021   6.178  0.0195 -0.0632 -0.7078
 2733SOL    HW119832   1.600   2.105   6.189  0.8505 -0.5573 -0.4231
 2733SOL    HW219833   1.622   1.973   6.225 -0.5179 -0.7466 -0.6348
 2734SOL     OW19834   4.172   1.402   8.890  0.2589  0.0136  0.2891
 2734SOL    HW119835   4.104   1.411   8.957 -1.1417  0.7146 -1.2370
 2734SOL    HW219836   4.154   1.487   8.849 -1.8793 -0.4690  0.2324
 2735SOL     OW19837   0.443   4.361   5.679 -0.5177 -0.1599  0.1781
 2735SOL    HW119838   0.348   4.353   5.678 -0.6042  0.7721  0.6714
 2735SOL    HW219839   0.456   4.409   5.597  1.8147  0.5745  0.9812
 2736SOL     OW19840   3.819   2.679   7.986  0.0053  0.0943 -0.4517
 2736SOL    HW119841   3.761   2.632   7.926  0.5264  0.6241 -1.3583
 2736SOL    HW219842   3.811   2.637   8.072  0.1918  1.9135  0.4493
 2737SOL     OW19843   1.187   3.280   3.805 -0.1134  0.0903  0.0622
 2737SOL    HW119844   1.213   3.192   3.834  0.0617  0.6101  1.5088
 2737SOL    HW219845   1.101   3.282   3.849 -1.0658 -0.3430 -1.8054
 2738SOL     OW19846   3.900   4.614   6.599  0.2494  0.1683 -0.4538
 2738SOL    HW119847   3.849   4.693   6.618 -0.9715 -0.7587  0.1318
 2738SOL    HW219848   3.897   4.604   6.503  3.0012 -0.6754 -0.4577
 2739SOL     OW19849   4.585   3.289   3.293  0.2864  0.7307 -0.0024
 2739SOL    HW119850   4.621   3.316   3.208  0.3480  0.8621  0.0649
 2739SOL    HW219851   4.524   3.218   3.277  1.7148 -0.9659  2.0716
 2740SOL     OW19852   2.932   2.040   5.390  0.2167 -0.2602 -0.2491
 2740SOL    HW119853   2.839   2.060   5.397 -0.0176 -2.0202  1.5990
 2740SOL    HW219854   2.956   2.110   5.330 -1.1357  0.7151  0.3445
 2741SOL     OW19855   0.700   4.538   5.189  0.5163  0.1424  0.0556
 2741SOL    HW119856   0.752   4.488   5.253  2.2170  0.5205 -1.0467
 2741SOL    HW219857   0.639   4.472   5.156  1.3208 -0.8233  0.4988
 2742SOL     OW19858   1.044   1.009   5.985  0.2836 -0.2016  0.2386
 2742SOL    HW119859   1.031   1.009   6.080 -2.8211  5.6878 -0.1713
 2742SOL    HW219860   1.012   1.098   5.970 -0.2038 -0.2892  0.7332
 2743SOL     OW19861   4.125   0.386   4.903 -0.2682 -0.1028 -0.0197
 2743SOL    HW119862   4.049   0.347   4.945 -0.1628  0.7147  0.9385
 2743SOL    HW219863   4.178   0.420   4.975  0.6517 -0.7377 -0.3958
 2744SOL     OW19864   0.161   1.651   8.239 -0.0408  0.0180 -0.2067
 2744SOL    HW119865   0.234   1.714   8.238  0.8133 -0.9744 -1.1630
 2744SOL    HW219866   0.204   1.566   8.226 -0.6896 -0.1898 -1.0185
 2745SOL     OW19867   3.650   0.760  11.761  0.1371 -0.0960  0.1668
 2745SOL    HW119868   3.598   0.834  11.727  1.0245  0.0684 -0.8170
 2745SOL    HW219869   3.731   0.772  11.712 -0.7861  0.9645 -1.1319
 2746SOL     OW19870   2.777   1.139  13.139 -0.1537 -0.7110 -0.0722
 2746SOL    HW119871   2.688   1.162  13.112 -0.9203 -2.2253  1.1882
 2746SOL    HW219872   2.811   1.224  13.168 -1.1289  0.1553 -1.4496
 2747SOL     OW19873   1.878   0.663   6.214  0.0809  0.3535 -0.2467
 2747SOL    HW119874   1.908   0.747   6.248 -0.1419 -0.6408  2.4044
 2747SOL    HW219875   1.793   0.687   6.179 -0.3093  1.1531  1.2359
 2748SOL     OW19876   1.747   2.287   1.175  0.0570  0.4883 -0.2284
 2748SOL    HW119877   1.671   2.300   1.118 -0.3168  0.2934  0.2263
 2748SOL    HW219878   1.769   2.375   1.206  0.3291  0.6199 -0.8048
 2749SOL     OW19879   4.089   1.211   1.643 -0.1360 -0.2742  0.1926
 2749SOL    HW119880   4.149   1.175   1.579 -0.5343 -1.1150  0.2859
 2749SOL    HW219881   4.010   1.226   1.592 -0.9649 -1.7765  1.0222
 2750SOL     OW19882   4.045   2.434   1.647 -0.3643  0.8110  0.4581
 2750SOL    HW119883   4.036   2.456   1.740 -1.9273  1.1659  0.2199
 2750SOL    HW219884   4.123   2.378   1.649 -0.5271  0.5605 -0.4066
 2751SOL     OW19885   3.837   0.907   3.690 -0.3137  0.0008 -0.3729
 2751SOL    HW119886   3.851   0.812   3.691 -2.3345 -0.2773  1.4427
 2751SOL    HW219887   3.822   0.917   3.784 -2.6996 -1.8387 -0.5625
 2752SOL     OW19888   2.299   2.884   7.678  0.0115 -0.5101  0.0359
 2752SOL    HW119889   2.332   2.858   7.764 -1.9718 -0.7629  0.7421
 2752SOL    HW219890   2.217   2.928   7.705  1.0277  2.1634 -1.2459
 2753SOL     OW19891   3.844   4.154   1.958  0.5444  0.2628 -0.0214
 2753SOL    HW119892   3.786   4.141   2.034  1.4583 -0.2804  0.5820
 2753SOL    HW219893   3.797   4.202   1.890 -0.4151  1.5600  1.5523
 2754SOL     OW19894   2.601   1.315   5.655  0.4307  0.3558 -0.1171
 2754SOL    HW119895   2.668   1.369   5.614 -0.0806  1.5535  0.6389
 2754SOL    HW219896   2.598   1.349   5.745 -1.4789  1.2013 -0.5057
 2755SOL     OW19897   2.455   3.263   2.875 -0.1723 -0.8337 -0.8881
 2755SOL    HW119898   2.425   3.296   2.790  0.6361 -0.9391 -1.2160
 2755SOL    HW219899   2.404   3.314   2.937  0.0012  0.0126 -1.4436
 2756SOL     OW19900   4.647   1.978   0.712 -0.2913 -0.6166 -0.8570
 2756SOL    HW119901   4.588   2.035   0.662 -1.2642 -1.9388 -1.2460
 2756SOL    HW219902   4.685   1.926   0.641 -1.1202 -0.5337 -1.3759
 2757SOL     OW19903   3.254   3.475   5.647  0.0354 -0.6766 -0.5741
 2757SOL    HW119904   3.303   3.393   5.650  1.4900  0.2906  2.0374
 2757SOL    HW219905   3.288   3.507   5.563 -1.7802  0.3094 -0.9375
 2758SOL     OW19906   1.192   3.522  17.406  0.2119  0.1064 -0.4854
 2758SOL    HW119907   1.118   3.554  17.356  0.9480  1.7348 -0.5342
 2758SOL    HW219908   1.149   3.447  17.446 -0.1608  1.0728  0.9506
 2759SOL     OW19909   3.796   1.600   7.134  0.5992 -0.7647  0.2093
 2759SOL    HW119910   3.712   1.553   7.141  0.3219 -0.3059 -0.0467
 2759SOL    HW219911   3.864   1.532   7.136  0.0878 -1.3690 -2.3443
 2760SOL     OW19912   2.931   2.501  16.452 -0.5620 -0.4202 -0.4353
 2760SOL    HW119913   2.910   2.422  16.404  0.6956  0.4193 -2.3777
 2760SOL    HW219914   2.895   2.566  16.392  1.4842  0.2534 -0.9384
 2761SOL     OW19915   0.391   3.092   0.358  0.2631 -0.0774  0.3871
 2761SOL    HW119916   0.441   3.013   0.336 -2.8117 -1.7028 -0.7939
 2761SOL    HW219917   0.326   3.088   0.288  0.1501  4.5651  0.2421
 2762SOL     OW19918   0.728   1.723   6.845 -0.3689 -0.0466  0.4853
 2762SOL    HW119919   0.664   1.780   6.802  2.2405  0.4447 -2.8047
 2762SOL    HW219920   0.797   1.730   6.779  1.3887 -2.2019  2.0790
 2763SOL     OW19921   0.080   2.427   8.789  0.0240  0.2996 -0.3848
 2763SOL    HW119922   0.079   2.340   8.829 -1.7541  0.1573 -0.7616
 2763SOL    HW219923   0.158   2.460   8.834  1.8883 -0.5666 -2.9097
 2764SOL     OW19924   4.586   2.397  11.177 -0.1978  0.1354 -0.3661
 2764SOL    HW119925   4.678   2.383  11.202 -0.5629  0.2280  1.0600
 2764SOL    HW219926   4.547   2.391  11.264  0.8188 -0.9791  0.0178
 2765SOL     OW19927   1.144   1.300   1.958  0.0475 -0.0030 -0.1449
 2765SOL    HW119928   1.201   1.226   1.977  2.1209  1.8819  0.9733
 2765SOL    HW219929   1.055   1.277   1.985 -0.4124  3.0035  0.9046
 2766SOL     OW19930   2.450   0.422  15.137  0.4345  0.0529  0.8093
 2766SOL    HW119931   2.527   0.389  15.090  0.3583  0.2732  0.5363
 2766SOL    HW219932   2.453   0.355  15.205  0.2278  0.9454  1.6956
 2767SOL     OW19933   0.157   3.613   7.458 -0.7878 -0.2167 -0.1228
 2767SOL    HW119934   0.230   3.674   7.449 -0.6057 -0.4582 -0.2790
 2767SOL    HW219935   0.187   3.532   7.415  0.6554  0.5035 -0.4633
 2768SOL     OW19936   1.398   2.908   9.602  0.5701  0.1485  0.5868
 2768SOL    HW119937   1.363   2.841   9.544  0.5898  0.8163 -0.1971
 2768SOL    HW219938   1.400   2.991   9.554 -0.4168 -0.5133 -0.6010
 2769SOL     OW19939   0.343   1.953  15.437 -0.7015 -0.4690 -0.2414
 2769SOL    HW119940   0.312   1.970  15.525 -2.8824 -1.1956 -0.8597
 2769SOL    HW219941   0.343   2.037  15.391 -1.3345 -0.1172  0.4138
 2770SOL     OW19942   3.378   4.314   7.573  0.0173 -0.0285  0.4378
 2770SOL    HW119943   3.406   4.388   7.627 -0.4835 -0.0297  0.7041
 2770SOL    HW219944   3.462   4.273   7.555  0.1942 -0.1413  1.5200
 2771SOL     OW19945   2.792   2.831   6.548  0.2349 -0.5227 -0.5746
 2771SOL    HW119946   2.813   2.739   6.534 -0.8125 -1.0470  1.2478
 2771SOL    HW219947   2.756   2.862   6.465  1.1128 -0.0631 -0.7768
 2772SOL     OW19948   4.145   4.655  13.174 -0.1075  0.2138  0.1843
 2772SOL    HW119949   4.128   4.736  13.127 -0.7045 -0.8592 -1.4278
 2772SOL    HW219950   4.063   4.615  13.148  1.3081 -1.4844 -1.6008
 2773SOL     OW19951   2.698   2.113   8.553 -0.4520 -0.5657 -0.1591
 2773SOL    HW119952   2.728   2.062   8.628  1.9464 -1.3978 -1.6976
 2773SOL    HW219953   2.727   2.056   8.482 -0.3046  0.8308 -1.2081
 2774SOL     OW19954   1.948   3.261   8.758 -0.0198 -0.2407 -0.2567
 2774SOL    HW119955   2.028   3.230   8.801 -1.6269 -1.0746  2.1081
 2774SOL    HW219956   1.984   3.273   8.670  4.3897  0.6623  1.6465
 2775SOL     OW19957   1.545   4.329   2.938 -0.2230 -0.2110  0.4070
 2775SOL    HW119958   1.502   4.407   2.902  3.8441  2.0590  0.4667
 2775SOL    HW219959   1.528   4.347   3.030 -0.2483 -0.7889  0.5194
 2776SOL     OW19960   3.691   4.303   8.168  0.3262 -0.0354 -0.1422
 2776SOL    HW119961   3.692   4.254   8.250  0.9184  0.0740 -0.0862
 2776SOL    HW219962   3.672   4.388   8.209  1.6079  0.2781 -0.1935
 2777SOL     OW19963   4.485   3.865   8.102  0.0502 -0.3098 -0.2838
 2777SOL    HW119964   4.507   3.772   8.107  2.5016  0.2767 -0.1724
 2777SOL    HW219965   4.551   3.898   8.042  1.4017  0.9361  1.9071
 2778SOL     OW19966   0.477   3.154   3.879  0.0534  0.2541 -0.0862
 2778SOL    HW119967   0.407   3.218   3.864  0.3060  2.0151  6.3272
 2778SOL    HW219968   0.419   3.080   3.862  1.6572 -0.3119 -3.1325
 2779SOL     OW19969   0.739   2.295   6.577  0.2941 -0.6125  0.2207
 2779SOL    HW119970   0.714   2.387   6.566  2.7894 -0.0172 -0.3164
 2779SOL    HW219971   0.834   2.298   6.589  0.0857 -1.0389  1.9417
 2780SOL     OW19972   3.602   0.252   3.388  0.0373 -0.8249  0.0424
 2780SOL    HW119973   3.645   0.280   3.307  0.5027  0.5557  0.7629
 2780SOL    HW219974   3.591   0.160   3.366  0.9845 -1.0373  0.4963
 2781SOL     OW19975   3.718   1.950   5.348 -0.0255 -0.0229 -0.2685
 2781SOL    HW119976   3.645   2.012   5.341  0.4232  0.4642 -0.6899
 2781SOL    HW219977   3.700   1.894   5.272  2.1535 -1.4162  0.2525
 2782SOL     OW19978   0.885   2.621  13.625  0.1767 -0.5443  0.0120
 2782SOL    HW119979   0.938   2.552  13.584 -0.9678 -1.2159 -0.3211
 2782SOL    HW219980   0.814   2.624  13.561 -0.1211  1.5134  0.4533
 2783SOL     OW19981   3.429   4.119   2.574 -0.0278  0.4163  0.1083
 2783SOL    HW119982   3.399   4.210   2.569 -1.1777  0.0808  0.8009
 2783SOL    HW219983   3.411   4.085   2.662  1.5367  0.6038  0.4918
 2784SOL     OW19984   2.612   2.422  12.501 -0.1064 -0.4583  0.3450
 2784SOL    HW119985   2.530   2.452  12.462  0.7634  1.7309  0.2109
 2784SOL    HW219986   2.621   2.489  12.569  0.0887  0.6285 -0.7559
 2785SOL     OW19987   1.789   1.655   7.323 -0.3343 -0.0971  0.5578
 2785SOL    HW119988   1.704   1.687   7.292 -1.3438 -2.7800  0.5344
 2785SOL    HW219989   1.769   1.607   7.403 -0.2840 -1.3915 -0.2053
 2786SOL     OW19990   2.940   3.356   2.953 -0.1294 -0.1545  1.0030
 2786SOL    HW119991   2.864   3.340   2.898  0.6763  1.2619 -0.5137
 2786SOL    HW219992   2.902   3.401   3.029  0.7154  2.0204  0.1341
 2787SOL     OW19993   1.265   3.321   4.121  0.3300 -0.7515 -0.3571
 2787SOL    HW119994   1.208   3.329   4.045 -0.1123  1.2345  0.1832
 2787SOL    HW219995   1.201   3.322   4.191  0.3968 -0.7672 -0.2955
 2788SOL     OW19996   2.620   2.455   3.012  0.5105  0.2578  0.7044
 2788SOL    HW119997   2.563   2.384   3.039  0.0565  0.8445  1.2888
 2788SOL    HW219998   2.585   2.533   3.056 -0.7914  0.1887 -0.2046
 2789SOL     OW19999   1.543   0.772  14.168  0.4756 -0.0251 -0.0266
 2789SOL    HW120000   1.632   0.800  14.149 -0.1745  1.3097 -1.1946
 2789SOL    HW220001   1.487   0.845  14.139  0.3391 -0.9147 -1.9696
 2790SOL     OW20002   3.060   2.445  16.141  0.4837 -0.4971  0.3443
 2790SOL    HW120003   2.999   2.376  16.167  1.1359 -1.0737  0.3443
 2790SOL    HW220004   3.010   2.510  16.091 -0.9874 -0.2792  2.1272
 2791SOL     OW20005   0.541   4.483   2.570  0.0805  0.1623 -0.0053
 2791SOL    HW120006   0.499   4.460   2.487  0.4602 -0.2369 -0.0894
 2791SOL    HW220007   0.589   4.402   2.587  0.6439  0.4975 -0.0093
 2792SOL     OW20008   2.910   1.228   8.809  0.2139 -0.2145 -0.0205
 2792SOL    HW120009   2.817   1.249   8.813  0.0931 -1.0465  1.4206
 2792SOL    HW220010   2.953   1.311   8.829  2.2534 -1.1839 -0.3825
 2793SOL     OW20011   1.729   2.563   8.967  0.0959 -0.1870  0.2329
 2793SOL    HW120012   1.655   2.512   8.934  0.5424 -1.7306  1.6058
 2793SOL    HW220013   1.768   2.588   8.883  3.0271 -0.9260  1.3746
 2794SOL     OW20014   0.309   2.667   6.215 -0.1583 -0.5967 -0.1984
 2794SOL    HW120015   0.231   2.704   6.256  1.1452  0.5439  1.2605
 2794SOL    HW220016   0.299   2.700   6.125 -2.0505 -1.9927 -0.4913
 2795SOL     OW20017   3.029   0.233   4.560 -0.0552 -0.0854 -0.2043
 2795SOL    HW120018   3.098   0.244   4.626 -0.3377  0.6160 -0.0180
 2795SOL    HW220019   2.958   0.277   4.607 -0.9258 -2.4769  0.6951
 2796SOL     OW20020   0.970   3.814  17.086  0.4545  0.5840  0.5386
 2796SOL    HW120021   0.960   3.905  17.059 -0.5798  0.0238 -0.9405
 2796SOL    HW220022   1.060   3.792  17.065  0.5169 -0.0471  1.4585
 2797SOL     OW20023   3.773   2.891   3.879 -0.4923 -0.9589  0.4144
 2797SOL    HW120024   3.755   2.850   3.794  1.9665  0.1833 -0.6589
 2797SOL    HW220025   3.809   2.976   3.855 -3.8940  0.2250 -0.4913
 2798SOL     OW20026   1.241   4.016   4.524  0.2843  0.4579 -0.4378
 2798SOL    HW120027   1.156   4.003   4.565  0.4809  2.0223  0.4722
 2798SOL    HW220028   1.260   3.945   4.462  0.9228  0.7615 -0.5951
 2799SOL     OW20029   2.016   3.277  15.974  0.0451  0.3055  0.1456
 2799SOL    HW120030   2.034   3.330  15.896 -1.2116  1.4536  0.6540
 2799SOL    HW220031   2.044   3.350  16.029 -2.6426 -0.2951  2.2766
 2800SOL     OW20032   3.121   3.645   6.065  0.5379  0.0676 -0.9148
 2800SOL    HW120033   3.136   3.558   6.026  0.9951 -0.0619 -0.4532
 2800SOL    HW220034   3.186   3.650   6.135  0.1548 -0.7266 -0.5012
 2801SOL     OW20035   1.933   2.980  15.275  0.4445 -0.2314 -0.5323
 2801SOL    HW120036   1.867   3.047  15.259 -0.0942 -0.6072  0.1226
 2801SOL    HW220037   1.993   3.043  15.316  0.9117 -1.8325  1.2593
 2802SOL     OW20038   3.121   0.364   5.627  0.3583  0.2894  0.4981
 2802SOL    HW120039   3.134   0.290   5.568 -4.8254  0.0732 -0.3786
 2802SOL    HW220040   3.026   0.371   5.624  0.3022  0.1077  1.6420
 2803SOL     OW20041   4.217   2.597   8.564 -0.0627  0.3499 -0.0370
 2803SOL    HW120042   4.190   2.530   8.502 -0.1046  1.3547 -1.0986
 2803SOL    HW220043   4.164   2.583   8.643 -1.6198  0.2172 -1.1222
 2804SOL     OW20044   3.896   1.049   2.103  0.1273  0.4269  0.0637
 2804SOL    HW120045   3.886   0.983   2.034 -1.9040  1.2479 -0.4017
 2804SOL    HW220046   3.845   0.994   2.163 -0.2220  0.4996 -0.1708
 2805SOL     OW20047   2.156   3.259   0.163 -0.2393 -0.3410 -0.2969
 2805SOL    HW120048   2.211   3.181   0.170 -0.5988 -0.5507  0.2477
 2805SOL    HW220049   2.186   3.288   0.077 -0.9207 -1.9512 -1.0859
 2806SOL     OW20050   2.881   4.002  12.528 -0.1253  0.3702  0.3071
 2806SOL    HW120051   2.813   3.946  12.567 -0.8330  1.3855  0.5533
 2806SOL    HW220052   2.835   4.086  12.533 -1.0129  0.0223 -2.2773
 2807SOL     OW20053   4.151   2.364   4.707  0.1507 -0.5528  0.2653
 2807SOL    HW120054   4.223   2.318   4.749  1.6390  0.7886 -0.8373
 2807SOL    HW220055   4.119   2.302   4.642  0.1602 -0.3377  0.0587
 2808SOL     OW20056   1.510   1.052  16.037  0.2918 -0.0648 -0.2564
 2808SOL    HW120057   1.442   1.013  15.982  1.4611  1.0960 -2.4827
 2808SOL    HW220058   1.585   1.054  15.979  1.7825 -2.2376  1.6129
 2809SOL     OW20059   4.614   4.500   6.365  0.5262  0.0990 -0.3150
 2809SOL    HW120060   4.541   4.488   6.304 -0.7045 -2.5226  1.6565
 2809SOL    HW220061   4.686   4.517   6.304  1.3084  1.8224  1.0777
 2810SOL     OW20062   1.266   3.845   5.551  0.5182  0.1519  0.1193
 2810SOL    HW120063   1.304   3.857   5.464  0.3606 -2.6784 -0.3210
 2810SOL    HW220064   1.348   3.860   5.600  0.5948 -1.0744  0.3601
 2811SOL     OW20065   1.345   0.927   4.427  0.3388  0.2091  0.4367
 2811SOL    HW120066   1.415   0.889   4.480  1.4649  0.8220 -0.5983
 2811SOL    HW220067   1.342   0.874   4.347  1.0774 -1.7545  1.6972
 2812SOL     OW20068   1.998   1.595   4.108  0.2506  0.1600  0.0204
 2812SOL    HW120069   1.947   1.517   4.086  1.7584 -0.5924 -0.8398
 2812SOL    HW220070   2.081   1.587   4.060  1.2067 -2.0330  2.0185
 2813SOL     OW20071   4.622   1.902  14.900  0.3805 -0.2042  0.1070
 2813SOL    HW120072   4.527   1.904  14.908  0.4476  1.9420  0.2784
 2813SOL    HW220073   4.646   1.902  14.993 -1.2890  3.1183  0.5184
 2814SOL     OW20074   0.908   0.081   2.071 -0.4781 -0.0820 -0.4411
 2814SOL    HW120075   0.940   0.089   1.981 -0.8654 -0.1342 -0.5816
 2814SOL    HW220076   0.926   0.168   2.106 -1.8320  0.1315 -0.2753
 2815SOL     OW20077   1.588   1.028  11.396 -0.2826 -0.5610  0.4762
 2815SOL    HW120078   1.667   0.976  11.413  1.2451  1.7052  0.3817
 2815SOL    HW220079   1.536   0.963  11.349  0.1412 -0.5232 -0.0412
 2816SOL     OW20080   0.804   2.366   3.874 -0.2595 -0.3268 -0.1701
 2816SOL    HW120081   0.769   2.401   3.792 -1.3033  0.5493  0.6366
 2816SOL    HW220082   0.737   2.400   3.934 -1.4453  1.0146 -2.2433
 2817SOL     OW20083   0.326   2.708   1.116 -0.1227  0.5714 -0.0880
 2817SOL    HW120084   0.333   2.695   1.021 -1.1302 -0.2942 -0.0489
 2817SOL    HW220085   0.352   2.799   1.126  0.1845  0.6067 -1.1973
 2818SOL     OW20086   0.045   0.448   8.026 -0.3075  0.2548  1.0776
 2818SOL    HW120087   0.131   0.421   8.057  0.4705 -0.1066 -1.3846
 2818SOL    HW220088   4.731   0.437   8.106 -2.3974  1.1018 -0.1277
 2819SOL     OW20089   2.946   1.934   0.005 -0.2572  0.0222 -0.0531
 2819SOL    HW120090   2.921   1.930  17.659 -0.2743 -1.7566  0.0242
 2819SOL    HW220091   2.887   1.873   0.050  0.5195 -0.3268  0.4927
 2820SOL     OW20092   4.687   3.912   7.931  0.6120 -0.0330 -0.0476
 2820SOL    HW120093   0.019   3.934   7.993  2.3155 -0.2133 -1.8731
 2820SOL    HW220094   4.726   3.905   7.844 -0.3313  1.1880 -0.5658
 2821SOL     OW20095   0.415   0.637   7.879  0.2084 -0.4101 -0.1522
 2821SOL    HW120096   0.337   0.631   7.935 -1.0148  1.3899 -1.6620
 2821SOL    HW220097   0.487   0.606   7.933  0.1456 -1.1484 -0.4990
 2822SOL     OW20098   0.699   0.987   6.470 -0.2498 -0.0201 -0.5768
 2822SOL    HW120099   0.657   1.043   6.535 -0.6449 -0.8944 -0.0722
 2822SOL    HW220100   0.627   0.975   6.408 -0.7118  0.1614 -0.0708
 2823SOL     OW20101   3.494   2.353   9.709  0.4850  0.1114  0.4657
 2823SOL    HW120102   3.475   2.322   9.797 -1.0621  3.2193  1.2473
 2823SOL    HW220103   3.584   2.377   9.734  1.1810 -0.4773 -1.5061
 2824SOL     OW20104   0.953   4.036   7.560  0.2100  0.2800 -0.1396
 2824SOL    HW120105   0.896   3.960   7.573 -0.6800  1.4419  2.4963
 2824SOL    HW220106   0.977   4.020   7.468 -2.3325  2.1517 -1.1210
 2825SOL     OW20107   4.402   2.854   2.519  0.2284 -0.3488  1.0626
 2825SOL    HW120108   4.395   2.759   2.513 -1.3101 -0.3594  2.8889
 2825SOL    HW220109   4.407   2.878   2.427 -3.4158  0.3007  1.0343
 2826SOL     OW20110   2.081   4.461   9.065  0.1359  0.0413  0.0882
 2826SOL    HW120111   2.061   4.481   9.157  1.0351 -0.0094  0.2980
 2826SOL    HW220112   2.170   4.427   9.069 -0.0657 -0.6042 -0.9157
 2827SOL     OW20113   3.965   2.209  12.014  0.2043  0.3383  0.6313
 2827SOL    HW120114   4.018   2.286  11.996 -0.3996  0.6425  0.1668
 2827SOL    HW220115   4.033   2.154  12.054  0.5312 -0.5403 -1.1664
 2828SOL     OW20116   3.333   3.844  15.077 -0.4146 -0.0852 -0.3278
 2828SOL    HW120117   3.339   3.748  15.081 -0.9696 -0.2561 -3.2012
 2828SOL    HW220118   3.406   3.846  15.015  0.4453  0.3105  0.7153
 2829SOL     OW20119   2.879   1.845   4.520 -0.4095  0.3552 -0.7955
 2829SOL    HW120120   2.958   1.820   4.568 -0.6840  0.5632 -0.2323
 2829SOL    HW220121   2.887   1.791   4.441 -4.6973  0.3728 -1.2466
 2830SOL     OW20122   1.217   2.936   6.262  0.2736 -0.1306  0.1195
 2830SOL    HW120123   1.168   2.999   6.209  1.1255  1.2944  1.0268
 2830SOL    HW220124   1.183   2.856   6.221  0.9392  0.4636 -1.5919
 2831SOL     OW20125   3.824   0.557  16.702 -0.2307 -0.2010  0.1454
 2831SOL    HW120126   3.757   0.608  16.747  0.2879 -0.1318  0.8360
 2831SOL    HW220127   3.800   0.464  16.702  1.4331 -0.6330  0.5227
 2832SOL     OW20128   0.080   3.956  11.621 -0.2529  0.3072 -0.9152
 2832SOL    HW120129   0.044   3.894  11.685  1.5562  2.4315  2.1514
 2832SOL    HW220130   0.044   3.897  11.554  0.7054  0.5983 -1.6806
 2833SOL     OW20131   2.708   0.476  15.036  0.1817  0.0811 -0.6780
 2833SOL    HW120132   2.656   0.538  14.985  2.2199  2.0277 -0.3939
 2833SOL    HW220133   2.793   0.483  14.991  0.1175 -0.0527 -0.8155
 2834SOL     OW20134   2.574   1.430  10.939  0.6071  0.0411  0.4058
 2834SOL    HW120135   2.612   1.392  11.019  1.3786 -1.1050 -0.5026
 2834SOL    HW220136   2.606   1.369  10.873 -0.9648 -1.0854  0.6844
 2835SOL     OW20137   3.748   0.934   0.812 -0.3563  0.9208 -0.1763
 2835SOL    HW120138   3.685   1.004   0.830  0.4990  1.1199  2.0880
 2835SOL    HW220139   3.781   0.905   0.897 -1.5747  1.1529  0.3727
 2836SOL     OW20140   1.278   2.154   4.522 -0.4103  0.1948  0.1890
 2836SOL    HW120141   1.232   2.226   4.563  1.0679  1.8359 -1.0314
 2836SOL    HW220142   1.352   2.199   4.481 -1.3442  2.1298  0.6775
 2837SOL     OW20143   4.075   0.030  11.353  0.2069 -0.0731  0.1278
 2837SOL    HW120144   4.112   0.106  11.398  2.4923 -0.1879 -1.5189
 2837SOL    HW220145   4.091   0.057  11.262  0.6901  0.0753  0.2555
 2838SOL     OW20146   3.600   1.404  12.434 -0.0851  0.0427 -0.1034
 2838SOL    HW120147   3.597   1.488  12.479 -0.8113 -1.4430  2.6260
 2838SOL    HW220148   3.676   1.419  12.377 -0.7648  1.3238 -0.6565
 2839SOL     OW20149   2.179   3.364  13.120 -0.1594 -0.5759 -0.2926
 2839SOL    HW120150   2.270   3.360  13.150  0.0810  1.8291 -0.7400
 2839SOL    HW220151   2.166   3.269  13.125 -0.5814 -0.4388  1.2563
 2840SOL     OW20152   2.584   2.876   8.147  0.3594  0.0198 -0.7296
 2840SOL    HW120153   2.621   2.943   8.089  3.7053  0.3871  1.7780
 2840SOL    HW220154   2.586   2.922   8.231 -0.8634 -1.2021 -0.0427
 2841SOL     OW20155   1.687   1.276   8.985 -0.2768  0.2204 -0.4250
 2841SOL    HW120156   1.759   1.277   9.048  0.9392 -1.1592 -1.8106
 2841SOL    HW220157   1.733   1.246   8.907 -1.2256  1.9533 -1.6706
 2842SOL     OW20158   0.660   0.870   6.825 -0.0411  0.8156 -0.4472
 2842SOL    HW120159   0.636   0.905   6.740 -0.9792  0.3582 -0.3745
 2842SOL    HW220160   0.572   0.891   6.857  0.3255  0.8142  0.5656
 2843SOL     OW20161   0.482   1.687   8.506 -0.4124 -0.6698 -0.7603
 2843SOL    HW120162   0.513   1.777   8.519 -1.8275 -0.3246  0.2703
 2843SOL    HW220163   0.492   1.676   8.412  0.4556  0.8141 -0.8599
 2844SOL     OW20164   3.514   1.909   0.551 -0.7193 -0.0459 -0.0135
 2844SOL    HW120165   3.445   1.950   0.603  1.5351  0.0712  2.9150
 2844SOL    HW220166   3.499   1.819   0.580 -1.5266 -0.2586 -1.0833
 2845SOL     OW20167   0.869   2.208   5.916 -0.2111  0.0359  0.6560
 2845SOL    HW120168   0.791   2.158   5.939 -0.3961  0.1497  0.2766
 2845SOL    HW220169   0.868   2.209   5.821 -0.0708 -2.4191  0.6356
 2846SOL     OW20170   3.317   3.870   4.428 -0.0221 -0.0212  0.7244
 2846SOL    HW120171   3.338   3.812   4.355 -0.5746  0.2163  0.3758
 2846SOL    HW220172   3.303   3.811   4.501  2.3076 -0.1196  1.0799
 2847SOL     OW20173   0.955   0.831   8.778 -0.4736 -0.6017 -0.7513
 2847SOL    HW120174   0.933   0.767   8.845  0.6943  0.7906  0.9681
 2847SOL    HW220175   1.037   0.798   8.743  0.0099  1.2382 -1.3617
 2848SOL     OW20176   2.393   0.063   2.035  0.0164  0.3444  0.1583
 2848SOL    HW120177   2.360   0.002   1.970  2.6443 -1.7285  0.7578
 2848SOL    HW220178   2.315   0.110   2.063  0.4250  1.0650  0.0924
 2849SOL     OW20179   0.886   1.167   2.104 -0.1772 -0.5221  0.1876
 2849SOL    HW120180   0.818   1.111   2.142  0.0402 -0.2777  0.9434
 2849SOL    HW220181   0.869   1.249   2.151 -0.4628 -0.0377 -0.7625
 2850SOL     OW20182   3.079   0.469   3.614  0.0606  0.3527  0.1470
 2850SOL    HW120183   3.141   0.522   3.564  1.2040 -0.2526  0.9116
 2850SOL    HW220184   3.003   0.527   3.616 -0.2417 -0.0282 -0.4996
 2851SOL     OW20185   0.558   2.268  12.906  0.2087 -0.0726  0.0452
 2851SOL    HW120186   0.526   2.292  12.819 -1.6638 -0.7736  0.5479
 2851SOL    HW220187   0.507   2.189  12.922 -0.4012 -0.0015 -1.5838
 2852SOL     OW20188   1.399   0.020   5.583 -0.1756  0.5307  0.1123
 2852SOL    HW120189   1.314   0.026   5.628  0.6896  1.7179  1.5970
 2852SOL    HW220190   1.445   4.687   5.630  1.0178 -0.4047 -2.4670
 2853SOL     OW20191   3.644   4.086   6.899  0.2878 -0.3234  0.0519
 2853SOL    HW120192   3.631   4.163   6.845  3.2665  0.9900  1.1981
 2853SOL    HW220193   3.670   4.130   6.980  1.1412 -1.1772  0.2493
 2854SOL     OW20194   1.831   0.647   3.321  0.3186  0.3415  0.4868
 2854SOL    HW120195   1.803   0.618   3.233 -1.7648  0.3889  1.1372
 2854SOL    HW220196   1.906   0.705   3.308 -1.5041  2.5929 -0.0827
 2855SOL     OW20197   3.357   3.854  12.924 -0.3594 -0.3194 -0.1745
 2855SOL    HW120198   3.316   3.840  13.009  0.3827 -0.4357  0.1702
 2855SOL    HW220199   3.346   3.949  12.929 -1.5028 -0.5670  2.1299
 2856SOL     OW20200   2.705   0.595   6.164  0.1942  0.0723 -0.5898
 2856SOL    HW120201   2.801   0.590   6.159  0.4041  2.2228  1.3173
 2856SOL    HW220202   2.693   0.678   6.211  2.1037 -2.2245  4.0538
 2857SOL     OW20203   2.833   2.368  12.097 -0.2014 -0.2894  0.1446
 2857SOL    HW120204   2.812   2.299  12.034 -1.3388 -0.8560  1.1197
 2857SOL    HW220205   2.903   2.422  12.061  2.3583 -1.1651  3.7653
 2858SOL     OW20206   2.762   0.561   6.740 -0.4401  0.6004  0.0924
 2858SOL    HW120207   2.805   0.560   6.825 -0.0421 -1.5121 -0.1265
 2858SOL    HW220208   2.711   0.642   6.743  1.7934  2.0759 -1.7234
 2859SOL     OW20209   4.627   0.614   3.156  0.4083 -0.1515  0.3247
 2859SOL    HW120210   4.583   0.664   3.225 -2.9808 -0.9314 -1.2453
 2859SOL    HW220211   4.580   0.629   3.074 -0.6407 -0.4010  0.8737
 2860SOL     OW20212   4.641   0.310   8.724  0.2421 -0.3550 -0.3393
 2860SOL    HW120213   4.638   0.277   8.814  3.6373 -0.5438 -0.2973
 2860SOL    HW220214   4.695   0.388   8.726 -0.3340  0.0279  0.4503
 2861SOL     OW20215   3.922   2.791   5.526 -0.2270  0.3129  0.7829
 2861SOL    HW120216   4.000   2.748   5.491 -0.4230  0.1238  0.5754
 2861SOL    HW220217   3.949   2.883   5.523  0.7154 -0.0084 -0.6656
 2862SOL     OW20218   1.627   3.080   5.079 -0.9958 -0.1915  0.0332
 2862SOL    HW120219   1.657   2.990   5.090  2.5350  0.8668 -0.8504
 2862SOL    HW220220   1.693   3.108   5.015 -1.2312 -1.2604 -0.6668
 2863SOL     OW20221   1.610   2.043   5.860 -0.1211 -0.2708  0.3905
 2863SOL    HW120222   1.568   1.980   5.803  1.2185 -1.9391  1.2374
 2863SOL    HW220223   1.538   2.071   5.917  0.2566 -1.6483  1.5347
 2864SOL     OW20224   3.073   1.718   5.080 -0.4870 -0.5824  0.6624
 2864SOL    HW120225   3.163   1.725   5.048 -0.7397  1.1672  0.3609
 2864SOL    HW220226   3.064   1.802   5.123  0.4215 -0.1606  0.0255
 2865SOL     OW20227   0.696   4.362   2.104  0.4070  0.0249  0.0753
 2865SOL    HW120228   0.714   4.424   2.033  1.1995 -2.0148 -1.5032
 2865SOL    HW220229   0.621   4.317   2.065  0.3947 -1.1892  1.5033
 2866SOL     OW20230   1.504   3.920   7.062  0.0131 -0.7514 -0.2800
 2866SOL    HW120231   1.480   3.925   7.155  0.5910  0.3787 -0.1895
 2866SOL    HW220232   1.531   4.010   7.044 -0.2726 -0.3135  1.4832
 2867SOL     OW20233   2.475   3.071   5.635  0.0980 -0.1029  0.6102
 2867SOL    HW120234   2.450   2.993   5.686  1.5799 -1.6655 -1.0464
 2867SOL    HW220235   2.484   3.024   5.552  2.3739  0.3786  0.6001
 2868SOL     OW20236   2.950   4.585   1.988 -0.1715 -0.2778 -0.7291
 2868SOL    HW120237   3.016   4.517   1.999  2.7634  2.5076 -1.1066
 2868SOL    HW220238   2.925   4.563   1.898  1.9275  1.7883 -1.8096
 2869SOL     OW20239   3.776   4.476  16.547 -0.4852  0.0590 -0.0851
 2869SOL    HW120240   3.774   4.474  16.451  1.1136  0.6376 -0.1206
 2869SOL    HW220241   3.871   4.474  16.555 -0.5107  2.3348  0.8171
 2870SOL     OW20242   3.876   0.147  17.043  0.2916 -0.2680 -0.4778
 2870SOL    HW120243   3.832   0.091  17.107 -2.9829  0.6524 -1.9055
 2870SOL    HW220244   3.809   0.214  17.037  1.5472  0.9568 -0.8501
 2871SOL     OW20245   3.233   3.552   2.546 -0.1496 -0.3945  0.0314
 2871SOL    HW120246   3.316   3.561   2.498 -0.2530  0.7632  0.0845
 2871SOL    HW220247   3.234   3.638   2.588  1.1930 -0.4908  0.2008
 2872SOL     OW20248   3.789   1.948   9.362  0.0187  0.5909 -0.8664
 2872SOL    HW120249   3.776   1.984   9.274 -2.3846  1.5935 -0.0891
 2872SOL    HW220250   3.843   1.873   9.338  0.9265  1.7558 -2.4292
 2873SOL     OW20251   1.430   2.458   3.811 -0.1085 -0.0832  0.3810
 2873SOL    HW120252   1.514   2.448   3.766 -0.3865  0.4104 -0.2382
 2873SOL    HW220253   1.369   2.487   3.744 -0.2645  0.6049  0.8215
 2874SOL     OW20254   0.716   2.554  17.287  0.0148  0.0789 -0.3861
 2874SOL    HW120255   0.803   2.594  17.297 -0.4544  0.4079  2.3231
 2874SOL    HW220256   0.693   2.576  17.196  1.8133 -0.1814 -0.9064
 2875SOL     OW20257   0.890   2.673  17.662  0.4409  0.3410 -0.6910
 2875SOL    HW120258   0.923   2.588  17.635 -0.7345  0.5447 -2.7954
 2875SOL    HW220259   0.802   2.664  17.625 -0.1491  3.5421 -0.0659
 2876SOL     OW20260   1.932   2.404   8.149 -0.2496  0.4757  0.3376
 2876SOL    HW120261   2.000   2.388   8.084  0.8184 -0.4033  1.6800
 2876SOL    HW220262   1.857   2.360   8.108 -0.7940 -1.6244  3.5851
 2877SOL     OW20263   0.615   2.030   0.633 -0.0575  0.1137 -0.2705
 2877SOL    HW120264   0.565   1.952   0.610  1.0357 -0.3152 -1.1378
 2877SOL    HW220265   0.549   2.100   0.640  1.1702  1.1791  0.5609
 2878SOL     OW20266   3.377   0.992   0.731 -0.0855 -0.0599  0.0597
 2878SOL    HW120267   3.398   1.057   0.664 -3.2401  1.1642  0.2910
 2878SOL    HW220268   3.353   0.911   0.685  0.4317 -1.0128  1.4650
 2879SOL     OW20269   3.704   4.718   2.416  0.5660 -0.5930 -0.6203
 2879SOL    HW120270   3.697   0.067   2.375 -0.7480 -0.0524  0.7433
 2879SOL    HW220271   3.617   4.695   2.450 -1.2779  1.3094 -4.0751
 2880SOL     OW20272   0.396   3.545   1.044  0.1828  0.2690  0.0873
 2880SOL    HW120273   0.308   3.581   1.057  0.9996  2.3310 -0.0751
 2880SOL    HW220274   0.433   3.560   1.131 -0.9216 -0.2889  0.6557
 2881SOL     OW20275   3.189   4.532   3.595 -0.4579 -0.1046  0.0726
 2881SOL    HW120276   3.209   4.439   3.587 -0.5567 -0.0856 -0.3802
 2881SOL    HW220277   3.253   4.567   3.657  0.8508 -1.3635 -0.5900
 2882SOL     OW20278   2.370   3.452   6.925  0.4427  0.4678  0.1105
 2882SOL    HW120279   2.331   3.502   6.996 -1.6812 -1.6188  0.4247
 2882SOL    HW220280   2.367   3.519   6.857 -2.5983  1.5469  1.3190
 2883SOL     OW20281   1.754   3.676   5.950  0.2422  0.3030  0.5670
 2883SOL    HW120282   1.666   3.700   5.979 -0.0842 -0.4090  0.1617
 2883SOL    HW220283   1.751   3.698   5.857 -0.3845  2.0049  0.9928
 2884SOL     OW20284   2.969   4.087  16.354 -0.0745 -0.6339  0.1809
 2884SOL    HW120285   3.013   4.082  16.439  0.4016 -1.4487 -0.1145
 2884SOL    HW220286   2.941   4.178  16.348  0.4822 -0.3471  1.9363
 2885SOL     OW20287   1.085   4.079   8.061 -0.1660 -0.4032 -0.5265
 2885SOL    HW120288   1.095   4.069   8.155 -0.1638  0.9204 -0.3906
 2885SOL    HW220289   1.101   4.173   8.055  1.2577 -0.7338 -2.0631
 2886SOL     OW20290   4.642   3.172   6.664  0.3257 -0.2319 -0.8656
 2886SOL    HW120291   4.707   3.118   6.619  1.2448  1.2576 -1.3300
 2886SOL    HW220292   4.686   3.197   6.745  0.6339 -1.4956 -0.6352
 2887SOL     OW20293   2.280   2.780   5.073  0.6217 -0.2096 -0.2454
 2887SOL    HW120294   2.266   2.828   5.155  0.7680 -1.9712  0.7942
 2887SOL    HW220295   2.371   2.753   5.085  1.2731  1.5952 -1.0358
 2888SOL     OW20296   3.568   3.599   9.219  0.8608  0.3447  0.1224
 2888SOL    HW120297   3.625   3.672   9.196  0.3343  0.3210 -1.3091
 2888SOL    HW220298   3.634   3.530   9.218  1.5416  0.9929  1.1188
 2889SOL     OW20299   3.873   2.988  13.912  0.4556  0.2281  0.2607
 2889SOL    HW120300   3.936   2.916  13.921 -0.3841 -0.3822  1.2340
 2889SOL    HW220301   3.915   3.054  13.966  0.9350  0.3415 -0.2515
 2890SOL     OW20302   2.725   3.350   9.798  0.9411  0.1621  0.6658
 2890SOL    HW120303   2.640   3.316   9.823  0.0083  1.9591 -0.0928
 2890SOL    HW220304   2.770   3.282   9.748 -1.1139 -0.8205  0.1819
 2891SOL     OW20305   3.606   0.104  11.027 -0.1448  0.2228 -0.1293
 2891SOL    HW120306   3.548   0.126  10.954  0.8623  2.2172 -0.3286
 2891SOL    HW220307   3.569   0.160  11.095  0.3088  0.8946 -0.4364
 2892SOL     OW20308   0.618   0.161   2.194  1.0438  0.8594  0.5102
 2892SOL    HW120309   0.697   0.132   2.150  2.8756  3.3938  2.1462
 2892SOL    HW220310   0.580   0.080   2.229 -0.1751  0.2673 -2.1760
 2893SOL     OW20311   4.428   1.935   9.073  0.0617  0.3193 -0.0313
 2893SOL    HW120312   4.365   1.962   9.140  0.3645 -0.5628  0.6064
 2893SOL    HW220313   4.390   1.850   9.049  0.7308 -0.3671  1.4120
 2894SOL     OW20314   1.213   0.431   2.251 -0.2597  0.0073  0.1383
 2894SOL    HW120315   1.131   0.414   2.204  0.2328  0.5046 -0.9035
 2894SOL    HW220316   1.231   0.524   2.241 -0.7202  0.0013 -0.7257
 2895SOL     OW20317   3.677   3.799   4.392 -0.0652  0.1963 -0.3694
 2895SOL    HW120318   3.724   3.731   4.441 -0.0505  0.1276 -0.4766
 2895SOL    HW220319   3.600   3.745   4.373  1.3519 -0.7937 -3.3198
 2896SOL     OW20320   2.639   4.258  16.100  0.4560 -0.1501 -0.8892
 2896SOL    HW120321   2.726   4.269  16.139 -1.4061  4.0856  2.0994
 2896SOL    HW220322   2.611   4.350  16.108 -0.5564 -0.4417 -1.0024
 2897SOL     OW20323   0.628   4.652   4.344  0.1725  0.4610  0.6963
 2897SOL    HW120324   0.598   0.002   4.319  1.5795  1.1815  1.5129
 2897SOL    HW220325   0.717   4.658   4.377  0.3675  1.3723 -0.0212
 2898SOL     OW20326   1.823   0.394   9.390 -0.3525 -0.0671  0.5655
 2898SOL    HW120327   1.915   0.420   9.396 -0.0988 -0.1533 -2.7116
 2898SOL    HW220328   1.786   0.462   9.447  0.2998 -0.2631  1.2143
 2899SOL     OW20329   3.549   2.104   9.098 -0.0095 -0.1039 -0.0216
 2899SOL    HW120330   3.624   2.049   9.074 -0.3436  0.9618 -3.3518
 2899SOL    HW220331   3.587   2.189   9.079 -3.2859  1.1722 -0.8294
 2900SOL     OW20332   1.813   1.160  17.669 -0.0976  0.6540  0.3904
 2900SOL    HW120333   1.743   1.222  17.688 -0.4140  0.0529  1.2032
 2900SOL    HW220334   1.780   1.132  17.584  3.6264  2.1156 -1.5606
 2901SOL     OW20335   2.738   4.699   4.951 -0.0396  0.3227  0.3183
 2901SOL    HW120336   2.778   0.036   4.996  0.8658 -0.5513  0.9224
 2901SOL    HW220337   2.793   4.629   4.985 -2.0675 -1.6553 -0.5024
 2902SOL     OW20338   1.964   4.231   1.787 -0.8845 -0.3574 -0.2942
 2902SOL    HW120339   1.994   4.258   1.874 -1.0625  0.5738 -0.5269
 2902SOL    HW220340   2.002   4.291   1.723 -1.0545 -0.7299 -0.7409
 2903SOL     OW20341   0.710   0.458   2.901 -0.2960 -0.0330 -0.0854
 2903SOL    HW120342   0.782   0.511   2.868  1.5632 -0.6551  2.9687
 2903SOL    HW220343   0.646   0.528   2.905  0.5569  0.6147  1.9694
 2904SOL     OW20344   1.178   3.042  17.064  0.2426  0.4457 -0.5556
 2904SOL    HW120345   1.230   3.064  16.987  1.3020 -1.9734 -0.5610
 2904SOL    HW220346   1.192   3.122  17.115 -3.4870 -0.1926  1.4286
 2905SOL     OW20347   1.636   1.735   3.227 -0.2145  0.3609 -0.2223
 2905SOL    HW120348   1.616   1.824   3.196 -0.0309 -0.1272 -1.7375
 2905SOL    HW220349   1.727   1.733   3.196  0.5511  2.3225  1.8884
 2906SOL     OW20350   4.171   0.424   5.492  0.4346 -0.3393 -0.5457
 2906SOL    HW120351   4.257   0.400   5.527  0.3715  1.3588  0.7474
 2906SOL    HW220352   4.162   0.366   5.416  2.4888 -0.1987 -0.9047
 2907SOL     OW20353   3.720   0.761   4.367  0.1049 -0.0618  0.1625
 2907SOL    HW120354   3.714   0.721   4.454  1.1630 -0.4795  0.0392
 2907SOL    HW220355   3.737   0.688   4.309 -0.4343 -0.7426  0.8487
 2908SOL     OW20356   0.933   0.367   2.417  0.4114 -0.2177 -0.1734
 2908SOL    HW120357   0.914   0.337   2.505  1.5375 -0.3405  0.0304
 2908SOL    HW220358   0.964   0.458   2.425  0.3939 -0.2184 -0.1012
 2909SOL     OW20359   0.432   1.599   6.513 -0.4371  0.1233  0.1233
 2909SOL    HW120360   0.404   1.689   6.526 -0.7429 -0.4381  3.4906
 2909SOL    HW220361   0.497   1.615   6.445  0.7784  1.3518  1.5954
 2910SOL     OW20362   1.842   0.469  12.928  0.2590 -0.2598  0.1165
 2910SOL    HW120363   1.771   0.477  12.992  1.6478  0.9616  1.5206
 2910SOL    HW220364   1.799   0.529  12.867  1.4768  0.4910 -0.0126
 2911SOL     OW20365   3.591   0.295   8.967  0.0531 -0.1866 -0.0356
 2911SOL    HW120366   3.630   0.340   8.892 -2.0420 -1.6760 -1.9973
 2911SOL    HW220367   3.603   0.366   9.031 -0.1179  0.2748 -0.5113
 2912SOL     OW20368   0.556   3.504   2.214 -0.5470  0.5234  0.4834
 2912SOL    HW120369   0.633   3.527   2.265  0.2156 -0.0909 -0.4037
 2912SOL    HW220370   0.513   3.448   2.279  0.6925 -0.7206  0.2195
 2913SOL     OW20371   4.502   0.903   3.575 -0.1341 -0.4700 -0.3912
 2913SOL    HW120372   4.566   0.876   3.641 -0.3941 -0.5195 -0.1595
 2913SOL    HW220373   4.484   0.829   3.517 -0.8268 -1.2328  0.8041
 2914SOL     OW20374   1.824   1.004   9.723 -0.8326  0.6502 -0.2660
 2914SOL    HW120375   1.731   1.002   9.747 -1.2677 -0.4404 -2.0751
 2914SOL    HW220376   1.847   0.930   9.780 -0.2346  3.2928  2.9176
 2915SOL     OW20377   3.110   4.155   7.872 -0.1466  0.0081  0.0650
 2915SOL    HW120378   3.153   4.093   7.813 -0.3356  0.6339 -0.7344
 2915SOL    HW220379   3.024   4.114   7.883  0.2297 -0.8291 -0.1053
 2916SOL     OW20380   4.001   0.271  10.617  0.7261 -0.0400 -0.3375
 2916SOL    HW120381   4.071   0.315  10.665  0.3596 -0.1671  0.3250
 2916SOL    HW220382   3.980   0.201  10.679 -1.3524 -2.1263 -3.3906
 2917SOL     OW20383   1.775   2.800   6.355 -0.0561 -0.0354 -0.6084
 2917SOL    HW120384   1.692   2.810   6.308  0.0615 -1.1027 -1.0347
 2917SOL    HW220385   1.820   2.750   6.287  1.2493  2.2558 -1.4161
 2918SOL     OW20386   4.317   2.186   2.581  0.4741  0.1207  0.1261
 2918SOL    HW120387   4.260   2.221   2.650  0.5331  0.2517  0.1086
 2918SOL    HW220388   4.294   2.246   2.509 -2.7383 -2.0638 -0.7128
 2919SOL     OW20389   2.749   1.424   3.521 -0.6186  0.0916 -0.1990
 2919SOL    HW120390   2.827   1.446   3.470 -0.6927  0.3211 -0.2167
 2919SOL    HW220391   2.766   1.331   3.530  2.4754  0.5223 -1.5902
 2920SOL     OW20392   3.467   2.966   0.688  0.3768  0.2050 -0.3096
 2920SOL    HW120393   3.448   2.872   0.685 -0.2127  0.3230 -0.2518
 2920SOL    HW220394   3.381   2.998   0.716 -0.0263 -1.9047  0.8707
 2921SOL     OW20395   3.457   2.175   1.855  0.2740  0.5027  0.4747
 2921SOL    HW120396   3.482   2.203   1.943  1.2476 -0.0543  0.3682
 2921SOL    HW220397   3.372   2.134   1.875  0.7193 -0.2005  0.9137
 2922SOL     OW20398   0.550   4.258  14.022  0.4645 -0.0556 -0.3835
 2922SOL    HW120399   0.484   4.324  14.041  1.7256  1.1545 -0.1874
 2922SOL    HW220400   0.537   4.238  13.930  1.3062  1.6203 -0.8588
 2923SOL     OW20401   4.260   3.541   6.469 -0.1448  0.8839 -0.0082
 2923SOL    HW120402   4.313   3.614   6.437 -1.5865  2.5021  1.2719
 2923SOL    HW220403   4.323   3.494   6.524 -2.2113 -1.1393  0.6364
 2924SOL     OW20404   2.588   2.680   3.185 -0.2599 -0.3235  0.1263
 2924SOL    HW120405   2.511   2.708   3.235 -1.0274  0.1791 -1.3532
 2924SOL    HW220406   2.654   2.745   3.209  0.6963 -0.9774 -0.7110
 2925SOL     OW20407   0.833   3.136   5.930  0.0351  0.0595  0.2331
 2925SOL    HW120408   0.753   3.098   5.967 -1.6855  3.4131 -0.0444
 2925SOL    HW220409   0.804   3.223   5.902  1.0856  0.7917  1.4602
 2926SOL     OW20410   0.329   4.229  17.114  0.4053 -0.3012 -0.4769
 2926SOL    HW120411   0.238   4.246  17.089  0.0425  1.0114  1.7950
 2926SOL    HW220412   0.374   4.292  17.059  0.1665 -0.8960 -1.3647
 2927SOL     OW20413   1.738   4.470  15.102 -0.5419 -0.3774  0.1461
 2927SOL    HW120414   1.781   4.384  15.103  1.9217  0.8733  1.5237
 2927SOL    HW220415   1.790   4.511  15.032  0.0094 -3.0788 -1.0154
 2928SOL     OW20416   1.368   0.350  14.285 -0.5015 -0.6536  0.2177
 2928SOL    HW120417   1.302   0.287  14.258 -0.7129 -0.6958  0.8329
 2928SOL    HW220418   1.379   0.405  14.208 -2.4404 -1.3083 -0.5038
 2929SOL     OW20419   3.125   1.529   3.631 -0.4306  0.3150  0.0569
 2929SOL    HW120420   3.137   1.497   3.721 -2.8303  2.5949  1.1667
 2929SOL    HW220421   3.086   1.447   3.599  1.0918 -0.3703 -0.0564
 2930SOL     OW20422   1.560   2.119   0.108  0.3669 -0.1368  0.1784
 2930SOL    HW120423   1.538   2.027   0.092 -0.7048  0.1493  0.0162
 2930SOL    HW220424   1.505   2.118   0.186  1.2057  0.9906  0.7722
 2931SOL     OW20425   2.366   1.794   4.961 -0.1681  0.1049  0.0184
 2931SOL    HW120426   2.317   1.717   4.933 -1.2525  1.0722 -0.7259
 2931SOL    HW220427   2.352   1.848   4.883 -1.5888 -1.7925 -1.0387
 2932SOL     OW20428   4.448   0.748   6.855  0.0125  0.3060 -0.1285
 2932SOL    HW120429   4.508   0.812   6.819 -0.7343  0.2632 -1.4282
 2932SOL    HW220430   4.380   0.801   6.897  0.1552  2.0023 -2.0477
 2933SOL     OW20431   1.413   0.908   7.760 -0.0672 -0.5568  0.6070
 2933SOL    HW120432   1.437   0.975   7.696 -0.9438 -0.6673  0.1681
 2933SOL    HW220433   1.325   0.887   7.727 -0.1903  1.1878 -0.1716
 2934SOL     OW20434   4.295   4.266   8.026  0.6937  0.1697  0.5663
 2934SOL    HW120435   4.319   4.337   7.966  2.8836  0.4503  1.7562
 2934SOL    HW220436   4.221   4.305   8.073  0.2054 -0.2155  0.1151
 2935SOL     OW20437   0.608   4.481   5.917 -0.6095  0.2529  0.1392
 2935SOL    HW120438   0.598   4.428   5.838  0.7754  1.4473 -0.8243
 2935SOL    HW220439   0.653   4.416   5.973 -0.2075  0.5682  0.1851
 2936SOL     OW20440   1.874   0.625   8.713 -0.1009 -0.0957 -0.7066
 2936SOL    HW120441   1.935   0.563   8.673  2.9662  2.3032  0.2945
 2936SOL    HW220442   1.800   0.565   8.722  0.8228 -0.9719  0.8792
 2937SOL     OW20443   4.350   1.123   6.062 -0.2576 -0.0456  0.2717
 2937SOL    HW120444   4.262   1.151   6.035  1.0711  3.3649 -0.5844
 2937SOL    HW220445   4.367   1.056   5.996  0.7742 -0.2022  0.6948
 2938SOL     OW20446   0.777   1.698   3.705 -0.5060 -0.0627 -0.3526
 2938SOL    HW120447   0.770   1.779   3.756 -0.4325  0.9253 -1.9225
 2938SOL    HW220448   0.860   1.663   3.738 -0.9916 -0.6374  0.2552
 2939SOL     OW20449   1.380   1.289   5.890 -0.1909  0.2709  0.5544
 2939SOL    HW120450   1.468   1.286   5.926  0.6040 -3.6869 -1.6958
 2939SOL    HW220451   1.361   1.381   5.911  1.8295  1.1482 -1.3763
 2940SOL     OW20452   0.562   1.119   2.310 -0.4229  0.3552  0.8415
 2940SOL    HW120453   0.500   1.188   2.283 -0.3580  0.0296 -0.1187
 2940SOL    HW220454   0.499   1.047   2.313 -0.5648  0.3947 -1.0851
 2941SOL     OW20455   3.414   2.193   3.692  0.2116  0.0708  0.3141
 2941SOL    HW120456   3.390   2.170   3.602 -0.0034  0.2254  0.3320
 2941SOL    HW220457   3.330   2.229   3.720  0.9277  1.0037  1.2621
 2942SOL     OW20458   0.671   1.789   4.243  0.1318  0.1783 -0.1469
 2942SOL    HW120459   0.582   1.776   4.275  0.6914 -0.4128  1.1630
 2942SOL    HW220460   0.665   1.877   4.205 -2.6369 -0.1128 -0.3788
 2943SOL     OW20461   2.016   0.188   5.459  0.4201  0.3211 -0.5005
 2943SOL    HW120462   1.999   0.270   5.505 -0.1702 -1.3721  2.3339
 2943SOL    HW220463   2.058   0.224   5.381  4.0511 -1.2083  0.7286
 2944SOL     OW20464   0.465   2.272   2.000  0.0243  0.0838 -0.0844
 2944SOL    HW120465   0.490   2.359   1.968 -1.5982  0.5312 -0.1166
 2944SOL    HW220466   0.547   2.254   2.047  0.1860 -0.1562 -0.4511
 2945SOL     OW20467   1.265   0.414   5.063  0.0603 -0.0081  0.0816
 2945SOL    HW120468   1.357   0.387   5.059  0.1686  0.1467  1.7910
 2945SOL    HW220469   1.273   0.498   5.018  2.1209 -0.4215 -0.3362
 2946SOL     OW20470   0.207   4.554   7.474 -0.4572 -0.7194 -0.3664
 2946SOL    HW120471   0.113   4.534   7.468 -0.6578  0.8115 -2.1738
 2946SOL    HW220472   0.204   4.639   7.430 -0.2253 -0.4475  0.1404
 2947SOL     OW20473   2.968   3.087   7.084  0.7507 -0.7699  0.4816
 2947SOL    HW120474   3.024   3.095   7.162  1.4842  1.6795 -0.3237
 2947SOL    HW220475   2.906   3.016   7.100 -1.0175  1.1472  2.0714
 2948SOL     OW20476   3.212   0.323   1.883  0.1944  0.1219  0.0713
 2948SOL    HW120477   3.157   0.367   1.818  0.1780 -0.3992 -0.2647
 2948SOL    HW220478   3.168   0.240   1.899 -2.9174  1.7866  0.2325
 2949SOL     OW20479   3.103   4.373   2.061  0.2147 -0.7756 -0.7078
 2949SOL    HW120480   3.022   4.328   2.086 -2.0508  2.5068 -2.0753
 2949SOL    HW220481   3.168   4.307   2.084  0.7175  0.3292  1.0241
 2950SOL     OW20482   3.625   3.688   8.282 -0.6786  0.1844  0.6952
 2950SOL    HW120483   3.639   3.634   8.204  0.8238  0.5496  0.7121
 2950SOL    HW220484   3.619   3.622   8.351  3.1515  0.6057  1.4221
 2951SOL     OW20485   3.637   2.656  16.630  0.1552  0.5933  0.6895
 2951SOL    HW120486   3.600   2.580  16.676 -0.1241 -0.6688 -1.6404
 2951SOL    HW220487   3.727   2.623  16.622  0.1938  0.9009 -0.1106
 2952SOL     OW20488   3.422   3.969   6.681  0.0332  0.8137  0.5740
 2952SOL    HW120489   3.463   3.907   6.620 -2.0540  0.1688 -0.1887
 2952SOL    HW220490   3.486   4.039   6.692  0.3344  0.7125 -0.4907
 2953SOL     OW20491   3.259   0.710   3.582  0.1391  0.1771  0.0204
 2953SOL    HW120492   3.297   0.727   3.496 -1.4998 -1.7081 -1.0846
 2953SOL    HW220493   3.171   0.747   3.569 -0.8230 -1.5484  1.7519
 2954SOL     OW20494   4.594   0.357   4.979  0.3003 -0.3019 -0.2672
 2954SOL    HW120495   4.675   0.321   5.017  1.2765  0.7646 -1.3459
 2954SOL    HW220496   4.631   0.440   4.950  1.1837 -0.3621  0.6718
 2955SOL     OW20497   4.462   2.489   8.666  0.2451 -0.6466  0.3601
 2955SOL    HW120498   4.422   2.463   8.749  2.4580 -0.9814  1.3126
 2955SOL    HW220499   4.397   2.551   8.634  1.5987  1.1161  1.0235
 2956SOL     OW20500   3.013   3.049   3.206 -0.4368 -0.1863 -0.3550
 2956SOL    HW120501   3.004   2.962   3.167 -2.7441  0.6260 -1.5999
 2956SOL    HW220502   2.924   3.078   3.224 -0.4619  1.3017 -2.8803
 2957SOL     OW20503   1.146   2.839   2.455 -0.7015 -0.3030  0.1578
 2957SOL    HW120504   1.159   2.744   2.459 -2.4696 -0.4742  1.7065
 2957SOL    HW220505   1.164   2.852   2.362  0.2820 -1.0531  0.2357
 2958SOL     OW20506   0.746   2.250   7.259  0.7605 -0.2709  0.0020
 2958SOL    HW120507   0.768   2.167   7.216  0.6125 -1.3435  1.9839
 2958SOL    HW220508   0.826   2.300   7.243 -0.8767  1.9705 -1.1312
 2959SOL     OW20509   1.127   3.577   3.478  0.1506  0.2380 -0.3281
 2959SOL    HW120510   1.059   3.563   3.543  1.2238  0.6842  0.8853
 2959SOL    HW220511   1.196   3.527   3.523  1.9831  1.9031 -1.2981
 2960SOL     OW20512   2.389   0.999  10.900 -0.8262 -0.3672 -0.4530
 2960SOL    HW120513   2.328   1.064  10.866 -1.5270 -1.0730 -0.5608
 2960SOL    HW220514   2.362   0.927  10.842 -1.6348  0.2640 -0.8478
 2961SOL     OW20515   2.811   1.207   9.797 -0.0223 -0.2895 -0.2089
 2961SOL    HW120516   2.886   1.150   9.783  0.2290  0.6317 -2.5950
 2961SOL    HW220517   2.855   1.292   9.803 -0.4470  0.0151 -1.4240
 2962SOL     OW20518   2.801   3.439   3.235 -0.2509  0.1537  0.4107
 2962SOL    HW120519   2.868   3.506   3.252  1.2093 -1.8605  2.6354
 2962SOL    HW220520   2.723   3.478   3.197 -1.0808 -1.4900  0.3961
 2963SOL     OW20521   1.635   4.499  11.183 -0.0789  0.4083  0.2031
 2963SOL    HW120522   1.727   4.511  11.207  0.1959 -0.3746 -0.4821
 2963SOL    HW220523   1.589   4.478  11.264  0.1449 -1.7861 -0.2391
 2964SOL     OW20524   2.666   1.468   6.643  0.0668  0.2711 -0.1128
 2964SOL    HW120525   2.599   1.509   6.588 -0.1428 -0.8024 -0.6588
 2964SOL    HW220526   2.699   1.401   6.584  1.7861  0.7812  0.2788
 2965SOL     OW20527   2.479   3.932   5.822 -0.4036 -0.2084  0.3388
 2965SOL    HW120528   2.470   3.843   5.855  0.1958  0.4291  2.2519
 2965SOL    HW220529   2.529   3.984   5.886  0.7811 -1.0920  0.1257
 2966SOL     OW20530   4.657   0.117   0.407  0.4351  0.0762 -0.2251
 2966SOL    HW120531   4.601   0.091   0.334  1.2230  0.6013 -1.0182
 2966SOL    HW220532   0.007   0.081   0.389  0.7911  1.1611 -0.6511
 2967SOL     OW20533   0.006   3.846  16.211 -0.1794  0.5576  0.3845
 2967SOL    HW120534   4.705   3.795  16.140 -2.2871 -0.7355  2.4190
 2967SOL    HW220535   4.672   3.907  16.230  0.7485  2.1130 -1.2316
 2968SOL     OW20536   2.060   0.741  10.334  0.3677 -0.4751 -0.1202
 2968SOL    HW120537   2.025   0.790  10.408 -2.4943 -1.9552 -0.4832
 2968SOL    HW220538   2.143   0.715  10.375 -0.1335 -3.2503 -0.8243
 2969SOL     OW20539   2.050   2.092   5.467 -0.1892 -0.0588  0.2326
 2969SOL    HW120540   1.965   2.129   5.443  0.2204 -0.2821 -1.5377
 2969SOL    HW220541   2.104   2.096   5.389  0.9910  2.0411  1.1655
 2970SOL     OW20542   1.035   2.839  10.609  0.0503 -0.1259  0.2094
 2970SOL    HW120543   1.001   2.919  10.569  3.0576  1.9757  1.8641
 2970SOL    HW220544   1.079   2.863  10.691  0.7009 -0.4561 -0.0453
 2971SOL     OW20545   1.700   3.706   6.656 -0.1879 -0.2433  0.2588
 2971SOL    HW120546   1.735   3.692   6.744 -0.0713  1.1456  0.4234
 2971SOL    HW220547   1.771   3.686   6.596 -2.0896 -0.7154 -1.8512
 2972SOL     OW20548   3.517   1.614  13.458 -0.2478 -0.2959  0.2080
 2972SOL    HW120549   3.501   1.699  13.417 -0.7730 -1.8122 -2.6574
 2972SOL    HW220550   3.517   1.637  13.551  0.4691 -0.6296  0.2912
 2973SOL     OW20551   3.771   2.522  17.161 -0.2031 -0.3866 -0.3614
 2973SOL    HW120552   3.816   2.480  17.087 -0.8971  1.0418 -1.5870
 2973SOL    HW220553   3.840   2.575  17.201  1.3770 -0.1165 -3.4628
 2974SOL     OW20554   2.060   3.316   8.101  0.0601  0.0285 -0.1949
 2974SOL    HW120555   2.148   3.294   8.130  1.5317  3.3850 -2.1409
 2974SOL    HW220556   2.089   3.376   8.032  1.8733  0.1152  0.6512
 2975SOL     OW20557   0.855   1.894   3.028 -0.7001  0.6199 -0.2528
 2975SOL    HW120558   0.796   1.889   3.103 -0.9414  0.3764 -0.4587
 2975SOL    HW220559   0.944   1.879   3.061 -0.7404  0.0784 -0.4016
 2976SOL     OW20560   4.036   0.538   3.078 -0.2109  0.4472  0.6316
 2976SOL    HW120561   3.975   0.562   3.009  0.9094  2.3151  0.3024
 2976SOL    HW220562   4.056   0.448   3.053  1.9051  0.9100  0.6496
 2977SOL     OW20563   0.399   4.561   3.061  0.3135 -0.3194  0.0763
 2977SOL    HW120564   0.391   4.585   2.968 -0.4293  1.7784  0.6922
 2977SOL    HW220565   0.492   4.570   3.083 -0.2408 -1.9099  3.0004
 2978SOL     OW20566   3.165   2.755  16.221 -0.0637 -0.0079 -0.6847
 2978SOL    HW120567   3.136   2.694  16.153 -0.0052 -0.5033 -0.2679
 2978SOL    HW220568   3.102   2.825  16.203 -1.4297 -1.9654 -3.5131
 2979SOL     OW20569   3.303   3.538   7.746 -0.0647 -0.2108  0.4946
 2979SOL    HW120570   3.348   3.538   7.831  2.1491  1.7261 -0.6768
 2979SOL    HW220571   3.376   3.564   7.690  0.5900  0.7242  1.7786
 2980SOL     OW20572   3.572   0.417   1.323  0.6205  0.3404 -0.5607
 2980SOL    HW120573   3.656   0.408   1.369  0.4631 -4.3435 -1.2684
 2980SOL    HW220574   3.596   0.484   1.259  0.4942  0.8945 -0.0284
 2981SOL     OW20575   4.089   4.456   5.966  0.2303 -0.0694 -0.4666
 2981SOL    HW120576   4.025   4.393   5.999  0.7563 -0.2398  0.2138
 2981SOL    HW220577   4.170   4.405   5.970  0.2740 -0.1568 -2.5617
 2982SOL     OW20578   2.813   2.624   0.212  0.2613  0.4262 -0.6769
 2982SOL    HW120579   2.882   2.676   0.254  2.1991 -1.7061 -1.2402
 2982SOL    HW220580   2.855   2.568   0.147 -0.1270 -1.6325  0.8441
 2983SOL     OW20581   3.785   0.242   1.824 -0.1462 -0.1714  0.4160
 2983SOL    HW120582   3.771   0.237   1.919 -1.7937 -0.7734  0.1388
 2983SOL    HW220583   3.703   0.289   1.809 -1.3252 -1.5283  2.5489
 2984SOL     OW20584   0.401   2.222   0.627  0.3222 -0.0886 -0.1034
 2984SOL    HW120585   0.320   2.170   0.621 -0.9656  1.5808  2.9299
 2984SOL    HW220586   0.379   2.280   0.700 -1.4588 -2.6993  1.4485
 2985SOL     OW20587   2.824   0.271   4.332  0.0197  0.0542 -0.3067
 2985SOL    HW120588   2.868   0.193   4.297 -2.1777 -1.3404  0.0319
 2985SOL    HW220589   2.762   0.230   4.393  1.2788 -0.2710  0.7725
 2986SOL     OW20590   2.687   4.186   1.918  0.1319 -0.1242  0.0181
 2986SOL    HW120591   2.593   4.167   1.920 -0.3257  2.0318 -0.7325
 2986SOL    HW220592   2.704   4.214   2.008  1.2455  0.2617 -0.3134
 2987SOL     OW20593   1.405   3.151   2.724 -0.0258  0.0747 -0.4071
 2987SOL    HW120594   1.397   3.200   2.806  0.3392  0.8631 -0.8438
 2987SOL    HW220595   1.316   3.170   2.695 -0.5734 -2.0587 -0.1034
 2988SOL     OW20596   3.532   0.866  10.835  0.2690 -0.3719 -0.1239
 2988SOL    HW120597   3.446   0.825  10.828  1.8391 -3.5187 -0.9512
 2988SOL    HW220598   3.589   0.791  10.854 -0.6381 -1.7147 -2.7744
 2989SOL     OW20599   2.013   0.863   3.821 -0.5566  0.4393 -0.3621
 2989SOL    HW120600   1.984   0.946   3.785 -1.2494  0.8996  1.2852
 2989SOL    HW220601   2.053   0.828   3.741 -0.2289 -1.0213  0.4385
 2990SOL     OW20602   4.728   4.028  12.937  0.1604 -0.4248 -0.1714
 2990SOL    HW120603   0.064   3.977  12.900 -0.3240 -0.9194 -0.4339
 2990SOL    HW220604   4.656   3.966  12.928  0.4976 -0.9075  0.4515
 2991SOL     OW20605   4.731   2.689   4.221 -0.3094 -0.3424 -0.0629
 2991SOL    HW120606   4.691   2.657   4.140  1.3809 -2.1366 -0.2002
 2991SOL    HW220607   4.671   2.762   4.236 -1.1142 -1.4179  1.8862
 2992SOL     OW20608   1.661   0.047   2.715 -0.0143  0.5915 -0.2161
 2992SOL    HW120609   1.587   0.060   2.774 -0.1600 -3.6775  0.5460
 2992SOL    HW220610   1.694   0.132   2.686  1.1900 -0.1849 -1.0997
 2993SOL     OW20611   3.044   0.084   5.584 -0.3735  0.0990  0.5316
 2993SOL    HW120612   3.113   0.072   5.650 -1.4885  0.9944  1.8614
 2993SOL    HW220613   3.095   0.087   5.503 -0.0835 -0.9363  0.6806
 2994SOL     OW20614   4.239   2.887   6.020  0.3965  0.3079 -0.4202
 2994SOL    HW120615   4.187   2.861   5.945  2.2178  1.3138 -2.0375
 2994SOL    HW220616   4.193   2.969   6.037 -0.7884 -0.1024 -1.6801
 2995SOL     OW20617   0.447   0.533   9.730 -0.1507 -0.2750  0.3971
 2995SOL    HW120618   0.472   0.534   9.637  2.7187  0.7099  1.1843
 2995SOL    HW220619   0.422   0.441   9.739 -0.4672 -0.2451 -0.1700
 2996SOL     OW20620   1.537   1.522   1.172 -0.4973  0.5121 -0.2583
 2996SOL    HW120621   1.607   1.475   1.218 -0.2510  1.0843 -0.0466
 2996SOL    HW220622   1.488   1.556   1.246 -0.1991 -0.4993  0.4061
 2997SOL     OW20623   2.875   2.555   8.200 -0.1607 -0.0338  0.2322
 2997SOL    HW120624   2.796   2.581   8.154 -0.2495 -1.5721 -0.4700
 2997SOL    HW220625   2.873   2.603   8.283  0.5290 -0.0032  0.2351
 2998SOL     OW20626   0.158   1.081   4.465 -0.7325 -0.3316 -0.3399
 2998SOL    HW120627   0.251   1.102   4.473 -1.1920  1.5874 -0.1409
 2998SOL    HW220628   0.166   0.985   4.469  0.6402 -0.1726  0.5794
 2999SOL     OW20629   3.571   0.124   0.798 -0.0853  0.1618  0.3492
 2999SOL    HW120630   3.651   0.088   0.760 -0.5787  1.2471 -1.7239
 2999SOL    HW220631   3.517   0.045   0.802  0.8932 -0.6224 -1.9598
 3000SOL     OW20632   1.218   0.338  15.814 -0.0827 -0.0912  0.0137
 3000SOL    HW120633   1.257   0.420  15.846  1.7861 -1.9218  2.4541
 3000SOL    HW220634   1.253   0.333  15.725  0.4150 -1.3366  0.2808
 3001SOL     OW20635   2.652   2.082   2.585 -0.5002  0.3572 -0.0165
 3001SOL    HW120636   2.668   2.031   2.664  2.6283  1.1480 -0.1323
 3001SOL    HW220637   2.609   2.157   2.627 -1.0408  0.2816 -0.4373
 3002SOL     OW20638   2.760   1.396   1.325  0.1224  0.4526  0.1401
 3002SOL    HW120639   2.714   1.315   1.346 -0.5847  1.3806  2.1249
 3002SOL    HW220640   2.720   1.458   1.387 -0.3489 -0.2893  0.5683
 3003SOL     OW20641   1.078   0.019   8.427 -0.4385 -0.1894 -0.1381
 3003SOL    HW120642   1.002   0.055   8.473 -1.0531  2.4611 -3.2318
 3003SOL    HW220643   1.108   4.697   8.496  2.0735  2.9753  1.4853
 3004SOL     OW20644   4.734   2.077   9.583  0.0205 -0.6165  0.1698
 3004SOL    HW120645   4.679   2.098   9.659 -0.3926  0.9374 -0.5555
 3004SOL    HW220646   0.083   2.064   9.623  0.5801  0.1045 -0.7943
 3005SOL     OW20647   4.642   0.807  16.801  0.6333 -0.8669 -0.4412
 3005SOL    HW120648   4.724   0.845  16.769  0.3137  0.4080  0.2395
 3005SOL    HW220649   4.585   0.884  16.804  2.1345  0.1689  1.1637
 3006SOL     OW20650   4.232   1.789   8.569  0.5872  0.4516  0.2206
 3006SOL    HW120651   4.212   1.876   8.535 -1.0307 -0.3193 -0.8361
 3006SOL    HW220652   4.327   1.795   8.576  0.4779  2.2531  0.2483
 3007SOL     OW20653   3.186   4.709  16.339 -0.1339 -0.2603 -0.2070
 3007SOL    HW120654   3.253   4.720  16.406  1.9859 -0.9554 -2.2195
 3007SOL    HW220655   3.166   0.063  16.317 -2.6971 -0.5970  0.7967
 3008SOL     OW20656   4.169   1.262   0.714  0.6873 -0.1903 -0.7030
 3008SOL    HW120657   4.117   1.302   0.644  0.6275  1.1804  0.1251
 3008SOL    HW220658   4.113   1.265   0.791 -1.2624 -1.8327 -2.0331
 3009SOL     OW20659   3.263   2.301   2.524 -0.4112 -0.4028 -0.0452
 3009SOL    HW120660   3.213   2.383   2.519  2.4508  1.2473 -1.3099
 3009SOL    HW220661   3.243   2.250   2.445  1.7061 -1.8868  0.3862
 3010SOL     OW20662   0.404   2.149   9.284  0.0458  0.1269 -0.6532
 3010SOL    HW120663   0.367   2.235   9.267  0.3913  0.3968 -0.0422
 3010SOL    HW220664   0.495   2.164   9.257  0.7133 -0.4209  1.3271
 3011SOL     OW20665   4.121   1.419  12.683 -0.3516  0.4332 -0.4601
 3011SOL    HW120666   4.031   1.413  12.653 -1.4607  2.5993  2.3949
 3011SOL    HW220667   4.162   1.461  12.607  0.2885 -0.0906 -0.4011
 3012SOL     OW20668   2.102   3.867   5.206  0.0493  0.4319  0.4279
 3012SOL    HW120669   2.115   3.845   5.298 -0.5378 -3.6220 -0.4660
 3012SOL    HW220670   2.052   3.795   5.167  1.3085 -0.5810  0.6501
 3013SOL     OW20671   1.010   4.365   3.166  0.3685 -0.0992 -0.2684
 3013SOL    HW120672   0.968   4.448   3.145 -3.0150 -2.2276 -1.8485
 3013SOL    HW220673   0.952   4.301   3.125 -3.2375  0.6863  3.6445
 3014SOL     OW20674   0.242   1.495  16.983  0.2718 -0.2023  0.6541
 3014SOL    HW120675   0.179   1.439  16.937  1.3757 -0.8449 -0.0549
 3014SOL    HW220676   0.316   1.512  16.926 -0.4473  1.0791  0.0939
 3015SOL     OW20677   2.427   1.181  15.862 -0.2929 -0.0350 -0.3848
 3015SOL    HW120678   2.447   1.248  15.797  0.9689 -1.3284 -1.3259
 3015SOL    HW220679   2.455   1.214  15.947 -2.3490 -2.2460  1.1441
 3016SOL     OW20680   2.278   1.672  10.678  0.3861 -0.0607 -0.1338
 3016SOL    HW120681   2.363   1.685  10.637  0.3927 -1.4948 -0.5626
 3016SOL    HW220682   2.212   1.655  10.611  1.6350 -1.9148 -0.8937
 3017SOL     OW20683   4.321   0.939   9.283 -0.3497  0.0137 -0.6840
 3017SOL    HW120684   4.267   0.890   9.346  2.6127  0.0651  1.9096
 3017SOL    HW220685   4.406   0.913   9.319 -1.2975 -0.5729  1.1390
 3018SOL     OW20686   1.783   2.010   7.959  0.4780 -0.1107  0.8943
 3018SOL    HW120687   1.827   2.043   7.882 -0.0475 -0.7762  0.3079
 3018SOL    HW220688   1.746   2.093   7.989 -1.9546 -0.1310 -2.1048
 3019SOL     OW20689   2.663   3.526  11.983 -0.0817  0.0144  0.3514
 3019SOL    HW120690   2.585   3.554  12.031 -0.7795 -3.2653  1.1182
 3019SOL    HW220691   2.727   3.498  12.049  1.1828  0.0057 -0.8703
 3020SOL     OW20692   4.222   3.249  14.909 -0.0624 -0.4847 -0.1239
 3020SOL    HW120693   4.209   3.301  14.830 -1.9552 -1.2751 -0.3299
 3020SOL    HW220694   4.316   3.264  14.923 -0.3075 -0.3397  1.3654
 3021SOL     OW20695   4.521   0.491   4.337 -0.2913  0.0158 -0.5828
 3021SOL    HW120696   4.541   0.402   4.308 -0.8511 -0.5943  0.9312
 3021SOL    HW220697   4.455   0.461   4.400  1.4369 -1.0284  0.7307
 3022SOL     OW20698   3.790   3.027   3.439 -0.0022 -0.7071  0.0238
 3022SOL    HW120699   3.796   3.004   3.346 -0.2283 -0.9909  0.0818
 3022SOL    HW220700   3.739   2.957   3.478  0.2296 -0.6506  0.4292
 3023SOL     OW20701   1.080   3.425  16.009 -0.4962  0.3493  0.1713
 3023SOL    HW120702   1.053   3.429  15.917 -0.7319 -3.5041  0.0901
 3023SOL    HW220703   1.144   3.497  16.001 -1.2579  0.9553 -0.4362
 3024SOL     OW20704   3.625   1.689   3.503 -0.4050  0.0559  0.1777
 3024SOL    HW120705   3.713   1.671   3.470 -0.2248 -1.3208  1.3865
 3024SOL    HW220706   3.592   1.601   3.524  0.3697 -0.4498 -0.7119
 3025SOL     OW20707   2.383   0.763   8.148  0.2941 -0.3736  0.1066
 3025SOL    HW120708   2.451   0.745   8.083 -0.6797  1.0443 -1.3181
 3025SOL    HW220709   2.304   0.767   8.095 -1.0545  1.8454  2.2938
 3026SOL     OW20710   1.766   1.565   6.728 -0.4293  0.1525 -0.0075
 3026SOL    HW120711   1.747   1.481   6.769  0.8236  1.0050  2.2872
 3026SOL    HW220712   1.806   1.618   6.797  1.1838  0.8900 -1.4850
 3027SOL     OW20713   4.369   3.830   8.920 -0.4096  0.1078 -0.1192
 3027SOL    HW120714   4.384   3.923   8.932 -2.7440  0.3785  0.8316
 3027SOL    HW220715   4.286   3.836   8.871 -0.4951  2.5324  0.3238
 3028SOL     OW20716   2.897   2.788   7.154  0.0240 -0.3300 -0.0012
 3028SOL    HW120717   2.809   2.785   7.116 -0.6376  0.5877  1.4315
 3028SOL    HW220718   2.878   2.801   7.247  0.2385  0.5073 -0.0731
 3029SOL     OW20719   2.235   3.403  17.662 -0.1640  0.0450  0.0318
 3029SOL    HW120720   2.150   3.446  17.661 -0.0243  0.2490 -1.6465
 3029SOL    HW220721   2.264   3.420  17.573 -2.5057  1.5284 -0.4424
 3030SOL     OW20722   3.372   4.422  16.465  0.2266 -0.0252 -0.1642
 3030SOL    HW120723   3.433   4.355  16.497  0.0028 -0.1977 -0.1014
 3030SOL    HW220724   3.429   4.483  16.418  0.9276  0.2308  0.9867
 3031SOL     OW20725   3.684   2.247   2.802 -0.4070  0.3264  0.3497
 3031SOL    HW120726   3.640   2.281   2.724 -1.4115 -2.4631 -0.2889
 3031SOL    HW220727   3.628   2.288   2.867 -1.9099 -0.3829 -0.4849
 3032SOL     OW20728   0.458   1.320   0.916 -0.1913  0.4479  0.0132
 3032SOL    HW120729   0.532   1.308   0.856 -0.5813  1.4825 -0.6674
 3032SOL    HW220730   0.471   1.412   0.935 -1.1711  0.0962  2.3695
 3033SOL     OW20731   1.554   1.776  16.867  0.1809  0.4217 -0.2912
 3033SOL    HW120732   1.581   1.797  16.778 -1.0150  0.6896 -0.5941
 3033SOL    HW220733   1.565   1.681  16.861  1.7878  0.6303 -0.5936
 3034SOL     OW20734   2.776   3.999   5.712  0.0573 -0.2569 -0.5928
 3034SOL    HW120735   2.745   3.950   5.788 -4.0335 -0.5871 -2.4725
 3034SOL    HW220736   2.739   3.946   5.641  0.6210  0.0380 -1.1141
 3035SOL     OW20737   0.476   4.150   3.588  0.0376  0.0410 -0.2628
 3035SOL    HW120738   0.530   4.143   3.667 -0.8534  0.7621  0.3986
 3035SOL    HW220739   0.426   4.230   3.605  0.2231  0.1238 -0.0942
 3036SOL     OW20740   1.324   1.001   9.774  0.2401  0.5299  0.7295
 3036SOL    HW120741   1.284   0.993   9.687 -1.2529 -0.2929  1.4937
 3036SOL    HW220742   1.256   1.019   9.839 -0.3315 -3.0707  1.0838
 3037SOL     OW20743   2.323   1.938  12.266  0.7584 -0.2302  0.6538
 3037SOL    HW120744   2.232   1.948  12.295 -0.0494 -3.0409 -0.9452
 3037SOL    HW220745   2.317   1.850  12.229  0.7475  0.7040 -1.6001
 3038SOL     OW20746   4.666   1.973   9.193 -0.3625  0.0053 -0.1233
 3038SOL    HW120747   4.587   1.976   9.139  0.0728  0.2741 -0.7564
 3038SOL    HW220748   4.666   1.883   9.225  2.0650 -0.3276 -1.0019
 3039SOL     OW20749   1.176   2.040   6.745  0.0239  0.2275 -0.3402
 3039SOL    HW120750   1.117   2.048   6.670  0.2002 -2.7652 -0.7740
 3039SOL    HW220751   1.226   2.122   6.736  0.6932  0.0122  1.3339
 3040SOL     OW20752   1.287   2.102  16.141  0.1442 -0.3880  0.7087
 3040SOL    HW120753   1.368   2.065  16.105  0.1498 -0.9268  1.2620
 3040SOL    HW220754   1.229   2.034  16.106  0.3403 -0.9574  1.4695
 3041SOL     OW20755   0.155   4.323   2.347 -0.1670  0.3713 -0.1122
 3041SOL    HW120756   0.121   4.261   2.282  2.8216 -1.3257 -0.0588
 3041SOL    HW220757   0.155   4.269   2.426 -1.6820 -0.0268 -0.4060
 3042SOL     OW20758   0.174   1.254  10.901 -0.2637 -0.9436  1.0445
 3042SOL    HW120759   0.181   1.213  10.987 -0.3362 -1.6921  0.6952
 3042SOL    HW220760   0.168   1.174  10.849  2.0165 -0.4565  0.0558
 3043SOL     OW20761   1.271   1.131   4.206  0.2405  0.4990 -0.5601
 3043SOL    HW120762   1.240   1.090   4.287 -0.9181 -0.3279 -1.4178
 3043SOL    HW220763   1.348   1.075   4.190 -0.3573 -0.0960 -1.3032
 3044SOL     OW20764   3.608   0.330  14.144 -0.1690 -0.2347  0.2322
 3044SOL    HW120765   3.563   0.305  14.225 -2.3010  0.9377 -0.5828
 3044SOL    HW220766   3.682   0.270  14.143 -1.1979 -1.5656  2.8270
 3045SOL     OW20767   3.305   0.190   9.603  0.4956  0.2590 -0.0249
 3045SOL    HW120768   3.391   0.189   9.563  1.6502  0.1469  2.4572
 3045SOL    HW220769   3.281   0.098   9.608  0.6856  0.1527 -1.1719
 3046SOL     OW20770   4.464   3.604   1.351 -0.1880 -0.2501  0.1362
 3046SOL    HW120771   4.385   3.574   1.307 -1.4090  1.8382  0.9136
 3046SOL    HW220772   4.426   3.688   1.376 -2.2614 -0.6428 -1.6814
 3047SOL     OW20773   0.594   4.656   9.752  0.4581  0.1785  0.2624
 3047SOL    HW120774   0.634   4.585   9.802 -0.6319 -0.9532 -0.4913
 3047SOL    HW220775   0.661   4.672   9.685  0.8589  1.6600  1.0034
 3048SOL     OW20776   2.661   4.676   6.776  0.1812 -0.3151 -0.5226
 3048SOL    HW120777   2.611   4.606   6.734 -2.2919  0.7317  0.6680
 3048SOL    HW220778   2.598   0.012   6.777 -1.7517 -2.0053 -0.4158
 3049SOL     OW20779   0.450   3.270   5.388 -0.0084  0.2745 -0.5879
 3049SOL    HW120780   0.443   3.176   5.402  1.4829  0.0289 -1.4511
 3049SOL    HW220781   0.494   3.261   5.303 -0.1396  0.8315 -0.7110
 3050SOL     OW20782   2.762   4.338   9.162  0.1862 -0.1346 -0.0592
 3050SOL    HW120783   2.836   4.305   9.214 -0.4942 -0.5553  0.6514
 3050SOL    HW220784   2.708   4.362   9.238  0.4074  1.8003 -0.5150
 3051SOL     OW20785   3.649   1.669   0.664 -0.1241 -0.4061  0.3949
 3051SOL    HW120786   3.699   1.722   0.726  1.9466 -0.8911 -0.8733
 3051SOL    HW220787   3.585   1.629   0.722  0.2575 -1.5069  0.0655
 3052SOL     OW20788   0.969   0.456   3.070  0.1563 -0.7486 -0.5740
 3052SOL    HW120789   1.037   0.438   3.005  0.0272  2.5160 -1.5953
 3052SOL    HW220790   0.918   0.526   3.030  0.4559  0.0852  0.4897
 3053SOL     OW20791   0.866   3.676   9.234 -0.1853 -0.0988 -0.2719
 3053SOL    HW120792   0.817   3.605   9.273  1.3067 -1.7158 -1.3166
 3053SOL    HW220793   0.805   3.710   9.169 -0.5084 -1.2013 -0.5470
 3054SOL     OW20794   0.322   3.463   0.025  0.3638 -0.8606 -0.7072
 3054SOL    HW120795   0.295   3.512  17.694  0.7495 -1.2141 -1.0689
 3054SOL    HW220796   0.405   3.428  17.739  1.1099 -1.2543  1.6794
 3055SOL     OW20797   0.145   3.460   3.141 -0.3865  0.2193 -0.5221
 3055SOL    HW120798   0.131   3.545   3.100 -0.9648 -0.0537 -0.8971
 3055SOL    HW220799   0.239   3.457   3.158 -0.2788 -0.3048 -1.2358
 3056SOL     OW20800   2.464   0.685   2.122  0.0829  0.2825 -0.0094
 3056SOL    HW120801   2.374   0.670   2.091 -0.7160  0.8214  2.0155
 3056SOL    HW220802   2.510   0.628   2.060 -1.0011  1.2886 -1.7366
 3057SOL     OW20803   3.386   1.130   7.475 -0.2706 -0.5932  0.2879
 3057SOL    HW120804   3.419   1.123   7.565 -0.0720  3.6037  0.5275
 3057SOL    HW220805   3.371   1.037   7.454 -0.9572 -0.3664 -0.2216
 3058SOL     OW20806   2.463   3.251  17.692  0.0866 -0.3761  0.1727
 3058SOL    HW120807   2.380   3.293  17.669 -2.1930 -5.1551 -0.5605
 3058SOL    HW220808   2.480   3.295   0.029  1.2203 -1.7888  0.7027
 3059SOL     OW20809   4.030   4.473  12.500  0.4918  0.5438  0.0821
 3059SOL    HW120810   4.114   4.507  12.467  0.5526  1.6999  1.4408
 3059SOL    HW220811   4.057   4.436  12.583 -1.0060 -0.9932 -0.1261
 3060SOL     OW20812   0.769   1.965   2.338 -0.1196 -0.3827  0.2680
 3060SOL    HW120813   0.737   1.970   2.428 -1.0621  0.8168 -0.1423
 3060SOL    HW220814   0.859   1.942   2.362 -0.9363 -3.7767  0.0855
 3061SOL     OW20815   4.119   2.685   8.003  0.1735 -0.2828  0.0459
 3061SOL    HW120816   4.141   2.747   7.934 -2.2951  1.1912  0.5637
 3061SOL    HW220817   4.023   2.692   8.005  0.3161  2.0001 -0.4555
 3062SOL     OW20818   2.070   1.683   2.627  0.2463 -0.5607  0.0649
 3062SOL    HW120819   1.988   1.637   2.644 -0.1134 -0.8379 -2.3028
 3062SOL    HW220820   2.046   1.742   2.555  0.0725  0.4880  0.9953
 3063SOL     OW20821   3.104   1.459   4.121 -0.2477 -0.3259 -0.5018
 3063SOL    HW120822   3.041   1.487   4.186  2.9253  0.1165  2.3907
 3063SOL    HW220823   3.116   1.371   4.156  0.0010  0.7149  2.0647
 3064SOL     OW20824   0.754   3.695  16.847  0.3250 -0.0964 -0.9295
 3064SOL    HW120825   0.674   3.664  16.889 -0.0737 -0.3885 -1.8941
 3064SOL    HW220826   0.781   3.769  16.901  0.9733 -0.9422 -0.0869
 3065SOL     OW20827   3.286   1.260   5.985  0.0449  0.3179  0.0593
 3065SOL    HW120828   3.208   1.237   6.037 -0.7901  2.6598 -0.1866
 3065SOL    HW220829   3.263   1.350   5.964  1.2091  0.3888 -0.8858
 3066SOL     OW20830   0.904   4.604   3.018  0.1384 -0.3290  0.2678
 3066SOL    HW120831   0.929   4.690   3.051 -1.1284  1.0278 -2.4041
 3066SOL    HW220832   0.967   4.600   2.946 -1.8495 -1.2687 -1.4011
 3067SOL     OW20833   4.598   3.341   9.466  0.4414  0.7745  0.2659
 3067SOL    HW120834   4.685   3.374   9.443  0.9712 -0.9213 -0.2155
 3067SOL    HW220835   4.633   3.260   9.505 -1.4945 -0.8643 -1.3746
 3068SOL     OW20836   2.646   4.387   7.994  0.2363 -0.2824 -0.2558
 3068SOL    HW120837   2.618   4.297   8.009 -0.0181 -0.2899 -0.8045
 3068SOL    HW220838   2.570   4.437   8.024 -1.3895 -2.3835 -0.9177
 3069SOL     OW20839   4.649   1.720   5.894 -0.1864  0.2233  0.1733
 3069SOL    HW120840   4.555   1.701   5.896  0.0286 -0.6187  1.4312
 3069SOL    HW220841   4.668   1.676   5.811  0.5415 -0.4818  0.7160
 3070SOL     OW20842   2.625   1.523   9.560  0.3279  0.5586  0.0652
 3070SOL    HW120843   2.677   1.549   9.484 -1.0817  2.2660 -0.2974
 3070SOL    HW220844   2.651   1.598   9.614  2.4128 -0.1510  0.0488
 3071SOL     OW20845   3.237   2.572   4.763 -0.4658 -0.2141 -0.2530
 3071SOL    HW120846   3.165   2.522   4.801 -1.4034  1.4122  0.0728
 3071SOL    HW220847   3.273   2.629   4.831  3.2872 -1.3380 -1.2754
 3072SOL     OW20848   2.971   1.606  16.749  0.5017  0.7691  0.1734
 3072SOL    HW120849   2.935   1.694  16.735  1.9209  1.4838  1.0369
 3072SOL    HW220850   2.929   1.576  16.830  0.7312 -0.4871 -0.1820
 3073SOL     OW20851   2.853   0.843   5.771  0.8207  0.4558 -0.0135
 3073SOL    HW120852   2.938   0.859   5.730 -0.3190  2.6494 -1.5041
 3073SOL    HW220853   2.802   0.921   5.748 -1.5089 -1.3570 -0.9867
 3074SOL     OW20854   1.295   0.393   3.925  0.0315  0.0146  0.1061
 3074SOL    HW120855   1.380   0.424   3.956 -0.0299 -0.0512  0.3419
 3074SOL    HW220856   1.238   0.429   3.993  1.4731  0.7063  0.9638
 3075SOL     OW20857   4.280   2.888  11.282  0.2082 -0.2503 -0.1553
 3075SOL    HW120858   4.224   2.817  11.315  1.3707 -1.1182 -0.0323
 3075SOL    HW220859   4.217   2.954  11.251  0.6826  1.2428  2.0848
 3076SOL     OW20860   2.769   0.280   8.290  0.2418 -0.1737  0.5710
 3076SOL    HW120861   2.830   0.207   8.280  1.2440  0.9442 -1.5416
 3076SOL    HW220862   2.811   0.354   8.247  2.0642  0.6268  3.7401
 3077SOL     OW20863   0.677   0.800   2.535 -0.1801 -0.7681  0.5523
 3077SOL    HW120864   0.638   0.714   2.550 -1.2839 -0.2851  0.3926
 3077SOL    HW220865   0.607   0.860   2.511  0.7501 -0.6424 -1.9384
 3078SOL     OW20866   3.674   1.300   1.393  0.6427 -0.6249 -0.0918
 3078SOL    HW120867   3.768   1.284   1.387  0.4716 -1.6430 -0.0056
 3078SOL    HW220868   3.652   1.215   1.429  0.0385  0.0831  1.2151
 3079SOL     OW20869   1.223   3.786   5.934 -0.5214  0.0335  0.8325
 3079SOL    HW120870   1.222   3.690   5.940 -0.6071  0.0105  0.4569
 3079SOL    HW220871   1.273   3.807   6.013  0.2398 -1.6631  0.8097
 3080SOL     OW20872   2.610   3.825   9.092  0.3803 -0.3037 -0.0755
 3080SOL    HW120873   2.632   3.781   9.010  0.5310 -0.1113 -0.1379
 3080SOL    HW220874   2.581   3.754   9.150 -0.0186 -0.2930 -0.2651
 3081SOL     OW20875   4.115   4.198  15.920  1.3143 -0.1248  0.4525
 3081SOL    HW120876   4.078   4.258  15.855 -1.2913 -1.6364  0.5506
 3081SOL    HW220877   4.042   4.141  15.944  1.2699 -0.9137 -1.5577
 3082SOL     OW20878   0.840   1.384   8.262  0.2036  0.3968  0.3624
 3082SOL    HW120879   0.913   1.432   8.224 -0.6110  0.9890 -0.4539
 3082SOL    HW220880   0.890   1.313   8.302 -2.4625 -1.8931 -0.4115
 3083SOL     OW20881   0.037   3.078  12.729 -0.8293 -0.1230  0.2962
 3083SOL    HW120882   0.075   3.088  12.816 -0.1318  0.1342 -0.0339
 3083SOL    HW220883   0.046   3.169  12.702  0.7162 -0.6596 -1.0294
 3084SOL     OW20884   2.267   0.797   8.569  0.6466 -0.0409  0.3057
 3084SOL    HW120885   2.324   0.865   8.533 -0.5973  0.3558 -0.8960
 3084SOL    HW220886   2.181   0.821   8.535 -0.1461  0.3152  2.5384
 3085SOL     OW20887   4.407   0.126   1.698  0.3046 -0.2369  0.3149
 3085SOL    HW120888   4.440   0.045   1.737 -0.1310 -0.7206 -0.3226
 3085SOL    HW220889   4.398   0.097   1.607  2.7062  1.2976 -0.4312
 3086SOL     OW20890   3.227   0.004   5.760 -0.3172 -0.3984  0.4463
 3086SOL    HW120891   3.301   4.716   5.815 -1.2187 -1.2535  1.2916
 3086SOL    HW220892   3.197   4.655   5.729 -0.6586  0.2515 -1.0177
 3087SOL     OW20893   4.699   0.744   7.462  0.5277  0.0976 -0.1200
 3087SOL    HW120894   4.725   0.745   7.370 -0.0636 -1.1624 -0.3027
 3087SOL    HW220895   4.692   0.649   7.475 -1.8368 -0.0542 -2.5475
 3088SOL     OW20896   4.426   1.524   3.662  0.9320 -0.2705  0.1209
 3088SOL    HW120897   4.435   1.586   3.733  1.8044 -1.0880  0.7186
 3088SOL    HW220898   4.370   1.462   3.709 -1.1023 -0.0917 -2.0257
 3089SOL     OW20899   0.923   3.899   9.389  0.0385  0.0013 -0.3899
 3089SOL    HW120900   0.903   3.830   9.325 -1.7960  1.7467 -1.6933
 3089SOL    HW220901   1.005   3.936   9.357 -0.8447  2.0971 -0.2266
 3090SOL     OW20902   2.172   0.538   7.021 -0.1036 -0.4802 -0.2236
 3090SOL    HW120903   2.232   0.510   6.952  0.3678  0.1500 -0.0712
 3090SOL    HW220904   2.199   0.629   7.034 -0.5633 -0.5321  1.1807
 3091SOL     OW20905   4.626   0.356   1.095  0.1165  1.0328  0.2778
 3091SOL    HW120906   4.557   0.391   1.151 -0.0707 -3.0380  2.6109
 3091SOL    HW220907   4.632   0.267   1.130 -0.4930  0.5218 -0.9178
 3092SOL     OW20908   0.672   0.557   5.577 -0.8824  0.3935  0.1146
 3092SOL    HW120909   0.683   0.509   5.660 -0.7725 -1.4919 -0.9943
 3092SOL    HW220910   0.746   0.527   5.524 -0.2538  0.6683  0.8296
 3093SOL     OW20911   0.507   1.305  17.447  0.7758 -0.4796 -0.2126
 3093SOL    HW120912   0.480   1.329  17.536 -0.9365 -0.7507 -0.6576
 3093SOL    HW220913   0.423   1.288  17.403  0.6227  1.3934 -0.6252
 3094SOL     OW20914   4.497   3.773   6.623  0.6323 -0.1824 -0.1076
 3094SOL    HW120915   4.557   3.760   6.696 -2.7978 -1.4219  2.4910
 3094SOL    HW220916   4.447   3.695   6.649 -0.1375  0.3670  0.0542
 3095SOL     OW20917   0.174   3.175   7.108 -0.1980 -0.1607 -0.6736
 3095SOL    HW120918   0.266   3.171   7.131 -0.0414  0.4082 -1.2006
 3095SOL    HW220919   0.155   3.081   7.099 -1.2097 -0.2044  2.0327
 3096SOL     OW20920   2.466   4.194   7.581 -0.1528  0.1114  0.1363
 3096SOL    HW120921   2.524   4.158   7.648 -0.9191 -1.8025 -0.2306
 3096SOL    HW220922   2.415   4.259   7.629 -0.0537  0.0179  0.3694
 3097SOL     OW20923   0.779   3.606   1.208  0.1227 -0.3046 -0.1810
 3097SOL    HW120924   0.857   3.554   1.191 -0.5107 -1.1689 -0.4915
 3097SOL    HW220925   0.784   3.667   1.135  0.4639  0.1175  0.2031
 3098SOL     OW20926   2.799   2.100   4.503 -0.8515  0.1235  0.5285
 3098SOL    HW120927   2.776   2.007   4.512 -0.7968  0.2438  1.9202
 3098SOL    HW220928   2.887   2.100   4.465 -1.4085 -0.8802 -0.7712
 3099SOL     OW20929   4.447   0.965  17.554  0.5567  0.0335 -0.1286
 3099SOL    HW120930   4.352   0.962  17.566  0.8671 -2.7206  1.7858
 3099SOL    HW220931   4.469   0.892  17.613 -1.4131 -1.2928 -1.0338
 3100SOL     OW20932   2.513   1.505  11.297 -0.2558 -0.2134  0.4072
 3100SOL    HW120933   2.476   1.437  11.240  0.7476  0.7360 -1.3836
 3100SOL    HW220934   2.605   1.505  11.269  0.1220  0.6896  1.6096
 3101SOL     OW20935   2.942   3.250  16.565 -0.0984 -0.3629  0.0010
 3101SOL    HW120936   2.899   3.249  16.479  1.3973  1.4617 -0.7819
 3101SOL    HW220937   2.919   3.339  16.594 -0.1615 -0.2654 -0.3458
 3102SOL     OW20938   2.176   3.870  16.115  0.0324 -0.2821  0.4132
 3102SOL    HW120939   2.083   3.870  16.137  0.3497 -1.0210  1.7697
 3102SOL    HW220940   2.181   3.924  16.036  1.1774 -1.0128 -0.0053
 3103SOL     OW20941   2.807   4.627  11.930 -0.9614 -0.0319 -0.1064
 3103SOL    HW120942   2.828   4.705  11.982  0.0560 -0.6894  0.4584
 3103SOL    HW220943   2.889   4.624  11.881 -0.4889  0.4425  0.6614
 3104SOL     OW20944   3.884   2.303  15.253 -0.1655 -0.0933 -0.8042
 3104SOL    HW120945   3.815   2.264  15.198 -1.2766  0.0914  0.4475
 3104SOL    HW220946   3.890   2.387  15.206  3.1407 -0.1421 -0.4003
 3105SOL     OW20947   0.574   3.809   6.230 -0.0988 -0.1353 -0.5831
 3105SOL    HW120948   0.486   3.796   6.266 -0.3353  2.1364 -0.3638
 3105SOL    HW220949   0.546   3.783   6.142 -0.9895  1.5686 -0.8037
 3106SOL     OW20950   4.091   2.147   7.930  0.1920  0.4514  0.1993
 3106SOL    HW120951   4.113   2.058   7.955 -0.9913  0.4117  1.0759
 3106SOL    HW220952   4.133   2.201   7.997  0.3919  0.9153 -0.2878
 3107SOL     OW20953   3.148   3.619   4.240 -0.2443 -0.4631  0.0957
 3107SOL    HW120954   3.124   3.542   4.290  0.7249 -0.1210  1.0897
 3107SOL    HW220955   3.064   3.642   4.200  0.0137  1.1171  0.4545
 3108SOL     OW20956   3.950   3.203   6.296 -0.7061 -0.1461  0.2296
 3108SOL    HW120957   4.039   3.190   6.328 -0.8949 -0.0623  0.7868
 3108SOL    HW220958   3.961   3.159   6.212 -2.6158 -2.3387  1.1253
 3109SOL     OW20959   0.793   4.590   2.315  0.1820  0.1764 -0.0416
 3109SOL    HW120960   0.830   4.612   2.229 -1.4923 -1.0234 -1.0612
 3109SOL    HW220961   0.716   4.539   2.290 -0.3312  1.1512 -0.4765
 3110SOL     OW20962   1.261   3.764  17.508 -0.2233  0.4715  0.2262
 3110SOL    HW120963   1.174   3.787  17.542  0.3968 -0.5320  2.5175
 3110SOL    HW220964   1.270   3.668  17.508  2.2364  0.7192 -0.8174
 3111SOL     OW20965   3.134   3.335   7.647 -0.3295  0.1219 -0.1449
 3111SOL    HW120966   3.179   3.256   7.679  1.1439 -0.3348 -3.3073
 3111SOL    HW220967   3.197   3.401   7.676  0.2074 -1.7539  2.9452
 3112SOL     OW20968   1.395   0.497   0.748 -0.3739  0.7209 -0.6921
 3112SOL    HW120969   1.482   0.511   0.786 -0.6996 -0.5732  0.4962
 3112SOL    HW220970   1.422   0.452   0.668  1.5798 -0.1662  0.4868
 3113SOL     OW20971   1.192   3.823   8.018 -0.5697 -0.2812  0.2231
 3113SOL    HW120972   1.145   3.906   8.027  0.5673  0.3710  0.1474
 3113SOL    HW220973   1.250   3.845   7.945 -0.4140  1.1576  0.7888
 3114SOL     OW20974   2.702   3.599   1.169  0.2610  0.4879  0.0180
 3114SOL    HW120975   2.642   3.569   1.100 -2.3987  0.9155  2.1455
 3114SOL    HW220976   2.718   3.519   1.218  1.9997  0.5402 -0.4637
 3115SOL     OW20977   2.465   4.385   5.567 -0.0591 -0.6176 -0.0315
 3115SOL    HW120978   2.383   4.429   5.543 -1.0570 -2.6772 -0.4308
 3115SOL    HW220979   2.510   4.395   5.483 -0.4805  0.8102 -0.0915
 3116SOL     OW20980   2.999   1.911   3.743 -0.0440 -0.3234  0.0283
 3116SOL    HW120981   2.928   1.867   3.696  2.3216 -3.9466 -0.1223
 3116SOL    HW220982   3.064   1.899   3.673 -1.0490  1.2283 -1.1789
 3117SOL     OW20983   1.031   0.822  12.178  0.9122  0.3615 -0.5136
 3117SOL    HW120984   1.115   0.849  12.142  0.9024  0.6200 -0.3400
 3117SOL    HW220985   1.023   0.728  12.162  0.4331 -0.0428  2.2158
 3118SOL     OW20986   3.789   0.870   2.544 -0.1123 -0.2741  0.2623
 3118SOL    HW120987   3.779   0.940   2.478  1.0906 -0.5117 -0.1683
 3118SOL    HW220988   3.699   0.839   2.549 -0.3475  0.3886  0.1770
 3119SOL     OW20989   4.038   1.909   0.216  0.7997 -0.6726 -0.0903
 3119SOL    HW120990   4.060   1.996   0.249 -0.5653 -0.8768  1.3594
 3119SOL    HW220991   3.958   1.889   0.265  1.6924  0.8892  2.0125
 3120SOL     OW20992   3.674   2.357  13.992  0.0586 -0.5733  0.2358
 3120SOL    HW120993   3.750   2.402  13.956 -2.3904  1.1698 -2.8784
 3120SOL    HW220994   3.611   2.417  13.951  1.6710 -0.0957 -1.5431
 3121SOL     OW20995   2.067   1.925   5.700 -0.2792 -0.4169 -0.0171
 3121SOL    HW120996   2.093   1.956   5.613 -1.6894 -1.2951 -0.7555
 3121SOL    HW220997   1.994   1.981   5.725  0.0110 -0.7421  1.5215
 3122SOL     OW20998   3.012   4.126   9.660 -0.6493 -0.0214 -0.0609
 3122SOL    HW120999   2.979   4.101   9.574 -0.5805 -0.4573  0.0385
 3122SOL    HW221000   2.968   4.058   9.711 -1.5307  2.0516  1.9323
 3123SOL     OW21001   4.264   3.076   2.951 -0.3049  0.5407 -0.1877
 3123SOL    HW121002   4.259   3.028   2.868  2.0511 -1.0987  0.6172
 3123SOL    HW221003   4.175   3.094   2.980 -0.6073 -2.4289  0.7724
 3124SOL     OW21004   4.337   2.848  11.559 -0.0071 -0.3533  0.0425
 3124SOL    HW121005   4.364   2.793  11.486 -0.7744  1.6850 -1.7653
 3124SOL    HW221006   4.381   2.928  11.531  0.8639 -0.6124  0.6458
 3125SOL     OW21007   4.539   3.310   1.333 -0.4003  0.6815  0.1970
 3125SOL    HW121008   4.629   3.330   1.308 -0.3448 -0.7437 -0.7666
 3125SOL    HW221009   4.498   3.396   1.340  0.4529  1.0569  0.6546
 3126SOL     OW21010   2.352   4.092  13.505 -0.7094 -0.3625 -0.4603
 3126SOL    HW121011   2.308   4.119  13.586  2.3193  0.9166  0.7747
 3126SOL    HW221012   2.309   4.132  13.430 -1.8007 -1.4639 -0.4257
 3127SOL     OW21013   3.185   3.175   8.156  0.0777  0.0975  0.2467
 3127SOL    HW121014   3.198   3.266   8.130  1.3990 -0.2312 -0.2463
 3127SOL    HW221015   3.149   3.178   8.245  0.7134  0.6364  0.4887
 3128SOL     OW21016   2.852   0.560   5.816  0.1640 -0.4836 -0.7823
 3128SOL    HW121017   2.891   0.547   5.729 -1.9520  0.7333 -1.8949
 3128SOL    HW221018   2.822   0.650   5.806  0.6359 -0.2832 -0.4324
 3129SOL     OW21019   0.905   1.521  11.468  0.0668  0.2970 -0.2673
 3129SOL    HW121020   0.951   1.492  11.546  2.2680 -1.5141 -2.2134
 3129SOL    HW221021   0.892   1.441  11.416 -1.9251  0.6163 -0.2757
 3130SOL     OW21022   3.908   4.629   1.130 -0.0273 -0.2538 -0.0570
 3130SOL    HW121023   3.940   4.573   1.060 -1.7558 -0.5068 -0.6528
 3130SOL    HW221024   3.843   4.571   1.169 -0.0092  0.0555  0.4377
 3131SOL     OW21025   3.893   2.894   8.120 -0.1927  0.2602  0.2850
 3131SOL    HW121026   3.808   2.899   8.164 -1.6887 -1.4750 -2.4159
 3131SOL    HW221027   3.875   2.816   8.067  2.1171  1.3204 -2.0662
 3132SOL     OW21028   3.284   3.292  14.415  0.3733  0.2428  0.0451
 3132SOL    HW121029   3.209   3.290  14.475  0.8748 -0.9913  0.6341
 3132SOL    HW221030   3.260   3.360  14.352  1.6712 -0.4222 -1.1670
 3133SOL     OW21031   4.036   3.465   1.317  0.4444 -0.0352 -0.4032
 3133SOL    HW121032   3.973   3.393   1.310  0.7146 -0.0666 -2.5110
 3133SOL    HW221033   3.978   3.524   1.366 -0.0756 -2.4199  1.8568
 3134SOL     OW21034   1.323   1.931   3.055 -0.4024  0.3205 -0.7609
 3134SOL    HW121035   1.380   1.951   3.129 -1.2089 -0.0430 -0.0518
 3134SOL    HW221036   1.370   1.854   3.022 -0.8617  0.1762 -1.0817
 3135SOL     OW21037   0.060   0.563   3.805  0.3586  0.1314 -0.0418
 3135SOL    HW121038   0.123   0.580   3.875  0.0563  1.6561 -0.1388
 3135SOL    HW221039   0.079   0.469   3.810  0.8581  0.2628  0.6183
 3136SOL     OW21040   0.212   0.062   9.208 -0.8356 -0.4542  0.3618
 3136SOL    HW121041   0.302   0.092   9.217 -1.3826  0.7953  1.6560
 3136SOL    HW221042   0.196   0.019   9.292  1.0662 -0.5725  0.6600
 3137SOL     OW21043   3.812   2.196   3.124 -0.6750 -0.2762  0.2960
 3137SOL    HW121044   3.785   2.134   3.056 -2.3180  0.4280  0.2887
 3137SOL    HW221045   3.769   2.170   3.205 -0.3729  0.9339  0.8407
 3138SOL     OW21046   0.469   3.842   3.741  0.5635  0.2402 -0.2635
 3138SOL    HW121047   0.501   3.808   3.658 -1.6746 -2.1876 -0.1525
 3138SOL    HW221048   0.377   3.822   3.725  0.0587  0.7862  1.9106
 3139SOL     OW21049   3.738   0.219   8.197  0.1203 -0.4591 -0.4448
 3139SOL    HW121050   3.658   0.204   8.146  0.4383 -2.7113 -0.2884
 3139SOL    HW221051   3.737   0.147   8.260  1.2017  0.5842  0.7588
 3140SOL     OW21052   1.376   3.487   2.206 -0.3292  0.1472 -0.1355
 3140SOL    HW121053   1.398   3.506   2.297 -0.3603 -0.4850  0.0011
 3140SOL    HW221054   1.298   3.432   2.211 -0.6324  0.6080  0.2785
 3141SOL     OW21055   2.787   1.384   7.307  0.5088  0.1026  0.6181
 3141SOL    HW121056   2.792   1.431   7.390  0.0368 -0.4739  0.9754
 3141SOL    HW221057   2.846   1.311   7.326 -1.9571 -1.7672  1.0998
 3142SOL     OW21058   1.823   4.269   9.478 -0.2168 -0.1348  0.1589
 3142SOL    HW121059   1.743   4.322   9.470  0.6246  1.1779  0.4322
 3142SOL    HW221060   1.792   4.184   9.447  2.4445 -0.9844 -0.1865
 3143SOL     OW21061   0.765   3.445   1.508  0.0066 -0.1412 -0.1336
 3143SOL    HW121062   0.827   3.375   1.527  0.6616  0.3299 -0.5155
 3143SOL    HW221063   0.759   3.478   1.598  0.4987  1.2926 -0.6257
 3144SOL     OW21064   0.759   4.614   3.388  0.1110 -0.8044  0.1840
 3144SOL    HW121065   0.771   4.708   3.398 -1.4239 -0.3279 -2.5141
 3144SOL    HW221066   0.830   4.569   3.434 -0.2862 -0.7831  0.8192
 3145SOL     OW21067   3.637   4.434   6.955 -0.0411  0.0936 -0.1423
 3145SOL    HW121068   3.659   4.426   6.862  1.3311 -1.6238  0.3347
 3145SOL    HW221069   3.549   4.467   6.938 -0.7632 -1.8101 -0.0605
 3146SOL     OW21070   0.675   4.083   4.618  0.1968  0.1766  0.2310
 3146SOL    HW121071   0.627   4.035   4.686 -0.2219 -0.5740 -0.5933
 3146SOL    HW221072   0.631   4.168   4.616  1.4379  0.8188  0.0628
 3147SOL     OW21073   1.428   0.577   8.696 -0.1196 -0.0866  0.0565
 3147SOL    HW121074   1.456   0.655   8.743 -0.4754  0.5659 -0.8010
 3147SOL    HW221075   1.513   0.534   8.689 -0.2824  0.1038 -3.2867
 3148SOL     OW21076   2.638   2.921  12.637 -0.1395  0.0039  0.5771
 3148SOL    HW121077   2.722   2.944  12.677 -0.0933  1.5634 -0.4210
 3148SOL    HW221078   2.638   2.826  12.628  2.9825  0.1246 -0.7009
 3149SOL     OW21079   0.763   3.056  10.101 -0.2383 -0.7016 -0.1872
 3149SOL    HW121080   0.821   3.018  10.167 -1.9770  0.3771  1.9238
 3149SOL    HW221081   0.816   3.037  10.023 -0.9219 -4.2025  0.1958
 3150SOL     OW21082   3.474   0.666  13.891  0.0071 -0.2935  0.4744
 3150SOL    HW121083   3.562   0.685  13.859 -0.6203  0.7992 -0.6168
 3150SOL    HW221084   3.474   0.745  13.946  0.2198 -0.4176  0.6521
 3151SOL     OW21085   3.989   2.178   0.063  0.0825  0.1352 -0.2158
 3151SOL    HW121086   3.968   2.170   0.156 -0.9369 -3.4683 -0.7482
 3151SOL    HW221087   3.994   2.269   0.036 -2.1782 -0.2328 -1.8481
 3152SOL     OW21088   4.078   4.177   6.067 -0.5291  0.5163  0.1874
 3152SOL    HW121089   4.104   4.151   6.155 -2.3332 -0.3509  0.4676
 3152SOL    HW221090   3.998   4.127   6.048  0.2002 -0.7333  0.4300
 3153SOL     OW21091   2.331   1.014  15.483  0.0903  0.0131  0.3698
 3153SOL    HW121092   2.343   0.951  15.412 -1.8929 -0.5455  0.5304
 3153SOL    HW221093   2.423   1.031  15.502 -0.2424  0.1743  1.7944
 3154SOL     OW21094   3.648   1.114  10.788  0.3056  0.6701 -0.2839
 3154SOL    HW121095   3.588   1.138  10.718  0.6058 -0.7638 -1.0500
 3154SOL    HW221096   3.606   1.036  10.824 -0.4062 -0.1438 -2.8532
 3155SOL     OW21097   0.987   2.188   3.989  0.1074 -0.1772  0.2958
 3155SOL    HW121098   0.965   2.233   4.070  0.6150  2.4512 -1.0293
 3155SOL    HW221099   0.937   2.243   3.929 -0.9523 -0.3573  1.0219
 3156SOL     OW21100   3.771   0.301   7.686 -0.1059 -0.7049  0.0285
 3156SOL    HW121101   3.814   0.263   7.762  2.6271  1.1828 -0.5572
 3156SOL    HW221102   3.793   0.394   7.694 -2.8286 -0.1733  1.0262
 3157SOL     OW21103   2.279   0.123  17.209 -0.2486 -0.4103 -0.1659
 3157SOL    HW121104   2.252   0.139  17.118 -3.4057 -1.5621  0.5549
 3157SOL    HW221105   2.373   0.114  17.197 -0.0932  0.0186  0.7397
 3158SOL     OW21106   1.852   0.550   2.087  0.1522 -0.2148 -0.0787
 3158SOL    HW121107   1.770   0.532   2.041 -0.2515  0.5154  0.3593
 3158SOL    HW221108   1.865   0.638   2.051  0.0283 -0.3335 -0.4090
 3159SOL     OW21109   2.871   3.247  14.609 -0.1358  0.1012 -0.1684
 3159SOL    HW121110   2.904   3.329  14.571  0.1824  0.0319 -0.0359
 3159SOL    HW221111   2.879   3.280  14.698 -0.7445  2.1891 -0.8647
 3160SOL     OW21112   4.158   2.891   8.437  0.1231  0.1815  0.1070
 3160SOL    HW121113   4.079   2.865   8.484  0.7279  0.2430  1.1569
 3160SOL    HW221114   4.193   2.806   8.411  0.3845  0.7290 -1.2841
 3161SOL     OW21115   0.544   4.291   7.173  0.1744  0.2417  0.3726
 3161SOL    HW121116   0.493   4.318   7.097  2.7051 -0.8513 -1.7142
 3161SOL    HW221117   0.493   4.329   7.244 -0.8849 -2.6770  1.1867
 3162SOL     OW21118   2.613   4.547   7.725 -0.3365 -0.2404 -0.0766
 3162SOL    HW121119   2.634   4.540   7.819  0.5157 -0.0050 -0.2476
 3162SOL    HW221120   2.549   4.477   7.720 -1.7751  0.8225  2.8377
 3163SOL     OW21121   2.931   1.424  14.057  0.2450  0.0141 -0.6924
 3163SOL    HW121122   2.866   1.358  14.081  1.5250 -1.3110 -0.8817
 3163SOL    HW221123   3.015   1.388  14.084  0.5114  1.5737  0.5419
 3164SOL     OW21124   3.623   1.518   1.623 -0.3248 -0.3539 -0.5881
 3164SOL    HW121125   3.642   1.465   1.546 -1.6370 -0.1556 -1.0441
 3164SOL    HW221126   3.691   1.585   1.613 -0.5455 -0.1225 -0.5508
 3165SOL     OW21127   1.630   3.239   2.629  0.5900 -0.3299  0.0826
 3165SOL    HW121128   1.538   3.218   2.646  0.2670 -0.0275 -1.2863
 3165SOL    HW221129   1.624   3.332   2.650  3.0915  0.4548 -2.6950
 3166SOL     OW21130   3.610   1.823   3.998 -0.1363 -0.4692 -0.3737
 3166SOL    HW121131   3.701   1.830   3.967  0.0736  1.0078  0.5600
 3166SOL    HW221132   3.585   1.908   3.962 -0.6930  0.6768  2.7525
 3167SOL     OW21133   3.927   0.344   1.037 -0.2812 -0.1517  0.4791
 3167SOL    HW121134   3.865   0.276   1.064 -0.5910 -0.4764 -1.0433
 3167SOL    HW221135   3.971   0.366   1.119  1.0708  1.5717 -0.6936
 3168SOL     OW21136   2.059   3.216   1.861 -0.4964 -0.3917  0.0001
 3168SOL    HW121137   2.092   3.222   1.950  0.1758  0.0063 -0.2795
 3168SOL    HW221138   1.967   3.239   1.872 -0.6699  0.8706 -4.0089
 3169SOL     OW21139   3.532   3.741   6.081  0.6731  0.2967 -0.0384
 3169SOL    HW121140   3.531   3.834   6.059 -0.1625  0.4713  0.7235
 3169SOL    HW221141   3.608   3.744   6.139  1.6036  0.9311 -1.2971
 3170SOL     OW21142   2.014   1.999   6.864  0.3440 -0.2864 -0.6652
 3170SOL    HW121143   2.011   1.914   6.819 -2.5334  0.2681 -1.5332
 3170SOL    HW221144   1.999   2.058   6.790 -0.8265  1.3177  0.8563
 3171SOL     OW21145   4.669   0.119   1.351 -0.1605 -0.0682  0.5501
 3171SOL    HW121146   4.610   0.097   1.279  1.0964 -2.1370  0.1704
 3171SOL    HW221147   4.650   0.045   1.409 -0.7277 -1.5702 -1.5741
 3172SOL     OW21148   2.487   3.233   4.486 -0.5002  0.0207 -0.0074
 3172SOL    HW121149   2.542   3.208   4.411  1.5372 -0.2100  1.5739
 3172SOL    HW221150   2.548   3.248   4.558 -1.3552 -2.2697  1.1484
 3173SOL     OW21151   1.850   2.739  12.014 -0.2990 -0.4248 -0.4114
 3173SOL    HW121152   1.835   2.665  12.073  0.3620  0.1758  0.5026
 3173SOL    HW221153   1.937   2.720  11.978 -0.4441  1.9973 -2.0232
 3174SOL     OW21154   3.815   1.714   2.770 -0.0951  0.1626 -0.4276
 3174SOL    HW121155   3.854   1.776   2.832  0.2715 -0.0486 -0.4512
 3174SOL    HW221156   3.750   1.769   2.726  0.2403  2.2885  1.7421
 3175SOL     OW21157   0.575   2.117   3.909 -0.4069  0.4929 -0.3034
 3175SOL    HW121158   0.550   2.058   3.980 -0.2669 -1.5755 -1.9774
 3175SOL    HW221159   0.535   2.197   3.942  0.7010  1.2137 -0.6876
 3176SOL     OW21160   1.801   4.535   8.243  0.1849 -0.0293  0.2056
 3176SOL    HW121161   1.822   4.443   8.227  2.2105  0.9084 -2.4666
 3176SOL    HW221162   1.871   4.560   8.303  0.3255 -1.1063  0.4861
 3177SOL     OW21163   0.841   3.829   4.782  0.0262 -0.2512 -0.1401
 3177SOL    HW121164   0.802   3.759   4.730 -0.2897 -0.4751  0.3954
 3177SOL    HW221165   0.883   3.882   4.715 -2.0038 -0.4585 -1.5736
 3178SOL     OW21166   2.941   3.023   2.287 -0.3348 -0.0158  0.2617
 3178SOL    HW121167   2.903   3.060   2.207 -0.7993 -1.2421 -0.0809
 3178SOL    HW221168   2.857   2.994   2.322 -0.7975  0.1168 -0.7411
 3179SOL     OW21169   4.430   4.473   5.145  0.4134 -0.2958  0.3107
 3179SOL    HW121170   4.483   4.405   5.188 -0.0421 -0.7303  0.1859
 3179SOL    HW221171   4.384   4.422   5.079  0.9521 -0.7596  0.2937
 3180SOL     OW21172   3.124   3.497   7.400 -0.2272 -0.2358  0.7560
 3180SOL    HW121173   3.048   3.444   7.377 -1.7140  1.2218  2.2774
 3180SOL    HW221174   3.083   3.579   7.426  0.6916  0.2353  0.7191
 3181SOL     OW21175   1.666   2.693   4.766  0.4293  0.0696  0.0423
 3181SOL    HW121176   1.627   2.674   4.681 -1.8684  1.7266  0.7398
 3181SOL    HW221177   1.642   2.618   4.819  0.8311  1.1097  1.6995
 3182SOL     OW21178   2.419   2.678   9.405  0.3429 -0.2588 -0.6815
 3182SOL    HW121179   2.349   2.623   9.439  1.1011 -0.3778  0.7269
 3182SOL    HW221180   2.395   2.683   9.313 -3.4704 -0.2695  0.3305
 3183SOL     OW21181   2.410   1.135   9.672  0.8993  0.2256  0.2681
 3183SOL    HW121182   2.402   1.225   9.641  2.5474  0.3051  0.0469
 3183SOL    HW221183   2.489   1.109   9.625  0.9184  1.4276 -0.3706
 3184SOL     OW21184   4.112   0.790  15.760 -0.5432  0.1976  0.0292
 3184SOL    HW121185   4.065   0.760  15.838  1.9540 -0.5204  1.2837
 3184SOL    HW221186   4.077   0.726  15.699  0.3351  0.2823 -0.5620
 3185SOL     OW21187   1.546   4.693  13.401  0.3087  0.2655  0.2869
 3185SOL    HW121188   1.478   0.023  13.398  2.1141  2.0214 -1.3453
 3185SOL    HW221189   1.608   4.721  13.334  1.0285  0.3520  0.9909
 3186SOL     OW21190   0.512   2.892   3.366 -0.7337 -0.2388 -0.0823
 3186SOL    HW121191   0.602   2.863   3.373 -0.3903  0.4688 -1.4222
 3186SOL    HW221192   0.494   2.948   3.442  0.4765 -2.8853  2.1310
 3187SOL     OW21193   3.599   2.256   8.733  0.0069 -0.4240 -0.0029
 3187SOL    HW121194   3.656   2.184   8.708  0.3651 -0.0301 -0.3153
 3187SOL    HW221195   3.650   2.334   8.711 -1.0746  0.0918 -0.6802
 3188SOL     OW21196   3.896   0.485  10.806  0.0934 -0.4518  0.1421
 3188SOL    HW121197   3.881   0.391  10.797  0.4145 -0.4279 -0.6620
 3188SOL    HW221198   3.986   0.471  10.838  0.9888  0.5931 -1.9409
 3189SOL     OW21199   2.679   1.264   2.687 -0.4439  0.4202  0.7717
 3189SOL    HW121200   2.608   1.312   2.729  0.2192  1.0329  1.1856
 3189SOL    HW221201   2.756   1.310   2.720 -2.0129  2.9863  0.8270
 3190SOL     OW21202   2.778   1.952   4.825  0.0933  0.0688  0.4605
 3190SOL    HW121203   2.727   1.922   4.750  0.1572 -0.0126  0.4490
 3190SOL    HW221204   2.816   1.868   4.849 -0.8649  0.2976  2.7185
 3191SOL     OW21205   3.555   1.768   7.070 -0.6754  0.0839 -0.1661
 3191SOL    HW121206   3.573   1.838   7.006  0.8380 -0.7077 -0.6046
 3191SOL    HW221207   3.638   1.722   7.056  0.7612  2.3762  0.6117
 3192SOL     OW21208   3.056   0.793   1.370 -0.7528 -0.2726 -0.0577
 3192SOL    HW121209   3.130   0.795   1.310  0.0564 -0.6731  0.9428
 3192SOL    HW221210   3.005   0.864   1.330 -2.2817 -2.4162 -1.9324
 3193SOL     OW21211   3.359   3.369   7.276 -0.0955 -0.4670  0.7772
 3193SOL    HW121212   3.291   3.383   7.209 -0.5254 -1.3546  1.0297
 3193SOL    HW221213   3.297   3.379   7.348 -0.8738 -0.3774  0.1031
 3194SOL     OW21214   0.773   1.224  14.031 -0.0883 -0.1655 -0.1585
 3194SOL    HW121215   0.736   1.137  14.014  0.0109 -0.0577 -0.9305
 3194SOL    HW221216   0.740   1.281  13.961 -0.6815 -1.0555 -0.6127
 3195SOL     OW21217   2.791   0.653   9.816 -0.3670  0.6610  0.1458
 3195SOL    HW121218   2.807   0.729   9.760  0.1461  0.7363  0.3924
 3195SOL    HW221219   2.695   0.654   9.813 -0.3965 -2.8312 -0.2735
 3196SOL     OW21220   4.536   3.924   5.534  0.8075 -0.0260 -0.1401
 3196SOL    HW121221   4.586   3.949   5.612 -0.0371  2.8736 -0.5406
 3196SOL    HW221222   4.479   4.000   5.520  0.6427 -0.4067 -1.5590
 3197SOL     OW21223   1.234   4.644   1.563 -0.2633 -0.0971 -0.1584
 3197SOL    HW121224   1.138   4.647   1.568 -0.1506  1.6910  0.6992
 3197SOL    HW221225   1.242   4.593   1.644  0.1133 -1.7630 -1.2509
 3198SOL     OW21226   0.056   1.423   7.424  0.2050 -0.0757  0.5335
 3198SOL    HW121227   0.025   1.472   7.348  0.8254  1.6120  1.3560
 3198SOL    HW221228   0.100   1.349   7.383 -0.4463  1.7626 -3.4146
 3199SOL     OW21229   2.181   2.268   5.116 -0.1221 -0.1229  0.4869
 3199SOL    HW121230   2.107   2.232   5.066  0.0852 -0.9705  0.7806
 3199SOL    HW221231   2.217   2.327   5.051 -2.3315  0.5215 -0.1716
 3200SOL     OW21232   1.062   3.856  11.678 -0.7598 -0.0842  0.0721
 3200SOL    HW121233   1.032   3.856  11.769 -1.4942  0.0748 -0.1727
 3200SOL    HW221234   1.035   3.770  11.643 -1.7540  0.5827 -0.8022
 3201SOL     OW21235   3.749   0.831   5.474 -0.4966 -0.3585 -0.0609
 3201SOL    HW121236   3.826   0.776   5.488  0.0393 -0.0352 -1.7693
 3201SOL    HW221237   3.775   0.910   5.522 -0.0747 -0.8963  0.5904
 3202SOL     OW21238   1.759   3.636   6.354  0.3378  0.3646  0.7210
 3202SOL    HW121239   1.825   3.643   6.423  0.9675 -0.7326  0.2406
 3202SOL    HW221240   1.817   3.646   6.279  0.3341 -1.6415  0.4300
 3203SOL     OW21241   4.173   1.474  13.274 -0.1669 -0.0598  0.1052
 3203SOL    HW121242   4.214   1.478  13.188  0.0326 -0.1874  0.1932
 3203SOL    HW221243   4.104   1.408  13.267 -1.1362  1.0484 -0.6335
 3204SOL     OW21244   3.272   3.723   7.067 -0.5514  0.3114  0.7280
 3204SOL    HW121245   3.312   3.794   7.017  0.5035 -0.7953 -0.0221
 3204SOL    HW221246   3.344   3.670   7.100 -1.5637 -1.8194 -0.4456
 3205SOL     OW21247   0.614   2.148   6.019 -0.2201 -0.3961 -0.3272
 3205SOL    HW121248   0.579   2.059   6.022 -0.4542 -0.3628 -1.8163
 3205SOL    HW221249   0.638   2.159   6.111 -2.2549  2.9712 -0.1922
 3206SOL     OW21250   1.578   0.205   4.145  0.9246  0.2270  0.1351
 3206SOL    HW121251   1.520   0.252   4.205  0.6376 -0.0942  0.1078
 3206SOL    HW221252   1.666   0.223   4.178  0.5047  3.6123 -0.6216
 3207SOL     OW21253   3.061   0.560  17.518 -0.4248 -0.2293 -0.2213
 3207SOL    HW121254   3.041   0.473  17.483  1.3436  0.2810 -2.5481
 3207SOL    HW221255   3.029   0.548  17.608  0.6762 -2.8324 -0.1818
 3208SOL     OW21256   1.754   1.582   5.901 -0.0354  0.3825  0.1805
 3208SOL    HW121257   1.684   1.587   5.836  0.3729  2.0039 -0.1270
 3208SOL    HW221258   1.743   1.667   5.943 -0.8049  0.8833 -1.0463
 3209SOL     OW21259   0.160   2.017  11.646 -0.4124  0.1151  0.1590
 3209SOL    HW121260   0.087   2.004  11.707  0.0774 -3.7444 -0.1033
 3209SOL    HW221261   0.133   1.962  11.572  1.7467 -2.1691  1.0574
 3210SOL     OW21262   1.053   2.292   2.303 -0.2070  0.1941  0.7651
 3210SOL    HW121263   1.079   2.201   2.321  1.9886  0.2435 -2.1547
 3210SOL    HW221264   0.983   2.304   2.368 -1.3055 -0.4004 -0.3141
 3211SOL     OW21265   4.126   1.087   7.248  0.2159  0.0080 -0.2472
 3211SOL    HW121266   4.088   1.162   7.294  0.1902 -0.7654  0.9770
 3211SOL    HW221267   4.141   1.019   7.314  0.1521  2.1674  1.9960
 3212SOL     OW21268   2.665   2.319   4.228  0.0281  0.4566 -0.6051
 3212SOL    HW121269   2.631   2.406   4.249 -1.1286 -0.1279 -0.0380
 3212SOL    HW221270   2.751   2.342   4.193 -0.0630  0.7160 -0.6575
 3213SOL     OW21271   1.647   2.777   7.232 -0.1064 -0.0344  0.5944
 3213SOL    HW121272   1.604   2.799   7.314  0.6126  0.6530  0.7847
 3213SOL    HW221273   1.708   2.710   7.263  0.4890 -0.5410 -1.6655
 3214SOL     OW21274   2.652   0.512   8.889  0.9419 -0.1075 -0.2911
 3214SOL    HW121275   2.695   0.466   8.817  2.0134  0.4972 -0.0471
 3214SOL    HW221276   2.723   0.533   8.949  0.3270 -1.0165  0.7347
 3215SOL     OW21277   2.578   0.436  17.335 -0.3956  0.4007 -0.4137
 3215SOL    HW121278   2.666   0.444  17.300  0.2580  0.2748  1.2061
 3215SOL    HW221279   2.584   0.425  17.430 -1.8804 -2.2820 -0.6332
 3216SOL     OW21280   1.946   1.695  11.381  0.0706 -0.0345 -0.3616
 3216SOL    HW121281   1.945   1.678  11.476 -0.8284 -0.8617 -0.5201
 3216SOL    HW221282   1.999   1.622  11.349 -2.5749 -1.3679 -1.6407
 3217SOL     OW21283   1.603   0.435  15.426 -0.1398 -0.2794 -0.5723
 3217SOL    HW121284   1.628   0.364  15.484  1.0103  1.0156  0.5320
 3217SOL    HW221285   1.677   0.497  15.429  0.6031 -1.2083  0.2657
 3218SOL     OW21286   2.702   3.198   3.140  0.5128 -0.2721 -0.4601
 3218SOL    HW121287   2.748   3.279   3.161 -0.3163  0.0404  0.1731
 3218SOL    HW221288   2.627   3.202   3.199  1.9985  0.6409  1.3423
 3219SOL     OW21289   2.954   0.964   4.566 -0.1790 -0.2106 -0.2008
 3219SOL    HW121290   3.017   0.894   4.550  1.9185  1.3293  1.3677
 3219SOL    HW221291   2.967   0.974   4.660  0.3628  0.1213 -0.3088
 3220SOL     OW21292   0.476   0.725  15.748  0.0825 -0.6603  0.4277
 3220SOL    HW121293   0.435   0.792  15.802  0.6311  0.1989 -0.2278
 3220SOL    HW221294   0.538   0.687  15.811  2.3042  1.5712 -0.4035
 3221SOL     OW21295   2.738   3.829   5.906  0.3334  0.0180  0.1192
 3221SOL    HW121296   2.783   3.821   5.989  0.2605 -1.1853  0.0486
 3221SOL    HW221297   2.713   3.737   5.902  1.3710 -0.3010  1.2496
 3222SOL     OW21298   2.609   4.482   4.655  0.0019 -0.0753  0.4057
 3222SOL    HW121299   2.582   4.572   4.675 -2.4078 -1.1769  2.1666
 3222SOL    HW221300   2.680   4.500   4.594 -0.7232  0.1914 -0.3540
 3223SOL     OW21301   0.153   4.206  14.820 -1.0007  0.1895 -0.2215
 3223SOL    HW121302   0.107   4.266  14.879 -0.4435 -0.2327  0.6313
 3223SOL    HW221303   0.121   4.117  14.835  1.3515  0.0974  4.2324
 3224SOL     OW21304   0.059   3.402  12.139 -0.0800 -0.3821 -0.2408
 3224SOL    HW121305   0.023   3.425  12.054 -1.1680  1.6765  0.7528
 3224SOL    HW221306   0.002   3.417  12.215 -0.2178  0.1829 -0.4567
 3225SOL     OW21307   3.129   1.347   7.995  0.0718  0.5601  0.1422
 3225SOL    HW121308   3.185   1.340   8.072 -0.0336 -1.5211  0.0147
 3225SOL    HW221309   3.184   1.295   7.937  0.2452  0.5566  0.3090
 3226SOL     OW21310   0.969   1.616  15.922  0.3379  0.1546  0.0768
 3226SOL    HW121311   0.943   1.703  15.890 -2.0157  0.3854  2.6604
 3226SOL    HW221312   0.977   1.570  15.839  1.2859 -1.8056  1.2599
 3227SOL     OW21313   2.679   1.404  10.573  0.4549 -0.1401  0.2095
 3227SOL    HW121314   2.761   1.426  10.617  0.9783 -1.5829 -0.0455
 3227SOL    HW221315   2.700   1.443  10.487  0.3553 -2.4189 -0.8388
 3228SOL     OW21316   3.082   4.300   6.910 -0.0755  0.6052 -0.2411
 3228SOL    HW121317   3.017   4.331   6.974  2.3057 -1.0563  2.9590
 3228SOL    HW221318   3.142   4.248   6.964 -1.3135 -0.7141 -0.1474
 3229SOL     OW21319   4.367   1.735   7.712 -0.4497 -0.2765  0.6045
 3229SOL    HW121320   4.370   1.695   7.625 -1.0136  0.3341  0.3066
 3229SOL    HW221321   4.275   1.723   7.734 -0.4902  0.4168  0.8139
 3230SOL     OW21322   2.461   4.039   3.632  0.0089  0.3906 -0.1967
 3230SOL    HW121323   2.420   3.987   3.701  0.7284  1.8418  1.3258
 3230SOL    HW221324   2.492   3.962   3.584  0.6436  1.4351 -1.4598
 3231SOL     OW21325   2.515   3.228   6.983 -0.2174  0.7156  0.0800
 3231SOL    HW121326   2.429   3.189   6.994  0.1074 -0.2065 -0.6504
 3231SOL    HW221327   2.488   3.319   6.968  0.6278  1.2727  1.9619
 3232SOL     OW21328   1.743   3.017   3.576  0.0738  0.4537 -0.6347
 3232SOL    HW121329   1.803   3.051   3.642  2.3950  1.6469 -3.3929
 3232SOL    HW221330   1.791   2.937   3.555  2.3718  1.6800 -0.0011
 3233SOL     OW21331   3.631   2.560   5.147  0.2359 -0.1537  0.4203
 3233SOL    HW121332   3.609   2.548   5.054 -0.2277 -0.0707  0.5211
 3233SOL    HW221333   3.717   2.601   5.149 -0.0750  0.5446 -0.4138
 3234SOL     OW21334   3.611   1.304   6.367 -0.0341 -0.5258  0.3062
 3234SOL    HW121335   3.517   1.319   6.357  0.4687  1.8673 -0.7948
 3234SOL    HW221336   3.630   1.317   6.460 -1.6896 -0.9593  0.6925
 3235SOL     OW21337   0.715   1.666   5.737  0.3515  0.0165  0.2163
 3235SOL    HW121338   0.666   1.612   5.799 -1.3893 -0.9490 -1.9894
 3235SOL    HW221339   0.665   1.745   5.754  1.7464  0.7316  1.0626
 3236SOL     OW21340   4.111   0.017   7.934  0.2689  0.4487  0.3895
 3236SOL    HW121341   4.164   0.064   7.998 -0.0759 -0.4159  1.3077
 3236SOL    HW221342   4.169   4.681   7.911  2.1159  1.5510  1.6082
 3237SOL     OW21343   3.191   3.892   7.763  0.1062 -0.8525  0.2422
 3237SOL    HW121344   3.164   3.900   7.854  0.5647  1.3588  0.1811
 3237SOL    HW221345   3.115   3.857   7.718 -0.5926  0.0110  0.7502
 3238SOL     OW21346   1.717   1.513   2.534  0.1772  0.1835 -0.0626
 3238SOL    HW121347   1.792   1.497   2.478  0.7256  1.3498  0.3402
 3238SOL    HW221348   1.646   1.542   2.476 -0.8735  0.3261  1.2920
 3239SOL     OW21349   4.202   3.659   1.609  0.4159  0.3486 -0.0086
 3239SOL    HW121350   4.209   3.564   1.598  1.2214  0.2564  1.2189
 3239SOL    HW221351   4.250   3.663   1.692  0.4675  0.7358 -0.0601
 3240SOL     OW21352   1.101   0.793  15.950  0.5868 -0.0807  0.1604
 3240SOL    HW121353   1.132   0.808  16.039 -0.7255  2.6896  0.1551
 3240SOL    HW221354   1.151   0.861  15.905  2.8585 -2.6196 -1.1576
 3241SOL     OW21355   1.539   2.402  17.304 -0.6246 -0.4270  0.1289
 3241SOL    HW121356   1.585   2.427  17.384 -2.5993  2.5584  0.3110
 3241SOL    HW221357   1.514   2.317  17.339  0.6045 -0.9024 -0.1305
 3242SOL     OW21358   3.206   0.619   7.040 -0.0225 -0.3917  0.6137
 3242SOL    HW121359   3.151   0.697   7.045  1.9138  1.0479 -0.8108
 3242SOL    HW221360   3.144   0.549   7.063 -3.0115  2.0194 -0.1722
 3243SOL     OW21361   0.770   2.550   5.540 -0.3067  0.0887  0.3221
 3243SOL    HW121362   0.836   2.612   5.571 -0.5607  0.8607 -0.6818
 3243SOL    HW221363   0.806   2.463   5.557  0.9954  0.4263 -0.7507
 3244SOL     OW21364   0.727   0.830   7.365  0.0739 -0.0960 -0.3011
 3244SOL    HW121365   0.708   0.738   7.346  3.5075 -0.7927 -0.3539
 3244SOL    HW221366   0.656   0.872   7.317  0.5000  0.3115 -0.5820
 3245SOL     OW21367   0.277   2.049  13.628 -0.5090 -0.0991  0.8055
 3245SOL    HW121368   0.366   2.085  13.624  0.6081 -2.7266  1.7195
 3245SOL    HW221369   0.242   2.077  13.543  1.1389 -1.6118 -0.3774
 3246SOL     OW21370   1.987   4.283   8.236  0.3187  0.1808 -0.0681
 3246SOL    HW121371   2.052   4.263   8.304 -2.2209  2.2583  2.9987
 3246SOL    HW221372   1.931   4.205   8.233 -1.3224  1.4729 -2.6944
 3247SOL     OW21373   3.466   3.605  15.103  0.4501  0.2764 -0.3575
 3247SOL    HW121374   3.460   3.511  15.121  2.5856  0.3129  0.5554
 3247SOL    HW221375   3.557   3.619  15.126  0.6447  1.3496 -1.7375
 3248SOL     OW21376   2.811   2.169   6.584 -0.0883 -0.1057 -0.3123
 3248SOL    HW121377   2.902   2.158   6.555 -0.4800 -1.4706 -0.9721
 3248SOL    HW221378   2.833   2.232   6.653 -1.1839  0.3242 -0.3537
 3249SOL     OW21379   1.014   1.367  11.679  0.4320  0.5363 -0.4353
 3249SOL    HW121380   1.057   1.417  11.748 -0.5851  0.2598  0.3880
 3249SOL    HW221381   0.989   1.300  11.741  0.7123 -0.0861 -0.9941
 3250SOL     OW21382   1.377   3.739  11.744  0.0613 -0.5582 -0.2062
 3250SOL    HW121383   1.329   3.734  11.661 -0.3875 -0.3791  0.0400
 3250SOL    HW221384   1.400   3.832  11.738  0.7020 -0.5766  2.1637
 3251SOL     OW21385   0.408   2.032   4.376 -0.1413  0.3394 -0.7416
 3251SOL    HW121386   0.436   1.954   4.425 -0.5106  1.3424  1.0550
 3251SOL    HW221387   0.369   2.083   4.447 -1.5350 -0.4732 -0.9275
 3252SOL     OW21388   3.772   0.080   2.047 -0.0554  0.8016 -0.3130
 3252SOL    HW121389   3.688   0.040   2.066  0.6657 -0.7850 -0.5051
 3252SOL    HW221390   3.788   0.131   2.126  0.1341  1.4183 -0.7400
 3253SOL     OW21391   4.345   0.181   6.753 -0.1941 -0.3577  0.0878
 3253SOL    HW121392   4.262   0.136   6.769 -0.2040 -0.4991 -0.3668
 3253SOL    HW221393   4.378   0.170   6.843 -1.4935 -1.5848  0.4147
 3254SOL     OW21394   3.049   2.098  16.321 -0.4396 -0.2402 -0.6972
 3254SOL    HW121395   3.027   2.029  16.384 -1.2973  1.2425  0.6226
 3254SOL    HW221396   3.141   2.113  16.341 -0.6669 -0.1575  0.2654
 3255SOL     OW21397   3.322   4.120  13.244 -0.8980  0.2812 -0.4613
 3255SOL    HW121398   3.238   4.089  13.209 -1.8206  0.5963  1.4210
 3255SOL    HW221399   3.368   4.155  13.168 -1.0261  0.4211 -0.4761
 3256SOL     OW21400   0.686   4.508   5.519 -0.0733  0.0336 -0.1961
 3256SOL    HW121401   0.740   4.524   5.597  1.2107 -0.4232 -0.9814
 3256SOL    HW221402   0.756   4.523   5.455  0.4575 -0.5200  0.2527
 3257SOL     OW21403   1.296   4.585   7.459 -0.1750  0.0138 -0.7599
 3257SOL    HW121404   1.238   4.624   7.393 -1.1054 -0.2541 -0.0952
 3257SOL    HW221405   1.295   4.669   7.506 -3.5447  0.7885 -2.2114
 3258SOL     OW21406   3.502   2.362   7.436  0.0254 -0.4188 -0.6809
 3258SOL    HW121407   3.557   2.335   7.362  2.0635 -0.4537  0.8528
 3258SOL    HW221408   3.565   2.363   7.508 -1.3320  1.2622  0.4765
 3259SOL     OW21409   0.502   0.590  13.231 -0.2326 -0.1823 -0.0650
 3259SOL    HW121410   0.413   0.584  13.198 -0.4686  0.3000  0.5015
 3259SOL    HW221411   0.558   0.602  13.154 -2.2803  1.2664 -1.3169
 3260SOL     OW21412   4.021   0.824   8.104 -0.4140  0.0749  0.2639
 3260SOL    HW121413   4.020   0.765   8.179  0.7846  0.4661  0.5870
 3260SOL    HW221414   3.980   0.901   8.143 -1.7219  0.8233 -2.5816
 3261SOL     OW21415   4.634   1.638   4.052  0.1062 -0.7180 -0.2018
 3261SOL    HW121416   4.715   1.676   4.084 -0.9673 -0.7438  2.5599
 3261SOL    HW221417   4.654   1.547   4.075 -0.5311  0.0743  3.5265
 3262SOL     OW21418   2.650   4.271   7.394 -0.1774 -0.0946  0.0072
 3262SOL    HW121419   2.671   4.363   7.409  0.9513 -0.7850  2.6307
 3262SOL    HW221420   2.556   4.268   7.415 -0.0990 -1.5660  0.1874
 3263SOL     OW21421   1.642   1.422   2.890 -0.4343  0.2686  0.0600
 3263SOL    HW121422   1.727   1.384   2.912  0.5155  1.8457 -0.9096
 3263SOL    HW221423   1.584   1.366   2.943  1.6233 -3.1362 -1.2875
 3264SOL     OW21424   3.456   0.369   4.860  0.1366 -0.5840  1.0200
 3264SOL    HW121425   3.514   0.430   4.815 -0.9619 -0.9096 -0.8552
 3264SOL    HW221426   3.515   0.348   4.933  1.0237 -1.9495 -0.0755
 3265SOL     OW21427   1.605   3.961  10.236 -0.0607 -0.8310  0.5852
 3265SOL    HW121428   1.672   4.027  10.252  1.2779 -1.6543 -1.6549
 3265SOL    HW221429   1.555   3.973  10.317  0.4459  0.1141  0.7538
 3266SOL     OW21430   4.631   1.164  13.391  0.1464  0.1016  0.1685
 3266SOL    HW121431   4.572   1.176  13.465  1.3102 -1.9634  1.4308
 3266SOL    HW221432   4.716   1.189  13.428 -1.2304  1.2269  2.5053
 3267SOL     OW21433   4.182   2.660   6.860 -0.2376  0.0910 -0.0805
 3267SOL    HW121434   4.154   2.665   6.769  3.2748 -1.3184 -1.2710
 3267SOL    HW221435   4.275   2.671   6.837 -0.2104  1.9619  0.9162
 3268SOL     OW21436   3.304   2.801   5.511  0.3406 -0.0677  0.4585
 3268SOL    HW121437   3.324   2.708   5.509  0.9595  0.0430  1.6193
 3268SOL    HW221438   3.291   2.818   5.417 -0.2972  4.0350  1.2527
 3269SOL     OW21439   1.909   4.615   3.411  0.2794  0.2133  0.5030
 3269SOL    HW121440   1.926   4.663   3.492 -1.3403 -0.1876  1.0791
 3269SOL    HW221441   1.914   4.528   3.452  0.7911 -0.5079 -1.1091
 3270SOL     OW21442   0.864   0.856   3.282 -0.2698  0.3083 -0.3756
 3270SOL    HW121443   0.797   0.834   3.218 -1.9120  1.2861  1.0088
 3270SOL    HW221444   0.856   0.951   3.283 -0.5607  0.2782  0.4328
 3271SOL     OW21445   3.757   3.734  12.906 -0.2287 -0.1059 -0.2954
 3271SOL    HW121446   3.689   3.747  12.973 -1.4895  0.2003 -1.6248
 3271SOL    HW221447   3.788   3.646  12.929  1.3290  1.0022  1.8363
 3272SOL     OW21448   0.614   2.024  11.430 -0.0312  0.0357  0.2065
 3272SOL    HW121449   0.538   2.072  11.397  1.9668  3.0983  0.0802
 3272SOL    HW221450   0.679   2.041  11.361  0.1551  0.3425  0.4605
 3273SOL     OW21451   3.919   3.231   7.566  0.2093 -0.3610  0.0947
 3273SOL    HW121452   3.855   3.301   7.579 -1.2975 -1.0318 -3.8142
 3273SOL    HW221453   4.002   3.278   7.567 -1.9286  3.3847  0.5743
 3274SOL     OW21454   3.034   2.934  15.338  0.9034  0.0261  0.4093
 3274SOL    HW121455   3.099   2.947  15.408  0.7230  0.3645  0.5093
 3274SOL    HW221456   3.015   3.026  15.322  1.0191 -0.3476 -1.8928
 3275SOL     OW21457   2.318   0.429   5.622  0.8425  0.0281 -0.1838
 3275SOL    HW121458   2.322   0.465   5.711  0.8877  2.5390 -1.1988
 3275SOL    HW221459   2.264   0.494   5.577 -0.8788 -1.0690  0.2887
 3276SOL     OW21460   4.562   0.546   8.970  0.4834 -0.6506  0.0133
 3276SOL    HW121461   4.650   0.549   8.931  0.3296 -0.0515 -0.2915
 3276SOL    HW221462   4.574   0.599   9.049 -2.7441  0.9052 -0.5302
 3277SOL     OW21463   4.656   1.043   1.230 -0.6843 -0.2137  0.1839
 3277SOL    HW121464   4.588   1.074   1.170 -0.5597  0.8500  0.5870
 3277SOL    HW221465   4.731   1.094   1.201  0.3780 -1.5523  0.5525
 3278SOL     OW21466   3.615   0.603   5.820  0.2132 -0.1697 -0.1192
 3278SOL    HW121467   3.703   0.612   5.855 -1.0875 -1.3269  3.4587
 3278SOL    HW221468   3.593   0.527   5.874 -1.3272  0.5196  0.2336
 3279SOL     OW21469   1.548   4.273  14.728  0.3480  0.5852 -0.2285
 3279SOL    HW121470   1.553   4.182  14.702 -1.6945  0.5924 -0.6631
 3279SOL    HW221471   1.610   4.306  14.662  2.9009 -0.2457  1.7860
 3280SOL     OW21472   2.540   2.757   2.741  0.1166  0.0660  0.0090
 3280SOL    HW121473   2.532   2.820   2.813 -0.9160 -2.7526  2.3385
 3280SOL    HW221474   2.501   2.801   2.665  0.4812 -1.4237 -1.0318
 3281SOL     OW21475   0.346   3.912  10.527  0.2655  0.0096 -0.0385
 3281SOL    HW121476   0.412   3.846  10.551 -0.3672  0.1884  2.2261
 3281SOL    HW221477   0.398   3.989  10.548  0.7911  0.0486 -1.4878
 3282SOL     OW21478   4.726   0.487   7.520  0.3725  0.2366  0.5383
 3282SOL    HW121479   4.671   0.425   7.569  0.6460 -1.0810 -0.8194
 3282SOL    HW221480   0.023   0.530   7.599 -3.1926  0.3225  2.0219
 3283SOL     OW21481   4.478   4.527   1.110 -0.6189 -0.8583 -0.3854
 3283SOL    HW121482   4.401   4.568   1.151 -0.4320  0.2570 -1.1700
 3283SOL    HW221483   4.433   4.461   1.057  0.5035 -1.7165 -0.2684
 3284SOL     OW21484   1.115   4.028  17.411 -0.3354  0.0153 -0.2852
 3284SOL    HW121485   1.027   4.024  17.372 -0.2427 -0.1783 -0.4698
 3284SOL    HW221486   1.175   3.997  17.343 -0.0800  1.5163 -0.7475
 3285SOL     OW21487   3.042   2.140   3.466 -0.3386  0.2713 -0.0788
 3285SOL    HW121488   2.978   2.071   3.486  0.3234  0.5212  2.8515
 3285SOL    HW221489   3.111   2.097   3.416  1.3510  1.0738  1.5843
 3286SOL     OW21490   4.515   3.214   4.258 -1.2433  0.2770  0.3072
 3286SOL    HW121491   4.533   3.296   4.305 -0.3581  0.3074 -0.0679
 3286SOL    HW221492   4.421   3.204   4.265 -1.3959  0.4448 -1.4086
 3287SOL     OW21493   0.646   4.035   7.467  0.6584 -0.8978 -0.5800
 3287SOL    HW121494   0.633   4.000   7.555  1.9649 -0.8738 -0.3785
 3287SOL    HW221495   0.565   4.085   7.455  0.6427 -0.7004  0.3450
 3288SOL     OW21496   4.090   3.678   4.381  0.1580  0.5429 -0.1951
 3288SOL    HW121497   4.173   3.657   4.425 -0.1138  1.8607  0.9687
 3288SOL    HW221498   4.124   3.745   4.321  1.3737 -1.0137 -1.2430
 3289SOL     OW21499   0.269   2.863   5.242 -0.1702 -0.1673 -0.3627
 3289SOL    HW121500   0.252   2.957   5.241  0.4982 -0.0130  1.5876
 3289SOL    HW221501   0.365   2.868   5.243 -0.0734 -2.1159 -0.5091
 3290SOL     OW21502   3.588   2.369  10.095 -0.1614  0.0103 -0.1563
 3290SOL    HW121503   3.568   2.462  10.089  1.2904  0.4212  1.4043
 3290SOL    HW221504   3.682   2.375  10.077  0.2732  0.4955  2.2082
 3291SOL     OW21505   3.321   1.539   9.312 -0.0851  0.1580  0.1892
 3291SOL    HW121506   3.294   1.477   9.244 -1.2610 -0.6759  1.4139
 3291SOL    HW221507   3.256   1.515   9.378 -1.3775  2.3901 -0.2423
 3292SOL     OW21508   4.058   3.548   2.099 -0.2278 -0.4058  0.4265
 3292SOL    HW121509   4.152   3.536   2.111 -0.3620 -0.4511  1.4158
 3292SOL    HW221510   4.029   3.460   2.077 -1.6925  0.2589 -0.3102
 3293SOL     OW21511   2.911   0.126  15.431 -0.5703  0.1485 -0.2859
 3293SOL    HW121512   2.851   0.087  15.494  1.8909 -1.4061  1.0913
 3293SOL    HW221513   2.857   0.183  15.376  0.5190  1.8020  0.3621
 3294SOL     OW21514   4.718   0.032   8.225  0.6759  0.1036  0.3522
 3294SOL    HW121515   4.699   0.064   8.313  1.1706 -0.2572  0.5896
 3294SOL    HW221516   0.077   0.038   8.225  0.7556 -1.0952 -2.1257
 3295SOL     OW21517   4.225   3.955  15.301  0.2408  0.0545 -0.0638
 3295SOL    HW121518   4.179   3.891  15.247 -1.3848  1.0931  0.0680
 3295SOL    HW221519   4.231   4.034  15.247  0.0036 -1.2693 -2.0227
 3296SOL     OW21520   4.295   2.098   7.080 -0.4656 -0.0090  0.4511
 3296SOL    HW121521   4.262   2.079   7.168  0.4449 -4.1405 -0.0686
 3296SOL    HW221522   4.316   2.191   7.087 -1.2924  0.0404  2.3124
 3297SOL     OW21523   0.771   1.402   5.603 -0.4502  0.7681  0.6804
 3297SOL    HW121524   0.754   1.492   5.629 -1.2339  0.7040  0.4034
 3297SOL    HW221525   0.706   1.356   5.656  0.3908  1.0265  1.9327
 3298SOL     OW21526   0.580   0.274   1.937  0.1589  0.3156 -0.3804
 3298SOL    HW121527   0.556   0.193   1.891  2.1245 -0.4520 -0.0616
 3298SOL    HW221528   0.559   0.260   2.029  1.3248  2.6842  0.2520
 3299SOL     OW21529   0.917   4.038  12.295  0.1850  0.3816  0.2990
 3299SOL    HW121530   0.908   4.112  12.235  1.2238  0.6154  0.4231
 3299SOL    HW221531   0.834   3.993  12.280  0.2430  0.0592  0.9209
 3300SOL     OW21532   0.958   2.733   7.639  0.0978 -0.1997  0.3586
 3300SOL    HW121533   0.958   2.646   7.599 -2.2617 -0.6235  1.2565
 3300SOL    HW221534   0.991   2.795   7.574 -0.4505  0.4743  0.7177
 3301SOL     OW21535   4.142   4.423  12.916 -0.5121 -0.8849 -0.2034
 3301SOL    HW121536   4.053   4.438  12.949 -0.5081  1.5040 -1.3335
 3301SOL    HW221537   4.187   4.388  12.994  2.2927  1.2828 -0.8405
 3302SOL     OW21538   3.310   0.942  13.111  0.5180  0.1896 -0.1231
 3302SOL    HW121539   3.362   0.986  13.178  2.0369 -1.3637 -0.2775
 3302SOL    HW221540   3.310   0.847  13.122  1.1734  0.3876  1.4899
 3303SOL     OW21541   0.444   0.568   4.183 -0.0910  0.2134 -0.4172
 3303SOL    HW121542   0.454   0.657   4.150 -0.4916 -0.0027 -1.1325
 3303SOL    HW221543   0.473   0.579   4.274 -1.4590  1.5835 -0.1662
 3304SOL     OW21544   3.714   0.269   8.647  0.1829  0.3752 -0.2204
 3304SOL    HW121545   3.772   0.312   8.711  2.0410  0.4521 -1.9682
 3304SOL    HW221546   3.755   0.312   8.572  2.4795 -0.9902  0.2565
 3305SOL     OW21547   0.948   2.183   7.671  0.3036 -0.0954 -0.0098
 3305SOL    HW121548   1.009   2.229   7.729  2.4512  0.3029 -2.6354
 3305SOL    HW221549   0.888   2.151   7.740  2.1936  0.8416  2.0758
 3306SOL     OW21550   3.049   3.801   1.841  0.3965 -0.4003 -0.9297
 3306SOL    HW121551   3.091   3.741   1.780 -1.2637 -1.6413 -0.8553
 3306SOL    HW221552   3.081   3.888   1.818  0.2292 -0.5675 -1.7919
 3307SOL     OW21553   3.494   4.596   6.589 -0.2461  0.0170  0.0242
 3307SOL    HW121554   3.454   4.674   6.551 -1.1459 -0.2178  0.4744
 3307SOL    HW221555   3.461   4.605   6.679  0.2528 -0.6310  0.2761
 3308SOL     OW21556   2.751   3.007  14.648  0.1170 -0.3130 -0.1563
 3308SOL    HW121557   2.834   2.959  14.659 -1.3128 -1.7165  4.4860
 3308SOL    HW221558   2.774   3.099  14.633 -1.6948  0.1424 -0.0436
 3309SOL     OW21559   3.750   3.635   4.119 -0.1501  0.1907 -0.2653
 3309SOL    HW121560   3.748   3.710   4.060 -0.2447 -0.3970 -1.0071
 3309SOL    HW221561   3.674   3.588   4.085  1.6273 -1.6964 -1.5755
 3310SOL     OW21562   3.073   1.923   9.221 -0.0705  0.2327 -0.4650
 3310SOL    HW121563   3.008   1.994   9.224  0.1283  0.4754 -2.2564
 3310SOL    HW221564   3.150   1.979   9.225  0.5190 -0.5623 -0.7849
 3311SOL     OW21565   0.887   3.659   2.241 -0.0986  0.2459  0.0031
 3311SOL    HW121566   0.861   3.719   2.171 -1.0096  1.3672  1.3079
 3311SOL    HW221567   0.903   3.714   2.317  1.7136  1.4847 -1.2730
 3312SOL     OW21568   1.461   3.732   3.069  0.2417  0.2809  0.6858
 3312SOL    HW121569   1.451   3.648   3.024  1.8774 -0.6744  2.1151
 3312SOL    HW221570   1.460   3.797   2.998  1.7465 -0.2156  0.1934
 3313SOL     OW21571   1.021   1.049   7.080  0.7570 -0.2821 -0.1137
 3313SOL    HW121572   0.937   1.066   7.037 -0.3146 -0.1079  2.0522
 3313SOL    HW221573   0.999   1.047   7.173 -0.5159  0.2060 -0.4073
 3314SOL     OW21574   4.609   1.899   4.876  0.5944  0.0037  0.1654
 3314SOL    HW121575   4.554   1.896   4.797 -0.9848 -0.0271  1.2766
 3314SOL    HW221576   4.575   1.975   4.923 -0.8170 -0.8022  0.4557
 3315SOL     OW21577   1.239   4.099   8.739  0.7289 -0.5587  0.2460
 3315SOL    HW121578   1.330   4.072   8.724  0.5309  0.1087 -2.3014
 3315SOL    HW221579   1.244   4.125   8.831  0.1913  0.2404  0.0488
 3316SOL     OW21580   1.708   1.295   5.906  0.4100 -0.3364 -0.3640
 3316SOL    HW121581   1.769   1.258   5.843  0.3906 -2.6586  1.0080
 3316SOL    HW221582   1.709   1.390   5.889 -2.2682  0.0254  1.4166
 3317SOL     OW21583   2.503   0.316   9.183  0.0862  0.1272  0.3007
 3317SOL    HW121584   2.520   0.409   9.197 -0.7970  0.2757  0.3320
 3317SOL    HW221585   2.584   0.288   9.138 -1.4939 -0.2599 -2.3171
 3318SOL     OW21586   0.019   1.414   1.372  0.2099  0.3696  0.4988
 3318SOL    HW121587   0.023   1.444   1.463 -0.6959 -1.4962  1.1630
 3318SOL    HW221588   0.094   1.458   1.333 -0.5255  1.6779  0.5762
 3319SOL     OW21589   1.800   2.821  13.754  0.1684 -0.2646  0.2191
 3319SOL    HW121590   1.874   2.841  13.810  0.4902  0.6400 -0.5266
 3319SOL    HW221591   1.845   2.821  13.669  0.1007 -0.3346  0.1829
 3320SOL     OW21592   0.285   1.514  13.657 -0.0532  0.2072 -0.4860
 3320SOL    HW121593   0.295   1.490  13.749  0.7904 -0.6503 -0.8035
 3320SOL    HW221594   0.344   1.449  13.619 -1.3037 -0.8299 -0.6616
 3321SOL     OW21595   1.081   3.199   0.385  0.0254 -0.2725 -0.2572
 3321SOL    HW121596   0.994   3.163   0.368 -0.4181  1.0354 -0.7061
 3321SOL    HW221597   1.089   3.191   0.480 -2.0587 -0.3503 -0.0881
 3322SOL     OW21598   1.686   0.814  10.556 -1.0533 -0.4356  0.2496
 3322SOL    HW121599   1.682   0.741  10.494  1.5005  0.2216 -0.6991
 3322SOL    HW221600   1.779   0.816  10.579 -1.3549 -1.1656  1.5582
 3323SOL     OW21601   0.907   3.075   6.436 -0.6318 -0.0079 -0.1044
 3323SOL    HW121602   0.876   3.075   6.526  1.6568 -0.4499  0.7031
 3323SOL    HW221603   0.839   3.024   6.392  1.2272 -0.9882 -1.8506
 3324SOL     OW21604   3.589   1.405   1.149 -0.1704 -0.5610 -0.3227
 3324SOL    HW121605   3.591   1.402   1.244  3.2163  1.9552 -0.3153
 3324SOL    HW221606   3.631   1.320   1.131 -0.2911 -0.6964  0.0316
 3325SOL     OW21607   2.162   2.584   0.456  0.0264  0.4342 -0.1747
 3325SOL    HW121608   2.212   2.620   0.530  1.8956 -1.9981 -0.2226
 3325SOL    HW221609   2.073   2.582   0.490  1.1997 -1.3780  2.8398
 3326SOL     OW21610   3.741   2.828   5.847  0.4503  0.6986  0.6630
 3326SOL    HW121611   3.649   2.851   5.859 -0.4064 -1.4155 -1.6834
 3326SOL    HW221612   3.773   2.888   5.781  0.1746  0.5966  0.4341
 3327SOL     OW21613   4.374   2.426   7.757  0.2844 -0.3689  0.0531
 3327SOL    HW121614   4.404   2.379   7.835  0.8637 -3.2195 -1.8870
 3327SOL    HW221615   4.374   2.518   7.785  1.2076 -0.4497  0.3175
 3328SOL     OW21616   0.748   4.736   2.748  0.3505 -0.3467 -0.0884
 3328SOL    HW121617   0.800   0.031   2.822 -0.8555  0.6367  0.3266
 3328SOL    HW221618   0.806   4.734   2.671 -0.8938  0.7834 -1.0409
 3329SOL     OW21619   2.146   2.021   0.004  0.3962  0.1228 -0.4082
 3329SOL    HW121620   2.148   1.989  17.660  0.3122  0.8921 -0.6775
 3329SOL    HW221621   2.069   1.976   0.039  1.6379 -0.8490  1.0843
 3330SOL     OW21622   4.031   1.640  10.397  0.4788  0.5163 -0.5457
 3330SOL    HW121623   3.994   1.697  10.465  1.3840 -1.7603  1.8443
 3330SOL    HW221624   4.105   1.596  10.438 -0.0570  0.2563  0.1295
 3331SOL     OW21625   3.116   2.157   6.477  0.1631  0.1846 -0.2821
 3331SOL    HW121626   3.202   2.194   6.494  0.1357 -0.4361  1.2012
 3331SOL    HW221627   3.119   2.070   6.516 -1.7835 -0.0361 -0.5918
 3332SOL     OW21628   0.491   1.702   1.379 -0.5144 -0.1817 -0.3022
 3332SOL    HW121629   0.512   1.780   1.431  1.3002 -0.4039 -0.7273
 3332SOL    HW221630   0.438   1.744   1.310  0.8031 -0.3210 -1.3944
 3333SOL     OW21631   0.156   3.080   3.899 -0.1290  0.0975 -0.3641
 3333SOL    HW121632   0.062   3.085   3.912  0.1909  0.9241  1.6955
 3333SOL    HW221633   0.180   3.115   3.985 -2.2143 -2.4577  1.2339
 3334SOL     OW21634   4.008   1.057  17.339 -0.3995 -0.1786 -0.2071
 3334SOL    HW121635   4.085   1.064  17.396  0.0792  0.5697 -0.9471
 3334SOL    HW221636   4.033   1.125  17.277 -0.5929  1.5995  1.6910
 3335SOL     OW21637   3.725   0.154  15.784  0.6930  0.0692 -0.2909
 3335SOL    HW121638   3.821   0.161  15.791  0.4374  1.4117  1.9461
 3335SOL    HW221639   3.704   0.204  15.705  0.3513 -0.2706 -0.4127
 3336SOL     OW21640   3.708   0.672   8.229  0.1093 -0.3014  0.4622
 3336SOL    HW121641   3.657   0.747   8.198  0.4465 -0.1845  0.1848
 3336SOL    HW221642   3.650   0.626   8.290  0.3448 -1.2823 -0.0616
 3337SOL     OW21643   4.227   4.681   2.081  0.2879 -0.3405 -0.2823
 3337SOL    HW121644   4.172   4.622   2.133  1.5651  0.2396  1.7544
 3337SOL    HW221645   4.244   4.626   2.005  0.8876 -1.6936  0.8340
 3338SOL     OW21646   4.312   4.610   3.369  0.1516 -0.2898  0.1261
 3338SOL    HW121647   4.309   4.611   3.465  1.7575  3.0214  0.1384
 3338SOL    HW221648   4.231   4.654   3.345  1.1716  1.0193 -0.9434
 3339SOL     OW21649   1.144   2.836   9.122 -0.1731 -0.1045 -0.0390
 3339SOL    HW121650   1.187   2.842   9.037 -0.6568 -1.0797 -0.3520
 3339SOL    HW221651   1.052   2.837   9.094 -0.4904 -0.9830  0.9629
 3340SOL     OW21652   3.655   1.957   5.621 -0.4770  0.0474 -0.0572
 3340SOL    HW121653   3.697   1.881   5.661  0.2368  0.2341 -0.4663
 3340SOL    HW221654   3.694   1.955   5.534  1.9792 -1.2155  1.0761
 3341SOL     OW21655   1.824   3.399   5.986  0.3081 -0.1896 -0.3453
 3341SOL    HW121656   1.748   3.345   5.964 -0.5474  1.3615 -1.2087
 3341SOL    HW221657   1.789   3.486   5.967  1.5613  0.4108  0.1114
 3342SOL     OW21658   2.718   4.303   2.801  0.0590 -0.7514 -0.4249
 3342SOL    HW121659   2.631   4.264   2.813  0.4347 -1.3957  0.1728
 3342SOL    HW221660   2.710   4.329   2.709  2.2852  0.5859 -0.2175
 3343SOL     OW21661   0.920   2.746  14.407 -0.2455 -0.7839  0.2115
 3343SOL    HW121662   0.891   2.752  14.316 -0.6429  1.1197  0.4662
 3343SOL    HW221663   0.864   2.811  14.449  0.1071 -0.0455 -0.4608
 3344SOL     OW21664   1.133   2.570   0.124 -0.0366  0.2697  0.3313
 3344SOL    HW121665   1.108   2.655   0.159  3.2664  0.9393  1.0510
 3344SOL    HW221666   1.217   2.593   0.085  0.8638 -1.1281  1.4567
 3345SOL     OW21667   2.342   4.218  10.340 -0.5573 -0.1489  0.8090
 3345SOL    HW121668   2.253   4.204  10.374 -1.5357  1.2126 -1.1199
 3345SOL    HW221669   2.330   4.170  10.259  2.2697 -0.7659  0.7861
 3346SOL     OW21670   1.324   4.330   8.614  0.4731 -0.9983  0.7768
 3346SOL    HW121671   1.327   4.296   8.525  0.0901  0.7982  0.0596
 3346SOL    HW221672   1.288   4.256   8.662  0.9317 -0.9849  1.1378
 3347SOL     OW21673   2.172   4.599   7.203 -0.3212 -0.5213  0.0076
 3347SOL    HW121674   2.139   4.683   7.233  0.7220  0.1776 -0.8175
 3347SOL    HW221675   2.244   4.621   7.144  0.6023  0.7541  1.6349
 3348SOL     OW21676   2.025   3.493   9.406 -0.1682 -0.1320 -0.1964
 3348SOL    HW121677   1.989   3.492   9.494 -1.4850 -0.7313 -0.7361
 3348SOL    HW221678   1.946   3.485   9.352  0.6824 -0.2251 -1.4348
 3349SOL     OW21679   0.124   1.639   6.066 -0.2384  0.1188  0.0242
 3349SOL    HW121680   0.035   1.662   6.040 -0.4953  1.4047  2.0342
 3349SOL    HW221681   0.114   1.608   6.156 -1.2496 -2.2466 -0.8951
 3350SOL     OW21682   3.468   0.889   0.979 -1.0703  0.5777 -0.4176
 3350SOL    HW121683   3.446   0.952   0.910 -1.1215  1.7047  0.6357
 3350SOL    HW221684   3.448   0.809   0.930 -1.3621 -0.2343  1.0474
 3351SOL     OW21685   3.457   1.046   6.070  0.1877 -0.1687  0.0254
 3351SOL    HW121686   3.414   1.132   6.073  1.2766  0.3994 -0.6918
 3351SOL    HW221687   3.394   0.997   6.017 -1.7832  0.3098  1.9218
 3352SOL     OW21688   0.625   2.754  16.485 -0.3322  0.6530  0.5049
 3352SOL    HW121689   0.613   2.663  16.514  0.1711  1.1658  2.3723
 3352SOL    HW221690   0.719   2.740  16.469 -0.2336  1.6684  0.2153
 3353SOL     OW21691   4.274   4.502   9.275  0.0699  0.6088 -0.5789
 3353SOL    HW121692   4.275   4.563   9.349  0.5760  0.0028 -0.0850
 3353SOL    HW221693   4.356   4.521   9.230  1.0469 -0.4498  0.7674
 3354SOL     OW21694   2.724   4.083   4.089  0.5689 -0.6849 -0.4043
 3354SOL    HW121695   2.640   4.089   4.134  2.5066  1.5417  2.9044
 3354SOL    HW221696   2.758   4.173   4.090 -0.1356 -0.4515  1.7914
 3355SOL     OW21697   0.116   0.975  16.649  0.1373  0.1172 -0.1157
 3355SOL    HW121698   0.030   0.979  16.607 -0.2128 -0.6941  0.5349
 3355SOL    HW221699   0.170   0.932  16.583 -0.5134 -0.3219 -0.3644
 3356SOL     OW21700   2.778   4.306  11.673  0.4338  0.6366 -0.0503
 3356SOL    HW121701   2.791   4.330  11.765 -2.0326  1.5687  0.0592
 3356SOL    HW221702   2.872   4.295  11.662  0.3077  0.6254 -1.1011
 3357SOL     OW21703   1.136   1.526  11.874 -0.2466 -0.1209  0.2898
 3357SOL    HW121704   1.090   1.542  11.956  0.0449  0.4971  0.3349
 3357SOL    HW221705   1.228   1.521  11.899  0.7558 -0.7598 -3.4608
 3358SOL     OW21706   1.676   0.200   0.966  0.1690 -0.5598 -0.2715
 3358SOL    HW121707   1.769   0.180   0.974  0.2394  0.6075  1.9319
 3358SOL    HW221708   1.659   0.134   0.899 -1.9751 -1.5032  1.1762
 3359SOL     OW21709   2.487   4.631   2.798  0.0311  0.4745 -0.2024
 3359SOL    HW121710   2.471   4.566   2.866 -3.0593  0.2429 -1.1181
 3359SOL    HW221711   2.436   4.603   2.722 -0.1624  0.8403 -0.2094
 3360SOL     OW21712   0.483   0.667   2.901  0.4454 -0.2320  0.0596
 3360SOL    HW121713   0.439   0.643   2.819 -1.6690  1.5252  0.6902
 3360SOL    HW221714   0.425   0.637   2.971  1.7059  2.0711  2.0674
 3361SOL     OW21715   2.179   2.717  13.827 -0.0364 -0.2262 -0.3883
 3361SOL    HW121716   2.246   2.656  13.795  1.6134  1.2394  0.3113
 3361SOL    HW221717   2.185   2.791  13.767 -4.4970 -0.9911 -1.8072
 3362SOL     OW21718   1.131   0.995   9.953 -0.1698 -0.0001 -0.0463
 3362SOL    HW121719   1.035   0.995   9.944 -0.1009  0.0346 -0.7265
 3362SOL    HW221720   1.146   0.930  10.022 -2.5032  1.0959  1.4984
 3363SOL     OW21721   4.384   0.281  12.658  0.2429  0.0466 -0.2080
 3363SOL    HW121722   4.367   0.313  12.746 -0.9732 -3.1987  0.7532
 3363SOL    HW221723   4.301   0.237  12.636  0.6028  0.2195 -1.9090
 3364SOL     OW21724   2.553   1.199   4.246 -0.0133 -0.2333 -0.4364
 3364SOL    HW121725   2.647   1.213   4.250 -0.0325  0.2082 -1.6050
 3364SOL    HW221726   2.541   1.169   4.336 -0.2326 -0.8916 -0.6826
 3365SOL     OW21727   2.747   4.342   1.105 -0.2670 -0.2086  0.4762
 3365SOL    HW121728   2.670   4.398   1.094  0.9589  1.3002 -0.5024
 3365SOL    HW221729   2.720   4.263   1.058 -0.2140  0.3612 -0.5167
 3366SOL     OW21730   3.138   2.445   5.340 -0.1565  0.4833  0.1914
 3366SOL    HW121731   3.201   2.479   5.404 -0.1406 -0.2602  0.5676
 3366SOL    HW221732   3.063   2.493   5.374 -0.3191 -0.4754  1.1980
 3367SOL     OW21733   4.055   3.798   1.932 -0.2016 -0.1535 -0.4875
 3367SOL    HW121734   4.148   3.781   1.915 -0.6332 -0.5971 -2.3528
 3367SOL    HW221735   4.030   3.749   2.011 -1.7905  0.0085 -0.9021
 3368SOL     OW21736   0.364   1.442   0.336  0.4990 -0.0564  0.3237
 3368SOL    HW121737   0.421   1.373   0.301  1.1670  0.2049  0.9103
 3368SOL    HW221738   0.301   1.441   0.264 -0.4816  0.2479  1.1886
 3369SOL     OW21739   4.202   4.132   1.590  0.2516  0.3762 -0.3169
 3369SOL    HW121740   4.144   4.091   1.654  0.2564 -1.7437 -1.6770
 3369SOL    HW221741   4.148   4.124   1.511 -1.5399 -0.1884  0.9809
 3370SOL     OW21742   3.182   0.254  16.990 -0.0873  0.2313 -0.4844
 3370SOL    HW121743   3.110   0.316  17.002  2.0647  2.7386 -0.3198
 3370SOL    HW221744   3.155   0.182  17.046 -0.9075  3.2470  3.0100
 3371SOL     OW21745   0.966   0.233   6.519  0.0688 -0.6577  0.1579
 3371SOL    HW121746   1.037   0.183   6.479 -0.5412 -0.3581 -1.2997
 3371SOL    HW221747   0.998   0.257   6.605 -0.6921  3.0802 -0.6055
 3372SOL     OW21748   4.065   4.364   6.865 -0.4085 -0.0653  0.0890
 3372SOL    HW121749   4.024   4.446   6.894 -0.4689 -0.3333  0.7750
 3372SOL    HW221750   4.082   4.306   6.939 -0.7251 -2.2095 -1.5310
 3373SOL     OW21751   2.981   4.249   3.774  0.0005  0.5367 -0.1109
 3373SOL    HW121752   3.033   4.176   3.808 -0.4457  0.0721 -0.4219
 3373SOL    HW221753   3.023   4.265   3.689  0.3069 -0.0166 -0.0652
 3374SOL     OW21754   3.934   1.825   3.233  0.4784  0.4615 -0.0829
 3374SOL    HW121755   4.006   1.763   3.217 -0.7775 -0.2160 -3.2367
 3374SOL    HW221756   3.897   1.789   3.313  2.0902  0.2801  0.5788
 3375SOL     OW21757   2.494   1.978   2.811  0.3379 -0.2291 -0.3438
 3375SOL    HW121758   2.445   1.950   2.888 -0.2317 -0.2502 -0.7104
 3375SOL    HW221759   2.462   1.915   2.746  0.5379 -0.4560 -0.2220
 3376SOL     OW21760   4.122   3.242   2.274 -0.1675  0.5045  0.0734
 3376SOL    HW121761   4.057   3.266   2.339  1.7480  2.8623  1.1328
 3376SOL    HW221762   4.061   3.247   2.200  0.0249 -2.0061 -0.2693
 3377SOL     OW21763   0.821   0.453   8.058  0.1863 -0.1292 -0.2718
 3377SOL    HW121764   0.900   0.459   8.004  0.4864 -0.2808  0.1497
 3377SOL    HW221765   0.861   0.447   8.145  0.8813  0.9056 -0.5161
 3378SOL     OW21766   2.572   2.912   4.500 -0.3160  0.4326 -0.0379
 3378SOL    HW121767   2.602   2.854   4.570 -0.3464  1.5674  0.9100
 3378SOL    HW221768   2.639   2.900   4.433 -0.1928 -0.8725  0.3132
 3379SOL     OW21769   3.949   4.426   4.475  0.3674 -0.5948  0.3436
 3379SOL    HW121770   4.042   4.406   4.490  0.7098  0.0587 -0.9406
 3379SOL    HW221771   3.912   4.393   4.557  1.0189 -1.7438  0.1802
 3380SOL     OW21772   0.704   4.154   5.453  0.1610  0.3899 -0.1911
 3380SOL    HW121773   0.689   4.088   5.385  1.3696  1.0074 -1.0374
 3380SOL    HW221774   0.645   4.120   5.521 -0.5042  1.3248 -0.3067
 3381SOL     OW21775   3.740   2.664   6.473  0.0294  0.0196  0.1401
 3381SOL    HW121776   3.713   2.706   6.391 -0.2707 -1.0355 -0.2991
 3381SOL    HW221777   3.695   2.721   6.535  0.5064  0.8402 -0.2608
 3382SOL     OW21778   3.541   3.785  12.728  0.3991  0.5754  0.1658
 3382SOL    HW121779   3.603   3.739  12.785 -0.4043 -0.4462  0.2165
 3382SOL    HW221780   3.481   3.802  12.800  3.1971 -1.5885  3.0139
 3383SOL     OW21781   3.068   2.491   3.589  0.1306  0.2048 -0.0194
 3383SOL    HW121782   3.151   2.537   3.590 -0.8633  1.9955  0.1745
 3383SOL    HW221783   3.101   2.406   3.619 -2.9640 -0.8334  0.5521
 3384SOL     OW21784   2.975   0.447   8.071 -0.2392 -0.2688 -0.0833
 3384SOL    HW121785   3.056   0.395   8.072  0.3042  0.5880 -0.0163
 3384SOL    HW221786   2.918   0.407   8.005  0.2343 -2.5112  0.8308
 3385SOL     OW21787   3.543   2.634   3.692  0.5296  0.4877 -0.0950
 3385SOL    HW121788   3.572   2.570   3.758 -1.1727  0.3386  0.5028
 3385SOL    HW221789   3.558   2.586   3.611  2.1978  0.6925  0.0902
 3386SOL     OW21790   1.710   0.782   3.592  0.1873  0.0848 -0.5117
 3386SOL    HW121791   1.761   0.774   3.512  0.6887 -0.2118 -0.1683
 3386SOL    HW221792   1.658   0.856   3.564 -1.4214 -0.7828  0.1734
 3387SOL     OW21793   4.053   0.629   6.885  0.0044  0.0378  0.0196
 3387SOL    HW121794   4.104   0.551   6.908 -2.1569 -2.0264 -2.1350
 3387SOL    HW221795   4.124   0.669   6.834  0.9992 -2.3526 -0.5192
 3388SOL     OW21796   2.692   3.663   2.331 -0.3027 -0.4584  0.1338
 3388SOL    HW121797   2.667   3.624   2.247 -0.1085 -2.3451  0.9412
 3388SOL    HW221798   2.673   3.756   2.320 -0.6027 -0.6858 -1.2287
 3389SOL     OW21799   4.071   1.147  15.432  0.1769  0.1210  0.1311
 3389SOL    HW121800   4.100   1.112  15.348  0.7470 -2.4458  1.3711
 3389SOL    HW221801   4.138   1.129  15.498 -1.0568  3.7187  2.3370
 3390SOL     OW21802   1.411   0.061   4.451  0.4300 -0.2255 -0.4024
 3390SOL    HW121803   1.396   0.139   4.397 -2.0800  0.6688  1.5593
 3390SOL    HW221804   1.364   0.086   4.531 -0.5073 -0.9381 -0.7232
 3391SOL     OW21805   4.346   1.846   4.288 -0.1963 -0.1914 -0.0570
 3391SOL    HW121806   4.384   1.839   4.200  2.5324 -2.4951  1.3281
 3391SOL    HW221807   4.285   1.773   4.279 -0.1981 -0.2817  0.6968
 3392SOL     OW21808   3.867   2.365  10.114 -0.3588  0.0250  1.0792
 3392SOL    HW121809   3.933   2.431  10.136  0.2392  0.7348 -2.8574
 3392SOL    HW221810   3.902   2.276  10.120  0.7905  0.5116  1.6079
 3393SOL     OW21811   1.299   2.798  16.757  0.1031 -0.6920 -0.4350
 3393SOL    HW121812   1.250   2.717  16.742  0.9065 -0.6645 -3.2536
 3393SOL    HW221813   1.229   2.863  16.768 -0.1260 -1.1691  0.8220
 3394SOL     OW21814   0.076   0.007   3.320  0.0589  0.1515 -0.0644
 3394SOL    HW121815   4.726   0.009   3.279  0.6892 -0.6587 -1.4511
 3394SOL    HW221816   0.112   0.087   3.282 -0.8477  0.4286 -0.3605
 3395SOL     OW21817   2.413   3.523   1.983  0.4904  0.5856 -0.1653
 3395SOL    HW121818   2.370   3.593   1.934 -1.6267  0.6516  1.7889
 3395SOL    HW221819   2.399   3.452   1.920  1.4629 -0.9925  1.3668
 3396SOL     OW21820   1.318   1.373   8.267 -0.0418  0.0991  0.0076
 3396SOL    HW121821   1.294   1.454   8.312  0.0614 -1.3041  2.5848
 3396SOL    HW221822   1.382   1.406   8.204  2.3560  0.5924  2.7028
 3397SOL     OW21823   0.205   3.085   0.157 -0.3284 -0.1407 -0.1669
 3397SOL    HW121824   0.112   3.094   0.141  0.1456  0.5831 -2.4680
 3397SOL    HW221825   0.236   3.103   0.068 -0.3257  1.2666  0.1254
 3398SOL     OW21826   3.915   1.221  16.485  0.5654 -0.7827  0.6165
 3398SOL    HW121827   3.883   1.311  16.474  1.8657 -0.3409  0.4790
 3398SOL    HW221828   3.829   1.192  16.514 -1.1435  2.2815 -1.3237
 3399SOL     OW21829   1.106   2.982   7.474  0.4674  0.4705 -0.3053
 3399SOL    HW121830   1.127   2.968   7.566 -0.3400  1.7155  0.0704
 3399SOL    HW221831   1.185   2.947   7.433 -0.9286 -0.5524 -2.1531
 3400SOL     OW21832   0.719   2.159   1.524  0.5530 -0.1857  0.0326
 3400SOL    HW121833   0.631   2.136   1.492  0.6179 -0.4992  0.0745
 3400SOL    HW221834   0.755   2.076   1.555  0.4332 -0.3238 -0.1906
 3401SOL     OW21835   1.600   1.996   3.155 -0.1329  0.3512 -0.5062
 3401SOL    HW121836   1.679   2.051   3.152 -0.9461  1.6457  2.2698
 3401SOL    HW221837   1.569   2.008   3.065  0.9647  0.6815 -0.8449
 3402SOL     OW21838   3.001   3.238   4.053 -0.0205 -0.3880  0.4231
 3402SOL    HW121839   2.941   3.297   4.009  1.0460  0.3686 -0.0053
 3402SOL    HW221840   3.063   3.216   3.984 -0.3325  2.2038 -0.6446
 3403SOL     OW21841   0.988   0.683   3.928 -0.3928 -0.3702 -0.2957
 3403SOL    HW121842   1.027   0.736   3.997 -2.0103  1.2304 -0.6012
 3403SOL    HW221843   1.074   0.659   3.893  0.1232  0.2488  0.5528
 3404SOL     OW21844   2.128   3.095  13.102 -0.6106  0.1473  0.5673
 3404SOL    HW121845   2.154   3.042  13.026 -0.9457  2.5545 -1.2292
 3404SOL    HW221846   2.153   3.032  13.170 -1.3452 -1.0878 -0.3056
 3405SOL     OW21847   1.939   3.527  16.159 -0.3507 -0.0231 -0.1010
 3405SOL    HW121848   1.851   3.526  16.195 -0.3333  0.7868 -0.0300
 3405SOL    HW221849   1.923   3.575  16.078 -1.3831  1.4728  0.9886
 3406SOL     OW21850   0.790   4.234   4.985  0.5279 -0.5731 -0.5435
 3406SOL    HW121851   0.874   4.274   4.961  0.4339  0.5169  0.9458
 3406SOL    HW221852   0.811   4.142   5.002 -1.3333 -0.9101 -0.0582
 3407SOL     OW21853   3.703   1.215   0.781 -0.3623 -0.6611  0.1332
 3407SOL    HW121854   3.630   1.201   0.720 -0.4714  1.8043 -0.3155
 3407SOL    HW221855   3.676   1.304   0.803  0.8050  0.1250 -1.5450
 3408SOL     OW21856   3.508   3.327  11.923 -0.3347  0.0448 -0.1697
 3408SOL    HW121857   3.461   3.408  11.939 -2.8560 -1.1240 -1.6201
 3408SOL    HW221858   3.588   3.364  11.886 -0.2040  1.3852  1.4599
 3409SOL     OW21859   2.685   0.340   5.452 -0.2416 -0.5098 -0.5119
 3409SOL    HW121860   2.624   0.360   5.381 -1.2324  0.2028  0.5179
 3409SOL    HW221861   2.732   0.260   5.432  1.3297  0.9468 -2.5814
 3410SOL     OW21862   3.169   1.233   4.246 -0.2046  0.0750 -0.4278
 3410SOL    HW121863   3.240   1.268   4.300  0.3605 -1.1850 -0.3680
 3410SOL    HW221864   3.179   1.139   4.260  2.9375  0.2515 -1.4756
 3411SOL     OW21865   1.579   1.730   7.193 -0.3102 -0.5378 -0.0807
 3411SOL    HW121866   1.592   1.701   7.102  0.6563  2.1144 -0.7859
 3411SOL    HW221867   1.554   1.820   7.174  1.5591  0.2685  1.2942
 3412SOL     OW21868   1.283   0.869   5.920 -0.0269  0.2811  0.5664
 3412SOL    HW121869   1.288   0.917   5.838 -1.1868  2.1016  1.5456
 3412SOL    HW221870   1.199   0.899   5.954  0.2304  0.5873  0.9344
 3413SOL     OW21871   2.795   0.735   3.284 -0.6434 -0.0368  0.6906
 3413SOL    HW121872   2.705   0.713   3.307 -0.0553 -3.1706  0.0499
 3413SOL    HW221873   2.803   0.830   3.290 -1.6945  0.1404 -0.6216
 3414SOL     OW21874   0.177   1.157   5.188  0.0511  0.1673 -0.5226
 3414SOL    HW121875   0.094   1.113   5.206  1.3349 -2.0490 -0.0482
 3414SOL    HW221876   0.202   1.195   5.272  0.9171  0.1337 -0.7621
 3415SOL     OW21877   3.794   2.551   6.822  0.1254 -0.1574 -0.3214
 3415SOL    HW121878   3.825   2.641   6.813 -1.0183  0.0973 -1.6974
 3415SOL    HW221879   3.775   2.550   6.916 -1.4158 -0.7223 -0.6417
 3416SOL     OW21880   2.519   0.913   2.240 -0.1158  0.0579  0.1785
 3416SOL    HW121881   2.461   0.957   2.178  1.0400  1.8512  0.3913
 3416SOL    HW221882   2.512   0.823   2.208 -2.2246 -0.0161  0.8448
 3417SOL     OW21883   0.392   0.493  12.968  0.5951 -0.2164  0.6306
 3417SOL    HW121884   0.300   0.484  12.993  0.7631 -0.9263  0.9874
 3417SOL    HW221885   0.393   0.586  12.944 -1.2780 -0.4736 -0.4856
 3418SOL     OW21886   1.092   2.713   4.380  0.2881 -0.1200 -0.2066
 3418SOL    HW121887   1.125   2.636   4.335 -1.6639 -1.3436  0.4371
 3418SOL    HW221888   1.175   2.748   4.413  1.0363 -1.4436 -0.6871
 3419SOL     OW21889   0.809   4.503  16.677  0.3630 -0.4276  0.1443
 3419SOL    HW121890   0.871   4.566  16.642  2.0993 -1.9195  0.5729
 3419SOL    HW221891   0.747   4.503  16.604  0.3148 -1.8034  0.1836
 3420SOL     OW21892   1.746   1.206  11.285 -0.1580 -0.5787  0.6734
 3420SOL    HW121893   1.787   1.127  11.252  1.9898  0.8804 -0.1634
 3420SOL    HW221894   1.669   1.166  11.326  0.8961 -2.2202  1.0570
 3421SOL     OW21895   2.769   1.278  16.224  0.2429  0.5718 -0.2144
 3421SOL    HW121896   2.721   1.361  16.231  2.2462  1.7426 -0.4022
 3421SOL    HW221897   2.823   1.296  16.146 -0.8215 -0.1915 -1.1285
 3422SOL     OW21898   2.593   1.734  12.400  0.0028  0.4236 -0.4582
 3422SOL    HW121899   2.529   1.765  12.464  1.6622  1.7567  0.5706
 3422SOL    HW221900   2.556   1.771  12.319 -0.9566  0.5440  0.0391
 3423SOL     OW21901   0.621   4.393   3.466 -0.2408  0.4201  0.8837
 3423SOL    HW121902   0.662   4.472   3.431 -0.3018 -0.4980 -1.2555
 3423SOL    HW221903   0.589   4.429   3.549  1.0417  0.4424  1.3740
 3424SOL     OW21904   1.710   2.395   0.725 -0.0546 -0.4725  0.3846
 3424SOL    HW121905   1.753   2.479   0.709 -0.6137 -0.8267 -2.8689
 3424SOL    HW221906   1.626   2.397   0.679  1.1842 -2.2523 -1.9399
 3425SOL     OW21907   0.355   2.804   1.635  0.2220 -0.3040 -0.0756
 3425SOL    HW121908   0.273   2.831   1.595 -1.7621 -3.1845  2.0978
 3425SOL    HW221909   0.373   2.878   1.693 -0.8353  0.1278 -0.2909
 3426SOL     OW21910   3.440   1.506   3.899 -0.0984 -0.5046  0.5716
 3426SOL    HW121911   3.389   1.585   3.921  0.0372 -0.4160  0.5697
 3426SOL    HW221912   3.357   1.460   3.894  0.9877 -2.3585 -0.3977
 3427SOL     OW21913   1.800   4.205   6.537 -0.3283 -0.1910 -0.0517
 3427SOL    HW121914   1.758   4.126   6.502 -1.8817 -0.0495  1.4622
 3427SOL    HW221915   1.735   4.235   6.600 -1.7650 -1.0870 -1.1050
 3428SOL     OW21916   1.198   1.827   6.386  0.6111 -0.0307  0.0763
 3428SOL    HW121917   1.282   1.814   6.430  1.7734  1.9884 -1.5572
 3428SOL    HW221918   1.223   1.901   6.330  0.5040  1.2815  1.7761
 3429SOL     OW21919   0.096   0.487   4.793 -0.5204  0.0999 -0.8314
 3429SOL    HW121920   0.078   0.559   4.733  0.8982  1.0837 -0.0668
 3429SOL    HW221921   0.119   0.420   4.729 -1.0256 -0.9066  0.0463
 3430SOL     OW21922   0.439   4.628   5.417  0.5167  0.0803  0.3504
 3430SOL    HW121923   0.419   4.538   5.391 -0.0779  0.6100 -0.9985
 3430SOL    HW221924   0.534   4.626   5.428  0.7658  0.1446 -1.8028
 3431SOL     OW21925   0.237   0.040   7.211 -0.2021  0.0632 -0.4962
 3431SOL    HW121926   0.196   0.036   7.124  1.8293 -3.0328 -1.3137
 3431SOL    HW221927   0.167   0.044   7.275  1.9899  1.2694  1.8433
 3432SOL     OW21928   1.961   2.804   7.415 -0.2589  0.5258  0.1804
 3432SOL    HW121929   2.049   2.779   7.387 -0.3838  0.0060  0.2581
 3432SOL    HW221930   1.906   2.746   7.362 -2.5232  2.6780  0.1883
 3433SOL     OW21931   0.373   2.331   0.860 -0.8577 -0.6411 -0.1710
 3433SOL    HW121932   0.430   2.405   0.842 -0.3141 -1.1278 -0.4581
 3433SOL    HW221933   0.429   2.273   0.911  2.2748  1.1109 -1.6697
 3434SOL     OW21934   3.751   2.092  15.131 -0.4391 -0.3842  0.0868
 3434SOL    HW121935   3.680   2.062  15.188 -1.2279  1.4940  0.0783
 3434SOL    HW221936   3.705   2.117  15.051  0.4335 -0.8207 -0.5584
 3435SOL     OW21937   4.409   1.704  10.927  0.1268  0.2994 -0.8094
 3435SOL    HW121938   4.387   1.688  11.019  1.3381  1.9050 -0.2411
 3435SOL    HW221939   4.427   1.798  10.926 -0.1808  0.3666  0.6149
 3436SOL     OW21940   2.828   2.618  14.632  0.3447 -0.0501 -0.2981
 3436SOL    HW121941   2.886   2.695  14.634  1.2159 -0.7650  2.0029
 3436SOL    HW221942   2.813   2.590  14.722  2.3154 -0.7741 -0.1938
 3437SOL     OW21943   2.692   3.661   3.578  0.3721  0.2666  0.5890
 3437SOL    HW121944   2.650   3.578   3.555 -1.0062  0.7210  1.4673
 3437SOL    HW221945   2.650   3.668   3.664  0.1023  3.1257  0.2180
 3438SOL     OW21946   3.819   0.581   4.548 -0.3360 -0.0630 -0.2716
 3438SOL    HW121947   3.870   0.634   4.609  0.3964  0.3001 -1.1854
 3438SOL    HW221948   3.874   0.504   4.536 -2.5066 -2.0069  2.3167
 3439SOL     OW21949   2.032   2.608   7.041  0.0957  0.3917  0.2912
 3439SOL    HW121950   1.939   2.588   7.030 -0.3399  1.2742  2.3819
 3439SOL    HW221951   2.069   2.529   7.003 -0.4041 -1.1180  2.9797
 3440SOL     OW21952   3.327   3.571  10.600  0.1203 -0.4979 -0.1845
 3440SOL    HW121953   3.334   3.527  10.515 -0.7797 -0.4679 -0.2656
 3440SOL    HW221954   3.381   3.648  10.582  0.3967 -0.3452  1.2951
 3441SOL     OW21955   2.865   1.040   6.228 -0.2182 -0.0121  0.8281
 3441SOL    HW121956   2.893   1.006   6.313  0.2850  1.1556  1.1247
 3441SOL    HW221957   2.894   0.965   6.177  0.2708 -0.4993  1.8254
 3442SOL     OW21958   1.786   4.612   6.205 -0.5211 -0.7586 -0.2689
 3442SOL    HW121959   1.775   4.672   6.132  0.9535 -0.9790 -0.6812
 3442SOL    HW221960   1.724   4.542   6.187 -0.5045 -1.6603  3.1273
 3443SOL     OW21961   3.437   1.765   6.644  0.2302  0.5891  0.9510
 3443SOL    HW121962   3.455   1.678   6.681  0.9368  0.5982  0.6073
 3443SOL    HW221963   3.467   1.758   6.554  0.5895 -0.5135  1.1519
 3444SOL     OW21964   3.474   4.093  11.274  0.5488  0.2080  0.0361
 3444SOL    HW121965   3.514   4.022  11.325  0.3882 -0.0579 -0.2066
 3444SOL    HW221966   3.543   4.149  11.240  0.5214  0.8166  0.9775
 3445SOL     OW21967   0.473   1.754   2.104  0.4018  0.5298 -0.2829
 3445SOL    HW121968   0.466   1.850   2.107  3.4227  0.7115  0.5048
 3445SOL    HW221969   0.555   1.742   2.057  1.5222  0.5063  1.6880
 3446SOL     OW21970   2.448   4.432  10.611  0.1527  0.7661  0.0184
 3446SOL    HW121971   2.354   4.423  10.630 -0.1937 -0.2420 -2.1274
 3446SOL    HW221972   2.461   4.337  10.611 -0.0933  0.7323 -0.4541
 3447SOL     OW21973   3.754   0.051   4.915  0.1853 -0.2799 -0.1598
 3447SOL    HW121974   3.719   4.715   4.968 -2.6884  1.0338 -0.2228
 3447SOL    HW221975   3.685   0.112   4.888 -1.2038 -1.6721  0.2220
 3448SOL     OW21976   2.441   3.071   3.504 -0.0916  0.2131 -0.0580
 3448SOL    HW121977   2.397   3.131   3.565  1.3719  2.7589 -1.4871
 3448SOL    HW221978   2.466   3.138   3.440 -0.1919  0.8435  0.5575
 3449SOL     OW21979   0.081   1.582  12.833 -0.1504  0.1746 -0.5329
 3449SOL    HW121980   0.155   1.531  12.867  1.9595  3.3891 -0.3331
 3449SOL    HW221981   0.089   1.577  12.738 -0.6385  0.0409 -0.5668
 3450SOL     OW21982   0.539   4.021   4.201 -0.0265  0.0190  0.3269
 3450SOL    HW121983   0.452   3.982   4.205 -0.5940  0.9713 -2.2244
 3450SOL    HW221984   0.579   3.949   4.249 -0.9925 -1.6419 -1.3815
 3451SOL     OW21985   1.131   2.177   6.011  0.2419 -0.4147  0.4703
 3451SOL    HW121986   1.036   2.182   6.014  0.2133 -0.1079 -1.1416
 3451SOL    HW221987   1.154   2.181   6.104  0.1863  2.5511  0.3388
 3452SOL     OW21988   2.016   0.851   9.895 -0.1331  0.3377  0.4904
 3452SOL    HW121989   2.070   0.855   9.974 -1.5889  2.8156  1.3684
 3452SOL    HW221990   2.086   0.849   9.830 -1.2923 -2.3834 -0.6861
 3453SOL     OW21991   3.052   3.260   9.203 -0.5022  0.0623 -0.2140
 3453SOL    HW121992   3.136   3.292   9.171  0.1630 -2.3523 -0.8822
 3453SOL    HW221993   3.005   3.251   9.120  0.7858  3.8997 -1.3699
 3454SOL     OW21994   2.146   1.791   7.042  0.2025  0.0747 -0.0516
 3454SOL    HW121995   2.152   1.757   6.953  1.6958 -1.4524  0.6307
 3454SOL    HW221996   2.239   1.794   7.063 -0.1867  3.1346  1.2123
 3455SOL     OW21997   3.296   1.964   4.069 -0.2245 -0.0792 -0.0180
 3455SOL    HW121998   3.368   1.987   4.011  0.8233 -1.5099  0.7183
 3455SOL    HW221999   3.222   2.004   4.023 -0.9314  0.4620  1.5945
 3456SOL     OW22000   3.901   0.013   5.432 -0.2905 -0.2539  0.3894
 3456SOL    HW122001   3.948   0.065   5.498  0.1930 -2.5891  1.8687
 3456SOL    HW222002   3.974   4.695   5.404  0.3929  0.3506  0.9672
 3457SOL     OW22003   0.515   1.658   3.586 -0.0567 -0.0643 -0.3011
 3457SOL    HW122004   0.529   1.752   3.587 -0.9249  0.0611 -0.0962
 3457SOL    HW222005   0.585   1.627   3.644  0.1810 -0.6853 -0.9099
 3458SOL     OW22006   4.168   1.945   2.302 -0.0038 -0.6021 -0.2510
 3458SOL    HW122007   4.122   1.892   2.236 -0.0610 -2.2850  1.1157
 3458SOL    HW222008   4.104   2.011   2.329 -0.7656 -0.1342 -3.2495
 3459SOL     OW22009   0.630   1.189  16.864  0.1357  0.2042  0.0904
 3459SOL    HW122010   0.705   1.159  16.814  0.6476  1.4019  0.1672
 3459SOL    HW222011   0.621   1.109  16.916 -1.3032  0.6203  0.4834
 3460SOL     OW22012   4.449   3.340  10.781 -0.2406 -0.1103 -0.3362
 3460SOL    HW122013   4.538   3.316  10.806  0.8640  1.2333 -3.0308
 3460SOL    HW222014   4.429   3.386  10.863 -2.6853  0.0230 -1.0033
 3461SOL     OW22015   3.012   2.490   2.251  0.5002  0.1016  0.0695
 3461SOL    HW122016   2.934   2.545   2.266 -0.1743 -0.4978 -1.2152
 3461SOL    HW222017   3.036   2.475   2.342  1.7553 -1.5219 -0.5371
 3462SOL     OW22018   4.021   1.134   1.144  0.3737  0.4628 -0.3362
 3462SOL    HW122019   4.113   1.107   1.146  0.4449  0.7445  0.4849
 3462SOL    HW222020   3.997   1.055   1.096  3.7707 -1.3369  0.9819
 3463SOL     OW22021   3.841   0.204   0.418 -0.5147  0.3027  0.6764
 3463SOL    HW122022   3.853   0.272   0.484  1.0774  0.7814 -0.1170
 3463SOL    HW222023   3.859   0.118   0.455  1.1300  0.9044  1.2853
 3464SOL     OW22024   2.688   4.558   7.471 -0.2254  0.4719 -0.2101
 3464SOL    HW122025   2.667   4.545   7.563 -1.0776  0.3557 -0.4188
 3464SOL    HW222026   2.617   4.622   7.461 -0.7034 -0.2316 -1.4821
 3465SOL     OW22027   2.505   1.405   2.983 -0.0872  0.4287  0.0625
 3465SOL    HW122028   2.596   1.404   3.010 -0.8697  2.6408  2.7494
 3465SOL    HW222029   2.478   1.313   2.982  0.7493  0.2039 -0.9059
 3466SOL     OW22030   2.175   2.478   5.424 -0.4069  0.6424 -0.1224
 3466SOL    HW122031   2.224   2.402   5.394  1.2364  1.0984  1.4469
 3466SOL    HW222032   2.095   2.470   5.372 -0.9435  1.6314  0.5414
 3467SOL     OW22033   4.714   1.488   2.456 -0.1439  0.4263  0.6577
 3467SOL    HW122034   4.705   1.404   2.501 -0.2617 -0.3405 -0.7986
 3467SOL    HW222035   0.061   1.526   2.483  0.9749 -1.0575 -0.7493
 3468SOL     OW22036   1.734   3.499   7.265 -0.5536 -0.2260  0.2506
 3468SOL    HW122037   1.711   3.573   7.320  2.4456 -0.6256  2.0254
 3468SOL    HW222038   1.649   3.455   7.259 -1.0478  0.6909  0.5548
 3469SOL     OW22039   2.440   1.155  12.112 -0.2657 -0.0879  0.2273
 3469SOL    HW122040   2.461   1.121  12.199  1.5603 -1.3867 -0.7190
 3469SOL    HW222041   2.525   1.173  12.072  0.0052 -0.8596  0.4445
 3470SOL     OW22042   2.960   0.531   3.162  0.1326  0.2598  0.3029
 3470SOL    HW122043   2.939   0.617   3.200  1.1044  0.9566 -0.7282
 3470SOL    HW222044   2.873   0.491   3.170 -0.7603  2.2177  0.3765
 3471SOL     OW22045   2.797   0.984  16.965  0.1633  0.3038  0.0784
 3471SOL    HW122046   2.768   0.896  16.939 -0.9340  1.5447 -2.8432
 3471SOL    HW222047   2.861   0.966  17.034 -0.2147  3.3527  1.1997
 3472SOL     OW22048   2.905   4.591   5.448 -0.2944  0.1451 -0.1339
 3472SOL    HW122049   2.874   4.646   5.376 -1.2957  0.1845  0.3278
 3472SOL    HW222050   2.933   4.659   5.510  2.6472 -0.5643 -0.6601
 3473SOL     OW22051   1.268   1.869   2.554 -0.1075  0.4925 -0.2763
 3473SOL    HW122052   1.327   1.943   2.570 -1.8664  1.5409  1.3431
 3473SOL    HW222053   1.319   1.801   2.511  1.0415 -0.4485  2.6252
 3474SOL     OW22054   0.870   0.315   2.665 -0.6026 -0.2231  0.3413
 3474SOL    HW122055   0.861   0.263   2.745 -1.2492 -2.2394 -1.0217
 3474SOL    HW222056   0.941   0.370   2.699  0.4540 -0.9471 -0.6975
 3475SOL     OW22057   0.256   0.335   8.638 -0.2040 -0.4138 -0.5607
 3475SOL    HW122058   0.327   0.399   8.638 -0.0025 -0.6413 -0.7881
 3475SOL    HW222059   0.182   0.381   8.598 -0.5427 -1.9480 -1.7137
 3476SOL     OW22060   3.421   1.818  12.631 -0.1724  0.3562 -0.3101
 3476SOL    HW122061   3.369   1.880  12.579  0.9015  0.6468 -1.0525
 3476SOL    HW222062   3.394   1.839  12.720  2.6005  4.2826 -0.4001
 3477SOL     OW22063   3.339   0.848   7.451  0.3147  0.3179 -0.5776
 3477SOL    HW122064   3.346   0.867   7.544  0.2833 -0.4115 -0.4248
 3477SOL    HW222065   3.381   0.762   7.456  1.5558  1.1625  2.7781
 3478SOL     OW22066   2.380   2.828   7.937 -0.4823  0.5479 -0.4889
 3478SOL    HW122067   2.437   2.858   8.008  0.4996 -1.1197 -0.5883
 3478SOL    HW222068   2.394   2.733   7.939  1.5954  0.8929  1.5507
 3479SOL     OW22069   4.472   0.591  13.878 -0.2458  0.5095  0.2232
 3479SOL    HW122070   4.453   0.528  13.947 -2.2738  1.4429  0.5024
 3479SOL    HW222071   4.398   0.577  13.820  1.1574 -2.7298 -0.7868
 3480SOL     OW22072   2.792   0.018   3.937 -0.3268  0.2094 -0.1885
 3480SOL    HW122073   2.741   0.088   3.894 -2.0269 -0.4281  0.7869
 3480SOL    HW222074   2.738   4.682   3.906 -0.1942 -0.1008  0.3204
 3481SOL     OW22075   0.212   0.749   3.459 -0.4244  0.5936  0.3721
 3481SOL    HW122076   0.164   0.825   3.426 -1.1987  0.5996  1.5187
 3481SOL    HW222077   0.143   0.684   3.472  0.7885 -0.3181  2.2926
 3482SOL     OW22078   4.630   1.923   8.830 -0.0213 -0.3831 -0.2025
 3482SOL    HW122079   4.677   1.847   8.866 -3.2558 -3.0646 -1.6573
 3482SOL    HW222080   4.603   1.878   8.750 -2.3777  0.5212  0.0846
 3483SOL     OW22081   4.357   2.296  13.165 -0.1455  0.2386  0.0799
 3483SOL    HW122082   4.374   2.222  13.106 -3.6151  0.6009 -1.3938
 3483SOL    HW222083   4.443   2.338  13.165 -0.9465  1.8694  1.5899
 3484SOL     OW22084   2.091   2.137   6.418 -0.4024 -0.1344  0.0727
 3484SOL    HW122085   2.173   2.103   6.383  0.8741  2.0037  1.0060
 3484SOL    HW222086   2.024   2.069   6.406  0.0437 -0.2293 -1.7571
 3485SOL     OW22087   3.985   2.453   0.009  0.4180  0.2662 -0.2874
 3485SOL    HW122088   4.037   2.524  17.717 -1.3547  2.4776  1.5450
 3485SOL    HW222089   3.935   2.506   0.070  0.7314 -1.3140  1.3681
 3486SOL     OW22090   3.824   4.704  17.246  0.6626 -0.4958 -0.8315
 3486SOL    HW122091   3.775   4.716  17.328  1.0431 -2.0687 -0.3712
 3486SOL    HW222092   3.910   4.708  17.289 -0.1134 -2.9891  0.8988
 3487SOL     OW22093   2.902   2.787   5.105  0.4961 -0.1197 -0.6731
 3487SOL    HW122094   2.868   2.833   5.181 -1.0846 -1.6873 -0.4372
 3487SOL    HW222095   2.971   2.846   5.073 -0.7019  1.0647 -1.0673
 3488SOL     OW22096   1.633   3.455  13.196 -0.1515 -0.2532  0.0344
 3488SOL    HW122097   1.585   3.513  13.255  0.9465 -1.2186  1.8758
 3488SOL    HW222098   1.724   3.478  13.217  0.4407 -1.8155 -0.7968
 3489SOL     OW22099   2.111   2.951   0.371 -0.1265  0.2436 -0.1709
 3489SOL    HW122100   2.147   2.871   0.408 -1.9700 -0.5508 -0.0750
 3489SOL    HW222101   2.031   2.933   0.321 -0.2683  1.1362 -0.2630
 3490SOL     OW22102   1.285   0.590   7.686  0.2097 -0.0905 -0.2369
 3490SOL    HW122103   1.230   0.667   7.673 -1.0862 -1.3815 -2.3408
 3490SOL    HW222104   1.356   0.592   7.621 -0.0026 -0.4539 -0.4827
 3491SOL     OW22105   3.485   2.709   8.302 -0.2198  0.2444 -0.2114
 3491SOL    HW122106   3.409   2.741   8.254  0.2321 -1.3251 -1.9749
 3491SOL    HW222107   3.449   2.633   8.347 -1.3896  1.7462  1.3825
 3492SOL     OW22108   2.750   3.629   4.400 -0.0458 -0.4832  0.3423
 3492SOL    HW122109   2.731   3.699   4.336  1.2214  0.2378  0.7697
 3492SOL    HW222110   2.686   3.560   4.381  1.9237 -1.4364 -2.8089
 3493SOL     OW22111   4.197   0.319  13.472  0.1962  0.4569  0.2716
 3493SOL    HW122112   4.188   0.305  13.567 -0.0325 -0.8473  0.0596
 3493SOL    HW222113   4.244   0.236  13.461 -0.4357  0.4161 -2.1294
 3494SOL     OW22114   2.856   2.139   2.230  0.0448 -0.2237  0.6437
 3494SOL    HW122115   2.893   2.181   2.308  2.0378 -0.8149  0.0056
 3494SOL    HW222116   2.815   2.063   2.271  1.1181 -1.3155 -0.3297
 3495SOL     OW22117   1.633   0.690   6.121 -0.1918  0.3977  0.2271
 3495SOL    HW122118   1.573   0.764   6.133  1.3279  1.4298  1.6471
 3495SOL    HW222119   1.634   0.685   6.026 -1.3071  1.5203  0.1553
 3496SOL     OW22120   1.583   1.946  17.106  0.3518 -0.6003 -0.1665
 3496SOL    HW122121   1.502   1.935  17.156 -0.2312 -0.0875 -0.9948
 3496SOL    HW222122   1.557   1.906  17.022  0.8812 -0.3713 -0.4360
 3497SOL     OW22123   1.663   4.034   4.217 -0.1175 -0.0224  0.3758
 3497SOL    HW122124   1.597   4.077   4.272 -1.7724  0.4937 -2.0131
 3497SOL    HW222125   1.728   4.013   4.284  0.3872  0.3193 -0.0083
 3498SOL     OW22126   2.492   1.242   2.130  0.1748 -0.0983 -0.7498
 3498SOL    HW122127   2.435   1.288   2.068 -0.3188  0.0842 -0.1687
 3498SOL    HW222128   2.425   1.181   2.162 -0.9474  1.2453 -0.5579
 3499SOL     OW22129   4.646   3.095  14.742 -0.4497  0.5110 -0.0612
 3499SOL    HW122130   4.696   3.042  14.680 -0.6012  0.7352 -0.3712
 3499SOL    HW222131   4.609   3.028  14.800 -0.4699  0.0294 -0.6220
 3500SOL     OW22132   2.262   0.662  11.192  0.3568 -0.4140 -0.6006
 3500SOL    HW122133   2.345   0.708  11.181 -0.5713  1.6882  1.1191
 3500SOL    HW222134   2.256   0.647  11.286  0.0289  3.5726  0.0239
 3501SOL     OW22135   1.521   2.157   8.935 -0.1460 -0.1897  0.0253
 3501SOL    HW122136   1.517   2.130   8.844  1.3546  1.6490 -0.5766
 3501SOL    HW222137   1.613   2.179   8.951  0.2817 -0.1702 -2.5794
 3502SOL     OW22138   2.377   1.557   2.311 -0.6903 -0.0266 -0.2839
 3502SOL    HW122139   2.307   1.492   2.310 -0.3114 -0.4572  0.9753
 3502SOL    HW222140   2.327   1.637   2.329 -0.5980  0.5660 -2.7021
 3503SOL     OW22141   0.335   4.484  10.402 -0.7762  0.4241  0.0881
 3503SOL    HW122142   0.298   4.516  10.320 -2.6916  0.3716  0.9122
 3503SOL    HW222143   0.359   4.395  10.377  0.2543 -0.4206  4.0433
 3504SOL     OW22144   3.946   3.508   5.459 -0.1418  0.1318  0.0801
 3504SOL    HW122145   3.955   3.586   5.514 -0.4542 -0.0136  0.3417
 3504SOL    HW222146   3.858   3.528   5.429  0.2205  2.2579  0.4196
 3505SOL     OW22147   4.366   0.302  11.401  0.0394  0.2122  0.2648
 3505SOL    HW122148   4.409   0.358  11.465  0.4845  0.5294 -0.3148
 3505SOL    HW222149   4.339   0.227  11.453  0.6813 -1.1649 -1.4099
 3506SOL     OW22150   3.855   2.524  12.285 -0.3160 -0.2397 -0.3835
 3506SOL    HW122151   3.827   2.534  12.194 -2.1424 -0.4877  0.1453
 3506SOL    HW222152   3.770   2.515  12.328 -0.4986  1.6627 -0.3755
 3507SOL     OW22153   1.182   1.043   3.590 -0.2199 -0.1547  0.0089
 3507SOL    HW122154   1.127   1.036   3.669  1.3123 -0.4692  1.0465
 3507SOL    HW222155   1.213   1.131   3.609  2.4429 -1.1678  0.3338
 3508SOL     OW22156   2.445   4.322   4.414  0.3587  0.1411 -0.3465
 3508SOL    HW122157   2.424   4.259   4.483  0.5609 -0.7106 -1.0690
 3508SOL    HW222158   2.357   4.325   4.376  0.9191  1.0151 -1.5871
 3509SOL     OW22159   0.841   1.650   8.850  0.0622 -0.1938  0.3901
 3509SOL    HW122160   0.806   1.687   8.769 -1.8150 -3.2073 -0.1788
 3509SOL    HW222161   0.846   1.736   8.892 -0.7860 -0.4364  0.9917
 3510SOL     OW22162   3.501   4.563   0.950  0.8973 -0.9827 -0.1438
 3510SOL    HW122163   3.515   4.624   1.022  2.6838  1.2971 -2.4169
 3510SOL    HW222164   3.543   4.487   0.990 -1.4543 -0.2479  3.6424
 3511SOL     OW22165   2.872   0.539   6.986 -0.0975 -0.2343  0.4641
 3511SOL    HW122166   2.913   0.475   7.045 -0.6058 -1.1533 -0.1853
 3511SOL    HW222167   2.834   0.594   7.054  0.0315  1.4486 -0.8167
 3512SOL     OW22168   3.785   4.527   2.113 -0.4245  0.3630 -0.0664
 3512SOL    HW122169   3.880   4.511   2.113 -0.1916  1.6479  1.5405
 3512SOL    HW222170   3.783   4.617   2.078  1.3165 -0.0316 -1.2052
 3513SOL     OW22171   3.344   0.275  15.132 -0.4585 -0.8313  0.2035
 3513SOL    HW122172   3.336   0.199  15.074 -2.3738 -0.3379 -0.1977
 3513SOL    HW222173   3.434   0.307  15.131 -0.7028 -0.1127  1.5374
 3514SOL     OW22174   2.703   1.762   8.303  0.4713 -0.0775 -0.1291
 3514SOL    HW122175   2.742   1.675   8.292  0.1879 -0.6609  3.2429
 3514SOL    HW222176   2.652   1.770   8.223  0.8816 -0.0199 -0.3838
 3515SOL     OW22177   3.954   0.076   7.365  0.1136 -0.1233 -0.1727
 3515SOL    HW122178   4.011   0.111   7.433 -0.7772 -1.1552  1.1046
 3515SOL    HW222179   3.878   0.130   7.383 -0.5648 -1.3704  0.7401
 3516SOL     OW22180   2.107   3.710   7.568 -0.1204 -0.4159 -0.2830
 3516SOL    HW122181   2.138   3.767   7.498  0.2621  1.5608  1.4947
 3516SOL    HW222182   2.056   3.772   7.621 -1.1040 -0.0981 -1.5953
 3517SOL     OW22183   1.233   1.175  17.444  0.3999  0.0151 -0.0237
 3517SOL    HW122184   1.294   1.189  17.372 -1.4423 -0.8560 -1.7525
 3517SOL    HW222185   1.155   1.223  17.414  1.0416  0.0046 -1.6891
 3518SOL     OW22186   0.530   0.620   9.477 -0.5885 -0.5104  0.5270
 3518SOL    HW122187   0.552   0.602   9.386 -2.9297  0.7153 -0.2669
 3518SOL    HW222188   0.544   0.713   9.495 -0.3027 -0.2984 -0.8340
 3519SOL     OW22189   2.778   0.347  11.494  0.4531  0.1908  0.7299
 3519SOL    HW122190   2.769   0.337  11.589 -0.4217 -0.4271  0.5799
 3519SOL    HW222191   2.778   0.264  11.447  1.7378  0.0690  0.9470
 3520SOL     OW22192   3.683   1.959   2.164  0.0218 -0.0505  0.4297
 3520SOL    HW122193   3.588   1.957   2.176 -0.5074 -1.8794 -3.7385
 3520SOL    HW222194   3.694   1.876   2.116 -2.3264  0.6086 -1.2779
 3521SOL     OW22195   3.762   4.489   3.142 -0.0794  0.2673  0.3438
 3521SOL    HW122196   3.755   4.569   3.091 -2.3523  0.3437  0.7544
 3521SOL    HW222197   3.856   4.473   3.139 -0.5087 -2.4873  1.2464
 3522SOL     OW22198   3.826   3.284   3.104 -0.5534 -0.5594 -1.0518
 3522SOL    HW122199   3.811   3.276   3.010 -2.3525 -0.1649 -0.7984
 3522SOL    HW222200   3.782   3.207   3.141 -0.9481  0.4490  0.5690
 3523SOL     OW22201   0.917   0.797   2.617  0.4577  0.0714  0.2610
 3523SOL    HW122202   0.823   0.805   2.602  0.7086  1.6425 -0.4484
 3523SOL    HW222203   0.948   0.886   2.599 -0.2632  0.4212  0.7355
 3524SOL     OW22204   1.220   4.636   6.254 -0.2825 -0.1751 -0.3043
 3524SOL    HW122205   1.306   4.644   6.213 -1.5798  1.4152 -2.6553
 3524SOL    HW222206   1.184   4.556   6.215 -0.3388 -0.3588  0.1248
 3525SOL     OW22207   0.313   3.333  13.386 -0.4909  0.4146  0.0084
 3525SOL    HW122208   0.402   3.312  13.356 -0.7563 -1.5350  0.6020
 3525SOL    HW222209   0.289   3.264  13.448 -0.3250  1.4394  1.2131
 3526SOL     OW22210   2.036   4.715   4.163  0.3725 -0.1699  0.3745
 3526SOL    HW122211   1.976   4.652   4.204 -0.9253 -0.0854 -1.4167
 3526SOL    HW222212   2.091   4.650   4.120  1.4379 -0.5877  2.3501
 3527SOL     OW22213   3.308   4.700   9.891  0.2116 -0.4050  0.0914
 3527SOL    HW122214   3.394   4.664   9.912  0.1567 -0.6980 -0.1874
 3527SOL    HW222215   3.277   4.644   9.820  1.9495  0.4483 -1.3507
 3528SOL     OW22216   2.327   0.609  14.705  0.2433  0.6970 -0.5280
 3528SOL    HW122217   2.315   0.587  14.797  1.3002  0.7393 -0.3746
 3528SOL    HW222218   2.262   0.555  14.661  1.0834  1.1681 -2.3798
 3529SOL     OW22219   1.540   4.094   8.744 -0.2379 -0.1129  0.0803
 3529SOL    HW122220   1.553   4.077   8.837 -1.5700  1.3823  0.5334
 3529SOL    HW222221   1.616   4.052   8.703  0.4758  0.4812  0.8110
 3530SOL     OW22222   3.154   0.761   6.326 -0.5553  0.3024 -0.7337
 3530SOL    HW122223   3.084   0.710   6.369  0.8819  1.0375  2.4556
 3530SOL    HW222224   3.189   0.706   6.255 -1.6878 -1.0265 -0.2688
 3531SOL     OW22225   0.346   1.203   7.365  0.6515  0.6062  0.5273
 3531SOL    HW122226   0.359   1.112   7.393 -0.5502  0.0428 -0.7343
 3531SOL    HW222227   0.254   1.212   7.342  0.5664 -1.0011  0.2579
 3532SOL     OW22228   4.024   4.468   4.045 -0.5253 -0.5167 -0.0698
 3532SOL    HW122229   3.997   4.379   4.022 -0.1784 -0.1279 -1.9824
 3532SOL    HW222230   3.960   4.518   3.994 -0.4887 -0.6384 -0.2355
 3533SOL     OW22231   3.055   1.930   7.891 -0.0431 -0.1695  0.1837
 3533SOL    HW122232   3.143   1.901   7.866 -0.3917 -0.8693 -0.2068
 3533SOL    HW222233   3.012   1.851   7.924 -1.1041 -0.6561 -2.3342
 3534SOL     OW22234   3.195   3.509  14.839 -0.2822  0.0465 -0.0270
 3534SOL    HW122235   3.232   3.597  14.831 -0.0138 -0.0171  0.5008
 3534SOL    HW222236   3.271   3.459  14.870  0.8649  0.3124 -2.3879
 3535SOL     OW22237   1.893   3.046  13.961 -0.0729 -0.0645 -0.0492
 3535SOL    HW122238   1.987   3.066  13.969 -0.0647 -1.1329  2.7250
 3535SOL    HW222239   1.895   2.958  13.998 -3.3447  0.1254  0.5779
 3536SOL     OW22240   1.954   2.645  16.957 -0.3827 -0.3672 -0.0638
 3536SOL    HW122241   1.894   2.711  16.921  0.0153  0.7078  1.2705
 3536SOL    HW222242   2.020   2.658  16.889 -0.1016 -0.5563  0.1791
 3537SOL     OW22243   2.604   0.684   5.406  0.6546  0.3039 -0.1514
 3537SOL    HW122244   2.631   0.642   5.487  2.8215  0.4255 -0.8044
 3537SOL    HW222245   2.529   0.730   5.443 -0.6598 -1.2294 -0.8877
 3538SOL     OW22246   4.310   1.184   9.456  0.5567  0.5734 -0.0780
 3538SOL    HW122247   4.347   1.129   9.387  0.0282  0.1827 -0.0534
 3538SOL    HW222248   4.315   1.118   9.526 -0.1798 -1.0144 -1.4993
 3539SOL     OW22249   3.811   3.867   8.377  0.2306 -0.0482 -0.2345
 3539SOL    HW122250   3.822   3.891   8.469 -0.7909 -2.8970  0.6161
 3539SOL    HW222251   3.736   3.809   8.376  0.4918 -0.3949  0.2157
 3540SOL     OW22252   3.963   1.324   4.540 -0.0437 -0.5717  0.6146
 3540SOL    HW122253   3.934   1.401   4.492  1.3845 -0.7376 -0.5133
 3540SOL    HW222254   4.025   1.360   4.604  0.9915  0.3554 -0.8998
 3541SOL     OW22255   4.725   2.514   0.990  0.0278 -0.1251 -0.3524
 3541SOL    HW122256   4.631   2.508   0.972  0.0395 -0.9621 -0.1106
 3541SOL    HW222257   0.027   2.436   0.951  0.1505  0.7743 -2.0538
 3542SOL     OW22258   0.802   1.055   8.737  0.0425 -0.3163  0.6179
 3542SOL    HW122259   0.836   1.135   8.697  1.2985 -2.2025 -2.0701
 3542SOL    HW222260   0.884   1.016   8.767 -1.2914 -2.0232  2.0521
 3543SOL     OW22261   4.078   4.068   1.845 -0.2319 -0.0606 -0.3688
 3543SOL    HW122262   4.056   3.975   1.850  0.1864 -0.2840 -3.0042
 3543SOL    HW222263   4.013   4.104   1.906  0.6993  0.1118  0.5213
 3544SOL     OW22264   0.684   2.923   3.934 -0.1948 -0.0675 -0.2353
 3544SOL    HW122265   0.594   2.892   3.922  0.4300 -1.3093 -1.6633
 3544SOL    HW222266   0.682   2.941   4.028 -0.8423  1.7036 -0.5862
 3545SOL     OW22267   4.027   0.381   2.054 -0.1626  0.6145 -0.3658
 3545SOL    HW122268   4.019   0.323   1.978 -0.9999 -0.8640  0.8655
 3545SOL    HW222269   4.118   0.366   2.076 -0.0652 -0.5021 -1.5514
 3546SOL     OW22270   2.427   3.714   2.702  0.3631  0.3714  0.8149
 3546SOL    HW122271   2.374   3.739   2.777  1.0490 -0.3760  1.5577
 3546SOL    HW222272   2.509   3.735   2.746  0.1819  1.2462  0.7201
 3547SOL     OW22273   2.245   2.434   6.367 -0.1159  0.0913 -0.0331
 3547SOL    HW122274   2.229   2.488   6.444  0.3192 -0.3412  0.3670
 3547SOL    HW222275   2.156   2.417   6.337 -0.4101  1.8521 -0.1564
 3548SOL     OW22276   0.250   2.314  14.052  0.4148  0.2658  0.0929
 3548SOL    HW122277   0.230   2.226  14.019  3.0526  0.1141 -1.0958
 3548SOL    HW222278   0.229   2.306  14.145  1.4653 -2.3825  0.0976
 3549SOL     OW22279   3.850   4.505  12.117 -0.3268 -0.0162  0.0929
 3549SOL    HW122280   3.937   4.543  12.111  0.2073 -1.3041 -0.2358
 3549SOL    HW222281   3.811   4.542  12.038  0.2533  0.0867 -0.1400
 3550SOL     OW22282   3.403   3.713   0.083 -0.0008  0.2865 -0.1417
 3550SOL    HW122283   3.369   3.738  17.743  2.5495  1.4090 -0.8042
 3550SOL    HW222284   3.408   3.621   0.057 -2.5290 -0.4413  1.9175
 3551SOL     OW22285   3.301   0.781   0.591  0.3358  0.2770 -0.4807
 3551SOL    HW122286   3.236   0.727   0.546  1.7259 -0.3174 -1.7692
 3551SOL    HW222287   3.383   0.737   0.566  0.8384  0.1335  1.4048
 3552SOL     OW22288   1.660   1.189   1.684 -0.0798  0.9496  0.2548
 3552SOL    HW122289   1.744   1.233   1.699  0.1818  1.1961 -1.8714
 3552SOL    HW222290   1.681   1.105   1.642 -1.1622  0.8277 -0.0405
 3553SOL     OW22291   2.903   3.147  11.649 -0.1202  0.9016  0.2376
 3553SOL    HW122292   2.850   3.227  11.643 -1.7354 -0.1222  0.7906
 3553SOL    HW222293   2.882   3.117  11.738 -2.6439 -0.1998 -0.7454
 3554SOL     OW22294   4.587   2.158   9.816  0.7380  0.1140  0.1695
 3554SOL    HW122295   4.571   2.238   9.866  1.0307 -0.4762  1.2012
 3554SOL    HW222296   4.647   2.106   9.869 -0.2604 -1.2236 -0.0075
 3555SOL     OW22297   1.826   1.233   4.788 -0.4967  0.3002  0.3258
 3555SOL    HW122298   1.818   1.142   4.758 -0.6750  0.8013 -1.1548
 3555SOL    HW222299   1.786   1.287   4.720 -1.3984 -1.0679 -0.2437
 3556SOL     OW22300   3.503   3.820   3.014 -0.2414  0.3848 -0.2688
 3556SOL    HW122301   3.544   3.902   3.042 -0.6137  0.0615  1.2520
 3556SOL    HW222302   3.561   3.753   3.050 -0.9207  0.8155  1.6633
 3557SOL     OW22303   0.765   0.948   2.200 -0.1163 -0.2217  0.3586
 3557SOL    HW122304   0.738   1.008   2.270 -0.7960 -0.6293  0.4455
 3557SOL    HW222305   0.685   0.926   2.153  0.8489 -1.5492 -0.6581
 3558SOL     OW22306   2.472   4.107   2.776 -0.1277 -0.0709 -0.2876
 3558SOL    HW122307   2.417   4.091   2.700 -1.7448  6.2640 -0.4323
 3558SOL    HW222308   2.410   4.144   2.839 -2.9596  1.5432 -4.0258
 3559SOL     OW22309   3.377   4.579   7.100 -0.2328 -0.1008  0.5217
 3559SOL    HW122310   3.287   4.612   7.097  0.4858  1.6663 -1.5867
 3559SOL    HW222311   3.375   4.496   7.148 -0.1601  0.4646  1.5049
 3560SOL     OW22312   2.279   0.204  10.956  0.1490 -0.6600  0.2052
 3560SOL    HW122313   2.348   0.231  10.896 -0.0355 -0.1935  0.2065
 3560SOL    HW222314   2.314   0.245  11.035 -1.2272  1.1062 -0.0983
 3561SOL     OW22315   3.588   4.594   1.478 -0.0056 -0.1814 -0.6123
 3561SOL    HW122316   3.631   4.676   1.455 -0.9588  0.3159 -0.6119
 3561SOL    HW222317   3.601   4.577   1.571  2.3937  1.1395 -0.7158
 3562SOL     OW22318   4.651   1.986   0.281  0.6340  0.1213 -0.7654
 3562SOL    HW122319   4.680   1.941   0.202 -0.8495 -0.5170 -0.9491
 3562SOL    HW222320   4.659   2.075   0.249  0.6723  0.1812 -0.5885
 3563SOL     OW22321   1.832   0.973  11.195  0.0156  0.0946 -0.1664
 3563SOL    HW122322   1.783   0.913  11.139 -1.3009  1.0724 -0.0687
 3563SOL    HW222323   1.922   0.945  11.181 -0.0091  0.7854 -1.6282
 3564SOL     OW22324   4.620   4.404   1.973  0.8433 -0.5343 -0.1071
 3564SOL    HW122325   4.603   4.358   1.891  0.7011 -0.9370  0.1463
 3564SOL    HW222326   4.712   4.383   1.984  0.6801 -1.6984 -0.8446
 3565SOL     OW22327   4.201   2.004  12.743  0.0505 -0.4442 -0.6659
 3565SOL    HW122328   4.216   2.098  12.755  1.0558 -1.0347  2.5537
 3565SOL    HW222329   4.187   1.969  12.831 -0.3414 -1.4141 -1.1169
 3566SOL     OW22330   1.388   1.053   1.781  0.1231  0.1825  0.1070
 3566SOL    HW122331   1.362   1.137   1.741 -3.5458 -0.5418  0.9917
 3566SOL    HW222332   1.298   1.028   1.801  1.2602 -4.2128 -0.2580
 3567SOL     OW22333   0.492   2.367   1.151  0.2873 -0.0685 -0.0661
 3567SOL    HW122334   0.518   2.450   1.192  1.2381 -0.1406 -0.5257
 3567SOL    HW222335   0.573   2.333   1.114  2.3917  2.8834  1.8149
 3568SOL     OW22336   2.662   3.502   2.104  0.1796 -0.2502  0.1111
 3568SOL    HW122337   2.686   3.533   2.016  1.3979 -0.2313  0.4486
 3568SOL    HW222338   2.567   3.509   2.094  0.1527 -1.5898 -0.6040
 3569SOL     OW22339   4.294   2.040   8.423 -0.0929 -0.1598  0.2525
 3569SOL    HW122340   4.384   2.071   8.410  0.6888 -1.5604  2.1519
 3569SOL    HW222341   4.256   2.044   8.336  2.3507 -0.9125 -0.8421
 3570SOL     OW22342   1.177   1.342  15.076  0.2427  0.1166  0.5146
 3570SOL    HW122343   1.217   1.279  15.017  0.8914 -0.0470  1.1243
 3570SOL    HW222344   1.093   1.369  15.038  0.6885  2.1382  0.9407
 3571SOL     OW22345   1.875   2.441  16.467 -0.2801 -0.0604 -0.5141
 3571SOL    HW122346   1.793   2.393  16.469 -1.3164  1.6689 -1.0847
 3571SOL    HW222347   1.899   2.435  16.374  3.4944  2.6049  0.2803
 3572SOL     OW22348   4.544   3.101  14.262  0.1881  0.3668 -0.4495
 3572SOL    HW122349   4.536   3.184  14.308 -1.4841  0.1772 -0.4288
 3572SOL    HW222350   4.493   3.037  14.311  1.2862 -1.2184 -1.3656
 3573SOL     OW22351   3.500   2.262   7.068 -0.3979  0.5994 -0.0235
 3573SOL    HW122352   3.455   2.328   7.121  3.0281  2.5300  0.4763
 3573SOL    HW222353   3.579   2.245   7.119 -1.1116 -1.0488  0.5108
 3574SOL     OW22354   0.909   3.575   6.610 -0.0239  0.1210  0.3644
 3574SOL    HW122355   0.949   3.611   6.530  1.2700  0.3805  1.1369
 3574SOL    HW222356   0.945   3.487   6.601 -0.7812 -0.2440  0.9749
 3575SOL     OW22357   0.642   0.271  12.702 -0.0712 -0.5204 -0.1869
 3575SOL    HW122358   0.633   0.356  12.744 -0.5153 -1.6808  2.0501
 3575SOL    HW222359   0.652   0.216  12.779 -1.9476 -0.8963 -0.1919
 3576SOL     OW22360   1.860   0.919   8.618  0.8250 -0.6130  0.3893
 3576SOL    HW122361   1.792   0.954   8.561  2.1085  1.9823  0.4455
 3576SOL    HW222362   1.813   0.839   8.643  0.5081 -0.5047  0.1429
 3577SOL     OW22363   3.285   4.476   1.188  0.1852 -0.7443 -0.2986
 3577SOL    HW122364   3.214   4.413   1.180 -0.0659 -0.3245 -1.4303
 3577SOL    HW222365   3.355   4.427   1.145  1.2047 -0.8714  1.5225
 3578SOL     OW22366   1.061   0.776   1.046  0.0654 -0.0909 -0.2378
 3578SOL    HW122367   0.985   0.730   1.012 -2.0964  1.3283  2.6658
 3578SOL    HW222368   1.125   0.754   0.979  0.4274 -1.7219  0.6512
 3579SOL     OW22369   0.427   2.251   5.497  0.3678 -0.5870 -0.2594
 3579SOL    HW122370   0.470   2.247   5.583 -0.6503 -0.8931  0.2353
 3579SOL    HW222371   0.466   2.334   5.468  0.0597 -0.1374  0.6052
 3580SOL     OW22372   2.158   3.197   1.584 -0.1733 -0.7377  0.7110
 3580SOL    HW122373   2.117   3.231   1.664  0.9699  1.5842  0.2946
 3580SOL    HW222374   2.074   3.171   1.546 -1.1471  0.3091  2.1269
 3581SOL     OW22375   2.338   3.172  16.476 -0.1332  0.6058 -0.5350
 3581SOL    HW122376   2.373   3.193  16.389  0.5815 -0.5818 -0.5421
 3581SOL    HW222377   2.418   3.151  16.525 -0.8727 -0.7567  0.0738
 3582SOL     OW22378   4.592   3.618   6.175 -0.1517  0.1025 -0.4267
 3582SOL    HW122379   4.614   3.670   6.252  0.4349 -2.5957  1.2435
 3582SOL    HW222380   4.670   3.563   6.179  0.4794  1.0550  0.2011
 3583SOL     OW22381   2.444   2.750  17.212 -0.0383 -0.3097  0.2128
 3583SOL    HW122382   2.445   2.666  17.166  0.9355 -0.1029 -0.1427
 3583SOL    HW222383   2.351   2.752  17.234  0.2033  1.4251  1.0246
 3584SOL     OW22384   2.276   4.057   3.403  0.3318 -0.2850 -0.4124
 3584SOL    HW122385   2.303   4.056   3.495  0.1477 -2.4983 -0.3917
 3584SOL    HW222386   2.186   4.080   3.423  0.0945 -0.0326 -1.7723
 3585SOL     OW22387   2.242   2.944  12.179  0.0628  0.3422 -0.1196
 3585SOL    HW122388   2.264   3.010  12.245  0.3438  0.2524 -0.1246
 3585SOL    HW222389   2.161   2.897  12.199 -0.0642  0.7580  0.3390
 3586SOL     OW22390   0.883   1.274   0.881 -0.4610 -0.1761 -0.3784
 3586SOL    HW122391   0.964   1.224   0.879  1.0237  2.1895  0.6097
 3586SOL    HW222392   0.909   1.354   0.926 -0.4952 -0.0368 -0.6078
 3587SOL     OW22393   3.142   2.439   7.381  0.3456  0.2093  0.6481
 3587SOL    HW122394   3.075   2.470   7.320  1.8393 -1.8282 -2.0161
 3587SOL    HW222395   3.184   2.517   7.418 -2.7127  3.2170 -2.1479
 3588SOL     OW22396   4.336   0.306   4.459  0.2144 -0.2950 -0.1127
 3588SOL    HW122397   4.254   0.266   4.431  0.2944  1.0246 -2.1801
 3588SOL    HW222398   4.318   0.302   4.553  1.3368  3.1672  0.2711
 3589SOL     OW22399   2.236   1.068   8.238  0.1163 -0.5834  0.3710
 3589SOL    HW122400   2.161   1.028   8.282 -0.2731 -2.1359 -1.7044
 3589SOL    HW222401   2.298   1.023   8.296 -0.9042 -1.2077  0.9828
 3590SOL     OW22402   3.764   0.235   2.299 -0.5516  0.2201  0.7758
 3590SOL    HW122403   3.773   0.308   2.239 -0.8683 -0.4858 -0.1240
 3590SOL    HW222404   3.756   0.286   2.380  1.1132 -0.5613  1.4341
 3591SOL     OW22405   0.904   1.160  12.839  0.0864 -0.2137  0.7416
 3591SOL    HW122406   0.952   1.142  12.758 -1.5754  0.2681 -0.3423
 3591SOL    HW222407   0.832   1.098  12.831  0.6068 -0.6724 -0.5353
 3592SOL     OW22408   2.381   1.583   1.908  0.0188  0.5239 -0.4579
 3592SOL    HW122409   2.446   1.612   1.972  0.7479  1.1540 -1.4868
 3592SOL    HW222410   2.394   1.653   1.844  0.3334  1.4837  0.6560
 3593SOL     OW22411   4.525   1.704   9.254 -0.0221 -0.8805 -0.2108
 3593SOL    HW122412   4.444   1.745   9.284  0.2047 -0.0950 -0.6811
 3593SOL    HW222413   4.510   1.713   9.160 -0.3473  2.1068  0.1378
 3594SOL     OW22414   2.296   2.457   0.275  0.4386 -0.2115 -0.0374
 3594SOL    HW122415   2.237   2.506   0.333  0.9813  0.1947  0.1782
 3594SOL    HW222416   2.268   2.366   0.285 -1.3958  0.5996  2.1697
 3595SOL     OW22417   0.146   4.626   4.689 -0.6437  0.4277 -0.5637
 3595SOL    HW122418   0.240   4.646   4.687 -0.5125 -0.2827 -1.2844
 3595SOL    HW222419   0.144   4.534   4.714 -2.0108  0.1244 -1.7963
 3596SOL     OW22420   4.678   3.261   5.630  0.1641 -0.5376  0.1972
 3596SOL    HW122421   0.036   3.275   5.636 -0.2387  1.2836  2.5388
 3596SOL    HW222422   4.648   3.313   5.555 -1.9134 -1.3322  0.4896
 3597SOL     OW22423   0.411   0.962   8.157  0.5923 -0.0573 -0.2539
 3597SOL    HW122424   0.485   0.986   8.101 -0.1229  0.7142 -0.8774
 3597SOL    HW222425   0.441   0.871   8.163  1.0286  0.2213  1.8287
 3598SOL     OW22426   1.537   4.646   8.577  0.2825 -0.4619 -0.1975
 3598SOL    HW122427   1.581   4.562   8.575 -0.1208 -0.6946  0.7496
 3598SOL    HW222428   1.474   4.637   8.506  1.1545  0.9610 -1.1498
 3599SOL     OW22429   4.618   4.030   7.549 -0.1196 -0.6674  0.1026
 3599SOL    HW122430   4.643   4.121   7.564 -0.2660 -0.7635  0.9681
 3599SOL    HW222431   4.707   3.995   7.556  0.5237  0.7992 -0.8843
 3600SOL     OW22432   4.248   2.030  11.847  0.2046  0.1994 -0.4564
 3600SOL    HW122433   4.247   1.967  11.919  0.3064 -0.8298 -1.3399
 3600SOL    HW222434   4.176   2.001  11.790 -0.3535  0.3671  0.1595
 3601SOL     OW22435   3.042   3.913  12.346 -0.1310  0.1508 -0.1894
 3601SOL    HW122436   3.001   3.951  12.424 -3.7098 -1.8485 -1.0765
 3601SOL    HW222437   3.096   3.840  12.376 -0.6387 -0.6806 -1.2985
 3602SOL     OW22438   3.702   2.465   8.567 -0.3996  0.0892  0.2082
 3602SOL    HW122439   3.749   2.503   8.641 -2.9837  0.4312  1.6525
 3602SOL    HW222440   3.710   2.543   8.512  0.5892  0.1674  0.4548
 3603SOL     OW22441   0.382   4.670   4.573 -0.1703 -0.0675  0.4455
 3603SOL    HW122442   0.331   0.011   4.550  0.8104  1.4359  3.2218
 3603SOL    HW222443   0.381   4.616   4.494  0.1316 -0.0158  0.4055
 3604SOL     OW22444   4.466   4.084   8.908  0.1263 -0.5291 -0.9007
 3604SOL    HW122445   4.493   4.112   8.820  2.2750 -0.5269 -0.2540
 3604SOL    HW222446   4.432   4.171   8.930 -0.8474 -1.4029  1.0644
 3605SOL     OW22447   0.524   0.231   2.953  0.5077 -0.4190  0.3251
 3605SOL    HW122448   0.596   0.295   2.951 -0.8514  1.1630  2.1425
 3605SOL    HW222449   0.564   0.160   3.004  0.0404  0.6854  2.1976
 3606SOL     OW22450   3.185   4.312   4.950  0.0310  0.6723  0.4223
 3606SOL    HW122451   3.092   4.289   4.955  0.7443 -2.0421  0.8878
 3606SOL    HW222452   3.204   4.321   5.043  2.8067  0.5734 -0.1321
 3607SOL     OW22453   0.441   2.357   1.488  0.6089  0.2457 -0.0606
 3607SOL    HW122454   0.359   2.403   1.508 -0.1122 -0.7585 -0.6981
 3607SOL    HW222455   0.487   2.415   1.427  2.2981 -0.0107  0.9689
 3608SOL     OW22456   2.150   3.649   9.719  0.0552  0.4033  0.0591
 3608SOL    HW122457   2.174   3.741   9.715 -1.8944  0.9958  1.8987
 3608SOL    HW222458   2.066   3.659   9.763  0.1843  0.5920  0.2612
 3609SOL     OW22459   3.034   0.645   5.102  0.4659  0.1188  0.1478
 3609SOL    HW122460   3.124   0.634   5.069  0.4754 -1.0365  0.5587
 3609SOL    HW222461   2.983   0.622   5.025 -1.9602  0.9501  1.5239
 3610SOL     OW22462   1.492   2.829   0.171 -0.0175  0.2276  0.1490
 3610SOL    HW122463   1.439   2.902   0.203  2.2954  1.3361  1.4258
 3610SOL    HW222464   1.581   2.864   0.182 -0.0918  0.2280  0.7288
 3611SOL     OW22465   0.909   1.229  11.461  0.2118  0.1590  0.3950
 3611SOL    HW122466   0.941   1.262  11.545  0.2642 -1.4225  0.9902
 3611SOL    HW222467   0.991   1.188  11.433  1.3499  3.0067 -0.5047
 3612SOL     OW22468   3.109   3.143   6.830 -0.3274  0.6177  0.1282
 3612SOL    HW122469   3.054   3.128   6.907 -0.6126  2.6027  0.3178
 3612SOL    HW222470   3.137   3.055   6.806  0.6128  0.8151  0.5124
 3613SOL     OW22471   3.813   4.273   5.018  0.4568 -0.6137  0.1030
 3613SOL    HW122472   3.908   4.259   5.019  0.6535  0.6861 -0.1232
 3613SOL    HW222473   3.786   4.228   5.098 -0.7912  0.4387  0.2587
 3614SOL     OW22474   4.605   0.875  10.340  0.1127 -0.1054 -0.8078
 3614SOL    HW122475   4.532   0.909  10.288 -0.7296  2.3505  2.0014
 3614SOL    HW222476   4.639   0.808  10.281  0.3060  0.2456 -1.0994
 3615SOL     OW22477   0.848   2.875   3.093 -0.3590  0.6259  0.1746
 3615SOL    HW122478   0.834   2.867   3.187 -0.9193 -0.8997 -0.0435
 3615SOL    HW222479   0.891   2.961   3.092 -0.1839  0.5635  2.1532
 3616SOL     OW22480   1.277   2.015   5.587 -0.4134  0.2764 -0.7202
 3616SOL    HW122481   1.250   1.933   5.629  1.9130  0.2617  0.7293
 3616SOL    HW222482   1.371   2.003   5.575 -0.3702  0.3479 -0.4466
 3617SOL     OW22483   1.565   4.520  15.426 -0.7151  0.5632 -0.0527
 3617SOL    HW122484   1.567   4.484  15.337 -0.2754 -2.3957  1.1615
 3617SOL    HW222485   1.550   4.608  15.390  1.2032  1.9218  2.4982
 3618SOL     OW22486   1.082   2.144   0.965 -0.3259 -0.1297 -0.3042
 3618SOL    HW122487   0.990   2.144   0.939 -0.7166 -0.0393  1.0623
 3618SOL    HW222488   1.112   2.195   0.890 -2.2228  0.1465 -0.8735
 3619SOL     OW22489   0.223   1.182   5.731  0.1378 -0.3769  0.2050
 3619SOL    HW122490   0.182   1.228   5.804 -1.4162  0.3116 -1.1115
 3619SOL    HW222491   0.211   1.093   5.765  1.3555 -0.2295  1.0307
 3620SOL     OW22492   2.777   4.674   5.892  0.4449  0.3540  0.0775
 3620SOL    HW122493   2.741   4.670   5.804  1.2782  0.4045 -0.2720
 3620SOL    HW222494   2.786   4.581   5.914 -1.5420 -0.1005 -1.0165
 3621SOL     OW22495   3.476   3.773   8.891 -0.0142 -0.0471 -0.0716
 3621SOL    HW122496   3.407   3.803   8.950 -3.3168 -1.6295 -3.1387
 3621SOL    HW222497   3.535   3.761   8.965 -1.6424  1.8500  1.5609
 3622SOL     OW22498   2.394   3.946   6.752  0.3303  0.1547  0.3232
 3622SOL    HW122499   2.363   4.036   6.759 -1.5388 -0.3058 -1.7492
 3622SOL    HW222500   2.420   3.929   6.842  1.8382  0.8334  0.0068
 3623SOL     OW22501   3.535   4.099   9.772  0.6619 -0.7847 -0.1533
 3623SOL    HW122502   3.547   4.092   9.867 -0.9579 -2.5660 -0.0879
 3623SOL    HW222503   3.581   4.181   9.757 -1.0686  0.1113 -0.5713
 3624SOL     OW22504   2.057   4.024   7.778  0.0538  0.1105  1.1308
 3624SOL    HW122505   2.024   4.107   7.814  0.8710  1.4560 -1.1556
 3624SOL    HW222506   1.999   4.011   7.703 -0.2672 -1.5282  1.6714
 3625SOL     OW22507   3.645   2.912   8.259  0.1691 -0.5480  0.3342
 3625SOL    HW122508   3.597   2.950   8.185 -0.7509 -1.0510  0.6727
 3625SOL    HW222509   3.594   2.833   8.276  1.0850 -1.3426 -0.6191
 3626SOL     OW22510   2.910   0.247   1.983 -0.6371  0.5557 -0.2978
 3626SOL    HW122511   2.820   0.215   1.979  0.0351 -1.3753  0.0578
 3626SOL    HW222512   2.955   0.180   2.034 -2.0818 -0.1630  0.0444
 3627SOL     OW22513   3.322   1.227   2.934 -0.0630 -0.8938 -0.1488
 3627SOL    HW122514   3.321   1.321   2.952 -1.2081 -1.0283  0.4940
 3627SOL    HW222515   3.276   1.198   3.012 -0.6954 -1.4414 -0.7225
 3628SOL     OW22516   3.192   2.713  15.907 -0.6294  0.9193 -0.5053
 3628SOL    HW122517   3.269   2.657  15.921  0.0645  1.8725 -0.4621
 3628SOL    HW222518   3.226   2.794  15.945  0.7048  0.9673 -1.7913
 3629SOL     OW22519   2.378   4.170   4.654 -0.2533 -0.0720 -0.6007
 3629SOL    HW122520   2.291   4.134   4.673 -1.0438  2.1017 -0.0839
 3629SOL    HW222521   2.431   4.096   4.685  0.2522  0.7278  0.4233
 3630SOL     OW22522   0.029   0.591   2.269  0.1769 -0.8981  0.4500
 3630SOL    HW122523   4.692   0.652   2.268  0.5749 -0.4233  0.1831
 3630SOL    HW222524   0.056   0.603   2.361  3.7478  0.3282 -0.7527
 3631SOL     OW22525   0.258   4.682   8.227 -0.1115  0.0169  0.4541
 3631SOL    HW122526   0.301   4.651   8.306  1.2815 -0.7404 -0.6074
 3631SOL    HW222527   0.323   0.002   8.185  1.9420 -1.3295  1.8211
 3632SOL     OW22528   2.524   3.219  16.670 -0.1794 -0.4623  0.8852
 3632SOL    HW122529   2.460   3.171  16.722 -0.5957 -1.3520 -0.4280
 3632SOL    HW222530   2.585   3.230  16.742  0.1161  0.4229  0.4974
 3633SOL     OW22531   1.425   1.182   5.647 -0.1038 -0.2486 -0.0122
 3633SOL    HW122532   1.403   1.205   5.737 -0.4980  1.4384 -0.5455
 3633SOL    HW222533   1.362   1.113   5.628  0.7246 -0.3853 -2.2878
 3634SOL     OW22534   2.991   2.001   2.645  0.0295  0.0832  0.1009
 3634SOL    HW122535   3.062   1.949   2.609 -0.1396  0.2144 -0.4273
 3634SOL    HW222536   2.995   2.061   2.570  2.5077  0.2595  0.3790
 3635SOL     OW22537   4.274   0.353   2.223 -0.3149  0.2187 -0.3320
 3635SOL    HW122538   4.246   0.310   2.304 -0.2724  2.6623  0.9770
 3635SOL    HW222539   4.335   0.292   2.181 -1.9342 -1.5620 -0.1153
 3636SOL     OW22540   4.381   4.119   9.585 -1.1344  0.0304  0.4419
 3636SOL    HW122541   4.396   4.026   9.566  0.6842  0.8480 -2.0364
 3636SOL    HW222542   4.466   4.150   9.615 -1.2330  2.1449 -1.4661
 3637SOL     OW22543   3.747   1.015   4.827 -0.7766  0.6903  0.0258
 3637SOL    HW122544   3.819   1.045   4.883 -0.5591  0.2046  0.0084
 3637SOL    HW222545   3.802   1.003   4.750  0.5760 -0.9377  1.2619
 3638SOL     OW22546   3.559   4.044  15.905 -0.0163  0.0999 -0.0173
 3638SOL    HW122547   3.469   4.012  15.901 -0.1660  0.6686 -1.2699
 3638SOL    HW222548   3.549   4.127  15.859 -0.2841  0.4504  0.6910
 3639SOL     OW22549   2.783   1.589   2.294 -0.0466  0.2536 -0.7551
 3639SOL    HW122550   2.855   1.536   2.327 -1.7056 -1.3668  0.2274
 3639SOL    HW222551   2.710   1.529   2.284  1.4196 -1.8073  0.9208
 3640SOL     OW22552   1.791   1.906  14.980 -0.1070 -0.2786 -0.0245
 3640SOL    HW122553   1.753   1.940  14.899 -0.5424  0.0219  0.3086
 3640SOL    HW222554   1.878   1.880  14.949  0.3112 -1.6433  2.2387
 3641SOL     OW22555   4.045   2.571   6.366  0.3124 -0.1176 -0.0105
 3641SOL    HW122556   3.984   2.644   6.361  0.0932 -0.3471 -0.7117
 3641SOL    HW222557   3.998   2.518   6.430 -3.2011  2.1698 -0.7039
 3642SOL     OW22558   3.550   3.879   7.389  0.5550  0.3607  0.1138
 3642SOL    HW122559   3.508   3.804   7.346  1.8473  0.8757 -2.0799
 3642SOL    HW222560   3.475   3.923   7.430 -0.8743 -4.3541  2.5119
 3643SOL     OW22561   2.390   1.147   2.694 -0.0672  0.1219  0.4351
 3643SOL    HW122562   2.468   1.096   2.718 -0.1792  0.3547  1.2629
 3643SOL    HW222563   2.368   1.100   2.613  0.9113  0.0920  0.1773
 3644SOL     OW22564   2.703   3.943   3.867 -0.6391  0.1543  0.0791
 3644SOL    HW122565   2.694   3.988   3.951  1.5542  1.0095 -0.1458
 3644SOL    HW222566   2.712   4.013   3.802 -0.0419  0.1741  0.1771
 3645SOL     OW22567   1.484   2.681   8.442  0.1112 -0.6430 -0.2058
 3645SOL    HW122568   1.533   2.755   8.478 -1.1565 -0.0424  0.2911
 3645SOL    HW222569   1.461   2.637   8.523 -0.2051 -1.8591 -0.9654
 3646SOL     OW22570   2.855   0.865   9.433 -0.2556  0.5009 -0.0273
 3646SOL    HW122571   2.841   0.854   9.527  2.0002  0.9285  0.3806
 3646SOL    HW222572   2.779   0.906   9.392 -1.3130 -1.1765  0.2587
 3647SOL     OW22573   1.016   1.873   7.789 -0.1258 -0.2801  0.6202
 3647SOL    HW122574   1.070   1.860   7.711 -0.4977  1.8737  0.0059
 3647SOL    HW222575   0.948   1.808   7.771  0.4099 -1.2994  2.2525
 3648SOL     OW22576   1.389   1.471   7.147  0.2027  0.7948  0.1083
 3648SOL    HW122577   1.317   1.440   7.092  1.2639  1.1382 -1.4456
 3648SOL    HW222578   1.462   1.451   7.089  0.8827  1.5178  0.7136
 3649SOL     OW22579   2.592   0.536   8.251 -0.0097 -0.1729  0.5688
 3649SOL    HW122580   2.499   0.558   8.262  0.1109  0.7532 -0.3308
 3649SOL    HW222581   2.596   0.442   8.269  0.7126 -0.2758 -0.1483
 3650SOL     OW22582   4.019   2.123   4.930  0.0865 -0.0236  0.2610
 3650SOL    HW122583   3.951   2.157   4.871  1.1754  1.2455 -0.2511
 3650SOL    HW222584   4.089   2.094   4.872  0.7761 -0.7641  1.4629
 3651SOL     OW22585   2.373   1.669   3.578 -0.3451 -0.4263 -0.5583
 3651SOL    HW122586   2.453   1.642   3.623 -0.8591  0.5704  0.9155
 3651SOL    HW222587   2.397   1.760   3.563 -2.3744  0.1045 -0.5829
 3652SOL     OW22588   1.998   4.381   0.252  0.1295  0.5646 -0.2203
 3652SOL    HW122589   2.035   4.329   0.323  1.6105  2.0122  0.0792
 3652SOL    HW222590   1.915   4.337   0.236  0.2037  0.4324 -0.2436
 3653SOL     OW22591   2.892   4.640  16.280  0.1072  0.3033 -0.3288
 3653SOL    HW122592   2.966   4.636  16.340 -1.2189 -2.6514  1.1375
 3653SOL    HW222593   2.918   4.688  16.201  0.6164 -0.3816 -0.5764
 3654SOL     OW22594   2.715   0.280   6.802  0.2120  0.0754  0.1770
 3654SOL    HW122595   2.757   0.364   6.785 -0.0784  0.2336  0.2407
 3654SOL    HW222596   2.719   0.239   6.715 -2.0237 -1.1247  0.6360
 3655SOL     OW22597   2.895   1.446  11.517 -0.7527 -0.1583 -0.3055
 3655SOL    HW122598   2.966   1.502  11.487  0.2733 -0.9570  0.6338
 3655SOL    HW222599   2.891   1.378  11.450  1.9970 -0.8820  0.2634
 3656SOL     OW22600   3.998   1.520   2.296 -0.0781  0.2883  0.2010
 3656SOL    HW122601   3.970   1.473   2.217  1.7987  0.9005 -0.8262
 3656SOL    HW222602   4.071   1.571   2.263 -0.5090 -0.2272 -1.5418
 3657SOL     OW22603   2.353   2.870   6.389 -0.0915 -0.4645  0.6727
 3657SOL    HW122604   2.259   2.859   6.402 -0.2423 -0.5382 -0.5519
 3657SOL    HW222605   2.391   2.797   6.438  1.7082  1.2869  1.9222
 3658SOL     OW22606   0.991   0.720   4.749 -0.0458 -0.0789 -0.6400
 3658SOL    HW122607   0.945   0.649   4.705  0.1150 -0.8097  0.3883
 3658SOL    HW222608   0.996   0.790   4.683 -1.0049  0.8803  0.3208
 3659SOL     OW22609   1.801   3.417   7.851  0.2605 -0.2057 -0.3846
 3659SOL    HW122610   1.895   3.434   7.860 -0.0772  1.0474  0.6806
 3659SOL    HW222611   1.778   3.402   7.943 -1.5227 -1.4430 -1.0367
 3660SOL     OW22612   3.890   2.846  16.162  0.0523 -0.1026 -0.3228
 3660SOL    HW122613   3.969   2.881  16.203 -0.8445  1.2373  0.2381
 3660SOL    HW222614   3.844   2.802  16.234 -1.1736  0.8429 -0.5255
 3661SOL     OW22615   3.951   1.432  16.215  0.4153 -0.4042 -0.4202
 3661SOL    HW122616   3.902   1.472  16.287  0.6731 -0.0439 -0.4446
 3661SOL    HW222617   3.884   1.371  16.184  0.9714  0.0742 -2.5887
 3662SOL     OW22618   2.736   4.440   8.445  0.2209 -0.0689  0.1902
 3662SOL    HW122619   2.700   4.360   8.406  0.2924 -0.0499  0.0824
 3662SOL    HW222620   2.682   4.443   8.523  2.4676  0.8530  1.7137
 3663SOL     OW22621   3.923   0.878   6.711  0.3661 -0.1118 -0.4233
 3663SOL    HW122622   3.954   0.840   6.793 -0.1132 -1.1490 -0.7204
 3663SOL    HW222623   3.994   0.860   6.650  0.7547 -0.7833  0.2294
 3664SOL     OW22624   3.860   1.774   0.413 -0.1959 -0.1036 -1.1346
 3664SOL    HW122625   3.852   1.689   0.455 -2.2651  1.0868  0.8792
 3664SOL    HW222626   3.848   1.827   0.492  2.9105 -0.3240 -0.5117
 3665SOL     OW22627   0.079   1.579  12.572 -0.0868  0.4667  0.1924
 3665SOL    HW122628   0.106   1.508  12.513  1.6129  1.1757  0.1240
 3665SOL    HW222629   0.105   1.660  12.527  0.0702  0.8592  0.9951
 3666SOL     OW22630   1.797   1.206   5.226 -0.0915 -0.0653 -0.2275
 3666SOL    HW122631   1.733   1.176   5.291 -0.4227  0.3936 -0.3438
 3666SOL    HW222632   1.741   1.249   5.162  0.5903 -1.8310 -2.0141
 3667SOL     OW22633   0.532   0.843   1.355 -0.1254 -0.1129  0.8951
 3667SOL    HW122634   0.463   0.879   1.299 -0.2109  0.2653  1.2491
 3667SOL    HW222635   0.595   0.823   1.286 -0.2181 -0.0607  0.7947
 3668SOL     OW22636   0.113   1.190   4.212 -0.1112 -0.1103 -0.0275
 3668SOL    HW122637   0.198   1.231   4.226  0.4588  0.2909 -4.7182
 3668SOL    HW222638   0.110   1.158   4.302  0.2411  1.0147  0.3816
 3669SOL     OW22639   4.048   3.484   9.676  0.4367 -0.3725 -0.0109
 3669SOL    HW122640   4.060   3.526   9.762  2.1957 -1.5945  0.3256
 3669SOL    HW222641   3.954   3.503   9.667  0.1652 -1.7189  0.0693
 3670SOL     OW22642   2.974   0.074   8.263  1.0295  0.2707 -0.7199
 3670SOL    HW122643   2.977   4.718   8.286  0.8438  0.3421 -0.4100
 3670SOL    HW222644   3.032   0.088   8.338 -0.4586 -0.9143  0.6466
 3671SOL     OW22645   1.624   1.145   5.415  0.0498 -0.0568  0.1121
 3671SOL    HW122646   1.562   1.085   5.375  0.4478  0.8570 -1.9017
 3671SOL    HW222647   1.573   1.196   5.477 -0.2022 -0.7728  0.4841
 3672SOL     OW22648   3.113   3.954  13.003 -0.1606  1.2091 -0.2313
 3672SOL    HW122649   3.072   4.018  13.062 -1.9755 -1.9602  1.9704
 3672SOL    HW222650   3.052   3.967  12.931 -1.1720  2.7199  0.8813
 3673SOL     OW22651   1.932   1.130  15.099 -0.4200  0.4419  0.6757
 3673SOL    HW122652   1.870   1.065  15.067  0.8764 -0.1431 -0.6626
 3673SOL    HW222653   1.899   1.203  15.047 -0.4495 -0.3344 -0.3963
 3674SOL     OW22654   3.085   1.463   9.451  0.4914  0.1062  0.2766
 3674SOL    HW122655   3.011   1.407   9.432 -0.1325  0.4405  1.7657
 3674SOL    HW222656   3.063   1.520   9.524  1.1335 -2.1472  2.2079
 3675SOL     OW22657   3.416   2.339   4.694  0.0691  0.2018  0.5853
 3675SOL    HW122658   3.362   2.281   4.749 -0.3370  0.4091  0.4042
 3675SOL    HW222659   3.379   2.425   4.711 -1.8063 -0.2847 -1.0483
 3676SOL     OW22660   3.085   1.872   8.645  0.2526 -0.2833 -0.0735
 3676SOL    HW122661   3.019   1.807   8.619  0.1304  0.8343 -2.5547
 3676SOL    HW222662   3.165   1.827   8.616  1.4967  1.7131  0.2948
 3677SOL     OW22663   4.073   0.782   4.207 -0.0854 -0.0633  0.0907
 3677SOL    HW122664   3.996   0.837   4.221 -0.0711 -0.1300  0.4316
 3677SOL    HW222665   4.037   0.697   4.229  0.7163  0.2144  2.5089
 3678SOL     OW22666   4.563   1.389   5.901 -0.4303  0.6770  0.1559
 3678SOL    HW122667   4.503   1.451   5.943 -1.3514  0.7239 -1.2018
 3678SOL    HW222668   4.572   1.333   5.978  0.3515 -0.2098 -0.5762
 3679SOL     OW22669   1.644   4.377   4.391 -0.0140 -0.5904 -0.2297
 3679SOL    HW122670   1.607   4.445   4.447  0.7248  0.8362 -1.4884
 3679SOL    HW222671   1.577   4.308   4.396  1.2587 -1.8921 -1.0339
 3680SOL     OW22672   4.442   1.145   1.966  0.8556 -0.1156  0.2118
 3680SOL    HW122673   4.400   1.089   2.032  0.0610 -0.3436 -0.4830
 3680SOL    HW222674   4.484   1.082   1.907 -2.3356 -0.0741 -2.1414
 3681SOL     OW22675   2.785   0.542   4.406 -0.2068  0.4463  0.5315
 3681SOL    HW122676   2.860   0.595   4.378 -0.2867 -2.5892 -5.3592
 3681SOL    HW222677   2.828   0.459   4.384 -0.2329  0.1696  1.5273
 3682SOL     OW22678   1.233   0.693   2.242  0.3780 -0.5991 -0.1022
 3682SOL    HW122679   1.242   0.742   2.324 -3.1959  0.0037 -0.0744
 3682SOL    HW222680   1.146   0.724   2.217  0.5598 -0.0968 -0.1170
 3683SOL     OW22681   4.379   3.509   9.449  0.5755 -0.5256 -0.6259
 3683SOL    HW122682   4.455   3.450   9.456 -0.3591 -1.8658 -1.6174
 3683SOL    HW222683   4.372   3.526   9.542 -0.8995  1.2766 -1.0818
 3684SOL     OW22684   3.569   3.691  13.101 -0.1178 -0.0584 -0.1609
 3684SOL    HW122685   3.488   3.726  13.137  0.5697  2.1628 -0.7192
 3684SOL    HW222686   3.599   3.632  13.169 -2.2127 -1.7158 -0.6966
 3685SOL     OW22687   2.464   1.078   3.335 -0.2505 -0.5147  0.9578
 3685SOL    HW122688   2.423   1.062   3.250  2.9199  1.0609 -0.8588
 3685SOL    HW222689   2.407   1.142   3.377 -0.3427  0.2755 -0.3725
 3686SOL     OW22690   4.464   4.169  13.608  0.0760 -0.1276  0.4403
 3686SOL    HW122691   4.481   4.108  13.680  0.6938 -2.0912 -1.3731
 3686SOL    HW222692   4.411   4.114  13.551  0.7116  0.1031 -0.3645
 3687SOL     OW22693   0.958   2.566   7.112 -0.3437 -0.1654 -0.2859
 3687SOL    HW122694   0.863   2.552   7.119 -0.2691  0.4217  1.8377
 3687SOL    HW222695   0.993   2.493   7.164 -0.2325 -0.4882 -0.8128
 3688SOL     OW22696   0.210   3.762   5.751 -0.5611  0.1884 -0.2825
 3688SOL    HW122697   0.253   3.681   5.726 -1.6268 -0.2461 -0.7481
 3688SOL    HW222698   0.119   3.744   5.724 -0.4116 -0.3510 -0.4255
 3689SOL     OW22699   2.278   4.071  16.996  0.3374  0.5921  0.0363
 3689SOL    HW122700   2.229   4.073  17.078 -0.9731 -0.4922 -0.7073
 3689SOL    HW222701   2.370   4.073  17.023 -0.3017  0.2102  2.2389
 3690SOL     OW22702   1.497   0.863   3.960 -0.0517  0.3076 -0.4490
 3690SOL    HW122703   1.581   0.842   3.921  0.0511  1.6716 -0.9796
 3690SOL    HW222704   1.452   0.893   3.881  0.0551 -0.3266 -0.7524
 3691SOL     OW22705   4.299   3.705   5.893 -0.2484 -0.2296 -0.2170
 3691SOL    HW122706   4.320   3.715   5.986 -1.0929  0.6828 -0.1273
 3691SOL    HW222707   4.387   3.709   5.855 -0.2617 -1.6312 -0.3750
 3692SOL     OW22708   3.619   2.359  16.241  0.2230  1.1468  0.1437
 3692SOL    HW122709   3.529   2.387  16.229  0.1369  1.1439  0.7734
 3692SOL    HW222710   3.671   2.427  16.198  1.5970  0.6521  1.0139
 3693SOL     OW22711   1.765   4.417   7.778 -0.0753  0.1962 -0.4524
 3693SOL    HW122712   1.751   4.494   7.833 -0.5811  0.7798 -1.3911
 3693SOL    HW222713   1.735   4.443   7.690 -0.1964  1.3655 -0.0682
 3694SOL     OW22714   0.914   0.599   4.328  0.0882  0.1019 -0.1456
 3694SOL    HW122715   0.847   0.665   4.307 -1.4269 -1.3210  0.2105
 3694SOL    HW222716   0.896   0.585   4.421  1.7129 -0.8067  0.0238
 3695SOL     OW22717   0.841   4.615   4.001 -0.1979 -0.1292 -0.4081
 3695SOL    HW122718   0.864   4.664   3.922  0.0806 -0.3586 -0.4685
 3695SOL    HW222719   0.853   4.678   4.072 -0.8896  1.4995 -1.7257
 3696SOL     OW22720   3.158   3.173  11.538  0.4194 -0.5399  0.3772
 3696SOL    HW122721   3.155   3.101  11.474  1.7662  0.3362 -0.6613
 3696SOL    HW222722   3.077   3.157  11.587  0.3952  0.1227  0.5567
 3697SOL     OW22723   3.349   1.673   9.600  0.1662 -0.2559 -0.0451
 3697SOL    HW122724   3.254   1.681   9.586  0.2124  2.2079  0.9907
 3697SOL    HW222725   3.374   1.735   9.531 -0.6716 -0.1982 -0.3033
 3698SOL     OW22726   0.051   3.853   3.429  0.2800 -0.2580  0.1500
 3698SOL    HW122727   0.079   3.875   3.340 -2.0261  1.3322 -0.1922
 3698SOL    HW222728   4.705   3.805   3.419 -0.3086  0.6905  0.5414
 3699SOL     OW22729   1.990   0.255  11.841  0.3163  0.0945 -0.1109
 3699SOL    HW122730   1.924   0.321  11.820 -0.8276  0.0417  3.2750
 3699SOL    HW222731   2.016   0.288  11.927 -1.9675 -0.1132  0.6351
 3700SOL     OW22732   3.743   0.453  13.329 -0.2014  0.1885 -0.7390
 3700SOL    HW122733   3.836   0.429  13.325 -0.1742  0.0173  0.8284
 3700SOL    HW222734   3.739   0.495  13.414  0.4028  0.3673 -0.7962
 3701SOL     OW22735   2.238   3.132  12.420  0.1046  0.5058 -0.2754
 3701SOL    HW122736   2.252   3.226  12.409 -1.8574  0.5180 -2.6543
 3701SOL    HW222737   2.298   3.115  12.493 -0.0523 -2.2354 -0.7867
 3702SOL     OW22738   4.016   2.134   6.152  0.2228 -0.1007  0.7114
 3702SOL    HW122739   3.957   2.095   6.217 -2.1268  1.8650 -0.2609
 3702SOL    HW222740   4.015   2.228   6.170 -0.5439  0.6493 -3.3320
 3703SOL     OW22741   4.329   3.655   6.141 -0.5318  0.4291  0.2320
 3703SOL    HW122742   4.424   3.647   6.137 -0.6845 -0.8960 -0.6503
 3703SOL    HW222743   4.288   3.568   6.143 -3.0416  1.6148  2.0200
 3704SOL     OW22744   2.701   2.582  12.208 -0.2179 -0.0971  0.4358
 3704SOL    HW122745   2.605   2.583  12.211 -0.1881 -1.3651  1.7935
 3704SOL    HW222746   2.714   2.495  12.172  0.2142  0.3655 -0.5255
 3705SOL     OW22747   3.456   0.991   9.648 -0.0055  0.2772  0.6629
 3705SOL    HW122748   3.398   0.993   9.572 -1.4325 -0.5406  1.7204
 3705SOL    HW222749   3.401   0.944   9.711 -0.3692  0.0307  0.1647
 3706SOL     OW22750   3.219   0.735  11.180  0.5708 -0.0822 -0.6413
 3706SOL    HW122751   3.168   0.809  11.216 -1.4599 -0.0273 -3.6521
 3706SOL    HW222752   3.179   0.723  11.094 -1.7310 -0.2379  0.4423
 3707SOL     OW22753   4.513   0.225   4.267  0.2613 -0.7766 -0.1776
 3707SOL    HW122754   4.483   0.155   4.208 -0.7120 -0.6508  0.1589
 3707SOL    HW222755   4.442   0.247   4.326  1.0772  1.3588 -0.0085
 3708SOL     OW22756   3.776   4.497   9.140  0.3935 -0.1255 -0.4234
 3708SOL    HW122757   3.768   4.413   9.185  0.6272 -0.0998 -0.3315
 3708SOL    HW222758   3.694   4.537   9.167  0.2986 -0.0415 -0.8422
 3709SOL     OW22759   2.254   0.372  17.311 -0.9585 -0.7165 -0.3488
 3709SOL    HW122760   2.253   0.284  17.274  0.1253 -0.3866 -1.1450
 3709SOL    HW222761   2.302   0.361  17.394  0.6951 -0.7812 -1.3155
 3710SOL     OW22762   0.420   2.618   2.067 -0.6780  0.2325  0.5839
 3710SOL    HW122763   0.346   2.634   2.009 -0.0526 -2.1803 -0.9238
 3710SOL    HW222764   0.485   2.578   2.010 -1.7092  1.2346 -1.2837
 3711SOL     OW22765   0.046   3.031   2.746  0.2537  0.3666 -0.2016
 3711SOL    HW122766   0.065   3.086   2.822 -0.9534  1.7775 -0.9401
 3711SOL    HW222767   0.112   3.071   2.689 -1.0189 -0.2478 -2.0859
 3712SOL     OW22768   3.699   0.774   8.928 -0.1811  0.4672 -0.1544
 3712SOL    HW122769   3.673   0.765   9.020  0.0115 -1.0157 -0.2420
 3712SOL    HW222770   3.793   0.756   8.923 -0.2127  0.9477 -2.4322
 3713SOL     OW22771   0.729   2.296  15.187  0.3346  0.0421  0.3261
 3713SOL    HW122772   0.691   2.211  15.167  0.0430  0.0550  0.8151
 3713SOL    HW222773   0.790   2.270  15.256 -0.1976  0.4529  0.9506
 3714SOL     OW22774   0.051   1.812   3.296 -0.1107 -0.5573  0.8149
 3714SOL    HW122775   0.117   1.879   3.278 -0.8371 -0.0225  0.1665
 3714SOL    HW222776   4.703   1.841   3.264  1.0552  0.4853 -1.3431
 3715SOL     OW22777   1.148   2.809   1.896 -0.4948  0.0020 -0.1549
 3715SOL    HW122778   1.163   2.746   1.966  0.9814  1.3552  0.7296
 3715SOL    HW222779   1.077   2.768   1.846  0.5185 -3.1523  1.0391
 3716SOL     OW22780   1.893   4.581   7.381  0.1266 -0.0064  0.3543
 3716SOL    HW122781   1.960   4.583   7.313 -0.1794  0.1092  0.0534
 3716SOL    HW222782   1.908   4.665   7.424 -0.9927  0.3655  0.0106
 3717SOL     OW22783   2.098   4.587   6.140  0.5120 -0.2795 -0.3723
 3717SOL    HW122784   2.103   4.647   6.215  1.5304  0.9085 -1.3910
 3717SOL    HW222785   2.003   4.585   6.124  0.4853 -0.3249 -0.2080
 3718SOL     OW22786   0.176   0.767   5.871  0.4215  0.0230 -0.5359
 3718SOL    HW122787   0.194   0.680   5.905  1.6219  0.0160 -1.2064
 3718SOL    HW222788   0.088   0.761   5.833  0.5505  2.9181 -1.3089
 3719SOL     OW22789   4.344   3.576   2.114 -0.3518  0.1344  0.1929
 3719SOL    HW122790   4.421   3.630   2.132 -1.6842  1.8278  0.8137
 3719SOL    HW222791   4.325   3.548   2.203 -3.7286 -0.5107 -0.7108
 3720SOL     OW22792   3.936   0.067   8.486  0.5436  0.0163 -0.2212
 3720SOL    HW122793   3.981   0.126   8.426  2.3960 -0.9709  0.1743
 3720SOL    HW222794   3.969   0.088   8.573 -1.8481  0.6359  0.5468
 3721SOL     OW22795   1.236   0.493   5.326 -0.0796  0.1065 -0.0471
 3721SOL    HW122796   1.221   0.467   5.235 -1.0819  0.0028  0.1421
 3721SOL    HW222797   1.220   0.405   5.361  0.9657 -0.2248 -0.4238
 3722SOL     OW22798   0.977   1.833   8.058 -0.3514 -1.1711 -0.0642
 3722SOL    HW122799   1.022   1.902   8.107  1.1281 -1.2851 -1.2450
 3722SOL    HW222800   1.036   1.815   7.984  0.8506 -1.8604  1.0635
 3723SOL     OW22801   2.311   3.059   4.374 -0.1924 -0.1077  0.0237
 3723SOL    HW122802   2.279   2.990   4.432 -1.0283 -0.6161 -1.0392
 3723SOL    HW222803   2.390   3.086   4.421 -0.2218  1.0272 -0.5925
 3724SOL     OW22804   4.054   2.840  11.652  0.1654 -0.1412  0.9332
 3724SOL    HW122805   4.015   2.903  11.592 -3.9128 -1.2679  2.3861
 3724SOL    HW222806   4.146   2.839  11.627 -0.3643  1.1481 -1.0463
 3725SOL     OW22807   2.490   2.933   5.388 -0.4009 -0.6129  0.2054
 3725SOL    HW122808   2.464   2.996   5.320 -1.0195  0.4549  1.4318
 3725SOL    HW222809   2.434   2.857   5.371 -0.9236 -0.0973 -0.3935
 3726SOL     OW22810   0.343   1.341  14.413  0.1524  0.2438  0.5516
 3726SOL    HW122811   0.258   1.372  14.445 -0.8037 -1.3268 -0.4703
 3726SOL    HW222812   0.318   1.290  14.336 -1.3001  1.3453  0.2971
 3727SOL     OW22813   1.836   2.901   4.905  0.1321  0.0021  0.4303
 3727SOL    HW122814   1.769   2.867   4.847 -1.7164  1.2900  1.7855
 3727SOL    HW222815   1.893   2.825   4.896  1.3199  0.8395  0.8817
 3728SOL     OW22816   1.607   2.854  11.505  0.2501  0.2952 -0.5501
 3728SOL    HW122817   1.520   2.817  11.521  0.3600 -0.2917 -1.3238
 3728SOL    HW222818   1.617   2.928  11.565 -2.7307  0.8502 -0.7317
 3729SOL     OW22819   4.707   3.206   5.079 -0.9289 -0.1278  0.6776
 3729SOL    HW122820   4.685   3.145   5.009 -0.1900  0.0165  0.3261
 3729SOL    HW222821   4.662   3.281   5.039  0.0311  0.6412  1.0333
 3730SOL     OW22822   1.205   0.695   5.528 -0.1733 -0.0603 -0.3110
 3730SOL    HW122823   1.114   0.697   5.498  0.5251  1.3135 -2.3401
 3730SOL    HW222824   1.233   0.617   5.480  0.7664  0.2075 -0.1986
 3731SOL     OW22825   4.148   4.333  15.326 -0.4148  0.1979  1.0575
 3731SOL    HW122826   4.147   4.291  15.412  0.3052 -0.1039  0.9164
 3731SOL    HW222827   4.167   4.262  15.264 -1.8549  1.3274 -0.7000
 3732SOL     OW22828   4.130   4.613   0.658 -0.0661  0.0416 -0.2206
 3732SOL    HW122829   4.210   4.563   0.642 -1.0165 -0.7799 -2.3145
 3732SOL    HW222830   4.159   4.657   0.738  0.2726  2.3398 -1.6211
 3733SOL     OW22831   1.552   4.726   9.254 -0.3269  0.0463  0.0111
 3733SOL    HW122832   1.474   0.013   9.304 -1.2459 -1.6609 -0.6006
 3733SOL    HW222833   1.518   4.650   9.207  0.7116 -0.2249 -0.3068
 3734SOL     OW22834   2.873   2.718   4.837 -0.0488  0.6506 -0.7889
 3734SOL    HW122835   2.944   2.657   4.860 -0.4910  0.1304 -0.7943
 3734SOL    HW222836   2.847   2.769   4.913 -1.2008  0.0451 -0.7769
 3735SOL     OW22837   0.517   1.930  17.406  0.3597  0.0491  0.2524
 3735SOL    HW122838   0.582   1.936  17.476 -0.4028  0.1434  0.9629
 3735SOL    HW222839   0.551   1.852  17.362 -1.6650 -0.5532 -0.2913
 3736SOL     OW22840   3.978   1.935   5.400 -0.0056  0.2617 -0.3280
 3736SOL    HW122841   3.985   2.010   5.459  1.3806 -0.3508  0.2770
 3736SOL    HW222842   3.888   1.937   5.369  0.5865  1.2332 -2.0168
 3737SOL     OW22843   1.581   1.990   7.232  0.3517 -0.4973  0.4424
 3737SOL    HW122844   1.630   2.056   7.184  1.8843 -1.8178  0.1841
 3737SOL    HW222845   1.603   2.015   7.322  1.4232 -0.2492  0.1078
 3738SOL     OW22846   0.621   3.480   6.097 -0.2094  0.1157 -0.3395
 3738SOL    HW122847   0.613   3.524   6.182  0.7464  2.3860 -1.4264
 3738SOL    HW222848   0.709   3.442   6.099 -0.9337 -1.5601  0.2307
 3739SOL     OW22849   3.861   2.616   3.872  0.7364 -0.3270 -0.1578
 3739SOL    HW122850   3.940   2.581   3.913  0.0892  1.9552  3.0535
 3739SOL    HW222851   3.872   2.708   3.896  2.6490 -1.2206  2.4774
 3740SOL     OW22852   3.268   3.459  12.389 -0.0276 -0.2749 -0.3700
 3740SOL    HW122853   3.353   3.438  12.349 -0.0556 -0.0841 -0.5307
 3740SOL    HW222854   3.276   3.553  12.399  0.8514 -0.3643 -0.2199
 3741SOL     OW22855   0.120   2.307   3.676  0.2291 -0.0831  0.8421
 3741SOL    HW122856   0.208   2.270   3.680  0.3735  0.1781  0.1448
 3741SOL    HW222857   0.103   2.332   3.767  0.6169 -1.0901  1.1885
 3742SOL     OW22858   2.328   1.775   2.626  0.9975  0.1783  0.4222
 3742SOL    HW122859   2.236   1.749   2.620  0.0210  3.6104  0.6097
 3742SOL    HW222860   2.359   1.715   2.694 -2.9412 -1.5671  0.6623
 3743SOL     OW22861   1.856   1.763   7.038 -0.5851  0.3104 -0.2375
 3743SOL    HW122862   1.950   1.776   7.051 -1.1295  1.8643  2.3016
 3743SOL    HW222863   1.840   1.699   7.107  0.8728 -2.0506 -2.1207
 3744SOL     OW22864   1.255   1.590   8.403 -0.3221  0.5094  0.0588
 3744SOL    HW122865   1.313   1.612   8.475 -0.2889  1.8337 -0.3786
 3744SOL    HW222866   1.181   1.647   8.423 -0.7659 -0.7473  2.0012
 3745SOL     OW22867   0.415   1.393   3.806  0.0930  0.0264  0.7183
 3745SOL    HW122868   0.358   1.448   3.860 -0.3996  0.4224 -0.1957
 3745SOL    HW222869   0.501   1.433   3.818  0.9107 -1.8494  1.0171
 3746SOL     OW22870   1.253   1.185   0.186 -0.6017  0.0016  0.1471
 3746SOL    HW122871   1.347   1.174   0.171 -0.5740 -0.8635  0.9739
 3746SOL    HW222872   1.227   1.202   0.095 -3.3736  2.2077  1.3525
 3747SOL     OW22873   1.752   0.405   9.790 -0.1897 -0.2579  0.2259
 3747SOL    HW122874   1.695   0.354   9.847 -2.6844 -1.2969 -3.1680
 3747SOL    HW222875   1.811   0.436   9.858 -1.6099  2.2531  0.2910
 3748SOL     OW22876   2.707   3.813   5.519 -0.2108  0.1556 -0.0174
 3748SOL    HW122877   2.638   3.774   5.573  0.3444 -0.1034  0.5130
 3748SOL    HW222878   2.740   3.729   5.488 -1.9526 -0.7251  0.4986
 3749SOL     OW22879   2.122   1.184   3.877 -0.0811  0.6153 -0.3026
 3749SOL    HW122880   2.034   1.158   3.903  0.3411 -0.1947  0.3172
 3749SOL    HW222881   2.104   1.249   3.809 -0.5787 -0.6607 -1.3773
 3750SOL     OW22882   4.216   1.459   6.245 -0.2751  0.2111  0.0324
 3750SOL    HW122883   4.227   1.404   6.323 -2.6925  0.8692  0.8171
 3750SOL    HW222884   4.157   1.400   6.198  1.3455 -0.6966 -0.8585
 3751SOL     OW22885   1.369   0.823  15.629 -0.4457  0.1657  0.0598
 3751SOL    HW122886   1.418   0.742  15.620 -0.1399  0.4370 -0.7024
 3751SOL    HW222887   1.364   0.848  15.537 -2.3089  0.5095  0.2405
 3752SOL     OW22888   1.013   0.464   8.269 -0.1871 -0.2598  0.3199
 3752SOL    HW122889   1.071   0.388   8.277  0.5786  0.3275  0.2977
 3752SOL    HW222890   1.065   0.544   8.276 -1.1818  0.5155 -1.2878
 3753SOL     OW22891   4.601   0.467   9.938 -0.6362  0.1418 -0.4635
 3753SOL    HW122892   4.590   0.500   9.849  0.8320 -3.1359 -1.8978
 3753SOL    HW222893   4.638   0.380   9.919 -0.1644  0.6104 -1.6680
 3754SOL     OW22894   0.621   2.972   8.400 -0.5255 -0.3156  0.3101
 3754SOL    HW122895   0.569   2.964   8.320  0.2554 -0.3952 -0.1893
 3754SOL    HW222896   0.705   2.998   8.361  0.1177 -4.2528 -1.0072
 3755SOL     OW22897   4.529   3.746   6.885  0.4562 -0.2552 -0.4207
 3755SOL    HW122898   4.460   3.757   6.950  0.0310 -0.7169 -0.7957
 3755SOL    HW222899   4.584   3.675   6.921  0.8578  0.3595  0.1823
 3756SOL     OW22900   1.573   3.144  14.036  0.2709  0.0765 -0.1910
 3756SOL    HW122901   1.496   3.110  14.081  1.0379  0.3985  1.3720
 3756SOL    HW222902   1.653   3.124  14.085  1.8842  2.1162 -2.0038
 3757SOL     OW22903   1.382   0.235   3.283  0.3336  0.0890  0.0701
 3757SOL    HW122904   1.328   0.313   3.281 -1.0465 -0.8643  0.2234
 3757SOL    HW222905   1.468   0.263   3.314  1.5017  0.5139 -3.4654
 3758SOL     OW22906   3.465   2.251   4.100 -0.0773  0.1682  0.0069
 3758SOL    HW122907   3.408   2.236   4.175  0.1282 -1.9743 -0.2789
 3758SOL    HW222908   3.483   2.345   4.100 -3.2740  0.7854  2.3519
 3759SOL     OW22909   2.601   1.771   5.841 -0.1535 -0.2633  0.3443
 3759SOL    HW122910   2.634   1.687   5.872 -0.1925 -1.1202 -1.9083
 3759SOL    HW222911   2.513   1.760   5.805 -0.0966 -0.1337  0.1587
 3760SOL     OW22912   0.481   2.030   7.528  0.0914  0.4469 -0.0509
 3760SOL    HW122913   0.532   1.982   7.463  0.9798  1.1558  0.1330
 3760SOL    HW222914   0.440   1.950   7.563  0.7858  0.0717 -0.0985
 3761SOL     OW22915   0.508   2.442   4.610  0.2314  0.3777  0.2110
 3761SOL    HW122916   0.524   2.405   4.523  0.8519 -0.0479  0.5023
 3761SOL    HW222917   0.445   2.511   4.592 -1.5873 -1.5056 -0.6577
 3762SOL     OW22918   4.403   1.789   3.141  0.5971 -0.2287  0.1363
 3762SOL    HW122919   4.473   1.772   3.078  0.6333  0.5126 -0.0307
 3762SOL    HW222920   4.364   1.866   3.100 -0.2973  0.2353  1.8554
 3763SOL     OW22921   3.934   3.558   8.181  0.5146  0.3789  0.0712
 3763SOL    HW122922   3.905   3.467   8.189  2.7048 -0.6666 -4.1986
 3763SOL    HW222923   3.999   3.569   8.251  1.7799 -0.2231 -1.0125
 3764SOL     OW22924   0.138   2.765   0.117  0.1134 -0.3740 -0.1291
 3764SOL    HW122925   0.114   2.855   0.095  0.6405  0.4269  2.5628
 3764SOL    HW222926   0.188   2.743   0.038 -1.5475  0.6721 -1.4580
 3765SOL     OW22927   3.015   4.505   1.737  0.2851  0.0997  0.1505
 3765SOL    HW122928   3.108   4.486   1.752  0.6726  0.4752 -1.8286
 3765SOL    HW222929   3.022   4.567   1.664  0.1119 -0.7391 -0.5653
 3766SOL     OW22930   3.638   1.454   2.385  0.0462  0.6053  0.3489
 3766SOL    HW122931   3.666   1.458   2.293 -1.8368  0.3413 -0.2392
 3766SOL    HW222932   3.594   1.369   2.380 -0.1888  0.7829 -0.7950
 3767SOL     OW22933   0.510   3.363   9.037  0.2869  0.4542  0.4240
 3767SOL    HW122934   0.599   3.397   9.026  0.6535 -0.1093  1.6118
 3767SOL    HW222935   0.466   3.395   8.958  1.8988  0.6563 -0.3896
 3768SOL     OW22936   2.274   3.691   6.231  0.3279 -0.3464 -0.4259
 3768SOL    HW122937   2.313   3.672   6.146  0.8216 -0.4971 -0.1677
 3768SOL    HW222938   2.265   3.786   6.239 -0.8640 -0.5904  1.1234
 3769SOL     OW22939   0.119   4.600   2.305  0.6751 -0.0036 -0.0896
 3769SOL    HW122940   0.133   4.505   2.305 -0.8624 -0.2386  1.8604
 3769SOL    HW222941   0.028   4.604   2.337 -0.1339 -1.9721 -2.1197
 3770SOL     OW22942   3.362   3.832  13.208 -0.3738 -0.2797  0.3854
 3770SOL    HW122943   3.368   3.787  13.292 -4.2721  0.4944  1.0599
 3770SOL    HW222944   3.374   3.924  13.231  1.7382 -1.3775  3.5525
 3771SOL     OW22945   1.032   0.841   4.449  0.4799  0.1426 -0.0518
 3771SOL    HW122946   1.027   0.757   4.404  1.5363  0.7150 -1.2211
 3771SOL    HW222947   1.127   0.852   4.460  0.7956 -1.4875 -1.2427
 3772SOL     OW22948   0.986   4.136   4.124 -0.5587  0.0888 -0.4370
 3772SOL    HW122949   0.924   4.207   4.110 -1.3593 -0.1995  1.6242
 3772SOL    HW222950   0.968   4.078   4.050 -0.7709 -1.5536  0.9133
 3773SOL     OW22951   3.048   4.123   6.238 -0.1015  0.4469 -0.5196
 3773SOL    HW122952   3.088   4.122   6.151 -0.7123  1.6593 -0.8093
 3773SOL    HW222953   3.049   4.218   6.244 -0.2587  0.5478 -1.9272
 3774SOL     OW22954   2.653   0.847   8.320 -0.0703 -0.4311 -0.4836
 3774SOL    HW122955   2.720   0.871   8.384 -1.3166  0.4838  0.4782
 3774SOL    HW222956   2.650   0.751   8.322 -0.8974 -0.3801  0.8108
 3775SOL     OW22957   2.007   3.201  12.871 -0.2435 -1.0675 -0.0971
 3775SOL    HW122958   2.033   3.294  12.867  0.0989 -1.1665 -0.2336
 3775SOL    HW222959   2.036   3.174  12.958  0.1252 -2.9684 -0.8138
 3776SOL     OW22960   4.532   2.971  10.378  0.2112 -0.6738 -0.0948
 3776SOL    HW122961   4.562   3.052  10.337 -0.5697 -0.5352 -0.3992
 3776SOL    HW222962   4.504   2.925  10.300  0.7071  0.0413 -0.6945
 3777SOL     OW22963   4.253   0.506   5.148  0.3086 -0.2298  0.0195
 3777SOL    HW122964   4.342   0.503   5.182 -0.3228  1.7456  1.7860
 3777SOL    HW222965   4.229   0.596   5.170  0.8229 -0.0049 -0.3382
 3778SOL     OW22966   0.887   3.772   5.524  0.1719  0.9447  0.0450
 3778SOL    HW122967   0.941   3.727   5.588  1.0697 -0.3668 -1.6536
 3778SOL    HW222968   0.809   3.716   5.530  1.0461 -0.3457 -0.6356
 3779SOL     OW22969   3.187   3.852   5.925  0.0152 -1.0663  0.0836
 3779SOL    HW122970   3.126   3.859   5.852  2.0567  1.4952 -1.4003
 3779SOL    HW222971   3.153   3.779   5.976 -0.0609 -0.4974  0.8442
 3780SOL     OW22972   2.319   2.414   9.581  0.0456 -0.1380  0.2019
 3780SOL    HW122973   2.310   2.438   9.673 -1.0806  2.0381 -0.4616
 3780SOL    HW222974   2.257   2.477   9.545 -2.8545 -4.3461 -2.1802
 3781SOL     OW22975   2.113   3.702   4.053  0.3269  0.4200 -0.1708
 3781SOL    HW122976   2.116   3.670   3.963 -0.4284  1.2384 -0.4857
 3781SOL    HW222977   2.167   3.630   4.084 -2.6475 -1.2406  1.2428
 3782SOL     OW22978   0.713   3.381  17.432  0.2709  0.0067  0.0568
 3782SOL    HW122979   0.735   3.415  17.345 -1.5696  0.3159 -0.3033
 3782SOL    HW222980   0.638   3.435  17.459  1.5339  0.6789  2.2109
 3783SOL     OW22981   1.147   0.313   7.347  0.0304  0.0123  0.0099
 3783SOL    HW122982   1.101   0.293   7.265 -2.7669 -2.3195  2.1724
 3783SOL    HW222983   1.132   0.237   7.403 -2.9819  0.9829  0.5570
 3784SOL     OW22984   3.662   3.198   6.912 -0.1092 -0.2530  0.2031
 3784SOL    HW122985   3.722   3.233   6.846 -1.3592 -0.0670 -0.8377
 3784SOL    HW222986   3.710   3.126   6.953 -0.6997 -0.7268  0.0652
 3785SOL     OW22987   4.354   2.713  10.991  0.9396 -0.0873 -0.4968
 3785SOL    HW122988   4.372   2.775  10.921  0.3309  1.3564  0.6208
 3785SOL    HW222989   4.443   2.718  11.027  0.8699  1.5094 -0.5686
 3786SOL     OW22990   3.307   3.950   3.335 -0.0558 -0.1453  0.2366
 3786SOL    HW122991   3.396   3.915   3.333  0.3776  1.0704 -1.6320
 3786SOL    HW222992   3.291   3.964   3.429  0.5829  2.0359  0.0318
 3787SOL     OW22993   0.061   1.533  14.927  0.0118 -0.1553  0.5736
 3787SOL    HW122994   0.103   1.472  14.988  2.0964  0.8609  0.1493
 3787SOL    HW222995   0.098   1.620  14.940  0.6671 -0.3204 -0.1552
 3788SOL     OW22996   2.029   2.097  16.955  1.0129  0.4668  0.2770
 3788SOL    HW122997   2.046   2.061  17.042  0.7385 -1.6379 -0.5490
 3788SOL    HW222998   2.059   2.188  16.961 -1.9425  1.3610  1.5813
 3789SOL     OW22999   1.927   1.331   4.397 -0.2372 -0.2048  0.6443
 3789SOL    HW123000   1.894   1.339   4.307  0.1795  0.2176  0.5226
 3789SOL    HW223001   1.848   1.346   4.448  0.0646  1.6481  0.5821
 3790SOL     OW23002   0.705   4.344  16.047  0.1460 -0.5253 -0.1185
 3790SOL    HW123003   0.734   4.296  16.124  3.8109 -1.2076 -1.9506
 3790SOL    HW223004   0.776   4.328  15.985  0.6110  0.1921  0.2276
 3791SOL     OW23005   2.926   3.300  13.796 -0.5798  0.5818  0.3712
 3791SOL    HW123006   2.998   3.259  13.750 -0.7592  0.1101  0.5101
 3791SOL    HW223007   2.977   3.345  13.864 -0.1793  0.2739  0.2725
 3792SOL     OW23008   2.990   4.055   6.498  0.7093  0.0688  0.5309
 3792SOL    HW123009   2.949   3.973   6.472  1.7785 -0.3260  0.0686
 3792SOL    HW223010   3.022   4.083   6.412  1.5643 -0.0516  0.8108
 3793SOL     OW23011   1.973   4.038  13.383  0.4578  0.0413 -0.2954
 3793SOL    HW123012   2.054   4.086  13.401 -1.2233  2.2720  1.1472
 3793SOL    HW223013   1.982   3.949  13.418  2.3589 -0.7301 -2.7694
 3794SOL     OW23014   1.177   4.029  10.092  0.0474  0.1120  0.0294
 3794SOL    HW123015   1.141   4.048  10.005  1.5158  1.2838 -0.3214
 3794SOL    HW223016   1.269   4.050  10.077 -0.1119  0.0405 -1.0480
 3795SOL     OW23017   3.394   0.922   6.783  0.2061  0.3484 -0.1518
 3795SOL    HW123018   3.446   0.899   6.861 -0.1615 -1.4704 -0.4403
 3795SOL    HW223019   3.444   1.002   6.763 -0.5415  0.7382 -0.4526
 3796SOL     OW23020   1.754   4.091   0.643 -0.0558 -0.0874  0.0235
 3796SOL    HW123021   1.660   4.078   0.637 -0.2904  1.8244 -0.2674
 3796SOL    HW223022   1.785   4.030   0.576  1.6697  0.5228  0.2663
 3797SOL     OW23023   1.904   4.092   3.214  0.0576 -0.0310 -0.5259
 3797SOL    HW123024   1.867   4.174   3.183  0.6213  0.2994 -0.3184
 3797SOL    HW223025   1.828   4.073   3.269 -0.3294 -3.3681 -2.2172
 3798SOL     OW23026   4.592   1.984  13.402 -0.6161  0.4527  0.2777
 3798SOL    HW123027   4.514   2.032  13.373 -1.7313 -0.8858  1.0594
 3798SOL    HW223028   4.603   1.912  13.341 -1.1989 -0.1128  0.8461
 3799SOL     OW23029   3.119   1.290   4.539 -0.0108  0.5887  0.5944
 3799SOL    HW123030   3.118   1.195   4.523 -0.6222  1.8579 -6.8030
 3799SOL    HW223031   3.058   1.289   4.614 -0.5392 -0.4645  0.1585
 3800SOL     OW23032   2.357   0.498   5.903  0.2301 -0.0579  0.0579
 3800SOL    HW123033   2.422   0.444   5.949 -0.2823  0.6432  1.6003
 3800SOL    HW223034   2.323   0.565   5.962  0.4187  0.9679 -1.0010
 3801SOL     OW23035   4.736   0.819   1.583 -0.1961 -0.2113 -0.0130
 3801SOL    HW123036   0.074   0.814   1.644  0.7307 -0.8773 -1.2101
 3801SOL    HW223037   0.034   0.889   1.528 -2.4284  1.1545  0.3464
 3802SOL     OW23038   3.485   0.644   7.105  0.3310 -0.8857  0.8631
 3802SOL    HW123039   3.506   0.556   7.134 -0.6656 -0.7867  1.8953
 3802SOL    HW223040   3.390   0.637   7.116  0.2877 -0.4962  0.7574
 3803SOL     OW23041   0.698   1.912   5.428 -0.0934 -0.3456 -0.0849
 3803SOL    HW123042   0.704   1.839   5.367  0.6146 -0.3201 -0.0534
 3803SOL    HW223043   0.612   1.892   5.463 -1.2818  2.8221 -1.1735
 3804SOL     OW23044   2.166   4.323   4.402 -0.3035 -0.2894 -0.0513
 3804SOL    HW123045   2.188   4.386   4.470 -0.5956 -0.5971  0.3249
 3804SOL    HW223046   2.071   4.327   4.412 -0.2853  1.3756 -0.5718
 3805SOL     OW23047   1.868   0.393   7.674 -0.3255  0.0002  0.3535
 3805SOL    HW123048   1.783   0.352   7.661  0.2507 -0.9708 -0.3914
 3805SOL    HW223049   1.917   0.330   7.726 -0.9100 -2.0030 -1.5325
 3806SOL     OW23050   0.791   1.297   0.228 -0.1955 -0.0026 -0.3396
 3806SOL    HW123051   0.838   1.327   0.150  3.3562  1.4871  2.4247
 3806SOL    HW223052   0.809   1.203   0.225 -2.0448 -0.4894  3.3845
 3807SOL     OW23053   0.506   0.368   4.863  0.4289 -0.2096 -0.1281
 3807SOL    HW123054   0.518   0.461   4.846  1.6089 -0.1512  1.1374
 3807SOL    HW223055   0.436   0.378   4.928  0.1978  1.2056 -0.6023
 3808SOL     OW23056   4.705   4.361   2.872 -0.5305 -0.0716 -0.2152
 3808SOL    HW123057   4.641   4.416   2.827 -0.7495  0.0724  0.2694
 3808SOL    HW223058   4.736   4.425   2.937 -1.0423  0.1898 -0.2210
 3809SOL     OW23059   0.797   2.416   8.421 -0.1146  0.3184  0.1171
 3809SOL    HW123060   0.835   2.493   8.461 -0.4540  0.8569 -0.5890
 3809SOL    HW223061   0.748   2.382   8.496 -1.5246  0.1720 -0.8672
 3810SOL     OW23062   2.243   1.564   0.755 -0.5455  0.0674  0.1022
 3810SOL    HW123063   2.291   1.647   0.760 -0.7319  0.0966  1.4642
 3810SOL    HW223064   2.170   1.577   0.815 -0.3481  0.6892  0.2083
 3811SOL     OW23065   4.221   1.146   9.993  0.0660 -0.4349 -0.0505
 3811SOL    HW123066   4.312   1.119  10.011  0.3241  0.7268  0.3662
 3811SOL    HW223067   4.234   1.228   9.945 -1.1531 -0.0868  0.2377
 3812SOL     OW23068   4.210   1.373   9.805 -0.1319 -0.3134  0.3223
 3812SOL    HW123069   4.173   1.439   9.746 -0.2274 -1.3723 -0.7943
 3812SOL    HW223070   4.297   1.410   9.820  1.1533 -2.5582 -1.5178
 3813SOL     OW23071   4.099   4.403   8.146 -0.0692  0.2614 -0.1761
 3813SOL    HW123072   4.123   4.368   8.231  0.9996 -1.6822 -1.2850
 3813SOL    HW223073   4.101   4.497   8.167  0.8780  0.7526 -2.5124
 3814SOL     OW23074   2.937   3.388   0.664 -0.3468  0.3313 -0.5238
 3814SOL    HW123075   3.013   3.417   0.714  2.7125 -6.1141 -1.4538
 3814SOL    HW223076   2.969   3.409   0.576 -1.2086  0.5266 -0.7923
 3815SOL     OW23077   0.597   0.739   8.200 -0.5343 -0.5397  0.6363
 3815SOL    HW123078   0.622   0.749   8.292 -2.6884  0.8802  1.0711
 3815SOL    HW223079   0.668   0.784   8.155 -0.9301 -1.4675 -0.8938
 3816SOL     OW23080   0.613   0.927  11.033  0.0120  0.1962  0.5967
 3816SOL    HW123081   0.556   0.945  11.108  1.0881 -3.0739  2.2230
 3816SOL    HW223082   0.596   0.833  11.020  0.1724 -0.0202  1.8836
 3817SOL     OW23083   3.744   2.734  15.334 -0.1610  0.6786 -0.0813
 3817SOL    HW123084   3.676   2.801  15.342 -0.1300  0.8669 -1.4102
 3817SOL    HW223085   3.813   2.785  15.292  0.5780  0.2043  0.5632
 3818SOL     OW23086   0.438   1.645   6.998  0.0853  0.4760  0.6254
 3818SOL    HW123087   0.359   1.629   7.050 -0.1403 -3.3933 -0.9003
 3818SOL    HW223088   0.447   1.740   7.004  0.5512  0.2602  3.4410
 3819SOL     OW23089   0.462   2.014  16.673 -0.1709 -0.4562  0.1177
 3819SOL    HW123090   0.512   1.954  16.727 -1.4657  0.7276  2.6288
 3819SOL    HW223091   0.444   2.083  16.737  1.5286  1.5199 -1.5280
 3820SOL     OW23092   0.786   3.075  11.878 -0.1496 -0.2576  0.3672
 3820SOL    HW123093   0.842   3.053  11.953  1.4054 -0.2787 -0.8126
 3820SOL    HW223094   0.722   3.005  11.895  1.2760 -2.5053 -3.6574
 3821SOL     OW23095   2.056   3.918   8.437  0.0457  0.4159 -0.4649
 3821SOL    HW123096   1.967   3.911   8.404 -0.5467 -0.2581  1.2983
 3821SOL    HW223097   2.104   3.912   8.354 -3.2558 -0.3731 -2.2917
 3822SOL     OW23098   1.858   1.065   3.670 -0.1118 -0.3101  0.1503
 3822SOL    HW123099   1.771   1.088   3.703 -1.1966 -3.5082 -0.4737
 3822SOL    HW223100   1.873   1.129   3.601 -1.4704  2.1242  2.1545
 3823SOL     OW23101   3.260   0.703  15.731  0.4330  0.1646 -0.3373
 3823SOL    HW123102   3.183   0.756  15.709  0.1214  0.2046  0.8048
 3823SOL    HW223103   3.215   0.623  15.760  0.3099  0.4943  0.4013
 3824SOL     OW23104   4.048   2.696  10.941  0.1237  0.1908 -1.0578
 3824SOL    HW123105   4.011   2.625  10.994  2.0984  0.2468  0.4114
 3824SOL    HW223106   4.136   2.702  10.979 -0.2952  0.5734 -0.1340
 3825SOL     OW23107   0.205   3.555   3.908  0.2431  0.0553 -0.2776
 3825SOL    HW123108   0.159   3.517   3.983  0.5684  1.2080  0.5052
 3825SOL    HW223109   0.153   3.538   3.830  0.1698 -0.3371 -0.1428
 3826SOL     OW23110   2.202   3.488  13.614  0.3235 -0.1130 -0.1317
 3826SOL    HW123111   2.115   3.461  13.640  0.7526 -1.8404 -0.4708
 3826SOL    HW223112   2.194   3.583  13.611  1.4125 -0.0025  0.5459
 3827SOL     OW23113   1.838   2.061  16.079  0.4886  0.5718 -0.0060
 3827SOL    HW123114   1.894   2.046  16.002 -1.5744 -3.9289 -0.6807
 3827SOL    HW223115   1.886   2.128  16.127  0.6324  0.0292  0.6145
 3828SOL     OW23116   1.641   1.900   2.621 -0.6502 -0.1942  0.3053
 3828SOL    HW123117   1.575   1.867   2.560 -0.3200  2.2437 -1.3436
 3828SOL    HW223118   1.722   1.898   2.570  0.4519  4.6302  1.8677
 3829SOL     OW23119   1.163   0.241   8.240  0.1546 -0.3114 -0.6485
 3829SOL    HW123120   1.255   0.260   8.259  0.5281 -1.3616 -1.4422
 3829SOL    HW223121   1.152   0.158   8.286 -1.1590 -0.2058 -0.7530
 3830SOL     OW23122   3.051   1.616   8.474  0.3471  0.2020  0.0210
 3830SOL    HW123123   3.070   1.522   8.465  0.0972 -0.0690  2.4385
 3830SOL    HW223124   3.045   1.643   8.382 -1.1198 -1.5224 -0.3884
 3831SOL     OW23125   4.377   3.897   3.577 -1.3962  0.1177  0.1619
 3831SOL    HW123126   4.445   3.943   3.626  0.2779  0.8740 -2.8439
 3831SOL    HW223127   4.363   3.971   3.518  2.6743  0.9436  0.2010
 3832SOL     OW23128   2.747   0.877   4.437 -0.1031 -0.0442  0.9425
 3832SOL    HW123129   2.794   0.868   4.354 -2.7338  0.0473 -0.5590
 3832SOL    HW223130   2.821   0.915   4.485  0.4267 -0.6300  0.5856
 3833SOL     OW23131   1.339   0.176   8.980 -0.3888  0.2073  0.0798
 3833SOL    HW123132   1.347   0.227   9.061  1.6673  0.4835 -0.3077
 3833SOL    HW223133   1.265   0.122   9.009  0.4111 -0.1983  1.3709
 3834SOL     OW23134   1.170   1.730   0.498  0.1148 -0.9167  0.0209
 3834SOL    HW123135   1.113   1.710   0.573  0.4138 -1.4809  0.1025
 3834SOL    HW223136   1.125   1.677   0.432 -0.5278 -0.2633 -0.0617
 3835SOL     OW23137   0.427   3.085   8.631 -0.2496 -0.3883 -0.1827
 3835SOL    HW123138   0.367   3.138   8.579 -1.5928 -0.4771  1.2936
 3835SOL    HW223139   0.503   3.077   8.573  0.2687  2.1098  0.1562
 3836SOL     OW23140   0.772   4.608   1.936  0.1807 -0.2582 -0.3897
 3836SOL    HW123141   0.816   4.680   1.981  1.8482 -1.5892  0.1221
 3836SOL    HW223142   0.763   4.646   1.848  1.1736  1.0287  0.0619
 3837SOL     OW23143   4.553   1.270   6.944  0.1254  0.4756 -0.1843
 3837SOL    HW123144   4.538   1.249   7.036 -0.5189 -3.2233 -1.1469
 3837SOL    HW223145   4.633   1.322   6.949  0.1886  0.3755 -0.1508
 3838SOL     OW23146   2.217   0.006   3.852 -0.6568 -0.2031  0.2208
 3838SOL    HW123147   2.176   4.657   3.841 -0.3763 -0.3949  0.6920
 3838SOL    HW223148   2.311   4.725   3.847 -1.2377 -3.1742 -0.3075
 3839SOL     OW23149   4.420   4.271   2.338 -0.5304  0.3209 -0.4168
 3839SOL    HW123150   4.466   4.202   2.289 -0.4522  0.9585 -1.2505
 3839SOL    HW223151   4.329   4.243   2.342 -0.2804 -0.5072 -0.4579
 3840SOL     OW23152   1.251   1.024  16.316 -0.0390  0.6524  0.1438
 3840SOL    HW123153   1.282   1.094  16.259 -2.4958 -0.0118 -1.9892
 3840SOL    HW223154   1.330   1.016  16.369  0.0086 -3.3601 -0.5323
 3841SOL     OW23155   3.916   1.924  17.388  0.2940 -0.0697  0.3176
 3841SOL    HW123156   3.837   1.870  17.381 -1.4337  2.5280 -0.0948
 3841SOL    HW223157   3.907   1.960  17.477  0.2990  2.1331 -0.5820
 3842SOL     OW23158   1.006   4.388   3.736 -0.3782 -0.0091  0.0047
 3842SOL    HW123159   0.916   4.357   3.730 -0.3432  0.1023 -1.1140
 3842SOL    HW223160   1.024   4.457   3.672  2.3040 -0.0611  0.6668
 3843SOL     OW23161   3.947   1.288   1.361  0.1943 -0.6159  1.0554
 3843SOL    HW123162   3.988   1.231   1.297  2.2206  1.5088  0.4583
 3843SOL    HW223163   3.998   1.368   1.351 -0.9595  0.0667  0.6421
 3844SOL     OW23164   4.664   1.225   4.583 -0.0526 -0.4231  0.1547
 3844SOL    HW123165   4.702   1.157   4.526  1.1948  2.1088 -2.0531
 3844SOL    HW223166   4.575   1.221   4.547 -0.7773  1.1884  1.8014
 3845SOL     OW23167   1.296   2.226  14.565 -0.1265  0.1845  0.0886
 3845SOL    HW123168   1.351   2.304  14.557  0.7340 -0.7603 -3.0504
 3845SOL    HW223169   1.249   2.262  14.641 -1.1714  1.3058 -1.0661
 3846SOL     OW23170   4.378   2.492   2.859  0.5150  0.0089 -0.5566
 3846SOL    HW123171   4.403   2.459   2.946  2.4592  2.8459 -0.0214
 3846SOL    HW223172   4.315   2.427   2.829 -1.8024  0.3345  3.5982
 3847SOL     OW23173   3.066   0.861   9.237  0.2809 -0.2205 -0.1434
 3847SOL    HW123174   2.995   0.832   9.295  0.0074  2.0084  0.6035
 3847SOL    HW223175   3.042   0.953   9.231  2.1384  0.4167  2.3501
 3848SOL     OW23176   4.393   0.394   8.077 -0.7178  0.6933  0.0666
 3848SOL    HW123177   4.335   0.340   8.130 -0.7076  0.7330  0.1181
 3848SOL    HW223178   4.342   0.419   8.000  0.8118  2.8205 -0.2664
 3849SOL     OW23179   2.550   4.197   9.645 -0.1899 -0.7265  0.2075
 3849SOL    HW123180   2.565   4.104   9.660  0.1803 -0.7707 -0.4476
 3849SOL    HW223181   2.475   4.196   9.585 -0.7708  3.1400  0.8203
 3850SOL     OW23182   2.191   2.711  13.335  0.0217 -0.7624 -0.1441
 3850SOL    HW123183   2.134   2.717  13.258 -1.5631 -1.0099  1.0215
 3850SOL    HW223184   2.216   2.803  13.334 -3.3179  0.1127 -0.9267
 3851SOL     OW23185   4.109   0.929   3.522 -0.4015 -0.0066 -0.7580
 3851SOL    HW123186   4.178   0.995   3.512  0.5988 -0.9620 -0.1353
 3851SOL    HW223187   4.028   0.980   3.516  0.4075  1.5327  1.5145
 3852SOL     OW23188   0.510   0.128   0.962  0.0472  0.3855  0.3362
 3852SOL    HW123189   0.438   0.071   0.933  0.3065  0.9799 -1.4572
 3852SOL    HW223190   0.483   0.141   1.053  0.5266  0.3321  0.4896
 3853SOL     OW23191   0.555   1.070   0.795 -0.3159 -0.1365  0.4317
 3853SOL    HW123192   0.578   1.148   0.745 -0.7601  0.2862  0.8829
 3853SOL    HW223193   0.592   1.095   0.880 -2.3615  0.8058  1.0475
 3854SOL     OW23194   2.984   1.428   6.564 -0.3497  0.6346 -0.0714
 3854SOL    HW123195   2.907   1.441   6.509  0.4487 -0.9002 -1.5227
 3854SOL    HW223196   2.998   1.335   6.545 -2.5359  0.2492  0.2174
 3855SOL     OW23197   3.435   1.260   2.124 -0.2979 -0.1308  0.4484
 3855SOL    HW123198   3.371   1.189   2.124 -0.0535 -0.3506  0.1777
 3855SOL    HW223199   3.442   1.288   2.033  0.0648 -4.3527 -0.8297
 3856SOL     OW23200   2.981   1.295   4.757 -0.2542 -0.3291  0.0269
 3856SOL    HW123201   3.067   1.329   4.783  0.1800 -1.1427 -0.3357
 3856SOL    HW223202   2.946   1.270   4.842  0.4523  1.1489  0.7555
 3857SOL     OW23203   2.139   2.353   6.908  0.0468 -0.4942 -0.1440
 3857SOL    HW123204   2.137   2.323   6.817 -3.0592  1.6039 -0.7494
 3857SOL    HW223205   2.229   2.387   6.912 -0.9988  2.2436 -0.0801
 3858SOL     OW23206   4.571   2.045   8.467  0.3151  0.1855  0.6682
 3858SOL    HW123207   4.619   2.016   8.389 -0.6531 -1.9651  0.8721
 3858SOL    HW223208   4.605   2.132   8.486 -1.9689  0.8540  1.6267
 3859SOL     OW23209   2.226   0.539  10.196 -0.0177 -0.2186 -0.3745
 3859SOL    HW123210   2.134   0.531  10.173  0.3168 -0.1963 -1.6838
 3859SOL    HW223211   2.229   0.572  10.286  0.7827 -1.4243  0.0400
 3860SOL     OW23212   3.981   0.199   5.639  0.0950 -0.6036 -0.3832
 3860SOL    HW123213   4.052   0.192   5.702 -0.0183 -1.1946 -0.3211
 3860SOL    HW223214   3.983   0.294   5.632  1.7613 -0.6972 -1.4014
 3861SOL     OW23215   2.472   3.581  12.176 -0.1974  0.8317 -0.1137
 3861SOL    HW123216   2.415   3.647  12.137  1.0564  1.0159 -1.6689
 3861SOL    HW223217   2.402   3.520  12.198 -0.8629  1.6791  0.1350
 3862SOL     OW23218   3.016   0.409   2.854  0.3668 -0.0745  0.0798
 3862SOL    HW123219   2.943   0.425   2.914 -0.6966  0.1533 -1.2760
 3862SOL    HW223220   2.969   0.437   2.776 -1.1032  1.7184  1.5915
 3863SOL     OW23221   0.500   1.623   7.979 -0.4328  0.1742 -0.2146
 3863SOL    HW123222   0.595   1.622   7.979 -0.4303  0.3511 -0.3723
 3863SOL    HW223223   0.481   1.550   7.919 -0.6707 -2.2945  2.8346
 3864SOL     OW23224   0.839   4.347   5.332  1.2441 -0.2088  1.1433
 3864SOL    HW123225   0.790   4.281   5.380 -0.1379  0.0105  0.0386
 3864SOL    HW223226   0.894   4.400   5.390 -0.9393  4.2300 -0.8693
 3865SOL     OW23227   0.669   3.495  15.855 -0.3747 -0.3415  0.1823
 3865SOL    HW123228   0.736   3.539  15.908  1.2060 -1.4888 -0.8256
 3865SOL    HW223229   0.603   3.563  15.845  0.9534  0.7128 -1.3596
 3866SOL     OW23230   1.065   3.550  10.851  0.2253 -0.1173  0.0039
 3866SOL    HW123231   1.030   3.468  10.816 -0.0765  1.0083 -2.3732
 3866SOL    HW223232   1.157   3.525  10.851  0.5465  1.1147  2.5099
 3867SOL     OW23233   4.622   0.882   9.675  0.6262  0.2456  0.2116
 3867SOL    HW123234   4.619   0.787   9.662 -1.1690  0.0208  2.2260
 3867SOL    HW223235   4.671   0.886   9.756  0.9318 -1.9026  0.1526
 3868SOL     OW23236   0.545   2.269   0.137  0.3564 -0.1236 -0.0923
 3868SOL    HW123237   0.492   2.348   0.125  0.2603 -0.1867 -0.0795
 3868SOL    HW223238   0.515   2.216   0.063  0.6999 -1.4837  0.7469
 3869SOL     OW23239   0.201   0.345   6.341  0.2890  0.7287  0.3398
 3869SOL    HW123240   0.201   0.272   6.279 -0.1991  0.9008  0.1361
 3869SOL    HW223241   0.189   0.284   6.414 -0.7499 -2.1935 -2.2554
 3870SOL     OW23242   1.542   2.009   6.689  0.0528 -0.2785  0.8894
 3870SOL    HW123243   1.508   2.061   6.762 -1.3503  2.2570 -1.6190
 3870SOL    HW223244   1.463   2.019   6.637  1.1895 -1.4801 -1.0496
 3871SOL     OW23245   4.379   0.748  11.959 -0.1781 -0.1868 -0.3379
 3871SOL    HW123246   4.367   0.788  12.045 -0.8850 -0.7816 -0.1652
 3871SOL    HW223247   4.355   0.656  11.971 -0.4008 -0.1597 -0.5850
 3872SOL     OW23248   0.179   1.908   9.091  0.1788 -0.1354  0.2293
 3872SOL    HW123249   0.089   1.931   9.116  1.2359  1.5113  2.4718
 3872SOL    HW223250   0.158   1.815   9.085 -0.4261 -0.0569  1.0844
 3873SOL     OW23251   2.399   4.345   6.921  0.5969  0.0836  0.2757
 3873SOL    HW123252   2.405   4.310   7.009  1.2794  0.8043  0.5116
 3873SOL    HW223253   2.414   4.438   6.937  5.3501 -0.6045 -0.2974
 3874SOL     OW23254   2.317   4.064  10.089 -0.6497  0.0837 -0.1955
 3874SOL    HW123255   2.258   3.990  10.103 -0.2075 -0.0191  1.1187
 3874SOL    HW223256   2.400   4.026  10.118 -0.3354  1.6034  0.8629
 3875SOL     OW23257   0.157   1.271   9.675  0.2666  0.1825  0.2390
 3875SOL    HW123258   0.082   1.211   9.681  1.5516 -1.6017 -1.3682
 3875SOL    HW223259   0.107   1.347   9.705 -1.6233 -1.3447  1.0125
 3876SOL     OW23260   3.055   2.850  13.417  0.1746  0.6993 -0.3280
 3876SOL    HW123261   3.097   2.764  13.411 -0.0771  0.6081 -0.7932
 3876SOL    HW223262   3.058   2.860  13.513 -0.4837 -0.4166 -0.1814
 3877SOL     OW23263   3.388   4.088  16.610 -0.5184  0.3843  0.0052
 3877SOL    HW123264   3.457   4.145  16.574 -2.1653  0.5282 -2.9025
 3877SOL    HW223265   3.437   4.006  16.618 -2.4235 -0.4827  2.7259
 3878SOL     OW23266   3.395   0.743   7.890 -0.2323 -0.2182  0.3245
 3878SOL    HW123267   3.341   0.710   7.962 -0.8060 -0.0197 -0.0177
 3878SOL    HW223268   3.447   0.665   7.871  1.2215  0.3107  2.1118
 3879SOL     OW23269   0.525   0.918   9.450  0.0418 -0.2059 -0.2974
 3879SOL    HW123270   0.510   0.992   9.510  2.8090  0.4507 -0.4284
 3879SOL    HW223271   0.600   0.953   9.403  0.4405 -2.0443 -1.0262
 3880SOL     OW23272   2.969   0.420  17.018  0.4471 -0.3712 -0.2475
 3880SOL    HW123273   2.961   0.441  16.925  2.9822 -0.7993 -0.5438
 3880SOL    HW223274   3.033   0.485  17.048 -0.1843 -0.3473  1.0900
 3881SOL     OW23275   3.718   0.584   4.126  0.6159  0.2228 -0.0654
 3881SOL    HW123276   3.676   0.652   4.073 -3.5176 -2.9416 -0.8293
 3881SOL    HW223277   3.791   0.565   4.066  0.4687 -0.7460  0.0602
 3882SOL     OW23278   4.438   4.635   4.267  0.0606 -0.6138  0.3642
 3882SOL    HW123279   4.364   4.696   4.264  0.5395 -0.1852 -2.9439
 3882SOL    HW223280   4.394   4.554   4.290 -0.6629  0.0170  1.2047
 3883SOL     OW23281   3.322   3.516   9.579 -0.4202  0.0123  0.4810
 3883SOL    HW123282   3.413   3.488   9.582  0.4048  2.6460  0.3539
 3883SOL    HW223283   3.316   3.508   9.484 -1.6519  0.1673  0.5490
 3884SOL     OW23284   4.577   4.492   2.222  0.3135 -0.0750 -0.5711
 3884SOL    HW123285   4.579   4.473   2.128  1.1348  2.5354 -1.0928
 3884SOL    HW223286   4.527   4.419   2.258  0.5207  0.4771  0.8322
 3885SOL     OW23287   2.176   0.847  10.102 -0.0690 -0.4038  0.0754
 3885SOL    HW123288   2.265   0.814  10.107  0.3654  0.6055 -1.0930
 3885SOL    HW223289   2.144   0.815  10.186  0.2467 -0.8823  0.0105
 3886SOL     OW23290   4.522   0.643  15.679  0.2791 -0.0914 -0.1023
 3886SOL    HW123291   4.503   0.615  15.769 -0.9453  1.1603  0.0457
 3886SOL    HW223292   4.588   0.708  15.705  0.6431 -0.7383  0.5839
 3887SOL     OW23293   3.172   2.435  17.537  0.0884  0.1555  0.0628
 3887SOL    HW123294   3.230   2.505  17.563  0.0953  0.7353 -1.4774
 3887SOL    HW223295   3.237   2.367  17.552 -0.0375 -0.1531 -0.7762
 3888SOL     OW23296   4.420   2.618   5.559 -0.0223 -0.4709 -0.4051
 3888SOL    HW123297   4.442   2.602   5.651  0.4614 -0.5050 -0.5232
 3888SOL    HW223298   4.508   2.645   5.533  0.2098  2.3321  3.2770
 3889SOL     OW23299   1.744   2.066   3.971  0.2091  0.3766  0.0193
 3889SOL    HW123300   1.807   1.999   3.946 -1.0014 -0.9311  0.4703
 3889SOL    HW223301   1.671   2.011   3.998  0.0967 -0.4056 -1.9034
 3890SOL     OW23302   3.099   0.447   4.777 -0.4449 -0.2508  0.5346
 3890SOL    HW123303   3.103   0.363   4.822 -0.0581 -0.2338  0.5311
 3890SOL    HW223304   3.004   0.448   4.766 -0.4558  0.6191  0.6440
 3891SOL     OW23305   2.605   4.269   2.168 -0.2963 -0.5726  0.0652
 3891SOL    HW123306   2.536   4.322   2.209 -1.1307 -0.0419 -2.0513
 3891SOL    HW223307   2.572   4.183   2.198 -0.0001 -1.3302 -1.8055
 3892SOL     OW23308   1.269   3.060  13.798 -0.1138 -0.0903  0.2328
 3892SOL    HW123309   1.355   3.017  13.797  0.5430  1.2749 -2.0206
 3892SOL    HW223310   1.294   3.133  13.741  1.1021 -1.7489 -1.3827
 3893SOL     OW23311   2.742   1.609   9.315  0.1974  0.0782  0.4609
 3893SOL    HW123312   2.764   1.695   9.279 -0.0606  0.0943  0.3438
 3893SOL    HW223313   2.647   1.611   9.303  0.4132 -1.1781 -1.4754
 3894SOL     OW23314   1.980   2.933   1.955 -0.1965  0.2240  0.2600
 3894SOL    HW123315   2.013   3.023   1.960 -1.1823  0.5935  0.2977
 3894SOL    HW223316   1.884   2.940   1.960 -0.1423  1.2713 -0.1009
 3895SOL     OW23317   3.599   3.805   0.538 -0.2475 -0.1625  0.0826
 3895SOL    HW123318   3.627   3.826   0.449  0.4023  0.6679  0.4860
 3895SOL    HW223319   3.515   3.759   0.537 -0.8222  0.9023 -0.8982
 3896SOL     OW23320   1.644   0.234  15.618 -0.0902  0.3660  0.2710
 3896SOL    HW123321   1.683   0.290  15.685 -0.8665  0.9238  0.2613
 3896SOL    HW223322   1.632   0.153  15.666  1.3670 -0.4150 -0.6758
 3897SOL     OW23323   3.175   2.412   3.260 -0.5143  0.1534  0.4011
 3897SOL    HW123324   3.115   2.353   3.305 -0.4291  0.6188  1.1273
 3897SOL    HW223325   3.208   2.459   3.337 -0.2839  0.9569 -0.1824
 3898SOL     OW23326   0.902   1.981   3.585 -0.0471 -0.3585 -1.2085
 3898SOL    HW123327   0.869   2.064   3.552 -1.1718  1.0880  3.5327
 3898SOL    HW223328   0.861   1.979   3.672  1.3097  0.5221 -0.5479
 3899SOL     OW23329   1.630   2.736   5.994  0.1090 -0.0631  0.5320
 3899SOL    HW123330   1.647   2.643   5.980  1.6756  0.1143  1.2514
 3899SOL    HW223331   1.540   2.751   5.965  0.3750 -0.8789 -0.7407
 3900SOL     OW23332   4.377   4.076   1.089 -0.2528 -0.1824 -0.1336
 3900SOL    HW123333   4.348   3.988   1.110 -0.5888  0.0518  0.3714
 3900SOL    HW223334   4.443   4.058   1.021 -0.5258  0.1717 -0.4918
 3901SOL     OW23335   3.554   0.872  16.641 -0.1885  0.1482  0.5311
 3901SOL    HW123336   3.552   0.777  16.655 -1.4855 -0.0559 -1.0451
 3901SOL    HW223337   3.494   0.880  16.567  0.3209 -0.5863  0.0425
 3902SOL     OW23338   1.438   0.800   8.406  0.0291 -0.2144  0.6548
 3902SOL    HW123339   1.409   0.870   8.348 -1.2105 -0.6878  0.7182
 3902SOL    HW223340   1.428   0.841   8.491 -1.7928  0.4131  0.1264
 3903SOL     OW23341   0.772   1.432   7.806 -0.2150 -0.3984 -0.4888
 3903SOL    HW123342   0.716   1.366   7.765  0.0885 -0.5451 -0.6654
 3903SOL    HW223343   0.733   1.454   7.891  1.7746  2.6653 -0.3465
 3904SOL     OW23344   0.988   2.961   2.679 -0.6543  0.5294  0.6523
 3904SOL    HW123345   1.012   2.895   2.614  2.2040  1.4325  0.8027
 3904SOL    HW223346   0.899   2.983   2.649 -0.2077 -1.4512 -2.1794
 3905SOL     OW23347   4.622   3.979   2.385  0.3340 -0.2016  0.0496
 3905SOL    HW123348   4.710   3.942   2.382  0.2825 -0.2502 -0.7281
 3905SOL    HW223349   4.616   4.015   2.474  1.3607  0.1031 -0.0052
 3906SOL     OW23350   0.072   1.936  11.348 -0.2988  0.3644 -0.0234
 3906SOL    HW123351   0.109   1.853  11.320  0.7677 -0.2681  3.2819
 3906SOL    HW223352   0.125   1.998  11.298  0.6291  0.0922  0.6370
 3907SOL     OW23353   0.010   3.003   7.576 -0.0777 -0.2321 -0.0601
 3907SOL    HW123354   4.659   2.978   7.548 -0.2898  1.6093 -1.0394
 3907SOL    HW223355   0.010   3.098   7.567 -2.7124 -0.3541 -1.1830
 3908SOL     OW23356   3.938   1.397   5.185  0.3762  0.0475 -0.4893
 3908SOL    HW123357   3.988   1.318   5.166 -0.5181 -0.2120 -1.7590
 3908SOL    HW223358   4.004   1.453   5.225 -0.4751  0.3390  0.5009
 3909SOL     OW23359   1.344   2.064   4.067  0.4410 -0.2618 -0.2924
 3909SOL    HW123360   1.299   2.051   4.150  1.0773 -2.0157 -0.2415
 3909SOL    HW223361   1.421   2.010   4.079 -1.0663 -1.5450  3.6362
 3910SOL     OW23362   1.328   1.929  17.233 -0.2471 -0.4954  0.3793
 3910SOL    HW123363   1.269   1.880  17.175  0.3517 -0.5342 -0.1892
 3910SOL    HW223364   1.288   2.016  17.226  2.6046  0.6081 -1.6414
 3911SOL     OW23365   2.541   4.494   0.400  0.2454  0.1445  0.0723
 3911SOL    HW123366   2.519   4.587   0.408 -0.2048  0.1730 -1.4266
 3911SOL    HW223367   2.634   4.490   0.424  0.9771 -0.6547 -2.8368
 3912SOL     OW23368   1.276   2.260  16.809 -0.3643  0.0731 -0.2091
 3912SOL    HW123369   1.371   2.254  16.817 -0.2229 -0.5684 -2.5278
 3912SOL    HW223370   1.271   2.234  16.717 -0.3538 -0.5585 -0.0347
 3913SOL     OW23371   0.233   1.547  10.117 -0.0847  0.2458  0.0505
 3913SOL    HW123372   0.271   1.573  10.201  0.3277  0.7868 -0.3017
 3913SOL    HW223373   0.289   1.474  10.092  0.1076  0.0717  0.9863
 3914SOL     OW23374   2.607   1.542   8.018 -0.1921  0.0880  0.3371
 3914SOL    HW123375   2.582   1.450   8.017 -0.8546  0.2638  1.0353
 3914SOL    HW223376   2.641   1.547   7.928  2.6652  3.6422  1.6132
 3915SOL     OW23377   2.900   1.449   7.554 -0.0469 -0.2895 -0.2587
 3915SOL    HW123378   2.941   1.507   7.491 -0.3953 -0.5702 -0.7448
 3915SOL    HW223379   2.910   1.507   7.630 -3.5899 -0.9624  0.7485
 3916SOL     OW23380   4.266   2.343  10.121 -0.1453  0.0031 -0.6731
 3916SOL    HW123381   4.270   2.248  10.132 -1.5682 -0.3534 -3.2186
 3916SOL    HW223382   4.227   2.363  10.206  1.1078 -1.0880  0.1485
 3917SOL     OW23383   2.483   3.848  13.402 -0.3474 -0.2184  0.0147
 3917SOL    HW123384   2.451   3.931  13.437 -2.1322 -0.2397 -1.5182
 3917SOL    HW223385   2.573   3.873  13.383  0.6002 -1.8962  2.3155
 3918SOL     OW23386   3.359   2.482   5.528  0.0047 -0.0317  0.4008
 3918SOL    HW123387   3.296   2.424   5.572  1.4107 -0.9296  1.2469
 3918SOL    HW223388   3.428   2.420   5.505  1.8268  1.9918  0.5117
 3919SOL     OW23389   2.241   4.149  16.590 -0.0617 -0.1203  0.8826
 3919SOL    HW123390   2.162   4.098  16.608 -0.5637  0.7515  1.1531
 3919SOL    HW223391   2.218   4.233  16.629  1.5348  1.7362 -2.1297
 3920SOL     OW23392   4.731   3.665   1.561 -0.5056 -0.0310  0.8669
 3920SOL    HW123393   0.050   3.688   1.635  2.5311  0.4054 -1.5543
 3920SOL    HW223394   0.058   3.620   1.506 -0.4350  0.8646  0.2125
 3921SOL     OW23395   3.991   1.115   5.001  0.2578  0.5779  0.4808
 3921SOL    HW123396   4.007   1.068   5.083  2.6783 -0.2271 -0.4414
 3921SOL    HW223397   4.029   1.060   4.933 -3.4832 -1.0902 -0.2864
 3922SOL     OW23398   4.522   3.201   2.434  0.0302  0.1295  0.0817
 3922SOL    HW123399   4.524   3.163   2.522 -1.9042 -0.5698 -0.1943
 3922SOL    HW223400   4.505   3.125   2.379  0.1851  2.1083 -2.6520
 3923SOL     OW23401   4.221   4.113   9.207 -0.1373 -0.0019 -0.3074
 3923SOL    HW123402   4.300   4.061   9.195 -0.8593 -1.5208  1.4766
 3923SOL    HW223403   4.179   4.058   9.273  0.2195 -2.0010 -1.7443
 3924SOL     OW23404   4.344   0.579   2.372 -0.6152  0.1204  0.6675
 3924SOL    HW123405   4.300   0.504   2.332 -2.1351  1.3796 -0.0390
 3924SOL    HW223406   4.302   0.598   2.456 -0.0803 -1.2191  1.2370
 3925SOL     OW23407   1.468   1.034   4.793 -0.3009 -0.6491  0.5379
 3925SOL    HW123408   1.550   1.045   4.841  0.6267  2.7348 -1.8090
 3925SOL    HW223409   1.406   1.087   4.843  0.7450 -0.3037  1.4775
 3926SOL     OW23410   4.137   0.183  12.645  0.2313  0.1577 -0.0966
 3926SOL    HW123411   4.150   0.109  12.586 -2.0105 -1.0714  0.9238
 3926SOL    HW223412   4.046   0.167  12.671 -0.3342  2.1676 -0.8550
 3927SOL     OW23413   3.972   3.314   5.851 -0.1097  0.3968  0.1206
 3927SOL    HW123414   3.915   3.335   5.924  1.1070  2.2644  0.5379
 3927SOL    HW223415   4.018   3.398   5.858 -0.0818  0.4400 -0.5517
 3928SOL     OW23416   2.519   1.275   8.029  0.0213  0.1232 -0.3950
 3928SOL    HW123417   2.563   1.198   8.065 -0.5510  0.9745  2.0741
 3928SOL    HW223418   2.512   1.248   7.937  3.3571  2.1599 -1.2366
 3929SOL     OW23419   3.385   4.663   5.971  0.9145 -0.2008 -0.7400
 3929SOL    HW123420   3.374   4.692   6.062  1.4198 -1.2828 -0.3390
 3929SOL    HW223421   3.479   4.645   5.971  0.4261 -2.6656  1.2812
 3930SOL     OW23422   0.280   1.882   6.877  0.6059 -0.5786 -0.2774
 3930SOL    HW123423   0.358   1.849   6.832  0.7856 -2.0900  1.1091
 3930SOL    HW223424   0.218   1.829   6.826  0.7148  0.5485 -1.5730
 3931SOL     OW23425   3.295   2.558   7.952 -0.3691 -0.1509 -0.0189
 3931SOL    HW123426   3.203   2.536   7.965  0.3279 -1.5161  2.5429
 3931SOL    HW223427   3.345   2.493   8.000  2.4274  1.2596 -1.0029
 3932SOL     OW23428   3.681   3.158   1.753  0.3785 -1.0161 -0.0696
 3932SOL    HW123429   3.653   3.174   1.843 -0.2756  0.3597 -0.5242
 3932SOL    HW223430   3.774   3.180   1.762  0.0109  0.3967  0.3189
 3933SOL     OW23431   3.062   1.943   3.244  0.4939  0.3722 -0.1439
 3933SOL    HW123432   2.989   1.892   3.279  0.3757 -0.1216 -1.0892
 3933SOL    HW223433   3.069   1.925   3.150 -3.3047 -0.4547 -0.2839
 3934SOL     OW23434   2.960   3.016  16.188 -0.3401 -0.4218  0.1504
 3934SOL    HW123435   2.881   3.068  16.201 -2.5682 -3.7287 -0.0160
 3934SOL    HW223436   2.989   3.008  16.278  1.9503  0.8255 -0.4837
 3935SOL     OW23437   0.407   4.491   4.357  0.1839  0.3139  0.3650
 3935SOL    HW123438   0.483   4.549   4.349  0.7984 -0.6153 -0.4569
 3935SOL    HW223439   0.367   4.492   4.271  1.4901 -0.6186 -0.2468
 3936SOL     OW23440   1.513   0.605   4.299 -0.3881  0.3078  0.4810
 3936SOL    HW123441   1.594   0.554   4.293  0.2021  1.4141 -0.8906
 3936SOL    HW223442   1.547   0.693   4.318  0.9306  0.1369 -1.0475
 3937SOL     OW23443   0.195   3.940   8.670  0.0306  0.5146  0.1196
 3937SOL    HW123444   0.133   3.868   8.681 -0.9459  1.1022 -1.5051
 3937SOL    HW223445   0.280   3.896   8.663 -0.8681 -0.9194 -1.6736
 3938SOL     OW23446   1.536   2.414  14.098 -0.6369  0.4575  0.0180
 3938SOL    HW123447   1.476   2.459  14.039  0.5328  0.8544 -0.8817
 3938SOL    HW223448   1.542   2.478  14.169  0.5078  1.8480 -1.3280
 3939SOL     OW23449   1.092   4.145   6.292 -0.4624 -0.1073  0.2748
 3939SOL    HW123450   1.105   4.113   6.381 -1.9669  0.9117  0.8626
 3939SOL    HW223451   1.006   4.110   6.269 -0.2056 -0.1415 -0.6573
 3940SOL     OW23452   4.420   4.528  16.170  0.1092  0.5255 -0.2265
 3940SOL    HW123453   4.456   4.454  16.219 -1.3966  1.1079  1.7875
 3940SOL    HW223454   4.396   4.480  16.091 -0.6534  1.2027 -0.4169
 3941SOL     OW23455   1.571   2.336   5.123 -0.0347  0.1527 -0.0674
 3941SOL    HW123456   1.540   2.351   5.213  2.5726 -0.3484  0.9050
 3941SOL    HW223457   1.505   2.271   5.099  0.6322 -1.4502  2.4618
 3942SOL     OW23458   3.948   0.003   2.608 -0.4363  0.3906 -0.3405
 3942SOL    HW123459   3.879   0.050   2.561 -2.2109 -2.9123 -1.0061
 3942SOL    HW223460   3.990   4.701   2.532  1.0381  0.7327  0.3073
 3943SOL     OW23461   3.854   0.621   7.412  0.2593  0.4210 -0.5214
 3943SOL    HW123462   3.885   0.570   7.488 -1.5783  1.9050  1.2335
 3943SOL    HW223463   3.773   0.656   7.450 -0.1135 -2.6081  1.5329
 3944SOL     OW23464   0.471   2.239   5.752  0.3360 -0.0055  0.0023
 3944SOL    HW123465   0.382   2.275   5.751 -0.0947 -1.0441  0.9413
 3944SOL    HW223466   0.489   2.231   5.846  0.4202  1.5980  0.1202
 3945SOL     OW23467   0.080   4.327   3.808  0.3931  0.1596  0.5854
 3945SOL    HW123468   0.118   4.278   3.882  0.3357 -1.0966 -0.2213
 3945SOL    HW223469   0.081   4.415   3.845 -0.3962  0.4417 -0.0857
 3946SOL     OW23470   3.998   1.776   6.378  0.3763  0.1179 -0.2478
 3946SOL    HW123471   4.026   1.685   6.367 -1.2155 -0.6778  2.5156
 3946SOL    HW223472   4.025   1.790   6.469  1.5999  1.1979 -0.7754
 3947SOL     OW23473   0.399   2.418   6.229  0.4858 -0.3240 -0.0257
 3947SOL    HW123474   0.369   2.508   6.223  1.6136 -0.0042 -0.9136
 3947SOL    HW223475   0.322   2.386   6.275 -0.7199  0.5076 -1.4758
 3948SOL     OW23476   3.624   2.011  14.885 -0.5154 -0.4304  0.3109
 3948SOL    HW123477   3.531   2.029  14.878 -0.0663  1.9823  0.6404
 3948SOL    HW223478   3.635   1.968  14.800 -0.4973 -1.0954  0.6485
 3949SOL     OW23479   4.092   1.529   0.916  0.2381 -0.4513  0.0915
 3949SOL    HW123480   4.141   1.511   0.835  1.8641 -0.6830  1.1258
 3949SOL    HW223481   4.045   1.446   0.918 -0.1207 -0.2972 -2.4428
 3950SOL     OW23482   0.390   0.992   9.787 -0.5030  0.4023  0.1900
 3950SOL    HW123483   0.476   1.033   9.798 -1.9385  3.3722  0.3858
 3950SOL    HW223484   0.363   1.029   9.703  1.0746  2.0479  0.3946
 3951SOL     OW23485   2.269   1.742   3.106 -0.2055 -0.3572  0.1165
 3951SOL    HW123486   2.322   1.680   3.056  1.2180  1.9592 -1.2759
 3951SOL    HW223487   2.191   1.718   3.057 -2.2080  1.2728  2.4949
 3952SOL     OW23488   1.298   3.520   7.111  0.4942  0.8402  0.2528
 3952SOL    HW123489   1.223   3.493   7.060  0.0080 -0.7889  1.8460
 3952SOL    HW223490   1.364   3.524   7.041 -0.5491 -2.0694 -0.8676
 3953SOL     OW23491   3.440   3.049  11.504 -0.0904 -0.0922  0.4354
 3953SOL    HW123492   3.428   3.144  11.513 -0.2323 -0.0100 -0.6621
 3953SOL    HW223493   3.413   3.032  11.594 -1.9379  1.0627  0.1052
 3954SOL     OW23494   2.701   1.623   2.830  0.2539 -0.1651 -0.2807
 3954SOL    HW123495   2.632   1.594   2.770  1.8101  0.5412 -2.4259
 3954SOL    HW223496   2.745   1.692   2.780 -1.0154  1.1455  0.3931
 3955SOL     OW23497   1.379   2.541   3.539 -0.1183  0.3408 -0.4187
 3955SOL    HW123498   1.410   2.475   3.477 -3.1584  0.7281 -2.3491
 3955SOL    HW223499   1.462   2.590   3.549 -0.6215  1.7835 -3.2031
 3956SOL     OW23500   0.986   3.196  16.100  0.1890  0.4611  0.5193
 3956SOL    HW123501   1.030   3.269  16.057 -0.0336 -0.6697 -1.5758
 3956SOL    HW223502   0.894   3.212  16.078 -0.2006  0.3526  2.0455
 3957SOL     OW23503   3.893   3.502  12.627  0.1884  0.0351 -0.1514
 3957SOL    HW123504   3.918   3.420  12.584 -0.2622 -0.4651  0.5329
 3957SOL    HW223505   3.973   3.548  12.655 -0.1454 -0.5979  1.8835
 3958SOL     OW23506   1.125   1.377   2.667 -0.1721 -0.2775  0.2185
 3958SOL    HW123507   1.163   1.324   2.736 -0.9365 -0.5824  0.4018
 3958SOL    HW223508   1.128   1.466   2.703  1.1853 -0.1968 -0.1060
 3959SOL     OW23509   2.030   0.901   5.009 -0.5832 -0.0260 -0.1086
 3959SOL    HW123510   2.082   0.980   5.015 -2.0108  0.9863 -1.0163
 3959SOL    HW223511   1.940   0.930   4.993 -0.9161 -1.3877 -0.7073
 3960SOL     OW23512   2.134   4.335   7.154 -0.1820 -0.3655 -0.2327
 3960SOL    HW123513   2.136   4.338   7.250 -1.1809 -2.5699 -0.1597
 3960SOL    HW223514   2.134   4.428   7.129  0.4371 -0.4389 -0.4990
 3961SOL     OW23515   1.132   4.624   7.815 -0.1106 -0.2997 -0.0342
 3961SOL    HW123516   1.121   4.535   7.781  1.6715 -0.8295  0.7283
 3961SOL    HW223517   1.205   4.612   7.876 -1.4124  1.6863  1.8955
 3962SOL     OW23518   3.901   1.143   6.421  0.6009  0.7990  0.6295
 3962SOL    HW123519   3.836   1.146   6.351  1.9365  2.9431 -0.5107
 3962SOL    HW223520   3.982   1.128   6.372  1.1049  0.2545  1.6048
 3963SOL     OW23521   2.287   2.304   7.692 -0.2288  0.2049  0.0684
 3963SOL    HW123522   2.334   2.307   7.776 -1.1520  1.6178  0.5276
 3963SOL    HW223523   2.270   2.211   7.708  1.2088  0.1092  1.0307
 3964SOL     OW23524   1.386   4.580  14.912  0.5288  0.4430 -0.2348
 3964SOL    HW123525   1.363   4.493  14.880 -1.8877  1.3415 -0.9041
 3964SOL    HW223526   1.300   4.603  14.946  0.9572  0.0866  1.1134
 3965SOL     OW23527   1.268   4.200   4.893 -0.1733 -0.1250  0.1666
 3965SOL    HW123528   1.203   4.271   4.895 -1.3927 -1.2520  0.7567
 3965SOL    HW223529   1.206   4.128   4.901 -1.9465  1.7116  2.8654
 3966SOL     OW23530   1.540   2.476   5.700  0.3169 -0.5053  0.2046
 3966SOL    HW123531   1.563   2.478   5.793  2.8776 -0.9815 -0.3933
 3966SOL    HW223532   1.509   2.565   5.689 -0.5043 -0.8555 -0.2811
 3967SOL     OW23533   2.958   3.120   7.703 -0.2397  0.3719 -0.1752
 3967SOL    HW123534   3.009   3.201   7.704  1.8749 -0.9646 -1.4686
 3967SOL    HW223535   2.977   3.092   7.793  1.2578  3.1010  0.3587
 3968SOL     OW23536   1.490   2.578   0.319 -0.0857  0.1564  0.0193
 3968SOL    HW123537   1.538   2.504   0.282 -2.8095 -1.0827 -1.0585
 3968SOL    HW223538   1.486   2.641   0.247 -0.6927 -2.1347 -1.9473
 3969SOL     OW23539   1.996   1.639   6.265  0.4817  0.0693 -0.0744
 3969SOL    HW123540   1.994   1.614   6.173  0.9273 -0.6971  0.1251
 3969SOL    HW223541   1.907   1.619   6.293  1.8378 -2.1622  2.6220
 3970SOL     OW23542   4.404   0.632   2.108 -0.5811 -0.0232 -0.0499
 3970SOL    HW123543   4.443   0.544   2.102 -1.9186 -0.5715 -0.6096
 3970SOL    HW223544   4.350   0.620   2.186  0.1834 -0.3331  0.4397
 3971SOL     OW23545   3.876   0.180   7.956 -0.0286 -0.1667  0.5133
 3971SOL    HW123546   3.925   0.111   7.912 -0.2244 -0.4138  0.6890
 3971SOL    HW223547   3.821   0.137   8.021 -0.4069  0.0359  0.3236
 3972SOL     OW23548   1.406   1.709   4.786  0.3696  0.6036 -0.3878
 3972SOL    HW123549   1.369   1.790   4.752  0.1352 -0.1291 -1.8580
 3972SOL    HW223550   1.407   1.732   4.879  1.4257 -0.0232 -0.2371
 3973SOL     OW23551   0.346   3.782   7.410 -0.7247  0.6325  0.4983
 3973SOL    HW123552   0.369   3.823   7.494 -0.3071  1.3322  0.0450
 3973SOL    HW223553   0.328   3.864   7.362 -3.4243 -0.1172  0.2441
 3974SOL     OW23554   1.251   3.547   0.613 -0.4160  0.3462  0.2065
 3974SOL    HW123555   1.245   3.466   0.563 -0.2583  0.0906  0.6074
 3974SOL    HW223556   1.318   3.533   0.680 -1.0601  0.0024  0.7733
 3975SOL     OW23557   2.883   0.013   3.667  0.1776  0.9347 -0.1213
 3975SOL    HW123558   2.946   0.085   3.675 -0.0923  1.1381  0.1896
 3975SOL    HW223559   2.846   0.005   3.755 -0.6778 -1.6363 -0.6966
 3976SOL     OW23560   3.134   1.737  16.420 -0.0010  0.0413 -0.2919
 3976SOL    HW123561   3.147   1.733  16.325 -2.5979 -1.0363 -0.5935
 3976SOL    HW223562   3.066   1.803  16.429  1.6811  1.8740 -0.9089
 3977SOL     OW23563   1.206   4.321   8.104 -0.0870  0.1989 -0.3318
 3977SOL    HW123564   1.297   4.347   8.087  0.5162 -1.5865  0.1791
 3977SOL    HW223565   1.160   4.398   8.137 -2.2112 -0.6331 -1.3564
 3978SOL     OW23566   3.704   3.782   9.124  0.6280 -0.1933 -1.0341
 3978SOL    HW123567   3.719   3.865   9.078 -0.8175  0.2866 -0.6410
 3978SOL    HW223568   3.796   3.770   9.147 -0.0888 -2.6584  0.4630
 3979SOL     OW23569   3.011   0.504   1.449  0.5919  0.1697  0.0325
 3979SOL    HW123570   3.083   0.550   1.406  2.7596 -1.2795  2.1218
 3979SOL    HW223571   2.938   0.566   1.441  2.4127  2.3473  0.1692
 3980SOL     OW23572   4.251   3.733   8.560  0.0385  0.3790 -0.3320
 3980SOL    HW123573   4.191   3.708   8.630  1.4160 -0.3721  0.5615
 3980SOL    HW223574   4.237   3.827   8.572 -0.4170  0.2519  0.1216
 3981SOL     OW23575   2.356   4.320   4.074  0.1024 -0.2008 -0.4398
 3981SOL    HW123576   2.360   4.409   4.040 -0.3669  0.1312  0.3757
 3981SOL    HW223577   2.403   4.262   4.014 -1.4933 -0.8984 -1.0179
 3982SOL     OW23578   2.433   4.094   1.891 -0.2350 -0.4555  0.0139
 3982SOL    HW123579   2.428   4.053   1.805  0.4196 -0.5000 -0.0023
 3982SOL    HW223580   2.469   4.020   1.939  0.8837 -1.0137 -1.6942
 3983SOL     OW23581   0.321   1.855   8.070  0.0605  0.2252 -0.4989
 3983SOL    HW123582   0.325   1.774   8.019 -2.2096  1.4418 -2.6633
 3983SOL    HW223583   0.229   1.880   8.073 -0.0800 -0.4201  0.5442
 3984SOL     OW23584   2.354   1.284   6.464 -0.1897 -0.2559 -0.0209
 3984SOL    HW123585   2.261   1.306   6.463 -0.6984 -2.4083 -0.9994
 3984SOL    HW223586   2.367   1.266   6.371 -4.2804  2.1089 -1.0092
 3985SOL     OW23587   2.465   4.065   4.208  0.5431 -0.1091  0.5109
 3985SOL    HW123588   2.379   4.050   4.167  0.9306  2.1324 -1.1272
 3985SOL    HW223589   2.465   4.157   4.236 -0.3767  0.1921 -0.4490
 3986SOL     OW23590   4.038   3.196   9.403 -0.2129  0.2429  0.2982
 3986SOL    HW123591   4.118   3.147   9.383  0.5021  1.6049 -0.2329
 3986SOL    HW223592   4.056   3.263   9.469  2.0874 -1.0282  0.9729
 3987SOL     OW23593   3.722   1.606   7.467  0.2173  0.1871 -0.0038
 3987SOL    HW123594   3.766   1.549   7.404 -0.1667 -0.5138  0.3523
 3987SOL    HW223595   3.692   1.681   7.417 -0.5619 -0.9039 -1.1757
 3988SOL     OW23596   3.111   0.824   2.838 -0.0938  0.0060 -0.2620
 3988SOL    HW123597   3.080   0.830   2.748 -1.3072  1.0118  0.2131
 3988SOL    HW223598   3.035   0.861   2.883  0.9905  2.4505 -0.4190
 3989SOL     OW23599   2.927   1.902  16.790 -0.6576 -0.2578  0.0734
 3989SOL    HW123600   2.984   1.880  16.863 -1.4186  0.1149  0.7825
 3989SOL    HW223601   2.913   1.994  16.810 -3.1697 -0.9620  1.5982
 3990SOL     OW23602   2.471   2.627   7.568  0.0890 -0.3896 -0.9068
 3990SOL    HW123603   2.466   2.712   7.525 -0.2784 -0.9358 -1.9467
 3990SOL    HW223604   2.562   2.624   7.597 -0.5371 -3.2667  0.7490
 3991SOL     OW23605   4.106   3.561   9.434 -0.4974  0.2277  0.3585
 3991SOL    HW123606   4.110   3.534   9.526 -2.1640  0.2265  0.4185
 3991SOL    HW223607   4.188   3.523   9.401 -1.2576 -0.7040 -0.4619
 3992SOL     OW23608   0.048   2.055   1.876 -0.1583 -0.4280 -0.4654
 3992SOL    HW123609   0.097   2.069   1.794 -2.1943  3.8568 -0.9606
 3992SOL    HW223610   4.717   1.994   1.848 -1.4990  1.7553 -1.9582
 3993SOL     OW23611   0.852   2.066  17.104  0.0747 -0.5612 -0.3079
 3993SOL    HW123612   0.871   2.041  17.013 -1.0128  0.6477 -0.8709
 3993SOL    HW223613   0.821   2.155  17.082  0.5249 -1.0919 -3.1328
 3994SOL     OW23614   1.570   0.670  14.443  0.2295  0.3628  0.3915
 3994SOL    HW123615   1.553   0.756  14.405  1.8772  0.1898 -0.7348
 3994SOL    HW223616   1.486   0.624  14.432 -0.6554  2.0479  0.0786
 3995SOL     OW23617   1.541   4.397   3.248 -0.7172  0.4104 -0.1945
 3995SOL    HW123618   1.558   4.430   3.336 -0.3135 -2.0860  0.6573
 3995SOL    HW223619   1.458   4.355   3.271  0.4320 -1.5867  0.2202
 3996SOL     OW23620   1.179   3.793   7.485  0.1225 -0.1216  0.4435
 3996SOL    HW123621   1.179   3.856   7.557  3.4744 -0.2785  0.5855
 3996SOL    HW223622   1.103   3.823   7.436  0.3918  0.3300  0.3024
 3997SOL     OW23623   0.524   3.613   8.116 -0.1473 -0.4394  0.3597
 3997SOL    HW123624   0.435   3.646   8.130 -0.3959 -1.5257  1.4144
 3997SOL    HW223625   0.559   3.699   8.094 -2.1173  0.3844  0.4579
 3998SOL     OW23626   1.987   4.417  13.585  0.2493 -0.9352 -0.0388
 3998SOL    HW123627   1.984   4.446  13.676  0.6765 -1.5793  0.1825
 3998SOL    HW223628   1.906   4.366  13.574 -2.3160  3.3141 -0.9073
 3999SOL     OW23629   1.195   3.805   3.136 -0.3448 -0.0505 -0.0521
 3999SOL    HW123630   1.287   3.779   3.131 -0.0470  1.0348 -0.1695
 3999SOL    HW223631   1.160   3.723   3.171  0.4490 -1.0229 -1.5121
 4000SOL     OW23632   3.302   1.129   1.657  0.3078 -0.1529  0.0820
 4000SOL    HW123633   3.287   1.181   1.578 -1.9400 -2.0277 -0.7400
 4000SOL    HW223634   3.305   1.042   1.617 -0.7867  0.3087 -0.9873
 4001SOL     OW23635   1.322   4.367   0.598  0.1214  0.6063 -0.5919
 4001SOL    HW123636   1.273   4.306   0.653  1.2512  1.8088  1.7574
 4001SOL    HW223637   1.412   4.337   0.608 -0.8495 -0.3960  5.3064
 4002SOL     OW23638   1.085   4.700   9.339 -0.2949 -0.0476 -0.4740
 4002SOL    HW123639   0.999   4.661   9.351 -0.6345  0.7106 -0.3921
 4002SOL    HW223640   1.058   0.041   9.290  0.4631  0.3393 -0.2833
 4003SOL     OW23641   4.203   4.660   2.409  1.0217 -0.6871  0.4794
 4003SOL    HW123642   4.288   4.684   2.374  1.6064 -1.4814  1.3491
 4003SOL    HW223643   4.173   4.603   2.339 -2.4138 -0.1808  1.5169
 4004SOL     OW23644   4.669   1.989  15.165  0.0007  0.5735 -0.0600
 4004SOL    HW123645   0.014   1.967  15.120 -0.1602 -1.7090  0.7847
 4004SOL    HW223646   4.670   2.082  15.143 -2.4249  0.5455 -0.2555
 4005SOL     OW23647   1.609   0.785   0.998 -0.3719 -0.5074 -0.0577
 4005SOL    HW123648   1.677   0.726   1.030 -0.7141 -2.5294 -3.0863
 4005SOL    HW223649   1.584   0.746   0.914 -1.0055  0.9957 -0.5685
 4006SOL     OW23650   4.275   4.702   7.281  0.2146  1.0259  0.3533
 4006SOL    HW123651   4.216   4.677   7.352  1.8599  0.9425  1.6975
 4006SOL    HW223652   4.288   4.612   7.250 -0.5200  1.2932 -0.7266
 4007SOL     OW23653   3.316   1.691   5.348 -0.0188  0.9847  0.5089
 4007SOL    HW123654   3.361   1.613   5.380 -0.8642 -0.2309 -1.2837
 4007SOL    HW223655   3.281   1.655   5.267 -2.7477 -0.0010  2.1233
 4008SOL     OW23656   4.668   2.629   3.084 -0.3547  0.0437 -0.2691
 4008SOL    HW123657   4.727   2.697   3.051  1.5976 -1.0894  0.8956
 4008SOL    HW223658   4.717   2.553   3.053  2.1420  1.5551 -0.0232
 4009SOL     OW23659   4.038   0.580  16.487  0.3110 -0.5470 -0.3592
 4009SOL    HW123660   4.094   0.641  16.535 -2.8114  2.0845 -0.0534
 4009SOL    HW223661   3.998   0.548  16.568  0.7914  0.2198  0.1774
 4010SOL     OW23662   1.702   2.009   4.434  0.3753  0.3138  0.3319
 4010SOL    HW123663   1.669   2.094   4.464 -0.9987 -0.8869  2.2144
 4010SOL    HW223664   1.759   2.034   4.361  0.2557 -0.0692  0.1077
 4011SOL     OW23665   0.910   2.724   0.171  0.7079  0.2294 -0.1409
 4011SOL    HW123666   0.913   2.702   0.078 -0.2457  0.7885 -0.3064
 4011SOL    HW223667   0.899   2.819   0.172  1.0550  0.2790 -1.1126
 4012SOL     OW23668   1.971   0.573   9.885  0.3150 -0.7667  0.6864
 4012SOL    HW123669   1.973   0.668   9.901  0.6536 -0.6414 -0.1134
 4012SOL    HW223670   1.954   0.555   9.977 -0.6803 -0.7104  0.5144
 4013SOL     OW23671   1.365   1.772   9.571 -0.6826  0.4916 -0.1884
 4013SOL    HW123672   1.379   1.717   9.493 -0.4569 -0.3352  0.4321
 4013SOL    HW223673   1.279   1.743   9.602 -0.3506  0.9897  1.1765
 4014SOL     OW23674   2.203   1.016   5.521 -0.5819 -0.1288  0.6269
 4014SOL    HW123675   2.232   1.106   5.533 -0.4834  0.1161 -1.4760
 4014SOL    HW223676   2.145   1.026   5.445  1.6318 -1.4683 -1.2362
 4015SOL     OW23677   1.501   3.140   9.489 -0.1660 -0.3677 -0.1761
 4015SOL    HW123678   1.568   3.090   9.443  0.5649  0.1901  0.2888
 4015SOL    HW223679   1.554   3.165   9.565  0.6841 -1.5704 -0.3899
 4016SOL     OW23680   3.269   3.557   8.890  0.4636 -0.2072  0.0885
 4016SOL    HW123681   3.267   3.498   8.814  0.6331 -0.0373 -0.0452
 4016SOL    HW223682   3.286   3.642   8.851  1.0793  0.0470  0.9138
 4017SOL     OW23683   1.250   0.738   0.853  0.4665  0.0026  0.3605
 4017SOL    HW123684   1.227   0.771   0.766  0.2843  1.5153  0.9862
 4017SOL    HW223685   1.337   0.702   0.834 -0.2754 -0.5603 -1.9982
 4018SOL     OW23686   4.341   1.756   8.120  0.0064  0.4849  0.1498
 4018SOL    HW123687   4.416   1.698   8.108 -1.6897 -1.4990 -0.9233
 4018SOL    HW223688   4.287   1.708   8.183 -0.9142  1.8483  0.3988
 4019SOL     OW23689   0.047   2.299   3.405  0.4898 -0.1695 -0.4556
 4019SOL    HW123690   0.071   2.309   3.497 -1.2610 -0.5305  0.0527
 4019SOL    HW223691   4.736   2.381   3.389 -3.9720 -2.3562  1.6227
 4020SOL     OW23692   3.993   0.337  13.269  0.0801 -0.3001 -0.3611
 4020SOL    HW123693   4.051   0.374  13.202  0.6582 -1.3474 -0.4391
 4020SOL    HW223694   4.050   0.303  13.338 -0.3078 -0.8347 -0.3078
 4021SOL     OW23695   1.479   1.991   1.050  0.1108  0.3747 -0.1653
 4021SOL    HW123696   1.531   2.046   0.991 -0.2979  0.4791 -0.4292
 4021SOL    HW223697   1.518   1.905   1.033 -0.5042 -0.0518  0.5954
 4022SOL     OW23698   1.223   2.595   4.739 -0.0521  0.2932  0.2865
 4022SOL    HW123699   1.309   2.578   4.777 -0.1737 -0.7179  0.1018
 4022SOL    HW223700   1.201   2.678   4.780  1.4931  0.1259  1.4695
 4023SOL     OW23701   0.290   3.058   5.464  0.6483 -0.0257 -0.4117
 4023SOL    HW123702   0.273   2.964   5.455  2.2697 -0.1330 -2.1176
 4023SOL    HW223703   0.216   3.074   5.406 -0.3955 -1.9123  0.3887
 4024SOL     OW23704   2.470   4.158  10.588 -0.2321 -0.4184 -0.1716
 4024SOL    HW123705   2.456   4.167  10.493 -1.3268 -1.6366 -0.1292
 4024SOL    HW223706   2.551   4.107  10.591  0.1248  0.0168 -2.2690
 4025SOL     OW23707   0.155   2.023  14.962  0.4972 -0.1704 -0.2120
 4025SOL    HW123708   0.242   2.062  14.964  1.2977 -2.0788  1.4288
 4025SOL    HW223709   0.117   2.070  14.887 -0.2992  0.4235  0.5670
 4026SOL     OW23710   0.884   2.963   6.684  0.1784  0.1444 -0.3695
 4026SOL    HW123711   0.800   2.974   6.729  0.5744  1.0727  0.1473
 4026SOL    HW223712   0.933   3.030   6.732  0.4346 -0.9263  0.8745
 4027SOL     OW23713   4.122   2.459  10.350 -0.3953 -0.3344 -0.6737
 4027SOL    HW123714   4.052   2.449  10.416 -0.2368 -1.7201 -0.7158
 4027SOL    HW223715   4.136   2.551  10.373 -1.8895 -0.1843 -0.3253
 4028SOL     OW23716   3.927   4.091   2.492  0.2709 -0.0665  0.3763
 4028SOL    HW123717   3.919   4.028   2.565  1.0288  1.3490  1.6809
 4028SOL    HW223718   3.837   4.111   2.468  0.1268 -0.5611  0.4879
 4029SOL     OW23719   3.032   1.776   1.762 -0.9349  0.0097  0.2075
 4029SOL    HW123720   3.052   1.840   1.830 -0.1771 -0.9816  0.9222
 4029SOL    HW223721   3.121   1.771   1.725 -1.6040 -0.0096 -1.4165
 4030SOL     OW23722   0.791   1.517  16.104 -0.2893 -0.2511 -0.0688
 4030SOL    HW123723   0.853   1.475  16.164  1.4497  1.8005 -0.4372
 4030SOL    HW223724   0.854   1.545  16.038 -0.7457 -0.4289 -0.5780
 4031SOL     OW23725   0.156   0.896   4.147  0.4385  0.3256 -0.5470
 4031SOL    HW123726   0.132   0.916   4.057 -0.4059 -2.3449 -0.9182
 4031SOL    HW223727   0.128   0.976   4.192  0.1481 -0.0081 -0.1337
 4032SOL     OW23728   0.092   0.951  17.703 -0.0759 -0.7171  0.1635
 4032SOL    HW123729   0.036   0.936   0.033 -0.7858  1.2588  0.0438
 4032SOL    HW223730   0.123   0.862  17.686  1.6412 -0.2199  0.6419
 4033SOL     OW23731   3.651   2.788   2.333 -0.2290  0.1756  0.5034
 4033SOL    HW123732   3.621   2.698   2.348 -0.8378  0.4038  0.6819
 4033SOL    HW223733   3.622   2.792   2.242  1.8102 -1.5793 -0.2160
 4034SOL     OW23734   0.391   1.273   1.170 -0.0851 -0.2475  0.0171
 4034SOL    HW123735   0.469   1.292   1.222 -0.4905 -2.6895  1.4706
 4034SOL    HW223736   0.440   1.251   1.090 -1.2920  1.3511 -1.1588
 4035SOL     OW23737   2.565   3.529   4.010 -0.9752 -0.0659 -0.5887
 4035SOL    HW123738   2.550   3.573   3.926 -1.6493 -2.3144 -1.6296
 4035SOL    HW223739   2.541   3.595   4.076 -0.7865  2.0907 -2.6584
 4036SOL     OW23740   4.336   4.292   5.986  1.0915 -0.3718  0.3227
 4036SOL    HW123741   4.394   4.226   5.947  2.7650  0.8430  0.7476
 4036SOL    HW223742   4.263   4.232   5.998 -0.2483  0.5811 -3.1793
 4037SOL     OW23743   1.625   2.150   0.821 -0.4879  0.0263 -0.3901
 4037SOL    HW123744   1.592   2.208   0.890  1.2195  0.2787  0.2167
 4037SOL    HW223745   1.666   2.209   0.758 -0.4348 -1.1616 -1.4562
 4038SOL     OW23746   1.398   0.049   5.315 -0.0332 -0.0659  0.0911
 4038SOL    HW123747   1.329   0.114   5.309 -1.7876 -2.0012 -0.6754
 4038SOL    HW223748   1.404   0.033   5.409 -0.1295 -1.3309 -0.1147
 4039SOL     OW23749   4.162   2.020   3.941 -0.1896 -0.7658  0.2212
 4039SOL    HW123750   4.088   1.965   3.914 -1.5090  2.1494 -2.0563
 4039SOL    HW223751   4.233   1.955   3.939 -0.3901 -0.9395 -0.9076
 4040SOL     OW23752   1.911   2.190  17.254 -0.1078  0.0252  0.6623
 4040SOL    HW123753   1.930   2.255  17.323  3.2801 -0.6270  0.3378
 4040SOL    HW223754   1.879   2.239  17.179 -1.6344 -0.7233  0.8278
 4041SOL     OW23755   1.795   3.667   5.647 -0.3310 -0.3273 -0.5758
 4041SOL    HW123756   1.752   3.748   5.619  3.0616  1.8926  0.6202
 4041SOL    HW223757   1.741   3.617   5.586  0.3371 -2.7605  0.8522
 4042SOL     OW23758   4.288   3.812  13.207 -0.0502 -0.2087  0.2775
 4042SOL    HW123759   4.378   3.778  13.208  0.1071  0.2086  0.4635
 4042SOL    HW223760   4.248   3.726  13.202 -1.0345  0.3386 -1.2797
 4043SOL     OW23761   3.213   0.409  12.107  0.6797 -0.2508  0.3041
 4043SOL    HW123762   3.145   0.371  12.163 -0.3095 -1.1782 -1.5472
 4043SOL    HW223763   3.258   0.327  12.086  1.5642  0.0379  1.0377
 4044SOL     OW23764   3.886   1.511   8.744 -0.1228 -0.3991  0.2628
 4044SOL    HW123765   3.851   1.426   8.772  1.7854 -0.2343  3.1700
 4044SOL    HW223766   3.963   1.493   8.689  0.4110 -0.9134  1.1859
 4045SOL     OW23767   0.560   0.386   8.003 -0.1419 -0.1149 -0.0234
 4045SOL    HW123768   0.639   0.389   8.057  0.6263 -0.7427 -1.1069
 4045SOL    HW223769   0.587   0.333   7.927  0.8977 -1.5342  1.3239
 4046SOL     OW23770   0.477   4.227   1.959  0.2873  0.3517 -0.2994
 4046SOL    HW123771   0.438   4.208   2.045 -0.8575 -0.7757 -1.0644
 4046SOL    HW223772   0.400   4.224   1.902 -0.1537 -4.4900  0.5551
 4047SOL     OW23773   1.379   2.241   6.796  0.8162 -0.2720 -0.1046
 4047SOL    HW123774   1.407   2.331   6.781 -2.1586  0.7726  0.5876
 4047SOL    HW223775   1.324   2.262   6.872  0.8375 -1.2660  0.1874
 4048SOL     OW23776   1.247   1.590   7.962 -0.1520 -0.0739 -0.5189
 4048SOL    HW123777   1.272   1.670   7.916  3.8679 -0.6996  0.6675
 4048SOL    HW223778   1.323   1.539   7.935 -0.0170  0.5268 -1.2637
 4049SOL     OW23779   2.662   2.221   0.844  0.0358 -0.2520  0.4221
 4049SOL    HW123780   2.585   2.192   0.893  1.1782 -1.2037  1.6511
 4049SOL    HW223781   2.642   2.172   0.764 -1.9412  0.7881  0.2687
 4050SOL     OW23782   0.207   3.329   5.570 -0.2333 -0.0215 -0.3257
 4050SOL    HW123783   0.257   3.268   5.516 -0.9997  0.4593 -1.5840
 4050SOL    HW223784   0.272   3.390   5.603  1.1000 -1.1833 -0.8167
 4051SOL     OW23785   2.356   0.917   4.818 -0.1088 -0.7053 -0.6353
 4051SOL    HW123786   2.359   0.844   4.879 -1.7048  0.3544  0.7062
 4051SOL    HW223787   2.339   0.989   4.879 -1.9901  0.8338 -2.9521
 4052SOL     OW23788   3.472   4.685  10.559 -0.8434  0.0812 -0.3895
 4052SOL    HW123789   3.467   4.723  10.472  0.4012 -3.0337 -1.8270
 4052SOL    HW223790   3.384   4.704  10.592 -0.5542  0.6739  0.0409
 4053SOL     OW23791   0.605   1.919   7.977 -0.6175  0.0943 -0.0355
 4053SOL    HW123792   0.649   1.914   7.893  0.6015 -0.3073  0.6365
 4053SOL    HW223793   0.510   1.928   7.965 -0.4255  0.7520 -1.0326
 4054SOL     OW23794   4.378   2.410   5.354 -0.0806 -0.0430  0.6106
 4054SOL    HW123795   4.406   2.470   5.423 -1.8748 -0.4377  1.6634
 4054SOL    HW223796   4.287   2.438   5.342 -0.0330 -0.8818 -1.6697
 4055SOL     OW23797   4.441   0.173   2.098 -0.0327  0.2428 -0.7429
 4055SOL    HW123798   4.522   0.124   2.084 -0.0752  0.4252 -1.6277
 4055SOL    HW223799   4.380   0.100   2.088 -1.7799  1.4228  1.4254
 4056SOL     OW23800   0.489   1.551  16.579  0.6749  0.3328 -0.2788
 4056SOL    HW123801   0.458   1.462  16.599 -1.4647  1.1526  0.0047
 4056SOL    HW223802   0.457   1.604  16.651  2.2007  1.1351 -0.2029
 4057SOL     OW23803   0.729   1.106   1.024  0.6516  0.1178  0.4735
 4057SOL    HW123804   0.745   1.145   1.110 -3.2202 -2.3229  2.2612
 4057SOL    HW223805   0.783   1.165   0.972  0.3855  0.0216  0.0872
 4058SOL     OW23806   3.180   2.851   8.078 -0.2311  0.2039 -0.3557
 4058SOL    HW123807   3.163   2.840   8.172 -1.1895 -0.9746 -0.6696
 4058SOL    HW223808   3.218   2.766   8.057 -0.0166  0.1149  0.3955
 4059SOL     OW23809   0.499   3.005   1.765 -0.1811 -0.7729  0.0861
 4059SOL    HW123810   0.484   3.037   1.676 -0.6423 -0.9883  0.0848
 4059SOL    HW223811   0.452   3.074   1.813  0.7384 -0.4815  0.5718
 4060SOL     OW23812   3.907   1.794   4.021 -0.0087 -0.0748  0.1535
 4060SOL    HW123813   3.904   1.809   4.116 -1.6765  2.3551 -0.2729
 4060SOL    HW223814   3.868   1.707   4.025 -0.8312  0.1429 -3.2327
 4061SOL     OW23815   1.964   2.236   3.473  0.2090 -0.1535  0.3511
 4061SOL    HW123816   1.964   2.322   3.514 -1.6637 -0.3787  0.8169
 4061SOL    HW223817   1.969   2.258   3.380  0.8008 -0.0877  0.3969
 4062SOL     OW23818   2.120   1.034  11.418  0.1604 -0.0687  0.0177
 4062SOL    HW123819   2.111   1.129  11.425 -2.1154 -0.2259 -0.8234
 4062SOL    HW223820   2.206   1.026  11.378 -1.1958 -0.5075 -2.8169
 4063SOL     OW23821   2.570   4.442   5.338  1.0014 -0.5315  0.2277
 4063SOL    HW123822   2.642   4.388   5.306 -0.8628 -2.9763  0.2305
 4063SOL    HW223823   2.539   4.478   5.255 -1.9211  1.0363  2.0086
 4064SOL     OW23824   2.777   3.487  10.052 -0.1060  0.0405 -0.0054
 4064SOL    HW123825   2.702   3.501   9.994 -1.5005 -2.2318  1.2818
 4064SOL    HW223826   2.819   3.407  10.020  4.0671  2.2081  0.0295
 4065SOL     OW23827   3.179   2.736   2.913 -0.1695  0.2278 -0.1838
 4065SOL    HW123828   3.136   2.723   2.998  0.0988 -0.2695 -0.1242
 4065SOL    HW223829   3.240   2.663   2.925  0.4089  0.2895 -2.7070
 4066SOL     OW23830   3.952   0.408   8.063 -0.0681 -0.1654 -0.2885
 4066SOL    HW123831   3.910   0.340   8.010  1.4575 -0.3609 -1.2441
 4066SOL    HW223832   4.014   0.436   7.996 -0.0098 -0.1189 -0.2157
 4067SOL     OW23833   1.726   0.308   2.678  0.1035 -0.1325  0.1845
 4067SOL    HW123834   1.810   0.340   2.644 -1.3269 -0.2402 -3.4387
 4067SOL    HW223835   1.709   0.357   2.758  1.0890 -1.2739  1.1008
 4068SOL     OW23836   0.392   2.147  14.964 -0.4886 -0.4398  0.0524
 4068SOL    HW123837   0.468   2.091  14.975 -0.3312 -0.3536 -0.6240
 4068SOL    HW223838   0.427   2.232  14.992 -1.8041  1.4563 -4.0434
 4069SOL     OW23839   4.248   4.160   9.832 -0.0389 -0.3316  0.4119
 4069SOL    HW123840   4.266   4.156   9.738 -0.4116 -1.2053  0.3781
 4069SOL    HW223841   4.163   4.202   9.823 -0.5518 -1.1304  1.4439
 4070SOL     OW23842   0.340   1.667  10.343  0.2249 -0.0462  0.1720
 4070SOL    HW123843   0.320   1.749  10.388 -3.2162  1.2265 -3.6720
 4070SOL    HW223844   0.416   1.637  10.392  0.2368  1.5644  1.1390
 4071SOL     OW23845   4.412   1.012   8.058  0.1935  0.4216  0.3315
 4071SOL    HW123846   4.333   1.054   8.025 -0.8888 -2.3576 -0.6649
 4071SOL    HW223847   4.465   1.026   7.980 -1.4231 -0.6741 -0.9555
 4072SOL     OW23848   2.047   4.068  16.818 -0.2040 -0.7074 -0.0055
 4072SOL    HW123849   2.091   4.007  16.759  0.7071  0.4703 -0.5343
 4072SOL    HW223850   2.115   4.088  16.882  1.5688 -0.1153 -2.0879
 4073SOL     OW23851   4.016   1.715  14.826  0.0415  0.1559 -0.4011
 4073SOL    HW123852   3.956   1.742  14.896 -0.7925  1.8898 -1.7983
 4073SOL    HW223853   3.983   1.630  14.801 -1.8526  0.5079  0.8969
 4074SOL     OW23854   1.282   0.295  17.597 -0.1559 -0.3455  0.1917
 4074SOL    HW123855   1.343   0.356  17.555  0.7181 -0.2032  1.6716
 4074SOL    HW223856   1.217   0.351  17.639 -0.1905 -1.3060  1.4162
 4075SOL     OW23857   4.076   1.575   8.449 -0.5011 -0.1587 -0.1904
 4075SOL    HW123858   4.141   1.535   8.392 -2.3041 -2.6903 -0.4427
 4075SOL    HW223859   4.114   1.662   8.463 -1.6211  0.2751  0.1618
 4076SOL     OW23860   3.693   2.090  14.074  0.3775  0.0747  0.0193
 4076SOL    HW123861   3.604   2.067  14.045 -0.5854  0.5218  2.6324
 4076SOL    HW223862   3.696   2.181  14.047  1.0555 -0.3125 -1.2323
 4077SOL     OW23863   0.435   3.667   4.677 -0.4651  0.4395  0.4033
 4077SOL    HW123864   0.367   3.719   4.637  1.3919  1.3241 -1.5797
 4077SOL    HW223865   0.420   3.696   4.767  1.5552  0.2678  0.7954
 4078SOL     OW23866   2.812   3.798  13.827  0.3226 -0.0177 -0.2516
 4078SOL    HW123867   2.876   3.746  13.779 -0.5751 -0.7981 -0.6111
 4078SOL    HW223868   2.775   3.728  13.881 -1.3574 -0.4914 -2.0054
 4079SOL     OW23869   1.878   1.820   5.269 -0.2278  0.0530 -0.0093
 4079SOL    HW123870   1.972   1.807   5.257 -0.3916 -0.1983 -1.0310
 4079SOL    HW223871   1.856   1.732   5.298 -0.6379  0.8578  2.1162
 4080SOL     OW23872   1.911   2.731   4.595 -0.3248  0.1491  0.9148
 4080SOL    HW123873   1.818   2.747   4.579 -0.6757 -0.9341  1.8106
 4080SOL    HW223874   1.922   2.756   4.687  2.5328  3.5588 -0.3546
 4081SOL     OW23875   1.237   4.586   8.577  0.1817  0.2564 -0.6760
 4081SOL    HW123876   1.278   4.601   8.662 -0.4300  0.6985 -0.4632
 4081SOL    HW223877   1.276   4.499   8.562  0.8228  0.6087 -1.0686
 4082SOL     OW23878   0.633   3.614  16.181 -0.1128  0.0277 -0.4988
 4082SOL    HW123879   0.663   3.553  16.113  1.0537 -0.1607  0.1846
 4082SOL    HW223880   0.609   3.550  16.247 -1.1419  0.9650  0.0268
 4083SOL     OW23881   3.584   4.160   5.568 -0.4604 -0.1233  0.1259
 4083SOL    HW123882   3.503   4.210   5.572  0.0638  0.9367 -2.2754
 4083SOL    HW223883   3.649   4.229   5.577 -1.7201  1.1330 -0.5432
 4084SOL     OW23884   0.875   4.504   5.749 -0.2483  0.2003 -0.1922
 4084SOL    HW123885   0.914   4.419   5.727 -2.3261 -1.2068  1.6446
 4084SOL    HW223886   0.913   4.509   5.837  1.0039  1.8827 -0.8270
 4085SOL     OW23887   0.088   1.754  10.063 -0.9341 -0.4067 -0.0340
 4085SOL    HW123888   0.133   1.817  10.119 -1.6683 -0.6131  0.7848
 4085SOL    HW223889   0.133   1.671  10.083  0.8117  0.7198  0.6596
 4086SOL     OW23890   3.302   4.616  13.601 -0.1805 -0.2503 -0.1456
 4086SOL    HW123891   3.363   4.651  13.535  1.0782 -1.5403  0.3290
 4086SOL    HW223892   3.300   4.525  13.573 -1.4367 -0.0021 -0.8703
 4087SOL     OW23893   4.645   1.659   4.808 -0.3621  0.3697 -0.4210
 4087SOL    HW123894   0.002   1.669   4.791 -0.2364  2.3410  1.4257
 4087SOL    HW223895   4.633   1.751   4.833 -0.4885  0.3155 -0.2831
 4088SOL     OW23896   3.649   3.013   0.154 -0.0856  0.5021 -0.8634
 4088SOL    HW123897   3.674   2.934   0.104  0.6782 -0.5275  1.1557
 4088SOL    HW223898   3.590   2.987   0.224  0.9955  1.3397  0.3471
 4089SOL     OW23899   3.369   2.270  13.826  0.2223 -0.2740  0.1000
 4089SOL    HW123900   3.377   2.357  13.866 -0.4903 -0.9683  1.7771
 4089SOL    HW223901   3.434   2.277  13.757 -0.5844  1.8270 -0.4528
 4090SOL     OW23902   0.339   2.547   7.815 -0.6171  0.5175 -0.1505
 4090SOL    HW123903   0.384   2.538   7.731  2.1142  0.6024  1.3119
 4090SOL    HW223904   0.410   2.517   7.871 -0.3978  1.7933  0.2515
 4091SOL     OW23905   1.386   2.886  12.909 -0.1572  0.2128  0.2839
 4091SOL    HW123906   1.368   2.944  12.835  0.0788 -1.6710 -1.2419
 4091SOL    HW223907   1.307   2.833  12.912  0.7125 -1.0324  0.9518
 4092SOL     OW23908   1.681   4.563   3.705  0.3839 -0.7094  0.8699
 4092SOL    HW123909   1.760   4.603   3.670  0.1804 -0.2717  0.9173
 4092SOL    HW223910   1.664   4.623   3.778 -0.3222  1.2211 -0.8947
 4093SOL     OW23911   0.664   3.021   5.509  0.2130 -0.5947  0.8824
 4093SOL    HW123912   0.614   2.987   5.583 -0.2146 -1.7669  0.0588
 4093SOL    HW223913   0.627   2.963   5.442  0.9990  2.0624 -1.9115
 4094SOL     OW23914   1.727   4.359  14.499  0.3660 -0.2231  0.3042
 4094SOL    HW123915   1.798   4.297  14.515  0.3230 -1.0428 -2.6752
 4094SOL    HW223916   1.724   4.352  14.403 -0.7938  1.0136  0.2583
 4095SOL     OW23917   3.997   3.793   7.809 -0.2658 -0.6316  0.3681
 4095SOL    HW123918   3.911   3.833   7.820  0.1160  0.2261  0.2533
 4095SOL    HW223919   4.051   3.803   7.888  0.4809 -2.2532  0.0668
 4096SOL     OW23920   2.813   0.527   3.975  0.6987 -0.5542  0.6325
 4096SOL    HW123921   2.743   0.538   3.910  1.5329  1.8023  0.1443
 4096SOL    HW223922   2.857   0.612   3.971  2.4874 -1.4867  0.2730
 4097SOL     OW23923   0.978   4.613   6.078 -0.4495  0.0724 -0.1356
 4097SOL    HW123924   0.951   4.536   6.129  2.2042  0.5620  1.9818
 4097SOL    HW223925   1.028   4.576   6.006 -0.5154  0.3446 -0.3245
 4098SOL     OW23926   1.673   3.650   4.226 -0.1958 -0.3710 -0.1673
 4098SOL    HW123927   1.642   3.586   4.163 -0.4142  0.9480 -1.3861
 4098SOL    HW223928   1.766   3.647   4.205  0.1759 -0.3781  1.4497
 4099SOL     OW23929   4.671   2.748  14.369 -0.0253 -0.1328  0.4813
 4099SOL    HW123930   4.660   2.653  14.366 -0.4227 -0.0290 -1.6664
 4099SOL    HW223931   4.579   2.776  14.371 -0.4845 -1.4657 -2.1453
 4100SOL     OW23932   1.589   4.355   8.801  0.3730  0.5226  0.0971
 4100SOL    HW123933   1.632   4.364   8.716  2.0841  0.4220  0.9497
 4100SOL    HW223934   1.559   4.265   8.793  2.3904 -0.1860  0.5156
 4101SOL     OW23935   2.621   1.934  10.477  0.2895 -0.6919 -0.1946
 4101SOL    HW123936   2.572   1.856  10.506  0.0153  0.0430  1.3254
 4101SOL    HW223937   2.670   1.908  10.399  1.1364  0.6609 -0.1021
 4102SOL     OW23938   3.795   0.137  14.120 -0.9047  0.5380  0.3744
 4102SOL    HW123939   3.866   0.200  14.133 -0.2839  0.0358 -0.5643
 4102SOL    HW223940   3.828   0.059  14.076 -0.3661  0.8792  0.1803
 4103SOL     OW23941   4.309   3.196   5.258 -0.1393 -0.3823  0.6626
 4103SOL    HW123942   4.391   3.169   5.299 -0.0001 -0.0667  0.5921
 4103SOL    HW223943   4.270   3.265   5.313  0.0966  0.5506 -0.3518
 4104SOL     OW23944   0.946   2.962  17.613  0.5211 -0.3252  0.2787
 4104SOL    HW123945   0.925   2.869  17.611  1.0629 -0.4635  0.8981
 4104SOL    HW223946   0.917   2.990  17.527  0.1953 -3.5664 -0.6621
 4105SOL     OW23947   3.638   3.628   1.250 -0.1987 -1.1720 -0.1748
 4105SOL    HW123948   3.714   3.642   1.307 -0.5063 -1.1798  0.2329
 4105SOL    HW223949   3.619   3.537   1.272 -0.4470 -0.9576  0.4737
 4106SOL     OW23950   3.073   0.226   4.947 -0.8419 -0.3995 -0.1990
 4106SOL    HW123951   3.002   0.194   5.003  0.0664  0.0152  1.2055
 4106SOL    HW223952   3.125   0.148   4.927  1.2845  0.6960  0.9464
 4107SOL     OW23953   3.578   1.819   2.639  0.0332  0.3031 -0.2647
 4107SOL    HW123954   3.517   1.767   2.588  0.5350  1.5385 -2.1294
 4107SOL    HW223955   3.608   1.885   2.577 -0.3433 -0.6444 -1.4545
 4108SOL     OW23956   2.896   3.557   9.467  0.6483  0.0325  0.0930
 4108SOL    HW123957   2.886   3.462   9.479  1.0839 -0.1011 -0.5917
 4108SOL    HW223958   2.903   3.557   9.372  0.0647  0.4618  0.0523
 4109SOL     OW23959   2.333   4.153   0.936  0.0167 -0.4508  0.4661
 4109SOL    HW123960   2.339   4.057   0.932 -1.4072 -0.5530  0.8188
 4109SOL    HW223961   2.426   4.164   0.954 -0.0187 -0.4052  0.6205
 4110SOL     OW23962   3.899   1.380  13.228  0.6155  0.5815  0.4875
 4110SOL    HW123963   3.884   1.346  13.316  0.0492  1.9407  0.9090
 4110SOL    HW223964   3.848   1.319  13.175  2.2622 -0.8442  0.5546
 4111SOL     OW23965   2.719   0.519   4.947  0.9102 -0.2790 -0.4860
 4111SOL    HW123966   2.642   0.565   4.913 -1.0673 -1.5050  2.3454
 4111SOL    HW223967   2.779   0.590   4.927 -0.6538  0.8694 -1.0968
 4112SOL     OW23968   1.932   3.458  13.167  0.5671 -0.4747  0.0442
 4112SOL    HW123969   2.024   3.435  13.175  1.1313  1.1808 -1.7658
 4112SOL    HW223970   1.900   3.378  13.210  0.2629  0.0516  0.7822
 4113SOL     OW23971   4.054   4.538  16.531  0.3523 -0.8440 -0.7394
 4113SOL    HW123972   4.131   4.492  16.496  1.2800  0.3553 -0.2861
 4113SOL    HW223973   4.086   4.627  16.547 -0.9618 -0.5531  0.2196
 4114SOL     OW23974   3.070   0.249   2.350  0.2244 -0.0464  0.1055
 4114SOL    HW123975   3.099   0.248   2.441  0.5054 -3.4650 -0.0125
 4114SOL    HW223976   3.005   0.179   2.347  0.8055 -0.5310 -1.1064
 4115SOL     OW23977   4.609   3.973   6.160  0.5492 -0.1870  0.2091
 4115SOL    HW123978   4.616   3.912   6.234  0.3612 -1.9054 -1.1902
 4115SOL    HW223979   4.556   3.928   6.094  2.0690 -0.6002 -0.7529
 4116SOL     OW23980   1.410   1.313   1.663 -0.0687 -0.4902  0.4060
 4116SOL    HW123981   1.498   1.283   1.682 -0.5282 -2.0545  0.0417
 4116SOL    HW223982   1.398   1.384   1.727 -1.2900 -1.0258  0.7653
 4117SOL     OW23983   1.511   1.942   1.683  0.3069 -0.3406  0.3955
 4117SOL    HW123984   1.527   1.940   1.777  0.2982  0.2908  0.4117
 4117SOL    HW223985   1.494   2.036   1.672 -0.0980 -0.5093 -0.4272
 4118SOL     OW23986   1.875   0.481  12.524 -0.0570  0.1050  0.1153
 4118SOL    HW123987   1.832   0.542  12.584 -0.3294  0.3738 -0.3484
 4118SOL    HW223988   1.912   0.418  12.585 -0.9174  0.5354  1.0964
 4119SOL     OW23989   2.811   2.482   8.699 -0.2191  0.1180  0.1728
 4119SOL    HW123990   2.825   2.417   8.768 -1.2209 -0.1303  0.1402
 4119SOL    HW223991   2.728   2.452   8.663  0.0269 -1.3654  0.8487
 4120SOL     OW23992   4.071   1.547   9.630  0.2461 -0.0425  0.6322
 4120SOL    HW123993   3.993   1.581   9.586 -0.0281 -3.0856 -1.2189
 4120SOL    HW223994   4.122   1.520   9.554 -0.0361  2.1405 -0.3533
 4121SOL     OW23995   2.208   3.392   5.864 -0.1295  0.1069  0.3134
 4121SOL    HW123996   2.121   3.431   5.874 -1.0577 -1.5520 -1.2118
 4121SOL    HW223997   2.231   3.418   5.775  2.4141  1.5795  1.4107
 4122SOL     OW23998   1.090   1.647   7.368 -0.3918 -0.3366 -0.0521
 4122SOL    HW123999   1.068   1.556   7.386  2.1130 -0.6446  1.4462
 4122SOL    HW224000   1.130   1.641   7.281  1.0287  0.0516  0.5677
 4123SOL     OW24001   2.565   4.311  11.473 -0.4939  0.3538 -0.1194
 4123SOL    HW124002   2.621   4.307  11.551 -0.1116 -2.8605 -0.5626
 4123SOL    HW224003   2.555   4.406  11.469  0.2969  0.4919  0.9808
 4124SOL     OW24004   0.587   2.493  17.550 -0.0607 -0.6251 -0.2399
 4124SOL    HW124005   0.653   2.444  17.501  0.3837 -0.4910  0.2238
 4124SOL    HW224006   0.507   2.492  17.497 -0.0750 -0.9317 -0.2153
 4125SOL     OW24007   3.231   1.515  15.671 -0.0021 -0.5528  0.7285
 4125SOL    HW124008   3.278   1.437  15.643  0.2031  0.2843 -1.2903
 4125SOL    HW224009   3.225   1.557  15.585  0.8914 -0.4599  0.7126
 4126SOL     OW24010   2.148   0.042   7.625 -0.5720  0.1774 -0.4622
 4126SOL    HW124011   2.131   4.712   7.692 -0.0717 -0.2412 -0.7516
 4126SOL    HW224012   2.186   0.121   7.665 -1.0967  0.7545 -1.1127
 4127SOL     OW24013   1.153   3.533   1.444 -0.1067 -0.4520 -0.2599
 4127SOL    HW124014   1.095   3.462   1.418 -0.3130 -1.0323  1.7939
 4127SOL    HW224015   1.163   3.522   1.539 -0.4794  0.0552 -0.1644
 4128SOL     OW24016   0.295   2.649   4.946  0.0133  0.6388 -0.5309
 4128SOL    HW124017   0.234   2.682   5.011 -1.8934 -1.5694 -1.1954
 4128SOL    HW224018   0.256   2.676   4.863 -1.6864  3.3788  1.1762
 4129SOL     OW24019   1.513   4.517   5.039  0.5586  0.9718 -0.0885
 4129SOL    HW124020   1.546   4.457   5.105 -0.3971  1.3306  0.7169
 4129SOL    HW224021   1.487   4.593   5.090  0.3119 -0.6448  2.1738
 4130SOL     OW24022   2.575   1.889   4.286 -0.1533 -0.1291  0.4358
 4130SOL    HW124023   2.495   1.848   4.254  0.8316  0.8720 -3.2861
 4130SOL    HW224024   2.616   1.936   4.213 -1.2357  0.4547  0.2045
 4131SOL     OW24025   4.089   3.614   3.315  0.9640 -0.5159  0.0486
 4131SOL    HW124026   4.154   3.673   3.279  0.0159  1.2665  1.2729
 4131SOL    HW224027   4.134   3.543   3.362  1.2352  1.6610  3.0518
 4132SOL     OW24028   1.118   1.236   3.277 -0.0851  0.4407 -0.1728
 4132SOL    HW124029   1.066   1.199   3.349 -0.3728  1.1435 -0.0161
 4132SOL    HW224030   1.047   1.269   3.222 -0.2403 -0.3996 -0.4841
 4133SOL     OW24031   2.984   0.984   4.874  0.4538  0.0643  0.1221
 4133SOL    HW124032   2.957   1.075   4.884 -1.2299 -0.4247 -0.0984
 4133SOL    HW224033   3.075   0.990   4.905  0.7775 -2.4831 -0.3491
 4134SOL     OW24034   2.815   0.129   2.244  0.3152  0.3353  0.1204
 4134SOL    HW124035   2.755   0.139   2.170  1.7827  2.7010 -0.7576
 4134SOL    HW224036   2.773   0.155   2.326  0.5273  1.0365  0.0061
 4135SOL     OW24037   2.172   2.699   8.813 -0.0641  0.6753  0.0957
 4135SOL    HW124038   2.148   2.785   8.849  0.5516  0.3808  1.2233
 4135SOL    HW224039   2.258   2.716   8.776  0.3195  2.6923  1.9309
 4136SOL     OW24040   3.362   0.327   1.456 -0.4486  0.5253  0.7355
 4136SOL    HW124041   3.392   0.273   1.529 -1.5757  0.8502  1.4419
 4136SOL    HW224042   3.433   0.336   1.392 -0.5816 -2.1659  0.2023
 4137SOL     OW24043   1.227   3.958  11.126 -0.2663 -0.3654  0.1001
 4137SOL    HW124044   1.188   3.871  11.137  0.4606 -0.3434  2.9148
 4137SOL    HW224045   1.218   3.987  11.217  0.8104 -2.3159  0.8304
 4138SOL     OW24046   1.199   0.978   9.445  0.2507 -0.0094 -0.5235
 4138SOL    HW124047   1.266   0.930   9.396 -0.4332 -1.4186 -0.0645
 4138SOL    HW224048   1.134   0.912   9.469 -1.8367  2.6639  1.1914
 4139SOL     OW24049   1.328   3.218   5.551  0.2793 -0.7537  0.4250
 4139SOL    HW124050   1.423   3.218   5.542  0.2818 -1.2416  0.4995
 4139SOL    HW224051   1.310   3.154   5.482 -3.6252  1.1101 -0.3304
 4140SOL     OW24052   4.618   0.187   7.609 -0.0483 -0.1491 -0.3478
 4140SOL    HW124053   4.591   0.208   7.699 -1.8616 -4.0025 -0.0295
 4140SOL    HW224054   4.540   0.152   7.567 -0.0256 -1.8282  1.0461
 4141SOL     OW24055   1.722   2.220   9.176  1.1033 -0.7217 -0.5997
 4141SOL    HW124056   1.788   2.289   9.181  0.9469 -0.5454 -1.0091
 4141SOL    HW224057   1.647   2.256   9.223  0.2581 -0.8876 -1.8264
 4142SOL     OW24058   2.928   1.940   6.340 -0.2287  0.0593  0.9079
 4142SOL    HW124059   2.905   1.896   6.259  0.9644 -0.1184  0.6624
 4142SOL    HW224060   2.899   2.029   6.322  0.4525 -0.0742 -0.8031
 4143SOL     OW24061   0.130   3.802   5.123  0.3404  0.4534  0.4021
 4143SOL    HW124062   0.073   3.830   5.194  0.8863 -0.3461  1.1523
 4143SOL    HW224063   0.190   3.740   5.165  1.3413 -0.5100 -2.4086
 4144SOL     OW24064   3.241   0.115   3.274  0.0256 -0.1968 -0.1117
 4144SOL    HW124065   3.299   0.132   3.348 -0.7923 -0.3466  0.5564
 4144SOL    HW224066   3.246   0.021   3.256  2.1120 -0.5158  2.0945
 4145SOL     OW24067   2.791   1.468   5.511  0.5874  0.0667 -0.5436
 4145SOL    HW124068   2.864   1.427   5.465 -0.9091 -1.7249 -1.3074
 4145SOL    HW224069   2.822   1.559   5.512 -0.9586  0.5783  1.2984
 4146SOL     OW24070   0.836   3.767   4.011 -0.6849 -0.7487  0.5361
 4146SOL    HW124071   0.869   3.825   3.943 -1.0232 -2.1566 -0.8207
 4146SOL    HW224072   0.755   3.738   3.969 -0.1828  0.3415 -1.2017
 4147SOL     OW24073   0.103   0.312  15.639  0.1162 -0.5052  0.0835
 4147SOL    HW124074   0.025   0.290  15.690 -0.0950 -1.7346 -0.7539
 4147SOL    HW224075   0.151   0.378  15.689 -0.7766  0.7345 -0.7034
 4148SOL     OW24076   0.997   3.858   1.273 -0.7408 -0.1545  0.0927
 4148SOL    HW124077   0.971   3.948   1.251  2.2163  0.7862  0.4356
 4148SOL    HW224078   1.051   3.842   1.196  2.4437 -0.5341  2.3887
 4149SOL     OW24079   3.096   3.376   9.646 -0.4350 -0.9750  0.5966
 4149SOL    HW124080   3.181   3.415   9.627 -0.9418 -0.5323 -0.7834
 4149SOL    HW224081   3.050   3.391   9.563  2.4485  1.9256 -0.4408
 4150SOL     OW24082   0.754   0.751   7.914  0.3306  0.1256 -0.2277
 4150SOL    HW124083   0.728   0.759   7.822 -1.2350 -0.8226  0.1279
 4150SOL    HW224084   0.789   0.663   7.931 -1.9200 -0.6485  0.3461
 4151SOL     OW24085   1.463   3.948   4.707  0.1243  0.4342 -0.7992
 4151SOL    HW124086   1.403   3.982   4.641 -0.6395 -2.2767 -1.5018
 4151SOL    HW224087   1.424   3.860   4.711  3.2114 -0.7892  2.3789
 4152SOL     OW24088   4.574   0.654   9.224 -0.2644  0.3723  0.3353
 4152SOL    HW124089   4.574   0.650   9.320  0.9865 -0.9753  0.2772
 4152SOL    HW224090   4.666   0.670   9.205 -0.2769 -0.9033 -0.7510
 4153SOL     OW24091   0.322   1.296   4.774  0.3974  0.9942  0.0322
 4153SOL    HW124092   0.392   1.355   4.805  1.5942  0.0462 -0.8942
 4153SOL    HW224093   0.259   1.314   4.844  0.0252  0.1786 -0.1065
 4154SOL     OW24094   3.974   0.830   6.406  0.0367 -0.3817 -0.5094
 4154SOL    HW124095   3.890   0.786   6.388  0.0823 -0.9367  0.5933
 4154SOL    HW224096   4.021   0.815   6.324  0.8722  1.8014 -0.4195
 4155SOL     OW24097   0.609   0.201   8.402  0.2761 -0.4355  0.4124
 4155SOL    HW124098   0.570   0.195   8.489 -0.2911 -0.4169  0.1576
 4155SOL    HW224099   0.628   0.294   8.389 -0.1969 -0.4639 -0.5209
 4156SOL     OW24100   3.690   0.231   3.929  0.6258 -0.1912 -0.1072
 4156SOL    HW124101   3.698   0.326   3.936  2.1951 -0.3669  0.5134
 4156SOL    HW224102   3.600   0.213   3.902  1.1514  0.7022 -2.3891
 4157SOL     OW24103   0.045   3.640   9.559 -0.2348  0.0918  0.4003
 4157SOL    HW124104   0.113   3.704   9.536 -0.6357  0.2329 -0.3750
 4157SOL    HW224105   0.073   3.561   9.511  0.8229 -0.0009  1.1626
 4158SOL     OW24106   4.575   0.050   3.154 -0.5999 -0.1664 -0.1901
 4158SOL    HW124107   4.501   0.043   3.095 -0.5158 -2.0423 -0.0727
 4158SOL    HW224108   4.550   0.118   3.216 -0.0224  0.0400 -0.1773
 4159SOL     OW24109   0.233   1.203  16.799  0.1528 -0.6873  0.2579
 4159SOL    HW124110   0.149   1.247  16.808  1.4569  1.5610  1.4507
 4159SOL    HW224111   0.204   1.117  16.769  0.0417 -0.2689 -0.8356
 4160SOL     OW24112   0.165   3.792   2.087 -0.5485 -0.0099  0.3498
 4160SOL    HW124113   0.198   3.831   2.006  0.0669 -0.5685  0.3325
 4160SOL    HW224114   0.200   3.851   2.153  1.8504 -2.1298  0.9645
 4161SOL     OW24115   2.279   2.203   1.235  0.4104  0.2935 -0.1612
 4161SOL    HW124116   2.242   2.146   1.168 -1.6302  2.2840 -0.7521
 4161SOL    HW224117   2.201   2.239   1.278  2.3429  2.4028  1.5729
 4162SOL     OW24118   1.816   0.318   4.173 -0.5743  0.0533  0.3381
 4162SOL    HW124119   1.908   0.292   4.170 -0.7456 -0.4877 -0.2630
 4162SOL    HW224120   1.812   0.409   4.143  0.2511 -0.4431 -1.2544
 4163SOL     OW24121   4.375   0.442   5.678 -0.3488 -0.0528 -0.5387
 4163SOL    HW124122   4.384   0.472   5.769  2.5736  0.0764 -0.8704
 4163SOL    HW224123   4.390   0.519   5.623 -0.4875  1.1223  1.0488
 4164SOL     OW24124   2.150   2.979  16.351  0.0689 -0.6353 -0.4203
 4164SOL    HW124125   2.083   3.045  16.337 -0.2519 -0.3457  2.3771
 4164SOL    HW224126   2.207   3.036  16.403  0.7467 -1.2976 -0.4292
 4165SOL     OW24127   3.411   3.953   5.669 -0.1068  0.4556  0.4625
 4165SOL    HW124128   3.445   4.020   5.609 -0.9213  2.5553  2.3307
 4165SOL    HW224129   3.444   3.983   5.754  2.1843 -0.7135 -0.0154
 4166SOL     OW24130   0.308   2.883  15.970 -0.3301 -0.0908  0.1910
 4166SOL    HW124131   0.233   2.936  15.996 -0.6763 -0.3455 -0.2884
 4166SOL    HW224132   0.375   2.950  15.954 -2.2717  1.8058  0.0406
 4167SOL     OW24133   2.870   0.720   4.857 -0.7237  0.2386 -0.8770
 4167SOL    HW124134   2.910   0.800   4.892 -1.0772 -0.1801  0.5196
 4167SOL    HW224135   2.803   0.763   4.804 -1.5363 -1.1365 -0.9566
 4168SOL     OW24136   2.526   1.463   4.076 -0.0544 -0.2222 -0.3233
 4168SOL    HW124137   2.544   1.385   4.128 -1.9134  0.5050  1.4172
 4168SOL    HW224138   2.452   1.435   4.021  0.3104  2.1109 -2.0273
 4169SOL     OW24139   0.121   2.403   4.814 -0.2117  0.0638  0.0551
 4169SOL    HW124140   0.105   2.403   4.909  0.3776 -0.3744  0.1568
 4169SOL    HW224141   0.067   2.470   4.773 -0.0087 -1.2295 -2.3443
 4170SOL     OW24142   0.504   1.712   0.685  0.3241  0.3166  0.0964
 4170SOL    HW124143   0.523   1.723   0.591  1.2272 -0.9609  0.1195
 4170SOL    HW224144   0.486   1.618   0.688 -1.4280  0.6317 -0.4008
 4171SOL     OW24145   0.018   3.422   2.740 -0.3368 -0.0781 -0.2249
 4171SOL    HW124146   0.034   3.345   2.794  1.7937  0.4417 -0.1473
 4171SOL    HW224147   4.679   3.453   2.791 -0.3252  0.6953 -0.6747
 4172SOL     OW24148   1.446   3.500   4.028 -0.0699 -0.2214 -0.1802
 4172SOL    HW124149   1.396   3.434   4.077  0.8852 -0.4891  0.4359
 4172SOL    HW224150   1.378   3.542   3.975  0.3120 -1.1145 -1.3781
 4173SOL     OW24151   3.422   0.153   8.407 -0.0224 -0.2491  0.0236
 4173SOL    HW124152   3.517   0.153   8.414 -0.0933 -0.8601  0.9818
 4173SOL    HW224153   3.395   0.137   8.498 -0.1425 -3.1676 -0.5284
 4174SOL     OW24154   0.590   0.705  13.906 -0.2952 -0.5460  0.3426
 4174SOL    HW124155   0.602   0.614  13.934 -1.4940 -0.5865  0.7326
 4174SOL    HW224156   0.556   0.687  13.818  0.5099 -1.2024  0.1667
 4175SOL     OW24157   1.125   2.750   4.025  0.0042  0.0466  0.0059
 4175SOL    HW124158   1.219   2.732   4.026  0.1880  1.1558  2.1022
 4175SOL    HW224159   1.094   2.660   4.037 -0.8096  0.2811 -0.3290
 4176SOL     OW24160   4.645   0.538  14.983  0.0771  0.0057  0.2680
 4176SOL    HW124161   4.550   0.539  14.998  0.0364  0.9464  0.0066
 4176SOL    HW224162   4.665   0.484  15.059 -1.0618 -0.1791  0.4371
 4177SOL     OW24163   3.331   1.791   7.457 -0.2474 -0.8266  0.1975
 4177SOL    HW124164   3.335   1.864   7.520  3.0014 -0.3361 -0.5756
 4177SOL    HW224165   3.259   1.817   7.400  0.0255 -0.6908 -0.0859
 4178SOL     OW24166   3.702   2.530   1.777  0.0436 -0.2418 -0.4953
 4178SOL    HW124167   3.690   2.445   1.735 -0.8172 -0.8879  1.0448
 4178SOL    HW224168   3.721   2.489   1.861  0.2660 -1.1199 -0.9719
 4179SOL     OW24169   2.821   1.134   0.292  0.1904 -0.5532 -0.3633
 4179SOL    HW124170   2.829   1.190   0.369  1.0753  1.2173 -1.7649
 4179SOL    HW224171   2.740   1.165   0.251 -2.0565 -2.3790  2.6525
 4180SOL     OW24172   0.500   3.990   3.093  0.0025  0.4848  0.1388
 4180SOL    HW124173   0.542   4.046   3.027  0.2597  0.3086  0.1496
 4180SOL    HW224174   0.531   3.902   3.068 -2.2785 -0.3685  0.3092
 4181SOL     OW24175   2.654   2.326   8.249 -0.1410  0.1313  0.0495
 4181SOL    HW124176   2.561   2.344   8.236  0.2165 -0.4237 -3.2202
 4181SOL    HW224177   2.695   2.390   8.191  1.3405  0.8080  1.8399
 4182SOL     OW24178   0.997   2.723   5.421 -0.3153  0.4598 -0.2055
 4182SOL    HW124179   0.978   2.708   5.514  1.7010 -0.5727  0.0426
 4182SOL    HW224180   1.081   2.683   5.401 -0.1564  1.6038 -1.7935
 4183SOL     OW24181   4.630   3.650   7.355 -0.4252  0.1213  0.3076
 4183SOL    HW124182   4.715   3.645   7.400 -0.0506  0.2978 -0.3714
 4183SOL    HW224183   4.571   3.653   7.430 -0.9839 -1.0276 -0.0907
 4184SOL     OW24184   1.537   2.072   8.170  0.2551 -0.7576  0.1825
 4184SOL    HW124185   1.617   2.101   8.214 -0.2534 -0.2786  0.7933
 4184SOL    HW224186   1.522   1.992   8.221  0.2803 -0.7047  0.2728
 4185SOL     OW24187   2.298   4.351  11.145  0.9675  0.1437  0.5685
 4185SOL    HW124188   2.323   4.375  11.056 -0.2246  0.4391  0.3070
 4185SOL    HW224189   2.250   4.268  11.137 -2.4503  2.0451  1.5508
 4186SOL     OW24190   3.211   0.447   1.242 -0.4882 -0.0930  0.2790
 4186SOL    HW124191   3.225   0.394   1.164 -1.3919  0.1516 -0.0569
 4186SOL    HW224192   3.247   0.392   1.312  0.7553  1.1734  0.6280
 4187SOL     OW24193   2.447   2.170   4.361 -0.0501 -0.5914  0.0321
 4187SOL    HW124194   2.511   2.212   4.303  2.5988 -3.5866  0.7524
 4187SOL    HW224195   2.499   2.091   4.380 -1.1574 -1.4775 -0.6272
 4188SOL     OW24196   4.207   1.661   3.484  0.0506  0.5487 -0.0955
 4188SOL    HW124197   4.191   1.752   3.508 -2.1684  0.1353  0.0023
 4188SOL    HW224198   4.249   1.619   3.559 -0.1390 -2.9416 -1.9509
 4189SOL     OW24199   0.326   3.944   8.390 -0.3001 -0.6415 -0.3403
 4189SOL    HW124200   0.363   3.990   8.315 -0.9762 -1.4738 -1.1873
 4189SOL    HW224201   0.402   3.940   8.448 -0.8740 -0.3324  0.4403
 4190SOL     OW24202   4.382   2.978   3.884 -0.5687 -0.2477 -0.0972
 4190SOL    HW124203   4.407   3.069   3.869  0.8195 -0.0184  3.6515
 4190SOL    HW224204   4.456   2.943   3.934 -1.9910 -0.0325  2.1102
 4191SOL     OW24205   3.062   0.472  11.681  0.2638  0.2020 -0.5316
 4191SOL    HW124206   2.985   0.463  11.625  0.8032 -0.7386 -1.1131
 4191SOL    HW224207   3.094   0.561  11.669  0.6011  0.1411 -0.1071
 4192SOL     OW24208   1.458   1.415   7.993  0.0010  0.0420 -0.4530
 4192SOL    HW124209   1.418   1.329   7.982  1.0832 -0.0520 -3.6062
 4192SOL    HW224210   1.553   1.407   7.980  0.1070 -0.4061  0.6121
 4193SOL     OW24211   0.022   3.151   2.148 -0.5251  0.2460  0.4621
 4193SOL    HW124212   0.102   3.124   2.193  0.2048  1.8066  0.0886
 4193SOL    HW224213   4.719   3.064   2.140 -1.1501  0.8302 -2.4989
 4194SOL     OW24214   3.954   2.439   6.609  0.4342 -0.0440 -0.0745
 4194SOL    HW124215   4.037   2.430   6.655 -0.6090  0.5899  1.9515
 4194SOL    HW224216   3.899   2.479   6.676  1.6603  0.5498  0.5808
 4195SOL     OW24217   0.028   4.440   4.335 -0.2232 -0.6568  0.3511
 4195SOL    HW124218   0.114   4.449   4.294 -0.9605  1.0823 -0.8503
 4195SOL    HW224219   4.710   4.412   4.263  0.2760  0.8235 -0.6206
 4196SOL     OW24220   3.528   1.382   3.059  0.5864  0.7079 -0.5789
 4196SOL    HW124221   3.589   1.310   3.064 -0.8061 -0.5918 -2.3086
 4196SOL    HW224222   3.552   1.417   2.973 -1.7816 -0.1096 -1.5852
 4197SOL     OW24223   1.579   0.935   9.832 -0.4199  0.0198 -0.0295
 4197SOL    HW124224   1.586   0.843   9.807 -3.2827  0.0928 -1.1844
 4197SOL    HW224225   1.496   0.959   9.789  1.3780  1.1322 -2.8941
 4198SOL     OW24226   1.943   1.852   2.848  0.0558  0.3559 -0.2455
 4198SOL    HW124227   1.888   1.774   2.853 -0.7890  1.0161  0.8174
 4198SOL    HW224228   2.013   1.830   2.786 -0.2737 -2.3466  0.3302
 4199SOL     OW24229   1.090   3.431   8.674  0.3917  0.0427  0.1204
 4199SOL    HW124230   1.096   3.395   8.586 -1.2617 -1.8630  0.7964
 4199SOL    HW224231   1.174   3.431   8.718 -0.6957  0.6283  2.2155
 4200SOL     OW24232   2.908   0.022   7.527  0.0524  0.1585  0.4552
 4200SOL    HW124233   2.865   4.675   7.512  0.8597 -0.7305  3.1173
 4200SOL    HW224234   2.994   4.726   7.503  1.0770  2.1576  1.3826
 4201SOL     OW24235   2.258   1.948  10.626  0.3655 -0.0966 -0.2827
 4201SOL    HW124236   2.247   1.937  10.532  1.8306  0.6097 -0.5293
 4201SOL    HW224237   2.268   1.854  10.646 -2.7199 -0.4252 -0.3485
 4202SOL     OW24238   0.637   3.462  13.698  0.1973  0.2291  0.2340
 4202SOL    HW124239   0.658   3.371  13.676 -2.9556 -0.4245 -0.1125
 4202SOL    HW224240   0.543   3.449  13.712  0.9267 -1.1090  3.8609
 4203SOL     OW24241   2.114   0.303   3.487 -0.0324 -0.4554 -0.1837
 4203SOL    HW124242   2.113   0.295   3.582 -1.8762 -0.7209 -0.2339
 4203SOL    HW224243   2.036   0.255   3.460  1.0363 -1.5299 -1.3622
 4204SOL     OW24244   2.007   3.512   5.662 -0.1008 -0.5782  0.2064
 4204SOL    HW124245   1.932   3.567   5.640  1.4101  1.6480  0.5634
 4204SOL    HW224246   2.071   3.548   5.601 -0.7158 -0.5979 -0.4428
 4205SOL     OW24247   0.557   4.542   3.681  0.6049  0.1169  0.4365
 4205SOL    HW124248   0.599   4.512   3.762 -1.6575 -1.7707  0.8938
 4205SOL    HW224249   0.479   4.487   3.677 -0.3353  1.2540  3.0930
 4206SOL     OW24250   4.700   0.680   5.141  0.7888 -0.5155  0.1585
 4206SOL    HW124251   0.038   0.624   5.123 -0.1695 -1.5683 -0.5936
 4206SOL    HW224252   0.001   0.767   5.129 -2.4937  1.1584  2.0581
 4207SOL     OW24253   4.463   4.360   3.739  0.7142 -0.5767  0.1504
 4207SOL    HW124254   4.532   4.404   3.689  1.8013 -2.0379  0.3661
 4207SOL    HW224255   4.411   4.327   3.665 -0.3888  0.6337  0.3801
 4208SOL     OW24256   0.380   0.977   1.592  0.6352 -0.8565  0.5493
 4208SOL    HW124257   0.334   0.900   1.625  1.6747 -1.4145  0.6901
 4208SOL    HW224258   0.432   0.938   1.522 -0.6362 -2.0495  0.2708
 4209SOL     OW24259   3.874   0.694   7.894  0.1998  0.4873  0.3113
 4209SOL    HW124260   3.945   0.711   7.956 -0.1354  2.0134  0.2861
 4209SOL    HW224261   3.817   0.764   7.927 -1.4993 -2.1506  2.9854
 4210SOL     OW24262   3.192   2.416  11.291  0.5806  0.2774  0.5343
 4210SOL    HW124263   3.114   2.408  11.347  0.2752  2.0213  0.3604
 4210SOL    HW224264   3.231   2.328  11.293  1.2478  0.5906  1.0713
 4211SOL     OW24265   1.885   2.711   8.121  0.4082  0.4343  0.0551
 4211SOL    HW124266   1.805   2.724   8.173 -0.2912 -0.4455 -0.8195
 4211SOL    HW224267   1.873   2.618   8.104  0.6596  0.4331 -0.1025
 4212SOL     OW24268   2.385   0.838   6.770 -0.2747  0.2194  0.6499
 4212SOL    HW124269   2.480   0.841   6.757 -0.5117  1.4182 -0.7238
 4212SOL    HW224270   2.345   0.892   6.703 -0.5227 -3.0545 -1.8687
 4213SOL     OW24271   1.269   4.331   3.554  0.4361 -0.1782  0.1895
 4213SOL    HW124272   1.268   4.400   3.488 -1.0385 -0.5220 -0.1480
 4213SOL    HW224273   1.292   4.383   3.631 -0.6989  2.1150 -1.0100
 4214SOL     OW24274   4.387   2.142   8.857  0.7815  0.0396 -0.0906
 4214SOL    HW124275   4.369   2.147   8.950  1.8647 -2.3397  0.2448
 4214SOL    HW224276   4.455   2.074   8.853  0.4850 -0.3680  2.2546
 4215SOL     OW24277   0.148   3.862   0.929 -0.4873 -0.0820  0.0232
 4215SOL    HW124278   0.105   3.783   0.894 -1.9749  0.5535  0.4163
 4215SOL    HW224279   0.104   3.885   1.012  0.0911 -1.3131  0.6806
 4216SOL     OW24280   3.801   3.972   5.656 -0.2217  0.2577 -0.4199
 4216SOL    HW124281   3.782   4.066   5.656 -0.9324  0.1234  0.2260
 4216SOL    HW224282   3.718   3.925   5.646 -2.2878  3.6122  0.8971
 4217SOL     OW24283   3.684   1.912   6.083 -0.0942 -0.2127 -0.5780
 4217SOL    HW124284   3.684   1.960   6.000  0.3167  0.8107  0.0044
 4217SOL    HW224285   3.717   1.979   6.143  1.2517 -2.0343  0.7141
 4218SOL     OW24286   0.597   2.743   7.540  0.1272 -0.6679  0.1535
 4218SOL    HW124287   0.647   2.775   7.615 -0.9766  0.3423  0.4438
 4218SOL    HW224288   0.578   2.657   7.577  0.5487 -0.4782  0.8068
 4219SOL     OW24289   0.163   3.496   1.407  0.9068  0.9105 -0.0812
 4219SOL    HW124290   0.190   3.447   1.329  0.4127 -2.5220  1.9392
 4219SOL    HW224291   0.151   3.429   1.473  0.6276  0.2532 -0.7968
 4220SOL     OW24292   1.885   3.511   9.633 -0.0537 -0.0523 -0.3573
 4220SOL    HW124293   1.797   3.474   9.622 -0.2403 -0.6498  3.2909
 4220SOL    HW224294   1.864   3.563   9.710 -1.6847 -0.8670 -0.2509
 4221SOL     OW24295   4.355   0.074  11.548 -0.3704  0.2293 -0.2860
 4221SOL    HW124296   4.366   0.012  11.475  0.2350  0.4675 -0.4025
 4221SOL    HW224297   4.311   0.019  11.612 -0.0854 -0.4938 -0.7030
 4222SOL     OW24298   0.413   1.590  17.506  0.4698 -0.2804 -0.2362
 4222SOL    HW124299   0.427   1.517  17.566 -0.4663  1.1041  1.6343
 4222SOL    HW224300   0.348   1.553  17.446 -0.8320 -1.0253  1.6691
 4223SOL     OW24301   4.206   3.882   4.243 -0.0695 -0.1472  0.1950
 4223SOL    HW124302   4.266   3.956   4.237  1.5953 -1.4341  1.0926
 4223SOL    HW224303   4.228   3.829   4.166 -3.3020 -0.8366 -0.2724
 4224SOL     OW24304   4.613   4.098  13.282 -0.3014  0.0240 -0.4480
 4224SOL    HW124305   4.567   4.095  13.365 -0.5054  0.4674 -0.5478
 4224SOL    HW224306   4.543   4.093  13.217 -1.2806 -1.4671  0.7120
 4225SOL     OW24307   1.062   1.078  16.551 -0.1398 -0.1895 -0.2062
 4225SOL    HW124308   1.098   1.109  16.468  0.1196 -1.8195 -0.7049
 4225SOL    HW224309   1.122   1.005  16.568  2.7556  1.7908 -1.8037
 4226SOL     OW24310   1.275   0.324   6.816 -0.3516  0.0454 -0.0778
 4226SOL    HW124311   1.364   0.340   6.845  0.7061 -2.7928 -1.7788
 4226SOL    HW224312   1.227   0.392   6.865 -0.0790  0.9315 -1.0438
 4227SOL     OW24313   1.932   1.582   9.117 -0.5254  0.3303  0.7810
 4227SOL    HW124314   1.954   1.493   9.088 -3.3395 -0.5420  1.2678
 4227SOL    HW224315   2.011   1.634   9.103  0.2705 -0.6680  1.5452
 4228SOL     OW24316   4.327   3.659   5.569  0.1002 -0.6379 -0.2651
 4228SOL    HW124317   4.253   3.716   5.546 -0.4424 -0.4693  1.8440
 4228SOL    HW224318   4.374   3.662   5.486  1.8597  0.5749  0.7822
 4229SOL     OW24319   4.003   1.981   1.524 -0.0717 -0.5749  0.3354
 4229SOL    HW124320   4.078   2.029   1.488 -0.7921 -1.1921 -1.9745
 4229SOL    HW224321   3.938   2.051   1.534  1.0069  0.4579  0.1380
 4230SOL     OW24322   0.986   4.716  11.459  0.1603 -0.5483  0.4382
 4230SOL    HW124323   0.898   4.679  11.468 -0.7765  1.7201  0.7997
 4230SOL    HW224324   0.965   0.072  11.448  0.2697 -0.4116  1.3292
 4231SOL     OW24325   2.895   3.908  14.085 -0.0058 -0.4995  0.5834
 4231SOL    HW124326   2.868   3.879  13.998  0.4723  0.3885  0.1384
 4231SOL    HW224327   2.838   3.984  14.094 -0.4793 -1.1400  3.0564
 4232SOL     OW24328   0.844   3.428   4.798  0.2473  0.1752 -0.3442
 4232SOL    HW124329   0.777   3.483   4.758  0.5560 -0.5077 -1.8064
 4232SOL    HW224330   0.840   3.440   4.893  1.0929  1.4988 -0.4792
 4233SOL     OW24331   3.242   0.229  13.885  0.3967 -0.2113 -0.3489
 4233SOL    HW124332   3.280   0.294  13.945 -4.2929  0.7574  1.5500
 4233SOL    HW224333   3.155   0.267  13.876  0.5660  0.4425  0.7214
 4234SOL     OW24334   2.666   2.437   1.925 -0.0795 -0.0841 -0.3413
 4234SOL    HW124335   2.645   2.389   2.005 -1.6721 -0.3099 -0.8909
 4234SOL    HW224336   2.707   2.364   1.879 -1.2774 -0.1112 -1.3561
 4235SOL     OW24337   3.769   3.809   9.726  0.1063  0.9090 -0.5447
 4235SOL    HW124338   3.722   3.774   9.801 -0.6449 -0.6795 -1.7676
 4235SOL    HW224339   3.707   3.824   9.655 -0.3677 -0.3342 -0.3804
 4236SOL     OW24340   2.307   0.713  12.966  0.0554 -0.4591  0.3688
 4236SOL    HW124341   2.255   0.636  12.986 -2.4302  1.6804  2.1881
 4236SOL    HW224342   2.377   0.686  12.907 -0.6646 -2.4897  0.4475
 4237SOL     OW24343   2.062   4.612   7.840 -0.0013 -0.1427 -0.5262
 4237SOL    HW124344   1.971   4.633   7.863 -0.7419 -2.9797 -0.8605
 4237SOL    HW224345   2.107   4.582   7.919  0.5892  0.5404 -0.6049
 4238SOL     OW24346   2.005   1.926   8.776  0.0898 -0.0717 -0.3475
 4238SOL    HW124347   2.047   1.841   8.784  1.2996  0.6333  0.6839
 4238SOL    HW224348   2.027   1.971   8.857 -1.6284 -1.5365  0.9506
 4239SOL     OW24349   4.664   3.846   5.308 -0.3709 -0.5749  0.1879
 4239SOL    HW124350   4.586   3.796   5.281 -1.4475  1.5501 -0.6962
 4239SOL    HW224351   4.623   3.913   5.363  2.7463  2.4869 -1.2429
 4240SOL     OW24352   3.404   3.577   7.983  0.3751  0.2248 -0.3974
 4240SOL    HW124353   3.486   3.534   8.007 -0.8492 -1.2685  1.1148
 4240SOL    HW224354   3.413   3.663   8.024  0.2636 -0.4428  1.0391
 4241SOL     OW24355   3.239   2.041   1.932  0.8502  0.0819 -0.3107
 4241SOL    HW124356   3.240   1.961   1.880 -0.1150  1.4772 -2.4624
 4241SOL    HW224357   3.145   2.057   1.941  1.3011  2.4378  0.1845
 4242SOL     OW24358   3.260   3.873   2.135  0.0475 -0.6464 -0.0372
 4242SOL    HW124359   3.316   3.826   2.074  1.5952  0.7952  0.2707
 4242SOL    HW224360   3.189   3.883   2.072 -0.1083  0.6803  0.3481
 4243SOL     OW24361   2.145   1.749   9.112  0.4689  0.4153  0.2440
 4243SOL    HW124362   2.219   1.767   9.054 -1.0633 -1.1472 -2.2305
 4243SOL    HW224363   2.108   1.831   9.144 -1.6596 -0.8894  1.1551
 4244SOL     OW24364   1.741   1.618   8.885 -0.5861  0.5737  0.6395
 4244SOL    HW124365   1.810   1.613   8.951  0.3922  3.2700 -0.1892
 4244SOL    HW224366   1.761   1.553   8.818  1.7839  1.7278  0.2508
 4245SOL     OW24367   3.379   1.348   1.858 -0.0161  0.3643 -0.3012
 4245SOL    HW124368   3.288   1.338   1.832 -0.1260  2.4613 -0.6925
 4245SOL    HW224369   3.416   1.267   1.822 -0.4462 -0.4735  1.1650
 4246SOL     OW24370   2.112   3.503   3.238 -0.1976  1.1542  0.3595
 4246SOL    HW124371   2.123   3.563   3.165 -1.3312 -0.6845 -1.3139
 4246SOL    HW224372   2.024   3.534   3.261 -0.2814 -0.7035  2.5998
 4247SOL     OW24373   4.433   4.667  12.703 -0.0235 -0.6738 -0.1905
 4247SOL    HW124374   4.497   4.597  12.719 -0.1766 -0.5772  0.8030
 4247SOL    HW224375   4.496   0.002  12.708  1.4592 -1.8696 -1.5699
 4248SOL     OW24376   2.073   3.058   7.783 -0.1840 -0.6147  0.0123
 4248SOL    HW124377   2.059   3.057   7.878  0.3759 -1.2156  0.0837
 4248SOL    HW224378   1.987   3.090   7.753  1.3527  2.5962 -1.0034
 4249SOL     OW24379   2.632   4.389   0.761  0.7064  0.0142 -0.1326
 4249SOL    HW124380   2.719   4.373   0.797  0.6811  1.0677  0.4060
 4249SOL    HW224381   2.613   4.304   0.722 -1.0801  0.8230 -1.0274
 4250SOL     OW24382   0.975   2.459   1.295 -0.0371  0.0838 -0.3533
 4250SOL    HW124383   0.886   2.461   1.330  0.1949 -1.4423  0.3242
 4250SOL    HW224384   0.956   2.482   1.204 -2.3126 -3.8059 -0.8492
 4251SOL     OW24385   4.352   0.662   5.498 -0.5598 -0.3493  0.0801
 4251SOL    HW124386   4.270   0.615   5.480 -0.3545 -0.9874  0.8319
 4251SOL    HW224387   4.396   0.647   5.414  3.4557  3.1490  1.5889
 4252SOL     OW24388   3.040   0.595   4.360 -0.6455  0.0461  0.0729
 4252SOL    HW124389   3.082   0.609   4.275 -1.0351  1.2829  0.0816
 4252SOL    HW224390   3.064   0.505   4.380 -0.8578 -0.2059 -0.8438
 4253SOL     OW24391   3.586   3.903   3.364  0.1823 -0.1835  0.0047
 4253SOL    HW124392   3.663   3.848   3.346  1.4899  0.5735  3.3026
 4253SOL    HW224393   3.602   3.931   3.454 -1.4901  1.6873 -0.2821
 4254SOL     OW24394   0.310   3.139   0.610 -0.3097  0.2588  0.0834
 4254SOL    HW124395   0.384   3.119   0.666  1.4370  2.7674 -1.3629
 4254SOL    HW224396   0.353   3.130   0.525 -1.4378 -0.7671 -0.3844
 4255SOL     OW24397   0.004   0.089   4.026  0.2182  0.0783 -0.7247
 4255SOL    HW124398   0.023   0.135   4.108  1.2879 -2.1133  0.2642
 4255SOL    HW224399   4.717   0.159   3.965 -0.4874  0.6767  0.2191
 4256SOL     OW24400   4.177   1.194  16.570  0.2638 -0.1917  0.4853
 4256SOL    HW124401   4.082   1.182  16.572  0.0418  1.3703 -0.1917
 4256SOL    HW224402   4.195   1.227  16.482  1.0676  1.0879  1.1232
 4257SOL     OW24403   4.168   1.523   2.061  0.2594 -0.1511 -0.1792
 4257SOL    HW124404   4.098   1.552   2.002 -1.8220 -0.9579  1.9119
 4257SOL    HW224405   4.187   1.442   2.015 -0.7403 -0.3145 -0.3018
 4258SOL     OW24406   2.258   4.416   5.070  0.6073 -0.1910  0.5976
 4258SOL    HW124407   2.265   4.509   5.048 -2.1007  0.0124  0.6810
 4258SOL    HW224408   2.347   4.379   5.076  1.0941  1.0911  1.2888
 4259SOL     OW24409   0.038   0.523   8.565 -0.4565  0.3577  0.3162
 4259SOL    HW124410   0.006   0.594   8.621  2.7219  0.0865  2.4828
 4259SOL    HW224411   0.019   0.556   8.477  2.1334  3.6793  1.0041
 4260SOL     OW24412   4.050   1.563  10.158 -0.2677 -0.5225  0.3546
 4260SOL    HW124413   4.047   1.585  10.251  1.7904 -0.3818  0.3920
 4260SOL    HW224414   4.143   1.544  10.143 -0.4712 -2.6603  1.8535
 4261SOL     OW24415   1.180   0.788   6.261  0.5483 -0.4231 -0.1053
 4261SOL    HW124416   1.232   0.723   6.213  2.2606  1.3889 -0.7159
 4261SOL    HW224417   1.095   0.745   6.258  0.5131 -0.3804  0.2869
 4262SOL     OW24418   1.469   1.779   8.264  0.4191 -0.3274  0.5946
 4262SOL    HW124419   1.405   1.712   8.240  1.5809 -1.4348  0.5412
 4262SOL    HW224420   1.486   1.764   8.357  1.1052 -0.9806  0.3676
 4263SOL     OW24421   0.008   0.342   1.736 -0.0631 -0.3712  0.3629
 4263SOL    HW124422   4.652   0.353   1.756 -0.1864  2.0521 -1.6325
 4263SOL    HW224423   4.736   0.346   1.641  1.0397 -1.2866  0.2080
 4264SOL     OW24424   3.891   0.139   1.570  0.8429  0.1621  0.5701
 4264SOL    HW124425   3.978   0.179   1.576  1.2879 -0.8590  0.9907
 4264SOL    HW224426   3.850   0.170   1.651  2.3784  2.8327  0.3566
 4265SOL     OW24427   1.828   1.473   8.643 -0.1212  0.2453 -0.2138
 4265SOL    HW124428   1.850   1.543   8.582  0.8361  0.5205  0.4495
 4265SOL    HW224429   1.806   1.400   8.585  1.2813 -0.5420  0.2482
 4266SOL     OW24430   3.646   1.647  17.199  0.2484 -0.2115  0.4133
 4266SOL    HW124431   3.550   1.638  17.203  0.1870 -0.2049 -1.0223
 4266SOL    HW224432   3.657   1.629  17.106  1.2203 -0.2725  0.5425
 4267SOL     OW24433   4.211   0.045   5.893  0.8085 -0.1103 -0.2906
 4267SOL    HW124434   4.197   0.137   5.917 -3.1017 -0.3745 -1.5842
 4267SOL    HW224435   4.141   4.736   5.940  1.0161  0.6101  0.7292
 4268SOL     OW24436   4.264   1.520  10.486  0.5599 -0.8436  0.1978
 4268SOL    HW124437   4.350   1.523  10.527  0.8684 -0.0457 -0.4916
 4268SOL    HW224438   4.217   1.460  10.543  1.2504 -0.7027  0.9221
 4269SOL     OW24439   3.399   2.918   3.119  0.1351 -0.0154  0.0954
 4269SOL    HW124440   3.432   2.978   3.186  1.5011 -0.1197 -0.4887
 4269SOL    HW224441   3.326   2.968   3.082 -1.2090 -0.4768  2.0619
 4270SOL     OW24442   0.522   3.280   1.626  0.2501  0.6920  0.1967
 4270SOL    HW124443   0.577   3.356   1.605  2.1824 -0.0908  2.3798
 4270SOL    HW224444   0.476   3.310   1.704 -0.3843 -0.0045  0.0840
 4271SOL     OW24445   4.122   1.890   7.689  0.9169  0.2112 -0.7838
 4271SOL    HW124446   4.049   1.884   7.750  1.1842 -0.0185 -0.4899
 4271SOL    HW224447   4.066   1.869   7.613 -0.4622 -2.1400  0.8807
 4272SOL     OW24448   3.592   1.895  12.328 -0.3567  0.5824  0.3330
 4272SOL    HW124449   3.666   1.867  12.381 -0.4938  0.7848  0.6309
 4272SOL    HW224450   3.518   1.848  12.367 -0.3013  0.5285  0.3714
 4273SOL     OW24451   2.809   2.205   9.476  0.2163  0.0647 -0.6471
 4273SOL    HW124452   2.826   2.297   9.495  0.1396 -0.2824  1.1127
 4273SOL    HW224453   2.813   2.167   9.564  1.2352 -1.5884 -1.4171
 4274SOL     OW24454   3.904   0.107   8.875  0.3349 -0.6236 -1.0153
 4274SOL    HW124455   3.945   0.052   8.942 -0.9101 -0.1090  0.1818
 4274SOL    HW224456   3.977   0.098   8.814 -0.3586  0.2341 -1.9657
 4275SOL     OW24457   4.435   1.448   7.854  0.0038 -0.2540 -0.0108
 4275SOL    HW124458   4.343   1.432   7.874  0.2133 -0.3905  0.8373
 4275SOL    HW224459   4.416   1.523   7.798  1.2801 -0.3492 -0.5716
 4276SOL     OW24460   0.436   0.855   5.813 -0.2006 -0.0323 -0.8086
 4276SOL    HW124461   0.360   0.797   5.824  0.8013 -1.1509  0.1938
 4276SOL    HW224462   0.506   0.802   5.851 -2.1200 -1.2924  1.0269
 4277SOL     OW24463   1.225   0.855   2.497 -0.0706  0.5388  0.7132
 4277SOL    HW124464   1.280   0.916   2.545  1.8127 -1.3381  0.9441
 4277SOL    HW224465   1.148   0.910   2.484  1.1100  1.8361 -0.9053
 4278SOL     OW24466   2.220   0.495  12.736 -0.6328  0.0328 -0.0128
 4278SOL    HW124467   2.209   0.495  12.832 -2.2349  1.8033 -0.1876
 4278SOL    HW224468   2.309   0.530  12.739 -0.7801  0.5726 -2.1963
 4279SOL     OW24469   0.605   4.404   7.982 -0.4661 -0.0789  0.4606
 4279SOL    HW124470   0.521   4.394   7.937  0.9808 -0.2518 -2.1935
 4279SOL    HW224471   0.666   4.432   7.913 -0.6723  1.7444  1.0018
 4280SOL     OW24472   2.216   4.551   0.751 -0.0382 -0.0544 -0.6850
 4280SOL    HW124473   2.294   4.583   0.797  0.4206 -1.1406 -0.7273
 4280SOL    HW224474   2.241   4.461   0.734 -2.8445 -1.1645  1.0826
 4281SOL     OW24475   3.832   2.906   4.229 -0.4594  0.5521  0.0242
 4281SOL    HW124476   3.825   2.994   4.195 -2.1705  0.6985  0.7364
 4281SOL    HW224477   3.861   2.915   4.320  0.1114 -1.9871  0.0981
 4282SOL     OW24478   1.934   2.468   3.611  0.0996 -0.1985  0.1168
 4282SOL    HW124479   1.857   2.516   3.639  0.7259  0.9966 -0.1764
 4282SOL    HW224480   1.993   2.515   3.671  0.1711 -2.5581  1.8897
 4283SOL     OW24481   3.923   3.750   7.007  0.7501  1.1474 -0.0392
 4283SOL    HW124482   3.888   3.757   7.096 -0.7372 -0.8401 -0.4598
 4283SOL    HW224483   4.002   3.700   7.026  0.4653  0.2568 -1.1757
 4284SOL     OW24484   3.909   1.458   2.695 -0.3850 -0.5757 -1.0566
 4284SOL    HW124485   3.960   1.408   2.759 -0.3263 -0.6821 -1.1885
 4284SOL    HW224486   3.917   1.551   2.718 -1.0421 -0.3413 -1.7600
 4285SOL     OW24487   1.480   2.781  12.162  0.1286 -0.3207  1.3472
 4285SOL    HW124488   1.393   2.787  12.202  1.5702  0.9838  4.2727
 4285SOL    HW224489   1.518   2.862  12.195 -2.3136  0.1173  3.0855
 4286SOL     OW24490   4.519   1.828  11.678  0.3092  0.5871 -0.3562
 4286SOL    HW124491   4.604   1.814  11.720  2.3691  1.8251 -4.1802
 4286SOL    HW224492   4.450   1.801  11.740  1.5955 -2.0097 -0.0443
 4287SOL     OW24493   4.284   1.459   1.189  0.3099 -0.4906  0.2360
 4287SOL    HW124494   4.284   1.532   1.128 -0.1025  0.1286  0.9781
 4287SOL    HW224495   4.205   1.463   1.243 -1.1855  1.6774 -2.1199
 4288SOL     OW24496   3.191   0.685   4.118  0.1913 -0.3549 -0.0778
 4288SOL    HW124497   3.118   0.716   4.065  0.3134 -0.6168 -0.4021
 4288SOL    HW224498   3.245   0.634   4.057 -0.7838 -0.7294 -0.6153
 4289SOL     OW24499   2.079   3.290   6.893  0.5269  0.1193  0.1308
 4289SOL    HW124500   2.091   3.365   6.834  2.0476  1.6991  2.4775
 4289SOL    HW224501   2.148   3.234   6.855 -0.6754 -3.4277  3.2930
 4290SOL     OW24502   0.981   2.238   8.347 -0.0009  0.0679  0.4246
 4290SOL    HW124503   0.908   2.300   8.344 -1.6550 -1.8191  1.3979
 4290SOL    HW224504   0.993   2.245   8.442  0.2787  2.9248  0.1693
 4291SOL     OW24505   2.022   4.400   5.633 -0.2210  0.2042  0.2707
 4291SOL    HW124506   2.091   4.432   5.575 -0.3604  0.1234  0.0563
 4291SOL    HW224507   2.048   4.310   5.653 -0.8327  0.7667  3.5653
 4292SOL     OW24508   0.648   1.228   5.195 -1.2554 -0.9394 -0.1118
 4292SOL    HW124509   0.569   1.235   5.141  0.2941  1.0736 -2.1189
 4292SOL    HW224510   0.602   1.182   5.265 -0.7912  1.9154  2.0762
 4293SOL     OW24511   1.254   0.356   9.235 -1.0041 -0.4777 -0.1875
 4293SOL    HW124512   1.327   0.405   9.274 -0.8557 -0.1441 -0.8800
 4293SOL    HW224513   1.176   0.411   9.247 -0.1060  1.0750 -1.3731
 4294SOL     OW24514   4.331   3.962   4.607 -0.2912  0.0337  0.0868
 4294SOL    HW124515   4.346   3.927   4.695  0.7165  1.5048  0.5120
 4294SOL    HW224516   4.265   4.026   4.634  1.1145  2.4689 -2.2897
 4295SOL     OW24517   1.752   0.063  13.230  0.2524 -0.0150 -0.4682
 4295SOL    HW124518   1.737   0.049  13.136  0.7980 -0.1618 -0.5376
 4295SOL    HW224519   1.802   0.144  13.233 -0.7072  0.6761 -2.8681
 4296SOL     OW24520   3.570   3.484   5.948 -0.0522 -0.0686  0.3451
 4296SOL    HW124521   3.529   3.530   5.875  0.1687  0.7815  0.7513
 4296SOL    HW224522   3.568   3.556   6.011 -0.0237 -1.6528  2.1622
 4297SOL     OW24523   3.345   2.533  10.972 -0.3224  0.5964 -0.4392
 4297SOL    HW124524   3.306   2.620  10.975 -0.1722  0.5586  2.6267
 4297SOL    HW224525   3.263   2.484  10.965  1.2771 -1.8557 -2.2729
 4298SOL     OW24526   0.073   4.123   5.151  0.4650 -0.2899  0.0973
 4298SOL    HW124527   0.051   4.030   5.154  3.3649 -1.0022 -0.2980
 4298SOL    HW224528   0.153   4.129   5.203  1.1500  2.9658 -1.3074
 4299SOL     OW24529   0.968   0.393   8.604 -0.1502 -0.1449  0.0180
 4299SOL    HW124530   1.017   0.473   8.588  1.5612 -0.6077  3.0038
 4299SOL    HW224531   1.038   0.347   8.649 -0.8256 -0.3659  0.8273
 4300SOL     OW24532   2.045   2.253   9.435  0.0065 -0.0899  0.2968
 4300SOL    HW124533   2.119   2.303   9.399 -0.7080  2.1507  1.9716
 4300SOL    HW224534   1.970   2.293   9.392 -0.1532 -0.7071 -0.0086
 4301SOL     OW24535   1.196   4.431  15.773  0.3956 -0.0253  0.5978
 4301SOL    HW124536   1.254   4.475  15.711  1.0046  0.6481  1.6493
 4301SOL    HW224537   1.156   4.510  15.809 -1.9791 -0.0280 -2.1100
 4302SOL     OW24538   0.428   3.311   8.429 -0.0619 -0.0828  0.0625
 4302SOL    HW124539   0.458   3.294   8.340 -2.7050 -1.6748 -0.5095
 4302SOL    HW224540   0.348   3.360   8.413 -0.7944 -1.3376 -0.1219
 4303SOL     OW24541   0.518   4.432   7.607  0.5883 -0.1033  0.0051
 4303SOL    HW124542   0.600   4.442   7.656  0.9221 -0.7106 -0.4257
 4303SOL    HW224543   0.498   4.523   7.584  1.0655  0.2765  1.1141
 4304SOL     OW24544   3.445   3.320   2.778 -0.0918 -0.1690  0.2242
 4304SOL    HW124545   3.444   3.307   2.873 -0.6757 -1.7808 -0.0093
 4304SOL    HW224546   3.358   3.357   2.767 -0.4208 -1.5168 -1.7606
 4305SOL     OW24547   2.644   1.304   6.104  0.7322 -0.1219 -0.0306
 4305SOL    HW124548   2.595   1.235   6.149  0.7882 -0.7257 -0.8982
 4305SOL    HW224549   2.726   1.288   6.150  1.5234 -0.0200 -1.4008
 4306SOL     OW24550   0.397   4.694   5.061  1.0304 -0.0118  0.8619
 4306SOL    HW124551   0.430   4.639   4.990 -1.6147  1.1719 -1.2696
 4306SOL    HW224552   0.370   0.033   5.010 -1.5206 -2.3817 -1.3044
 4307SOL     OW24553   2.746   0.205   7.410 -0.1743  0.2191  0.4867
 4307SOL    HW124554   2.717   0.139   7.346  1.0587  1.9590 -1.8717
 4307SOL    HW224555   2.810   0.156   7.461  0.3182 -0.4565 -0.7637
 4308SOL     OW24556   2.583   4.298  10.186 -0.7797 -0.0956  0.2851
 4308SOL    HW124557   2.637   4.238  10.238  0.3786  0.9277  0.2673
 4308SOL    HW224558   2.494   4.293  10.220 -0.2731  0.7786  1.7282
 4309SOL     OW24559   0.644   1.461   6.888 -0.3204  0.0062 -0.1559
 4309SOL    HW124560   0.687   1.544   6.869 -0.6220 -0.1999 -1.8065
 4309SOL    HW224561   0.557   1.496   6.905 -1.8928 -2.4140 -3.2456
 4310SOL     OW24562   2.630   2.913  17.288  0.0939 -0.2986  0.0608
 4310SOL    HW124563   2.634   2.892  17.381 -2.4499  1.4009  0.5259
 4310SOL    HW224564   2.554   2.864  17.257 -0.4100 -0.1908  1.1351
 4311SOL     OW24565   3.760   0.800   5.201 -0.3244  0.1121  0.3269
 4311SOL    HW124566   3.676   0.824   5.162 -0.0046  1.0702  0.2257
 4311SOL    HW224567   3.745   0.818   5.294  0.4052  1.4564  0.1830
 4312SOL     OW24568   4.672   0.438   5.456 -0.0712  0.1498  0.3262
 4312SOL    HW124569   4.728   0.364   5.432 -0.8806 -0.4666  0.3408
 4312SOL    HW224570   4.668   0.433   5.551  1.4852 -0.0476  0.3842
 4313SOL     OW24571   1.078   4.636   3.278 -0.6385  0.1794  0.4868
 4313SOL    HW124572   1.141   4.646   3.207  0.8232 -0.4880  1.6749
 4313SOL    HW224573   1.019   4.706   3.250  0.5890  0.9115 -0.2375
 4314SOL     OW24574   3.153   2.834   4.707  0.0609  0.0018 -0.5167
 4314SOL    HW124575   3.083   2.784   4.664 -1.0812  1.8078 -0.7756
 4314SOL    HW224576   3.182   2.907   4.652  1.6075 -1.1192 -1.1943
 4315SOL     OW24577   4.519   4.589   7.096 -0.2513 -0.3285  0.3078
 4315SOL    HW124578   4.437   4.541   7.089  0.0555 -0.7223 -0.5893
 4315SOL    HW224579   4.569   4.543   7.164  0.1899  0.5510  0.5888
 4316SOL     OW24580   1.351   4.516   6.569  0.0441 -0.2116 -0.8204
 4316SOL    HW124581   1.421   4.559   6.520  0.0321  2.8120  1.8889
 4316SOL    HW224582   1.282   4.580   6.550  0.4421  0.1991 -0.8765
 4317SOL     OW24583   3.913   4.614  14.028 -0.0823  0.0959  0.3684
 4317SOL    HW124584   3.882   4.535  14.072  0.7642 -1.0953 -1.1679
 4317SOL    HW224585   3.893   4.579  13.941 -0.2377  1.5108 -0.1691
 4318SOL     OW24586   0.601   2.270   7.489 -0.3248 -0.1301 -0.0284
 4318SOL    HW124587   0.667   2.256   7.421  0.5517  1.7435  0.4212
 4318SOL    HW224588   0.561   2.183   7.495 -0.2963 -0.2905 -2.0188
 4319SOL     OW24589   1.761   1.490   7.970 -0.4619  0.2755 -0.5547
 4319SOL    HW124590   1.723   1.464   8.054 -1.6110  0.9580 -0.8630
 4319SOL    HW224591   1.753   1.585   7.971  2.6631  0.5131  0.3254
 4320SOL     OW24592   1.987   4.736   6.339 -0.0620  0.2110 -0.3468
 4320SOL    HW124593   1.910   4.680   6.329 -0.1499  0.0327  1.2897
 4320SOL    HW224594   1.970   0.027   6.429 -2.4991 -1.5399 -0.2882
 4321SOL     OW24595   2.299   1.719  11.595  0.4184  0.7178 -0.0203
 4321SOL    HW124596   2.205   1.737  11.589  0.0020 -1.5141 -0.1736
 4321SOL    HW224597   2.303   1.648  11.660  0.4100  0.7603  0.0272
 4322SOL     OW24598   3.009   4.316   1.206 -0.1731 -0.2228  0.1781
 4322SOL    HW124599   2.923   4.336   1.171 -1.1555 -1.4184  1.9335
 4322SOL    HW224600   2.982   4.316   1.298  0.1318  1.9927  0.2662
 4323SOL     OW24601   2.475   1.829   6.462 -0.9825 -0.0384  0.9203
 4323SOL    HW124602   2.536   1.854   6.393 -1.6872  1.3415  0.7953
 4323SOL    HW224603   2.509   1.888   6.530 -0.8580 -1.4283  2.0516
 4324SOL     OW24604   2.802   0.282  15.238 -0.6287 -0.6188 -0.2175
 4324SOL    HW124605   2.742   0.342  15.196  0.6517  2.6142  2.5476
 4324SOL    HW224606   2.855   0.246  15.167  0.4401  3.4019 -1.4410
 4325SOL     OW24607   2.074   1.054   6.047  0.4186 -0.3100  0.8973
 4325SOL    HW124608   2.092   1.142   6.015  2.0823 -0.7116  0.7177
 4325SOL    HW224609   2.099   1.008   5.967 -1.0454  0.7993 -0.2015
 4326SOL     OW24610   2.020   1.635   4.437  0.1724 -0.6059 -0.4811
 4326SOL    HW124611   2.030   1.701   4.368 -2.5981  3.1017  2.7098
 4326SOL    HW224612   1.963   1.569   4.398  0.4138 -1.4109  0.5425
 4327SOL     OW24613   0.469   2.112   6.392  0.6414  0.2573  0.0514
 4327SOL    HW124614   0.404   2.154   6.448  0.5421 -0.7532  0.7016
 4327SOL    HW224615   0.416   2.096   6.314  0.3669 -0.4960  0.3929
 4328SOL     OW24616   4.382   4.360  15.974  0.1095 -0.6804 -0.3121
 4328SOL    HW124617   4.425   4.357  15.888 -1.1160 -1.6479 -0.8953
 4328SOL    HW224618   4.300   4.314  15.957 -0.7102  0.2467  1.1365
 4329SOL     OW24619   1.907   3.880  10.293 -0.4060  0.2736 -0.1205
 4329SOL    HW124620   1.908   3.934  10.214 -1.6467  2.8744  1.6570
 4329SOL    HW224621   1.849   3.931  10.349 -0.2201 -1.6800  1.8318
 4330SOL     OW24622   1.114   1.655   9.384  0.1601 -0.2364  0.3751
 4330SOL    HW124623   1.144   1.574   9.343 -1.7003 -0.9419  0.3905
 4330SOL    HW224624   1.166   1.722   9.341  0.3715 -0.9988 -0.5687
 4331SOL     OW24625   1.792   1.833  15.799 -0.0967  0.5197  0.7175
 4331SOL    HW124626   1.874   1.882  15.796 -1.2057  2.1836 -2.5756
 4331SOL    HW224627   1.807   1.804  15.889  1.9855  1.2409  0.5992
 4332SOL     OW24628   1.824   4.623   9.889  0.4505  0.5234  0.0655
 4332SOL    HW124629   1.818   4.528   9.888 -0.9232  0.6232 -1.3346
 4332SOL    HW224630   1.890   4.637   9.957 -0.2325  0.6737  0.6894
 4333SOL     OW24631   4.630   4.586  15.882 -0.4071 -0.5283 -0.5128
 4333SOL    HW124632   4.712   4.610  15.838 -1.6853  3.3510 -0.7766
 4333SOL    HW224633   4.597   4.516  15.825  0.9590 -0.7986 -0.9765
 4334SOL     OW24634   0.259   1.299   2.512 -0.0311  0.3349 -0.2328
 4334SOL    HW124635   0.279   1.288   2.419 -0.4892  1.1885 -0.4307
 4334SOL    HW224636   0.171   1.259   2.509  0.4968 -0.8159 -0.4262
 4335SOL     OW24637   1.731   4.152  13.309 -0.1126  0.0800 -0.4652
 4335SOL    HW124638   1.826   4.152  13.301 -0.0617  0.8204  0.0587
 4335SOL    HW224639   1.711   4.227  13.254 -1.5608  0.4294  0.5217
 4336SOL     OW24640   2.990   0.611   9.567  0.6335  0.1725 -0.1061
 4336SOL    HW124641   3.059   0.547   9.551 -0.0628 -0.6765  0.3042
 4336SOL    HW224642   2.955   0.574   9.648  0.1113 -0.6890 -0.7238
 4337SOL     OW24643   1.714   4.486   4.711 -0.0340 -0.1041 -0.4012
 4337SOL    HW124644   1.629   4.484   4.667 -0.3245 -0.3902  0.1745
 4337SOL    HW224645   1.700   4.551   4.780 -0.6437  0.0351 -0.6572
 4338SOL     OW24646   2.412   1.568   5.140 -0.0040  0.0815  0.1374
 4338SOL    HW124647   2.464   1.573   5.221  0.3015 -1.2290  0.0268
 4338SOL    HW224648   2.425   1.657   5.106 -1.3987  0.2792  0.1358
 4339SOL     OW24649   4.085   2.912  12.465 -0.5049 -0.1467  0.0259
 4339SOL    HW124650   4.074   2.997  12.509 -0.2443 -0.5139  0.8123
 4339SOL    HW224651   4.119   2.934  12.379 -0.5230 -0.9354 -0.1864
 4340SOL     OW24652   1.409   3.883   5.323  0.2294 -0.2439 -0.0102
 4340SOL    HW124653   1.456   3.863   5.241 -2.7363 -1.1427 -1.4741
 4340SOL    HW224654   1.474   3.949   5.349  0.0659  0.1243 -0.5228
 4341SOL     OW24655   1.172   1.808   6.884 -0.4507 -0.8296 -0.8640
 4341SOL    HW124656   1.166   1.888   6.832 -2.4250  1.2120  2.5220
 4341SOL    HW224657   1.254   1.773   6.848 -0.9221 -1.3643 -1.4155
 4342SOL     OW24658   1.549   1.022   5.097  0.1464  0.2546  0.2191
 4342SOL    HW124659   1.478   1.038   5.160 -0.4453 -3.7732  0.5264
 4342SOL    HW224660   1.575   1.112   5.078 -0.1302 -0.1593 -2.0781
 4343SOL     OW24661   0.756   0.405   6.807  0.1292  0.7227 -0.0709
 4343SOL    HW124662   0.695   0.334   6.785  0.8140  0.6828 -1.8043
 4343SOL    HW224663   0.714   0.468   6.748 -1.3762 -0.6964 -0.5106
 4344SOL     OW24664   2.328   2.724   8.545  0.0129  0.4341 -0.5660
 4344SOL    HW124665   2.390   2.712   8.473 -0.4693 -0.1998 -0.8764
 4344SOL    HW224666   2.273   2.646   8.531  2.7686 -1.5839 -0.2004
 4345SOL     OW24667   1.782   3.415   6.923 -0.4163  0.4704 -0.3399
 4345SOL    HW124668   1.761   3.508   6.932 -0.4142  0.5471 -1.0808
 4345SOL    HW224669   1.875   3.428   6.904 -0.1500 -2.2004 -0.7891
 4346SOL     OW24670   0.699   3.342   2.756  0.0332 -0.5776  0.5073
 4346SOL    HW124671   0.621   3.346   2.701 -0.1752 -0.0990  0.8341
 4346SOL    HW224672   0.686   3.273   2.821 -1.8020 -1.3929 -0.7406
 4347SOL     OW24673   4.220   2.775   4.872  0.0781 -0.2500  0.4217
 4347SOL    HW124674   4.257   2.817   4.794  1.6788 -0.1731  1.2008
 4347SOL    HW224675   4.128   2.796   4.880  0.6444  1.7035  1.6927
 4348SOL     OW24676   1.055   2.005   4.189  0.1894  0.1477 -0.0191
 4348SOL    HW124677   1.046   2.034   4.098 -1.7881 -0.9896 -0.1948
 4348SOL    HW224678   1.015   2.078   4.235 -0.0897  0.6465 -1.0518
 4349SOL     OW24679   0.097   0.254   3.546 -0.5151 -0.0351 -0.1439
 4349SOL    HW124680   0.129   0.305   3.472  0.2214 -2.3218 -1.3733
 4349SOL    HW224681   0.034   0.200   3.499 -0.1375 -1.5050  1.0370
 4350SOL     OW24682   0.377   4.302   4.915 -0.4411 -0.2323 -0.4629
 4350SOL    HW124683   0.401   4.369   4.851 -1.6466 -0.1324 -0.8191
 4350SOL    HW224684   0.281   4.311   4.911 -0.3183  0.3821 -2.2381
 4351SOL     OW24685   3.952   4.129   1.487  0.3641  0.1817  0.1874
 4351SOL    HW124686   3.870   4.178   1.480  0.3300  0.2754  1.1951
 4351SOL    HW224687   3.925   4.050   1.534  1.0476  0.9646  1.9203
 4352SOL     OW24688   3.198   3.617  17.614  0.1085  0.5524  0.2295
 4352SOL    HW124689   3.214   3.524  17.628 -1.1843  0.0808 -1.4203
 4352SOL    HW224690   3.181   3.619  17.520  0.7774 -3.1627  0.0176
 4353SOL     OW24691   0.011   2.535  16.765 -0.2899  0.2274 -0.2516
 4353SOL    HW124692   0.083   2.474  16.749 -0.1480  0.5316 -0.7879
 4353SOL    HW224693   0.059   2.611  16.797  0.7491 -0.4431 -0.2276
 4354SOL     OW24694   0.017   2.646  17.540 -0.2866  0.2579  0.0406
 4354SOL    HW124695   4.676   2.633  17.594 -0.0361 -0.8368  0.1265
 4354SOL    HW224696   0.072   2.581  17.583 -1.0618  0.0418  0.7078
 4355SOL     OW24697   0.861   4.268  12.142 -0.0087  0.2594  0.8431
 4355SOL    HW124698   0.901   4.354  12.127  2.0633 -0.8454 -0.0454
 4355SOL    HW224699   0.767   4.285  12.134 -0.3302 -2.9352 -2.4299
 4356SOL     OW24700   0.110   3.587   0.800  0.4403  0.1465 -0.1309
 4356SOL    HW124701   0.078   3.653   0.738 -1.0952 -0.0110  0.4918
 4356SOL    HW224702   0.155   3.529   0.738  0.3404  1.2927 -1.2712
 4357SOL     OW24703   2.216   4.539   4.557 -0.1536 -0.2286 -1.0328
 4357SOL    HW124704   2.145   4.593   4.591  0.6526  1.1490 -1.5336
 4357SOL    HW224705   2.259   4.511   4.638  0.4210 -0.2444 -1.3490
 4358SOL     OW24706   4.676   4.702   6.544 -0.2235  0.4403  0.0524
 4358SOL    HW124707   4.637   4.643   6.479 -0.6290 -0.4898  1.1587
 4358SOL    HW224708   4.607   4.710   6.609  0.4988 -0.3974  0.9057
 4359SOL     OW24709   3.732   1.407   3.605  0.2325  0.1211 -0.6874
 4359SOL    HW124710   3.637   1.398   3.603  0.1327  0.1489  3.9205
 4359SOL    HW224711   3.746   1.366   3.519 -0.6028  0.8872 -1.1831
 4360SOL     OW24712   3.293   0.530   2.371 -0.1150 -0.8990  0.3155
 4360SOL    HW124713   3.331   0.470   2.307 -0.7788 -0.2841 -0.6517
 4360SOL    HW224714   3.198   0.520   2.369 -0.3115  0.4797  2.1494
 4361SOL     OW24715   1.151   4.692  14.949  0.5431  0.2096  0.0409
 4361SOL    HW124716   1.083   4.709  15.015  0.8267  2.7568 -0.3223
 4361SOL    HW224717   1.156   0.047  14.924  0.3883  0.5988  1.4187
 4362SOL     OW24718   4.616   4.326   5.472  0.3259 -0.1602 -0.5220
 4362SOL    HW124719   4.642   4.417   5.460  0.0653  0.2745  2.1273
 4362SOL    HW224720   4.580   4.337   5.560  1.0119  1.4943 -0.4539
 4363SOL     OW24721   3.259   0.809  12.590 -0.2073  0.7844 -0.0512
 4363SOL    HW124722   3.331   0.818  12.529  0.2925 -2.1627  0.1069
 4363SOL    HW224723   3.279   0.877  12.654 -0.9466  1.4663 -0.5395
 4364SOL     OW24724   2.904   2.435   2.977 -0.1387 -0.5086  0.8007
 4364SOL    HW124725   2.958   2.502   3.020  0.0663  0.1307 -0.4385
 4364SOL    HW224726   2.822   2.429   3.026 -0.1245 -3.3514  0.4693
 4365SOL     OW24727   1.576   1.697   7.673 -0.2630  0.2763 -0.1817
 4365SOL    HW124728   1.532   1.707   7.589 -1.3751 -1.8401  0.1566
 4365SOL    HW224729   1.512   1.738   7.732 -0.9842 -1.1645  0.0431
 4366SOL     OW24730   2.844   3.919   9.470  0.2710 -0.5482  0.4698
 4366SOL    HW124731   2.751   3.930   9.451  0.9284  1.9193 -1.2236
 4366SOL    HW224732   2.875   3.927   9.379 -0.7857 -0.8125  0.0903
 4367SOL     OW24733   2.957   4.327   7.403 -0.2067  0.4558  0.3403
 4367SOL    HW124734   2.971   4.330   7.497  0.8893 -1.2265  0.2216
 4367SOL    HW224735   3.025   4.381   7.363  0.2108  0.6309  1.3031
 4368SOL     OW24736   3.807   0.190  11.528 -0.6590  0.5060  0.0877
 4368SOL    HW124737   3.751   0.113  11.527 -0.4681  0.3662  1.4326
 4368SOL    HW224738   3.748   0.265  11.537 -0.5013  0.8600 -1.6749
 4369SOL     OW24739   1.302   1.712   4.476 -0.3092  0.5200 -0.1121
 4369SOL    HW124740   1.390   1.708   4.440 -0.4532 -3.6492  0.0983
 4369SOL    HW224741   1.268   1.790   4.432 -1.1524 -0.2916 -0.8908
 4370SOL     OW24742   0.029   2.149   6.164 -0.1475 -0.4688 -0.1071
 4370SOL    HW124743   0.030   2.209   6.238  0.4307  0.6105 -0.9894
 4370SOL    HW224744   4.674   2.124   6.172 -0.0422 -1.1647 -1.0323
 4371SOL     OW24745   2.318   0.063   1.703  0.2171 -0.0798 -0.2279
 4371SOL    HW124746   2.411   0.042   1.704 -0.0029 -0.9875  1.3523
 4371SOL    HW224747   2.297   0.107   1.621  1.2634 -0.3328 -0.6308
 4372SOL     OW24748   3.113   3.640   3.536 -0.2072 -0.9234 -0.4168
 4372SOL    HW124749   3.126   3.552   3.572 -1.7885 -1.5714 -1.3876
 4372SOL    HW224750   3.202   3.675   3.532 -1.0269  1.1299 -0.5676
 4373SOL     OW24751   3.450   2.162   6.444  0.5669 -0.7312 -0.0407
 4373SOL    HW124752   3.416   2.155   6.355  0.3514  1.4101 -0.1239
 4373SOL    HW224753   3.509   2.237   6.441 -0.0789 -0.3047 -2.3070
 4374SOL     OW24754   3.399   2.647   5.278 -0.0025 -0.1038  0.5382
 4374SOL    HW124755   3.494   2.640   5.264  0.0860 -1.7201  1.9049
 4374SOL    HW224756   3.397   2.577   5.344 -0.7634  1.7086  2.4471
 4375SOL     OW24757   0.358   0.042  12.161  0.2550 -0.0661 -0.3447
 4375SOL    HW124758   0.294   0.098  12.117  0.7015 -0.9062 -2.0639
 4375SOL    HW224759   0.410   0.104  12.211 -0.0070 -1.2341  1.3965
 4376SOL     OW24760   0.855   3.324   6.836  0.6644 -0.0994 -0.8845
 4376SOL    HW124761   0.927   3.265   6.815  3.0428  3.0906 -1.5712
 4376SOL    HW224762   0.778   3.266   6.830 -0.4466  1.2800 -0.0178
 4377SOL     OW24763   2.153   4.097   6.992  1.0478 -0.4125 -0.6711
 4377SOL    HW124764   2.170   4.176   7.043  2.3219 -0.9101 -0.3235
 4377SOL    HW224765   2.203   4.106   6.910  0.4901 -0.1513 -0.9859
 4378SOL     OW24766   2.281   0.585   3.455  0.1732 -0.4710 -0.3872
 4378SOL    HW124767   2.244   0.502   3.486  1.5231 -0.8659  0.1639
 4378SOL    HW224768   2.361   0.555   3.411  1.8280  1.5443  1.2757
 4379SOL     OW24769   0.590   3.419  17.733  0.1051  0.3071  0.4576
 4379SOL    HW124770   0.664   3.362   0.008  0.5767  1.1553  1.0918
 4379SOL    HW224771   0.621   3.490   0.043 -1.7792  1.4248  0.0839
 4380SOL     OW24772   1.795   3.115  13.702 -0.4731 -0.2709  0.4826
 4380SOL    HW124773   1.881   3.148  13.675  0.0608 -2.1536 -0.0969
 4380SOL    HW224774   1.810   3.102  13.795  0.0126  1.5178  0.6526
 4381SOL     OW24775   2.142   3.290   7.393 -0.3348 -0.1931  0.2805
 4381SOL    HW124776   2.133   3.276   7.487  0.0188 -1.9781  0.0628
 4381SOL    HW224777   2.186   3.208   7.369  0.8447  0.5693 -0.1580
 4382SOL     OW24778   3.066   2.002  11.258  0.2130  0.0940 -0.5859
 4382SOL    HW124779   3.146   2.051  11.272  0.2745  0.2811 -1.6017
 4382SOL    HW224780   3.007   2.064  11.215  0.4588  1.4621  1.0585
 4383SOL     OW24781   0.196   3.855  15.999  0.1999 -0.1630 -0.0893
 4383SOL    HW124782   0.274   3.836  16.050  0.2161  2.0777  0.7197
 4383SOL    HW224783   0.142   3.891  16.070 -1.6990 -1.6701 -0.7770
 4384SOL     OW24784   2.605   0.051  16.294  0.2842  0.1971 -0.3044
 4384SOL    HW124785   2.550   4.714  16.321  0.4895  0.3134  0.4503
 4384SOL    HW224786   2.691   0.019  16.266  0.4829 -1.1479  1.7854
 4385SOL     OW24787   0.799   1.679   0.606 -0.1813 -0.4238 -0.4979
 4385SOL    HW124788   0.754   1.597   0.584 -2.0904  0.3619  0.4191
 4385SOL    HW224789   0.892   1.657   0.603 -0.7582 -3.1972  1.3029
 4386SOL     OW24790   3.818   0.702  11.982  0.3460 -0.2531  0.9526
 4386SOL    HW124791   3.886   0.760  11.947 -0.2655  0.5549  1.1077
 4386SOL    HW224792   3.748   0.748  11.935 -1.3314  1.0663  4.7514
 4387SOL     OW24793   0.931   1.323   0.001  0.3298 -0.1717  0.2179
 4387SOL    HW124794   1.026   1.314  17.737  0.4904  0.7242  1.0449
 4387SOL    HW224795   0.902   1.287  17.663 -1.5946  0.4933  0.5837
 4388SOL     OW24796   0.434   4.054  12.505 -0.0656 -0.6454 -0.1521
 4388SOL    HW124797   0.408   4.044  12.414  0.8942 -1.9424 -0.2872
 4388SOL    HW224798   0.517   4.099  12.485  0.9224 -1.9081  1.1224
 4389SOL     OW24799   0.105   3.611   7.029  0.1991 -0.6475  0.4119
 4389SOL    HW124800   0.157   3.552   7.083 -0.6772 -1.7858  0.0221
 4389SOL    HW224801   0.162   3.687   7.016 -0.1190 -0.2190  1.5331
 4390SOL     OW24802   2.853   2.888   3.006  0.1945 -0.6348  0.1242
 4390SOL    HW124803   2.839   2.936   2.925 -0.1552  0.5754  0.9064
 4390SOL    HW224804   2.859   2.800   2.969 -0.1727 -0.3895 -0.5154
 4391SOL     OW24805   3.621   1.692  14.227 -0.0029  0.0158 -0.1362
 4391SOL    HW124806   3.695   1.696  14.166 -0.8593  3.3489 -0.9405
 4391SOL    HW224807   3.656   1.679  14.315  0.9703 -1.2191 -0.7091
 4392SOL     OW24808   2.821   3.058   6.157 -0.1897  0.5240 -0.4928
 4392SOL    HW124809   2.917   3.055   6.162 -0.1927  2.1060  0.5886
 4392SOL    HW224810   2.809   3.086   6.067 -1.7205  1.1989 -0.0720
 4393SOL     OW24811   1.780   0.341   2.362  0.8585  0.3400  0.1185
 4393SOL    HW124812   1.834   0.327   2.440  0.5956 -1.5222 -0.0338
 4393SOL    HW224813   1.732   0.420   2.386  0.3516 -0.2214  0.9243
 4394SOL     OW24814   3.099   3.640   8.197 -0.2004 -0.0040  0.5436
 4394SOL    HW124815   3.106   3.544   8.196 -3.3898 -0.2363 -0.3010
 4394SOL    HW224816   3.166   3.667   8.259 -0.0042  0.2741  0.2055
 4395SOL     OW24817   4.135   3.224   9.776  0.2928  0.3691  0.5798
 4395SOL    HW124818   4.110   3.305   9.732 -0.5232 -0.3544 -0.2923
 4395SOL    HW224819   4.060   3.165   9.787  0.7636 -0.5909 -1.3947
 4396SOL     OW24820   0.466   3.542   7.444 -0.3667  0.9039 -0.5892
 4396SOL    HW124821   0.460   3.638   7.441  1.9438  1.1181  0.8962
 4396SOL    HW224822   0.540   3.527   7.385 -0.0175 -0.1167  0.1101
 4397SOL     OW24823   3.642   2.014   2.953  0.2689 -0.0114 -0.2882
 4397SOL    HW124824   3.674   2.065   2.878  0.1729  1.0328  0.3826
 4397SOL    HW224825   3.549   2.009   2.934  0.2665 -0.3889 -0.1700
 4398SOL     OW24826   2.922   1.720   4.853  0.2898 -0.3715  0.3787
 4398SOL    HW124827   2.950   1.733   4.944 -0.1464 -0.4647  0.5295
 4398SOL    HW224828   2.859   1.648   4.859  0.7533 -0.8147 -0.1004
 4399SOL     OW24829   1.988   0.344   2.168  0.6554 -0.5632  0.1973
 4399SOL    HW124830   1.969   0.431   2.132 -0.1889 -0.4521  0.9263
 4399SOL    HW224831   1.919   0.340   2.234  2.4402  1.9029  2.1760
 4400SOL     OW24832   0.342   4.543   0.328 -0.0999  0.5561 -0.3898
 4400SOL    HW124833   0.321   4.479   0.396  1.4148  1.1155  0.6070
 4400SOL    HW224834   0.437   4.534   0.326 -0.1219  0.3336 -0.5304
 4401SOL     OW24835   1.881   1.047   4.469 -0.3181 -0.0384  0.4091
 4401SOL    HW124836   1.918   1.034   4.557  1.8541 -0.3850 -0.5630
 4401SOL    HW224837   1.868   1.141   4.460  1.8679  0.4488  2.1449
 4402SOL     OW24838   1.050   2.899   3.744  0.6224 -0.5022  0.3024
 4402SOL    HW124839   1.115   2.895   3.813 -0.2709 -0.5633  1.1449
 4402SOL    HW224840   0.977   2.856   3.790 -1.2312 -1.5936 -3.6410
 4403SOL     OW24841   4.096   2.866   3.757 -0.6260  0.2441 -0.0382
 4403SOL    HW124842   4.177   2.912   3.780  0.3167 -1.4010 -0.0055
 4403SOL    HW224843   4.072   2.834   3.844 -1.5366 -0.2048 -0.4573
 4404SOL     OW24844   2.128   0.550   2.719  0.0138 -0.6931 -0.3977
 4404SOL    HW124845   2.126   0.570   2.813 -0.9782 -1.4336 -0.2569
 4404SOL    HW224846   2.213   0.585   2.692 -0.3299  0.4118 -0.0691
 4405SOL     OW24847   3.405   3.265   5.690 -0.0688  0.6461 -0.3551
 4405SOL    HW124848   3.429   3.185   5.642  1.7174  0.1534  1.3802
 4405SOL    HW224849   3.388   3.236   5.779 -3.0109  0.5309 -0.9494
 4406SOL     OW24850   3.101   2.795  16.677  0.4323  0.2292 -0.2790
 4406SOL    HW124851   3.196   2.799  16.684  0.4931 -0.6823 -0.5426
 4406SOL    HW224852   3.087   2.707  16.643  2.7614  0.8180 -2.7720
 4407SOL     OW24853   4.146   2.795   4.472  0.1015 -0.4745 -0.6013
 4407SOL    HW124854   4.084   2.751   4.529 -0.7564  1.9260  0.3416
 4407SOL    HW224855   4.148   2.885   4.506  0.4185 -0.6607 -0.1396
 4408SOL     OW24856   1.563   2.434   2.414  0.5884 -0.0737  0.3930
 4408SOL    HW124857   1.506   2.500   2.454 -0.2409  0.5204 -1.7509
 4408SOL    HW224858   1.505   2.387   2.354 -0.1768 -0.1882  1.2348
 4409SOL     OW24859   1.135   0.680   9.818  0.1340  0.0612  0.7610
 4409SOL    HW124860   1.066   0.620   9.789  1.8147 -1.0177 -0.9036
 4409SOL    HW224861   1.083   0.743   9.869 -1.0542 -0.3519  0.0767
 4410SOL     OW24862   4.105   3.947   9.429 -0.4313 -0.0141 -0.2412
 4410SOL    HW124863   4.078   3.966   9.519  1.2181 -1.0996  0.4736
 4410SOL    HW224864   4.190   3.906   9.444 -0.3946 -0.2454 -1.0802
 4411SOL     OW24865   3.439   1.240   5.041 -0.3675 -0.0996 -0.3088
 4411SOL    HW124866   3.525   1.256   5.002  0.4337 -3.9044 -0.0526
 4411SOL    HW224867   3.463   1.208   5.128 -0.3894 -0.1231 -0.3113
 4412SOL     OW24868   2.615   1.031   8.115  0.0120  0.3137 -0.5177
 4412SOL    HW124869   2.636   0.946   8.154 -0.2692  0.6362  0.3326
 4412SOL    HW224870   2.595   1.004   8.025  4.0182 -2.3402 -0.6157
 4413SOL     OW24871   3.345   2.661  17.524  0.1109 -0.1098  0.4447
 4413SOL    HW124872   3.336   2.736  17.465  0.1135 -0.5265 -0.0848
 4413SOL    HW224873   3.439   2.675  17.538  0.4150 -1.2191 -0.5038
 4414SOL     OW24874   4.430   2.020  10.933  0.0314  0.4595 -0.3677
 4414SOL    HW124875   4.425   2.115  10.939 -0.4732  0.4302 -0.2979
 4414SOL    HW224876   4.485   2.016  11.012  0.8178 -0.2311 -0.9552
 4415SOL     OW24877   2.771   3.571  10.312  0.0954 -0.1070  0.2512
 4415SOL    HW124878   2.769   3.510  10.238  0.1053 -1.1928  1.1506
 4415SOL    HW224879   2.767   3.655  10.267 -0.9466 -1.3388 -1.9808
 4416SOL     OW24880   0.475   0.879   0.605 -0.0063 -0.0609  0.1501
 4416SOL    HW124881   0.384   0.858   0.627 -0.1819  1.1171  0.5376
 4416SOL    HW224882   0.499   0.954   0.659  1.9284 -1.5240  1.3312
 4417SOL     OW24883   4.417   3.502   5.288 -0.8886 -0.3232 -0.6949
 4417SOL    HW124884   4.336   3.488   5.338  0.4758 -1.2172  1.2531
 4417SOL    HW224885   4.488   3.453   5.329 -0.7278 -1.1169 -1.9132
 4418SOL     OW24886   3.944   4.594   6.925  0.3802 -0.0603 -0.5312
 4418SOL    HW124887   3.965   4.622   6.836 -2.2742  0.8918 -0.8337
 4418SOL    HW224888   3.964   4.673   6.974 -1.1526  0.2642 -0.4329
 4419SOL     OW24889   3.625   3.430   5.637 -0.0811  0.4267  0.0538
 4419SOL    HW124890   3.536   3.395   5.634  0.1179 -0.0838  0.1787
 4419SOL    HW224891   3.668   3.389   5.711 -1.4438 -2.1851 -0.5953
 4420SOL     OW24892   0.035   2.460   3.875 -0.0261  0.3212  0.1910
 4420SOL    HW124893   4.685   2.481   3.841 -0.0357  2.1018  1.2711
 4420SOL    HW224894   0.024   2.505   3.959 -0.0513 -0.9199  0.8531
 4421SOL     OW24895   4.388   0.619   3.629  0.0171  0.4943  0.2433
 4421SOL    HW124896   4.391   0.527   3.652 -1.4322  0.0808 -1.2257
 4421SOL    HW224897   4.351   0.618   3.540  0.6116  3.2006 -0.0384
 4422SOL     OW24898   0.459   1.276  16.652 -0.0867 -0.2176  0.1075
 4422SOL    HW124899   0.380   1.243  16.697 -2.3857  0.7314 -3.2040
 4422SOL    HW224900   0.523   1.250  16.717 -0.5336  0.7033  0.9176
 4423SOL     OW24901   2.078   3.949   1.237 -0.2550  0.0217  0.0398
 4423SOL    HW124902   2.028   4.017   1.193  0.0925 -0.1379 -0.5931
 4423SOL    HW224903   2.095   3.996   1.319 -1.0809 -0.4048  0.4600
 4424SOL     OW24904   0.896   1.627   6.640  0.7738  0.1866 -0.0343
 4424SOL    HW124905   0.978   1.584   6.616  0.7721 -0.3403  0.8932
 4424SOL    HW224906   0.844   1.610   6.561  0.3218  3.0440 -0.3743
 4425SOL     OW24907   2.233   0.809   4.578 -0.1979  0.1733 -0.3512
 4425SOL    HW124908   2.313   0.794   4.527 -0.1842  0.5214 -0.4316
 4425SOL    HW224909   2.268   0.873   4.639 -0.7241  0.3054 -0.1888
 4426SOL     OW24910   2.497   1.592   4.599 -0.0882 -0.3752 -0.0941
 4426SOL    HW124911   2.414   1.547   4.582 -0.5592  1.1378 -1.8288
 4426SOL    HW224912   2.519   1.541   4.677  2.4504 -0.3002 -0.7842
 4427SOL     OW24913   3.119   2.713  11.136  0.1365  0.0415 -0.3052
 4427SOL    HW124914   3.055   2.643  11.122 -0.1137  0.1195  0.4692
 4427SOL    HW224915   3.140   2.704  11.228 -0.6178 -1.8475 -0.3010
 4428SOL     OW24916   1.621   4.144   7.045 -0.3796  0.4457  0.4110
 4428SOL    HW124917   1.687   4.140   6.976 -0.4572  1.6797  0.2676
 4428SOL    HW224918   1.664   4.191   7.117  0.4399  1.2600 -0.6193
 4429SOL     OW24919   3.734   1.867   8.346 -0.1612  0.4793  0.1839
 4429SOL    HW124920   3.790   1.912   8.282  0.5828  0.3751  0.7591
 4429SOL    HW224921   3.735   1.911   8.431  1.3654 -2.1429  1.5306
 4430SOL     OW24922   1.720   2.986   9.446  0.5526  0.3459 -0.0328
 4430SOL    HW124923   1.776   2.956   9.517 -1.1343 -0.5153  0.9219
 4430SOL    HW224924   1.776   3.025   9.378 -0.1425 -2.4518 -2.1871
 4431SOL     OW24925   4.430   2.694   8.234  0.4478 -0.3356 -0.7127
 4431SOL    HW124926   4.510   2.698   8.286 -0.1524  0.2708  0.1772
 4431SOL    HW224927   4.438   2.776   8.187 -2.3223  0.7301  0.6456
 4432SOL     OW24928   2.575   2.753  16.484 -0.2140 -0.3140  0.3226
 4432SOL    HW124929   2.637   2.689  16.449 -0.2397 -0.9161  1.3761
 4432SOL    HW224930   2.629   2.828  16.457 -0.9134 -0.2789 -1.0058
 4433SOL     OW24931   1.423   3.765   7.799 -0.2404 -0.8823  0.1963
 4433SOL    HW124932   1.479   3.702   7.753  0.1338 -1.7230  1.8171
 4433SOL    HW224933   1.451   3.752   7.889  0.4084 -0.5959  0.0392
 4434SOL     OW24934   4.277   1.109   6.619  0.2686 -0.4200  0.0100
 4434SOL    HW124935   4.220   1.138   6.690 -1.5384  0.6343 -1.8969
 4434SOL    HW224936   4.255   1.016   6.620 -0.5256 -0.2473 -1.5891
 4435SOL     OW24937   2.029   3.304   8.510  0.4810  0.2293 -0.2570
 4435SOL    HW124938   2.030   3.393   8.475 -0.5906  0.2099 -0.3315
 4435SOL    HW224939   2.068   3.243   8.447  1.7805  1.5517 -0.7380
 4436SOL     OW24940   3.122   1.317   5.667 -0.4106 -0.3990  0.0731
 4436SOL    HW124941   3.191   1.324   5.601  1.4555 -2.0993  1.8245
 4436SOL    HW224942   3.084   1.231   5.651  1.2400 -0.7532 -1.8974
 4437SOL     OW24943   4.253   4.385   2.614 -0.0171 -0.1692 -0.4589
 4437SOL    HW124944   4.172   4.394   2.564  0.4105 -0.0266 -1.1232
 4437SOL    HW224945   4.225   4.413   2.701 -2.1361  0.4821 -1.3697
 4438SOL     OW24946   3.917   0.638   1.395  0.6669  0.3718 -0.5237
 4438SOL    HW124947   3.862   0.692   1.337  0.2097  2.0066  1.4569
 4438SOL    HW224948   3.941   0.712   1.451 -2.5118  0.7247  0.3815
 4439SOL     OW24949   4.068   0.957   9.211 -0.4393  0.7244  0.1866
 4439SOL    HW124950   4.157   0.936   9.241  0.3868  1.7056 -1.5484
 4439SOL    HW224951   4.032   0.996   9.290  1.0019  1.3859  0.5292
 4440SOL     OW24952   3.625   2.934  13.820  0.3542 -0.1693  0.7454
 4440SOL    HW124953   3.718   2.937  13.842  0.6218 -0.0713 -0.4139
 4440SOL    HW224954   3.612   3.028  13.804  1.1812  0.0643  1.4605
 4441SOL     OW24955   2.885   2.456   4.061  0.1714 -0.1067 -0.4261
 4441SOL    HW124956   2.878   2.513   4.138 -0.2462  0.0065 -0.5449
 4441SOL    HW224957   2.869   2.535   4.010 -0.2343  0.2802  0.2853
 4442SOL     OW24958   1.732   3.530   9.964  0.1200 -0.3369 -0.7761
 4442SOL    HW124959   1.676   3.456   9.940 -0.1816 -0.5889  0.6985
 4442SOL    HW224960   1.708   3.528  10.056 -0.6710  0.6111 -0.9707
 4443SOL     OW24961   3.830   3.693   1.793 -0.2586  0.5231 -0.1968
 4443SOL    HW124962   3.894   3.730   1.853  0.7810 -0.3189 -0.7849
 4443SOL    HW224963   3.761   3.672   1.857  0.8675 -2.9401 -0.1154
 4444SOL     OW24964   2.604   3.164   0.697  0.1320  0.2244  0.2273
 4444SOL    HW124965   2.646   3.087   0.659 -1.1240  0.0728 -0.8589
 4444SOL    HW224966   2.676   3.201   0.748  1.4942 -1.5290 -0.4300
 4445SOL     OW24967   1.604   0.246   8.154 -0.1062  0.3327 -0.5639
 4445SOL    HW124968   1.693   0.211   8.153 -1.0859 -2.1744 -0.2434
 4445SOL    HW224969   1.594   0.305   8.229  0.5495  0.7753 -0.8248
 4446SOL     OW24970   3.860   0.966   4.201 -0.2297  0.0519  0.3718
 4446SOL    HW124971   3.788   1.022   4.173 -1.4486 -1.0387  1.3317
 4446SOL    HW224972   3.825   0.941   4.287  0.8129 -0.7697  0.5595
 4447SOL     OW24973   2.624   1.505  16.263  0.0680  0.3317  0.1266
 4447SOL    HW124974   2.670   1.587  16.242 -2.0354  1.5421  0.2671
 4447SOL    HW224975   2.555   1.532  16.323 -1.2845  0.1202 -1.3327
 4448SOL     OW24976   3.471   3.202   5.351  0.0799  0.1487 -0.1876
 4448SOL    HW124977   3.386   3.158   5.344  0.0405  0.1597  0.2233
 4448SOL    HW224978   3.520   3.123   5.372  1.4576  0.3767 -2.5566
 4449SOL     OW24979   4.144   1.955   3.447  0.0658 -0.3403  0.9969
 4449SOL    HW124980   4.051   1.956   3.470 -0.1313  0.6580  0.1620
 4449SOL    HW224981   4.130   1.978   3.355  0.9436 -0.0870  0.9298
 4450SOL     OW24982   3.478   3.621   2.444  0.1270  0.4694 -0.6369
 4450SOL    HW124983   3.501   3.708   2.475 -0.3781  0.2320  0.4179
 4450SOL    HW224984   3.523   3.611   2.360  1.9228  0.7560  0.2929
 4451SOL     OW24985   3.937   1.756   6.967 -0.5926 -0.0490  0.5335
 4451SOL    HW124986   3.866   1.818   6.948 -2.0791 -1.6559  0.8043
 4451SOL    HW224987   3.897   1.696   7.029  1.1653 -2.1347 -0.3612
 4452SOL     OW24988   2.131   4.240   9.986  0.1862  0.1854 -0.3620
 4452SOL    HW124989   2.168   4.321   9.953  1.6029  0.3509  1.5940
 4452SOL    HW224990   2.205   4.180   9.997 -0.8748 -1.1595 -0.6026
 4453SOL     OW24991   4.313   1.697  11.189  0.3678 -0.0855 -0.3991
 4453SOL    HW124992   4.230   1.744  11.197  3.1324  4.8434 -0.2495
 4453SOL    HW224993   4.366   1.758  11.242 -1.7345  1.4482 -0.0365
 4454SOL     OW24994   0.804   4.353  17.356  0.0305  0.4841  0.2103
 4454SOL    HW124995   0.815   4.436  17.402  0.2118  0.5856 -0.0167
 4454SOL    HW224996   0.821   4.300  17.435 -1.1908  1.5595  1.1850
 4455SOL     OW24997   4.099   2.505   5.425 -0.4472  0.5077 -0.6789
 4455SOL    HW124998   4.040   2.472   5.357  1.6530  0.3325 -2.4423
 4455SOL    HW224999   4.071   2.595   5.443 -0.1887  0.7985 -1.7522
 4456SOL     OW25000   1.206   1.622   0.932  0.1870 -0.0272  0.2357
 4456SOL    HW125001   1.137   1.594   0.991 -0.1004  1.4734  0.6185
 4456SOL    HW225002   1.203   1.718   0.941  0.1382 -0.0463  0.4158
 4457SOL     OW25003   3.619   2.288   1.676  0.4300 -0.4964  0.7492
 4457SOL    HW125004   3.548   2.353   1.671  1.2830  0.0575 -3.6143
 4457SOL    HW225005   3.581   2.237   1.748 -2.1408  0.4228  0.0552
 4458SOL     OW25006   4.326   2.667   9.181  0.8411 -0.8520  0.1169
 4458SOL    HW125007   4.414   2.639   9.155  1.6544 -0.3104  2.3056
 4458SOL    HW225008   4.283   2.583   9.165 -2.0410  0.7611 -0.5878
 4459SOL     OW25009   4.261   4.544  13.380  0.0227  0.2787  0.2165
 4459SOL    HW125010   4.207   4.585  13.313  0.1494  0.4857  0.2408
 4459SOL    HW225011   4.347   4.545  13.338 -0.2964 -1.8357 -0.4877
 4460SOL     OW25012   0.834   1.694   7.688 -0.4879 -0.4400  0.3374
 4460SOL    HW125013   0.824   1.615   7.741 -0.0405  0.0563  1.1632
 4460SOL    HW225014   0.800   1.665   7.603 -0.4076 -0.0244  0.1651
 4461SOL     OW25015   4.443   2.467   6.093 -0.2376  0.2046 -0.7518
 4461SOL    HW125016   4.415   2.379   6.120  0.5413  0.6776  1.6631
 4461SOL    HW225017   4.400   2.518   6.162 -2.0716 -1.3177 -0.7342
 4462SOL     OW25018   4.163   1.013   4.768 -0.0536 -0.0492 -0.5914
 4462SOL    HW125019   4.236   1.012   4.705 -0.5849  1.8686 -1.2483
 4462SOL    HW225020   4.088   1.023   4.710 -0.6756  1.8229  0.5263
 4463SOL     OW25021   1.538   4.233   9.124  0.7461  0.2966 -0.1571
 4463SOL    HW125022   1.604   4.165   9.136  2.7679  1.6268 -3.5750
 4463SOL    HW225023   1.534   4.268   9.213  1.0552  0.2075 -0.1058
 4464SOL     OW25024   1.786   3.236   4.191 -0.6197 -0.2227 -0.3091
 4464SOL    HW125025   1.852   3.194   4.245 -0.5051 -2.5261 -2.2151
 4464SOL    HW225026   1.703   3.237   4.238 -0.8893 -1.4614 -0.7547
 4465SOL     OW25027   2.132   2.301   8.797  0.1346  0.0325  0.0726
 4465SOL    HW125028   2.103   2.247   8.724 -0.1543 -1.8050  1.5517
 4465SOL    HW225029   2.225   2.290   8.779 -0.2673 -0.7001 -1.5491
 4466SOL     OW25030   3.710   2.434   5.962 -0.2883 -0.4222 -0.7553
 4466SOL    HW125031   3.642   2.439   6.029 -0.1929  1.6218 -0.7988
 4466SOL    HW225032   3.675   2.499   5.901 -0.0678 -1.9358 -2.4861
 4467SOL     OW25033   2.502   1.364   8.612  0.3062 -0.2675 -0.3236
 4467SOL    HW125034   2.468   1.345   8.525  0.6505 -1.8965 -0.1190
 4467SOL    HW225035   2.577   1.419   8.589  1.1489 -1.0431  0.5407
 4468SOL     OW25036   4.597   4.184   8.043 -0.5277 -0.2098  0.3001
 4468SOL    HW125037   4.510   4.154   8.070 -0.3941 -1.1791 -0.3643
 4468SOL    HW225038   4.626   4.182   8.135 -1.0605 -0.1009  0.4738
 4469SOL     OW25039   1.877   2.492   4.427 -0.1842 -0.0903 -0.2220
 4469SOL    HW125040   1.968   2.463   4.419  0.5011  1.7962  0.6882
 4469SOL    HW225041   1.893   2.555   4.498 -0.0581 -0.0928 -0.2486
 4470SOL     OW25042   1.707   0.465   6.524 -0.0832 -0.5402  0.3643
 4470SOL    HW125043   1.645   0.450   6.453 -1.6407  3.0943  0.9657
 4470SOL    HW225044   1.660   0.431   6.600  2.4294  0.3768  2.3073
 4471SOL     OW25045   1.073   4.048   9.028  0.3709  0.2160  0.2050
 4471SOL    HW125046   1.167   4.066   9.024  0.3668  0.3876  0.8602
 4471SOL    HW225047   1.059   4.126   9.083  1.8358 -0.2872  1.3080
 4472SOL     OW25048   3.291   0.158   2.220 -0.6079 -0.3017  0.3560
 4472SOL    HW125049   3.251   0.080   2.180  1.5636 -0.0134 -2.4285
 4472SOL    HW225050   3.215   0.196   2.262 -0.0156 -0.6209  1.7149
 4473SOL     OW25051   1.873   1.285   2.840  0.0407  0.1495 -0.1703
 4473SOL    HW125052   1.942   1.230   2.801  1.2835  0.1071  2.0728
 4473SOL    HW225053   1.867   1.354   2.775  1.2609  0.6640  0.2565
 4474SOL     OW25054   1.402   3.671   4.702  0.3895 -0.1588 -0.2107
 4474SOL    HW125055   1.491   3.659   4.668  0.0581 -1.6704 -0.5727
 4474SOL    HW225056   1.343   3.647   4.630 -0.1838  1.9650 -0.4377
 4475SOL     OW25057   4.008   2.363  11.101  0.1369 -0.0581 -0.8331
 4475SOL    HW125058   4.084   2.420  11.100  0.5212 -0.5499  0.4299
 4475SOL    HW225059   3.992   2.334  11.011  1.2609 -1.2363 -0.6505
 4476SOL     OW25060   1.767   3.564   4.737 -0.8650 -0.2313 -0.1139
 4476SOL    HW125061   1.724   3.559   4.651 -1.4889  2.3531  0.0556
 4476SOL    HW225062   1.784   3.475   4.767 -0.2629 -0.4038 -0.9566
 4477SOL     OW25063   1.906   3.608  10.389  0.3087 -0.1836 -0.0595
 4477SOL    HW125064   1.909   3.702  10.371  0.2705 -0.2922 -0.6390
 4477SOL    HW225065   1.862   3.627  10.472  0.8346  1.2632 -0.1136
 4478SOL     OW25066   1.845   2.135   7.067 -0.1994  0.3836  0.2044
 4478SOL    HW125067   1.888   2.055   7.037  1.4395  1.1996  0.3660
 4478SOL    HW225068   1.834   2.184   6.986 -1.9054 -2.1318 -1.0836
 4479SOL     OW25069   4.315   1.960   5.816  0.5977 -0.3312  0.1029
 4479SOL    HW125070   4.221   1.976   5.828  0.2282 -1.9720 -0.4766
 4479SOL    HW225071   4.343   2.049   5.797  0.1170 -0.6532 -2.1097
 4480SOL     OW25072   0.756   3.733  14.638 -0.0427  0.4398  0.1834
 4480SOL    HW125073   0.714   3.658  14.596  0.2498  1.0904 -1.2537
 4480SOL    HW225074   0.741   3.710  14.730  1.6216 -0.8823  0.1380
 4481SOL     OW25075   3.224   4.106   7.090 -0.2899  0.0949 -0.3324
 4481SOL    HW125076   3.261   4.022   7.065  0.6012  0.5449 -0.5531
 4481SOL    HW225077   3.147   4.089   7.143  0.6979  2.0499  1.7787
 4482SOL     OW25078   2.126   4.108   6.024 -0.3313  0.2736 -0.2815
 4482SOL    HW125079   2.216   4.083   6.003 -0.8703 -0.8744 -1.2313
 4482SOL    HW225080   2.127   4.204   6.029  4.2492  0.1251  1.7607
 4483SOL     OW25081   1.191   3.529   3.913 -0.4733  0.1531  0.1171
 4483SOL    HW125082   1.189   3.451   3.858 -0.5538  1.1483 -1.2867
 4483SOL    HW225083   1.113   3.565   3.872 -1.3151 -1.9449 -0.1092
 4484SOL     OW25084   0.328   1.045   0.972  0.0920  0.3553 -0.4332
 4484SOL    HW125085   0.405   1.067   0.919 -0.8838 -0.7423 -2.3254
 4484SOL    HW225086   0.264   1.105   0.933 -0.1420  0.4227  0.0645
 4485SOL     OW25087   1.772   2.569   6.940 -0.0328  0.7954  0.1104
 4485SOL    HW125088   1.688   2.539   6.974  0.3928 -1.4124 -0.7752
 4485SOL    HW225089   1.754   2.657   6.905 -0.8851  1.0224  1.1453
 4486SOL     OW25090   1.688   3.722   7.437 -0.9846 -0.4744  0.2069
 4486SOL    HW125091   1.609   3.774   7.451 -0.3090  0.5870  0.0741
 4486SOL    HW225092   1.737   3.788   7.387 -1.3469  0.6299  1.3033
 4487SOL     OW25093   4.433   4.189  15.485 -0.3748  0.3243  0.1140
 4487SOL    HW125094   4.425   4.101  15.522  0.5788 -0.6510 -1.9704
 4487SOL    HW225095   4.353   4.227  15.521 -0.6792  0.1235 -0.3432
 4488SOL     OW25096   1.600   0.591   1.956  0.4822  0.5403 -0.1532
 4488SOL    HW125097   1.613   0.629   1.869 -0.9691 -1.0342 -1.0853
 4488SOL    HW225098   1.521   0.637   1.985  1.0386  0.2158  1.8566
 4489SOL     OW25099   2.814   1.452   5.162 -0.1783 -0.1038  0.6903
 4489SOL    HW125100   2.737   1.479   5.211 -1.0927  1.0866 -1.3824
 4489SOL    HW225101   2.832   1.527   5.106  0.3669 -0.7234  0.0213
 4490SOL     OW25102   0.931   3.683   1.767  0.3051  0.0371 -0.0947
 4490SOL    HW125103   1.010   3.630   1.769 -0.0847 -0.5181  0.3940
 4490SOL    HW225104   0.930   3.714   1.677 -1.5646  0.3706  0.0388
 4491SOL     OW25105   3.705   4.721   3.014 -0.2300  0.1570  0.6220
 4491SOL    HW125106   3.687   0.076   3.034 -1.8685  0.2098 -1.1174
 4491SOL    HW225107   3.722   4.721   2.920 -0.9620 -1.7265  0.4858
 4492SOL     OW25108   2.030   4.507   3.922  0.0248  0.4042  0.0560
 4492SOL    HW125109   1.956   4.472   3.873 -0.2024  1.2509 -0.2152
 4492SOL    HW225110   2.070   4.434   3.969 -1.1802 -0.0876  0.3134
 4493SOL     OW25111   1.628   2.692   2.173  0.0829  0.4122 -0.2995
 4493SOL    HW125112   1.611   2.781   2.143 -0.9366  0.2510 -0.1695
 4493SOL    HW225113   1.621   2.703   2.268  0.2075 -1.4544 -0.0623
 4494SOL     OW25114   0.832   1.350   2.630 -0.3242 -0.2120  0.1319
 4494SOL    HW125115   0.821   1.437   2.668  0.3085 -0.1762  0.2333
 4494SOL    HW225116   0.925   1.334   2.615 -0.1774  0.5788  0.1659
 4495SOL     OW25117   2.046   2.157   2.794 -0.7500  0.0074  0.0092
 4495SOL    HW125118   2.011   2.227   2.850 -0.0838 -0.1529  0.6127
 4495SOL    HW225119   2.040   2.086   2.858 -0.5512 -0.4978 -0.5350
 4496SOL     OW25120   3.211   0.524  11.384  0.1390 -0.1947 -0.2557
 4496SOL    HW125121   3.201   0.596  11.321  0.5498 -0.4962 -0.6590
 4496SOL    HW225122   3.259   0.568  11.454 -0.8698 -0.6515  0.7186
 4497SOL     OW25123   0.421   2.151   5.247  0.7966 -1.0873  0.4911
 4497SOL    HW125124   0.425   2.198   5.330  1.1586  0.3929 -0.3571
 4497SOL    HW225125   0.410   2.222   5.184  0.3059 -1.9606 -0.3984
 4498SOL     OW25126   0.322   0.572   8.935  0.2895 -0.0844 -0.1623
 4498SOL    HW125127   0.309   0.488   8.980 -3.6472  0.0442 -1.0218
 4498SOL    HW225128   0.257   0.628   8.977 -0.2706 -0.6740 -0.2384
 4499SOL     OW25129   3.560   3.773  12.457  0.2879  0.2317  0.1614
 4499SOL    HW125130   3.535   3.763  12.549  1.3634 -1.1006  0.3133
 4499SOL    HW225131   3.629   3.837  12.472  1.3855 -1.1436  0.9113
 4500SOL     OW25132   1.498   4.441  13.837 -1.0441  0.4548 -0.6868
 4500SOL    HW125133   1.510   4.381  13.764  0.3476  0.9652 -0.8749
 4500SOL    HW225134   1.432   4.497  13.796 -0.4737  0.4914 -1.5578
 4501SOL     OW25135   0.682   1.449   8.914 -0.1619 -0.0034  0.3957
 4501SOL    HW125136   0.759   1.505   8.899  0.8501 -1.5529 -0.2004
 4501SOL    HW225137   0.611   1.485   8.860  0.6516 -0.1759 -0.7942
 4502SOL     OW25138   3.860   2.911   9.298  0.4827  0.5724 -0.3745
 4502SOL    HW125139   3.953   2.892   9.281 -0.5209 -0.4059 -4.6820
 4502SOL    HW225140   3.862   2.912   9.394 -0.5604  2.1527 -0.3788
 4503SOL     OW25141   4.718   2.345   6.347 -0.7605  0.0322 -0.0573
 4503SOL    HW125142   4.692   2.435   6.324  0.9294  0.4622 -0.2328
 4503SOL    HW225143   4.676   2.336   6.432  1.9549 -2.2655  1.0020
 4504SOL     OW25144   1.740   4.144  11.693 -0.3456 -0.1138 -0.1838
 4504SOL    HW125145   1.807   4.120  11.629 -0.3220 -0.5442  0.0017
 4504SOL    HW225146   1.783   4.223  11.727 -0.4139  0.6803 -1.9311
 4505SOL     OW25147   1.586   1.495  10.544 -0.0554  0.1917  0.0500
 4505SOL    HW125148   1.504   1.541  10.562 -0.6761 -1.1702  0.7038
 4505SOL    HW225149   1.560   1.425  10.484  2.2566 -0.9968  0.4511
 4506SOL     OW25150   0.891   1.115  13.552 -0.7499  0.5758 -0.2209
 4506SOL    HW125151   0.958   1.178  13.528  0.1455  0.2005  1.3240
 4506SOL    HW225152   0.946   1.068  13.615 -1.8152 -0.8277 -0.3301
 4507SOL     OW25153   4.395   2.217   3.132  0.1781  0.3886  0.4076
 4507SOL    HW125154   4.377   2.278   3.203  0.1423 -0.3857  1.0561
 4507SOL    HW225155   4.443   2.153   3.185 -2.5177 -2.5110 -0.6741
 4508SOL     OW25156   0.580   0.556   7.293 -0.6568 -0.2284  0.3881
 4508SOL    HW125157   0.532   0.591   7.218  0.9175  0.8849 -0.0913
 4508SOL    HW225158   0.615   0.472   7.263  0.1812  0.0453  0.5919
 4509SOL     OW25159   2.976   3.955   4.431  0.2082 -0.3703 -0.2872
 4509SOL    HW125160   3.070   3.969   4.423 -0.0588  3.0934  2.6261
 4509SOL    HW225161   2.976   3.965   4.526  0.2537 -1.4022 -0.1795
 4510SOL     OW25162   1.703   1.404   2.156 -0.6046 -0.8458  0.1175
 4510SOL    HW125163   1.754   1.324   2.147 -1.5071 -1.3254 -0.7294
 4510SOL    HW225164   1.696   1.435   2.065 -2.3774  2.5842  1.4064
 4511SOL     OW25165   0.261   1.826  12.740 -0.4440  0.5245  0.2023
 4511SOL    HW125166   0.230   1.775  12.815  1.9929 -0.3279  0.6547
 4511SOL    HW225167   0.352   1.850  12.759 -0.2835  0.5509 -0.5832
 4512SOL     OW25168   0.833   2.799   6.937 -0.2326 -0.4749 -0.1548
 4512SOL    HW125169   0.799   2.714   6.909 -0.4868 -0.0511 -1.1239
 4512SOL    HW225170   0.909   2.802   6.879 -0.1589  1.1869  0.0280
 4513SOL     OW25171   0.562   2.537   7.987 -0.2548 -0.0416  0.1191
 4513SOL    HW125172   0.623   2.478   7.942  0.5507  0.5143  0.4830
 4513SOL    HW225173   0.611   2.549   8.069  0.7983  0.0924 -0.5254
 4514SOL     OW25174   2.351   1.599   2.842 -0.7040 -0.2068  0.0278
 4514SOL    HW125175   2.306   1.527   2.797  0.6438 -1.7198  1.0841
 4514SOL    HW225176   2.411   1.551   2.899  2.1393  0.8170 -2.0382
 4515SOL     OW25177   0.642   4.282   4.225 -0.3316 -0.0036 -0.3838
 4515SOL    HW125178   0.594   4.200   4.224 -1.6189  0.7538 -0.3647
 4515SOL    HW225179   0.699   4.272   4.149 -0.4594 -0.8853 -0.3583
 4516SOL     OW25180   4.496   3.719   7.621 -0.0254 -0.0748 -0.3654
 4516SOL    HW125181   4.531   3.713   7.710 -0.8188  2.7538  0.1306
 4516SOL    HW225182   4.413   3.762   7.644 -0.4487 -2.6853  2.9760
 4517SOL     OW25183   3.255   4.110   5.972 -0.2914 -0.1371 -0.4746
 4517SOL    HW125184   3.224   4.100   5.882 -0.1622 -1.7354 -0.3432
 4517SOL    HW225185   3.237   4.021   6.003  0.7594 -0.9085 -2.0527
 4518SOL     OW25186   1.406   0.332   7.467  0.3358  0.8318  0.0479
 4518SOL    HW125187   1.412   0.424   7.443 -3.1290  0.9509 -0.2480
 4518SOL    HW225188   1.314   0.317   7.447  0.9976  0.0425 -2.4409
 4519SOL     OW25189   0.379   2.893   3.956  0.0812 -0.0156 -0.2730
 4519SOL    HW125190   0.408   2.893   4.047 -0.2651  1.0791 -0.1625
 4519SOL    HW225191   0.288   2.924   3.955  0.0128 -0.1618  1.8208
 4520SOL     OW25192   1.731   0.986  15.855 -0.1787  0.2257  0.5474
 4520SOL    HW125193   1.813   0.954  15.892 -0.1123  0.6351  0.7516
 4520SOL    HW225194   1.750   0.988  15.761 -1.9220  0.1865  0.1772
 4521SOL     OW25195   1.652   1.953   0.592  0.0027 -0.4745 -0.2956
 4521SOL    HW125196   1.590   1.882   0.609 -2.4395  1.2575 -2.0967
 4521SOL    HW225197   1.642   2.017   0.663  2.8000 -0.7330  0.3402
 4522SOL     OW25198   4.300   1.820   0.329  0.2937  0.1257  0.8598
 4522SOL    HW125199   4.207   1.839   0.317  0.2332  0.9090  2.6109
 4522SOL    HW225200   4.320   1.776   0.246  3.1586  1.2885  0.9436
 4523SOL     OW25201   2.291   4.307   0.685 -0.3757 -0.2445 -0.0130
 4523SOL    HW125202   2.306   4.257   0.604 -0.6084 -3.0771  1.6849
 4523SOL    HW225203   2.292   4.231   0.743 -1.0474 -0.1028  0.1849
 4524SOL     OW25204   1.357   2.240   2.286 -0.1618 -0.3828  0.2971
 4524SOL    HW125205   1.298   2.308   2.254  2.3803  1.7437  0.0943
 4524SOL    HW225206   1.340   2.171   2.221  0.1120  0.8827 -1.1138
 4525SOL     OW25207   1.485   3.141   4.121  0.1482  0.4782 -0.1364
 4525SOL    HW125208   1.449   3.056   4.147  1.9756 -0.6752 -1.4204
 4525SOL    HW225209   1.408   3.197   4.131  0.5385  0.8863  0.5814
 4526SOL     OW25210   2.414   4.055   6.394 -0.0349 -0.3506  0.0136
 4526SOL    HW125211   2.438   4.024   6.481  0.0882  0.5050  0.2864
 4526SOL    HW225212   2.490   4.028   6.342  0.5198  2.9948 -0.8979
 4527SOL     OW25213   1.415   1.580   1.769 -0.2470 -0.1622 -0.3267
 4527SOL    HW125214   1.333   1.587   1.818 -0.6939 -0.5764 -1.0194
 4527SOL    HW225215   1.389   1.636   1.696  0.8597 -0.3616 -0.8722
 4528SOL     OW25216   4.437   0.424   0.301 -0.6674  0.1451  0.1977
 4528SOL    HW125217   4.427   0.353   0.237  1.5411  1.6469 -1.8261
 4528SOL    HW225218   4.373   0.484   0.263  1.0866  2.1608  0.3851
 4529SOL     OW25219   4.520   2.506   6.631  0.6652 -0.4024  0.0645
 4529SOL    HW125220   4.531   2.505   6.726  4.1621  0.3341 -0.3470
 4529SOL    HW225221   4.466   2.581   6.607  1.3489  0.8466  2.4197
 4530SOL     OW25222   0.088   3.033   7.933  0.1946 -0.1779  0.0048
 4530SOL    HW125223   0.067   2.940   7.946 -2.7666  0.3196 -1.2885
 4530SOL    HW225224   0.015   3.065   7.880 -0.2995 -0.4824  0.5057
 4531SOL     OW25225   4.165   4.099   2.361  0.3440  0.7129  0.3437
 4531SOL    HW125226   4.153   4.141   2.276  0.8979  0.5260  0.1672
 4531SOL    HW225227   4.084   4.116   2.409 -0.6733 -1.4686 -0.5871
 4532SOL     OW25228   1.296   2.493  17.031  0.1471  0.0173  0.6967
 4532SOL    HW125229   1.276   2.549  17.106  2.0855  0.9099  0.5549
 4532SOL    HW225230   1.391   2.487  17.044  0.3919  0.1346 -1.0247
 4533SOL     OW25231   2.371   3.918   2.458 -0.2946 -0.7662 -0.1288
 4533SOL    HW125232   2.315   3.955   2.526 -0.2714 -0.7477 -0.1199
 4533SOL    HW225233   2.438   3.877   2.512 -1.8156 -0.7722  1.7640
 4534SOL     OW25234   0.395   2.426   7.044 -0.0861 -0.3460  0.0296
 4534SOL    HW125235   0.303   2.430   7.071  0.3176  3.2592  0.8040
 4534SOL    HW225236   0.419   2.495   7.106  1.2492  1.3248 -2.3596
 4535SOL     OW25237   4.438   4.618   5.921  0.2208  0.4397 -0.0315
 4535SOL    HW125238   4.365   4.679   5.935  0.2756  0.4853  0.0499
 4535SOL    HW225239   4.411   4.575   5.840  2.1358 -1.3451  0.2857
 4536SOL     OW25240   4.474   3.113   6.998 -0.2462 -0.0378  0.6392
 4536SOL    HW125241   4.492   3.023   6.970  0.2227 -0.8380  3.5239
 4536SOL    HW225242   4.399   3.094   7.055  0.7168 -2.2311  1.1807
 4537SOL     OW25243   1.448   3.479   8.657  0.1091  0.1022 -0.4444
 4537SOL    HW125244   1.531   3.498   8.702 -0.2954 -0.3946  0.4956
 4537SOL    HW225245   1.393   3.472   8.735 -0.6869  0.6450 -0.9628
 4538SOL     OW25246   3.906   3.295  13.402 -0.2790 -0.2070  0.0216
 4538SOL    HW125247   3.997   3.318  13.382 -0.2032 -0.0887  0.5070
 4538SOL    HW225248   3.880   3.284  13.311  0.4174  4.5009 -0.7363
 4539SOL     OW25249   0.748   1.093   3.352 -0.1959  0.0449 -0.4661
 4539SOL    HW125250   0.809   1.149   3.400  1.2531 -2.7742  0.9538
 4539SOL    HW225251   0.661   1.129   3.371  0.6950  0.1840  3.4364
 4540SOL     OW25252   2.603   4.210   8.358 -0.0204 -0.2831 -0.0122
 4540SOL    HW125253   2.510   4.189   8.346 -0.0434  0.1728 -0.6357
 4540SOL    HW225254   2.627   4.192   8.267  1.4989 -0.3835  0.4073
 4541SOL     OW25255   1.859   2.842  10.758 -0.6421 -0.4374  0.0482
 4541SOL    HW125256   1.790   2.877  10.701  0.9452 -0.5917 -1.9621
 4541SOL    HW225257   1.937   2.890  10.729  0.1413 -0.7082  1.7055
 4542SOL     OW25258   3.063   1.639   4.498  0.4175 -0.4087  0.7550
 4542SOL    HW125259   3.012   1.593   4.431 -0.9763  1.6851  0.4011
 4542SOL    HW225260   3.077   1.577   4.570  2.0758  0.9225  1.5717
 4543SOL     OW25261   3.761   3.644   8.649  0.2855 -0.1537  0.3589
 4543SOL    HW125262   3.699   3.578   8.681 -1.5570  0.9192 -1.0606
 4543SOL    HW225263   3.804   3.582   8.589  0.0887  2.0392 -2.0106
 4544SOL     OW25264   4.253   1.676   9.075 -0.2717  0.2882  0.5355
 4544SOL    HW125265   4.225   1.669   8.984 -2.5496  2.0421  1.1008
 4544SOL    HW225266   4.186   1.622   9.116  0.8762  0.2108  2.3290
 4545SOL     OW25267   1.084   0.603   7.906  0.5248 -0.4841  0.3132
 4545SOL    HW125268   1.040   0.519   7.891 -2.0711  1.1799 -1.5008
 4545SOL    HW225269   1.156   0.599   7.843  0.4013  1.6684  0.0191
 4546SOL     OW25270   2.997   2.665   7.602  0.5943  0.2425 -0.6578
 4546SOL    HW125271   3.020   2.572   7.596 -0.4770 -0.0553 -0.3109
 4546SOL    HW225272   3.083   2.700   7.582  1.3266 -0.7713  0.7641
 4547SOL     OW25273   1.264   1.962   8.796  0.0212  0.2780  0.0174
 4547SOL    HW125274   1.212   1.909   8.736 -0.0491  0.9940 -0.5540
 4547SOL    HW225275   1.301   1.899   8.857 -0.9187  0.2466  0.5525
 4548SOL     OW25276   1.636   2.630   8.222  0.3409  0.6065 -0.4573
 4548SOL    HW125277   1.618   2.536   8.229 -1.5575  1.1549  2.2030
 4548SOL    HW225278   1.585   2.670   8.292 -0.4693 -0.5170 -0.3956
 4549SOL     OW25279   0.226   2.584   8.079 -0.2031 -0.4844 -0.1825
 4549SOL    HW125280   0.211   2.489   8.084 -0.4050 -0.2520  3.5738
 4549SOL    HW225281   0.291   2.598   8.010  0.3677  1.3897  0.7204
 4550SOL     OW25282   3.796   0.274   2.733  0.7409 -0.5951 -0.4164
 4550SOL    HW125283   3.770   0.315   2.650 -0.4934  0.8564  0.6831
 4550SOL    HW225284   3.772   0.342   2.796 -0.1399 -3.0402  1.8766
 4551SOL     OW25285   0.210   4.288   5.983 -0.2730 -0.5238  0.6788
 4551SOL    HW125286   0.193   4.347   5.909  2.2066  1.1469  1.4208
 4551SOL    HW225287   0.213   4.203   5.940 -0.6232  0.7329 -1.8385
 4552SOL     OW25288   2.892   4.378   4.515  0.0961  0.0972  0.2330
 4552SOL    HW125289   2.980   4.368   4.479 -0.3555 -0.3594 -0.7491
 4552SOL    HW225290   2.913   4.453   4.571  1.8102 -0.9345  0.9452
 4553SOL     OW25291   3.280   0.220   4.703 -0.9004 -0.3501  0.3295
 4553SOL    HW125292   3.330   0.252   4.628  0.9158 -2.5672  0.5830
 4553SOL    HW225293   3.329   0.264   4.773  0.1536  0.9915 -1.2366
 4554SOL     OW25294   4.337   2.727   3.946  0.1279 -0.2557 -0.1681
 4554SOL    HW125295   4.345   2.793   3.876  0.3354  1.9126  1.8829
 4554SOL    HW225296   4.258   2.679   3.923  1.5741 -1.5130 -2.5461
 4555SOL     OW25297   1.773   4.578   4.122 -0.2350  0.0461 -0.4631
 4555SOL    HW125298   1.804   4.503   4.071  2.3562 -0.5488  2.0036
 4555SOL    HW225299   1.752   4.537   4.206  0.4654 -1.4957 -1.0252
 4556SOL     OW25300   1.441   3.097  14.724 -0.1223 -0.0883 -0.2341
 4556SOL    HW125301   1.507   3.063  14.664  0.1628 -1.0280  0.6010
 4556SOL    HW225302   1.387   3.019  14.741  1.3713 -0.7795  1.3366
 4557SOL     OW25303   2.139   1.693   3.736  0.0655 -0.5092 -0.3128
 4557SOL    HW125304   2.061   1.687   3.681 -1.2825  0.6407  1.4876
 4557SOL    HW225305   2.191   1.747   3.677  1.8400 -0.8968  0.8856
 4558SOL     OW25306   0.018   1.578   4.399  0.4138  0.1641 -0.7342
 4558SOL    HW125307   0.025   1.516   4.471 -1.2150  0.5907 -0.2171
 4558SOL    HW225308   0.098   1.627   4.416  0.7419  0.0945 -2.0760
 4559SOL     OW25309   2.718   3.918   6.275  0.3413  0.2877  0.6855
 4559SOL    HW125310   2.707   3.920   6.371 -0.5566  0.3911  0.5795
 4559SOL    HW225311   2.767   3.840   6.249  4.2752  3.7454 -2.1983
 4560SOL     OW25312   4.649   4.629   1.519  0.6193  0.4203 -0.1827
 4560SOL    HW125313   4.620   4.539   1.508 -0.2205  0.4604  1.6787
 4560SOL    HW225314   4.642   4.642   1.613 -3.3863  1.3114 -0.5835
 4561SOL     OW25315   0.113   3.049   1.380  0.0566  0.1020  0.2555
 4561SOL    HW125316   0.085   2.992   1.309  2.6800  0.4400 -1.0624
 4561SOL    HW225317   0.032   3.069   1.427  0.8292  1.2740  1.0852
 4562SOL     OW25318   4.338   4.655   3.925  0.6936 -0.6466  0.1462
 4562SOL    HW125319   4.352   4.566   3.958  1.0390 -0.6330  0.0356
 4562SOL    HW225320   4.393   4.706   3.984  0.3854  0.1321 -0.2362
 4563SOL     OW25321   2.237   0.987   4.170 -0.4019  0.1439  0.1029
 4563SOL    HW125322   2.160   1.031   4.135 -0.0883  0.6091  0.0090
 4563SOL    HW225323   2.256   0.910   4.116  1.5254 -1.1872  2.6749
 4564SOL     OW25324   0.899   2.474  10.378 -0.1022 -0.6462 -0.2369
 4564SOL    HW125325   0.963   2.526  10.329 -2.4215  1.4630 -1.0858
 4564SOL    HW225326   0.894   2.393  10.327 -2.0327 -0.9328  0.3953
 4565SOL     OW25327   3.202   0.837   8.504  0.1202  0.0990  0.2471
 4565SOL    HW125328   3.184   0.772   8.436  0.0342 -1.8615  2.1364
 4565SOL    HW225329   3.139   0.800   8.566 -1.4236 -1.0346 -1.9707
 4566SOL     OW25330   3.241   1.475   2.820  0.6281  0.6253  0.0565
 4566SOL    HW125331   3.274   1.561   2.796  0.5091  1.1961  2.0009
 4566SOL    HW225332   3.271   1.429   2.741 -1.5143 -1.4161  0.4221
 4567SOL     OW25333   0.100   2.313   0.862  0.4974 -0.0564  0.1687
 4567SOL    HW125334   0.055   2.289   0.781  0.6319 -0.8500  0.3270
 4567SOL    HW225335   0.191   2.313   0.834  0.2632  0.7199 -0.6173
 4568SOL     OW25336   4.525   3.831   4.444  1.2430  0.0549 -0.6676
 4568SOL    HW125337   4.459   3.857   4.508  0.6545 -2.5312 -0.2486
 4568SOL    HW225338   4.550   3.750   4.488  1.0063  0.0548 -0.5344
 4569SOL     OW25339   0.217   3.228   4.709  0.2469  0.2087 -0.2678
 4569SOL    HW125340   0.312   3.235   4.695  0.5447  1.3583  2.2993
 4569SOL    HW225341   0.208   3.141   4.749 -0.4597  1.1100  1.5144
 4570SOL     OW25342   0.933   3.943   4.319  0.1837 -0.0067 -0.1940
 4570SOL    HW125343   0.969   3.861   4.284  0.6278 -1.1336  2.8643
 4570SOL    HW225344   0.981   3.998   4.258  1.8359 -1.5294 -0.2718
 4571SOL     OW25345   3.422   3.642   5.800  0.2290 -0.3636  0.3906
 4571SOL    HW125346   3.374   3.588   5.738  1.7756 -0.8009 -0.4403
 4571SOL    HW225347   3.359   3.710   5.825  1.5675  1.2122 -0.5118
 4572SOL     OW25348   3.330   3.988   0.615  0.2460 -0.2078  0.1136
 4572SOL    HW125349   3.404   3.928   0.620 -1.1093 -1.9104  0.0723
 4572SOL    HW225350   3.294   3.978   0.703 -1.3558 -1.2821 -0.6439
 4573SOL     OW25351   0.175   0.499   7.062 -0.4020 -0.3850  0.2012
 4573SOL    HW125352   0.172   0.416   7.109 -0.0498 -2.3969 -3.3196
 4573SOL    HW225353   0.196   0.484   6.970 -2.4259 -1.2124 -0.1162
 4574SOL     OW25354   4.596   0.625   0.613  0.0815 -0.4518 -0.5685
 4574SOL    HW125355   4.602   0.531   0.624 -0.2922 -0.4393 -0.2648
 4574SOL    HW225356   4.548   0.621   0.530 -1.8133 -0.4240  0.5441
 4575SOL     OW25357   0.958   1.278   5.967  0.3163  0.1697  0.1501
 4575SOL    HW125358   1.027   1.338   5.937 -1.0148  1.3591 -0.5301
 4575SOL    HW225359   0.957   1.302   6.059  0.4937  2.1773 -0.3801
 4576SOL     OW25360   4.386   4.110   4.159  0.0716  0.3690  0.1789
 4576SOL    HW125361   4.441   4.140   4.231  0.7531 -0.9289  0.2053
 4576SOL    HW225362   4.431   4.141   4.080  0.5789 -1.1862 -0.1373
 4577SOL     OW25363   2.125   2.806   4.830 -0.0608  0.6391  0.6070
 4577SOL    HW125364   2.177   2.788   4.752 -0.3685  0.1085  0.5282
 4577SOL    HW225365   2.187   2.807   4.903  0.5387 -1.1434  0.1178
 4578SOL     OW25366   0.459   1.414   2.631  0.5530  0.3638 -0.3247
 4578SOL    HW125367   0.376   1.398   2.585  0.0786  0.8593  0.3603
 4578SOL    HW225368   0.494   1.325   2.628  2.8304  1.1816  2.7146
 4579SOL     OW25369   0.009   2.055  14.716  0.0892 -0.5283 -0.0429
 4579SOL    HW125370   4.680   2.010  14.769 -0.4319  2.0650  1.5197
 4579SOL    HW225371   4.694   2.109  14.657  0.8020 -0.3848 -0.5308
 4580SOL     OW25372   0.472   3.131   1.312 -0.3909 -0.4773 -0.5804
 4580SOL    HW125373   0.442   3.113   1.401 -0.2317 -0.6799 -0.5657
 4580SOL    HW225374   0.511   3.218   1.317  1.3580 -1.2234 -0.9266
 4581SOL     OW25375   1.447   2.925   3.346 -0.0877  0.0182  0.4165
 4581SOL    HW125376   1.391   2.939   3.422 -0.4428 -0.0561  0.1685
 4581SOL    HW225377   1.488   3.010   3.329 -0.2950 -0.0214 -0.2845
 4582SOL     OW25378   4.403   0.501   5.975 -0.5549 -0.9102 -0.0364
 4582SOL    HW125379   4.317   0.543   5.984  0.4145  0.9657  0.2099
 4582SOL    HW225380   4.409   0.437   6.046 -0.2831  0.7260  1.4187
 4583SOL     OW25381   0.223   0.158   7.949 -0.0678 -0.5357 -0.4129
 4583SOL    HW125382   0.226   0.249   7.980  0.3581 -0.8239  0.3798
 4583SOL    HW225383   0.305   0.120   7.982 -0.9928 -0.9056  1.4509
 4584SOL     OW25384   4.138   4.308  12.675 -0.2282  0.0402 -0.1157
 4584SOL    HW125385   4.163   4.353  12.755  0.3194  0.1469 -0.3470
 4584SOL    HW225386   4.212   4.248  12.670  1.3679  1.9723  0.5687
 4585SOL     OW25387   1.021   0.936  11.327  0.3113 -0.5498 -0.4284
 4585SOL    HW125388   1.044   0.926  11.235 -1.2458 -4.0032 -0.4425
 4585SOL    HW225389   0.934   0.895  11.327 -0.1563  0.4246  0.5871
 4586SOL     OW25390   1.579   2.543  12.146  0.1821  0.3748  0.0076
 4586SOL    HW125391   1.540   2.630  12.147  0.9169  0.6865  1.1612
 4586SOL    HW225392   1.576   2.522  12.052  1.4836 -1.3092  0.3410
 4587SOL     OW25393   3.413   1.614   0.462  0.1191  0.2884  0.3764
 4587SOL    HW125394   3.364   1.696   0.459  1.4085  1.1708  3.0017
 4587SOL    HW225395   3.504   1.641   0.452  0.3759 -0.7141  0.0558
 4588SOL     OW25396   4.166   3.454   2.943 -0.3435 -0.6734  0.6133
 4588SOL    HW125397   4.151   3.371   2.988  0.8385 -1.2744 -0.0946
 4588SOL    HW225398   4.134   3.432   2.855  1.6227 -0.6523 -0.1296
 4589SOL     OW25399   0.771   1.387   6.491  0.0454  0.1559  0.0322
 4589SOL    HW125400   0.683   1.364   6.463 -0.7147  1.3091  1.4536
 4589SOL    HW225401   0.782   1.349   6.578  2.6265  3.1310  1.0121
 4590SOL     OW25402   1.178   3.678  15.950  0.1737 -0.2926 -0.1849
 4590SOL    HW125403   1.228   3.698  15.871 -1.5319  0.0284 -1.1936
 4590SOL    HW225404   1.155   3.768  15.974 -0.6717  0.1657 -2.7460
 4591SOL     OW25405   3.629   4.025   5.009 -0.5258  0.3567  0.0793
 4591SOL    HW125406   3.603   3.992   4.923 -0.1336 -2.2714  0.9947
 4591SOL    HW225407   3.700   4.086   4.990  0.1045  0.2147  2.0386
 4592SOL     OW25408   1.653   1.075  15.561  0.3038 -0.1111 -0.3611
 4592SOL    HW125409   1.700   1.103  15.483  3.2972 -1.5506  0.9227
 4592SOL    HW225410   1.571   1.089  15.514  1.0342  0.2939 -1.5031
 4593SOL     OW25411   4.473   3.575   0.985  0.3365  0.7185  0.5560
 4593SOL    HW125412   4.430   3.498   0.948 -1.3210  1.5193  0.7892
 4593SOL    HW225413   4.547   3.538   1.032  0.4650 -0.1893 -0.3645
 4594SOL     OW25414   2.233   4.201   6.740 -0.3120  0.2483 -0.2068
 4594SOL    HW125415   2.267   4.289   6.761  2.5854 -0.6598 -1.1389
 4594SOL    HW225416   2.150   4.224   6.698  0.4847  1.1930 -1.2818
 4595SOL     OW25417   2.186   2.567   9.389 -0.2248 -0.7788  0.1992
 4595SOL    HW125418   2.225   2.537   9.307  0.6385  1.4824 -0.2242
 4595SOL    HW225419   2.121   2.627   9.352  2.7609  3.2217  1.4596
 4596SOL     OW25420   4.507   3.486   8.463  0.1081 -0.0472 -0.0568
 4596SOL    HW125421   4.601   3.497   8.457  0.2192 -0.2737  1.3475
 4596SOL    HW225422   4.491   3.511   8.554  1.3184 -2.4250  0.7940
 4597SOL     OW25423   0.771   0.862   5.360 -0.6321 -0.2299 -0.4473
 4597SOL    HW125424   0.724   0.926   5.414 -1.2357  1.1578 -2.6147
 4597SOL    HW225425   0.772   0.906   5.275 -0.1688 -1.2226 -0.9616
 4598SOL     OW25426   0.607   2.850   2.804 -0.0787 -0.2117  0.4651
 4598SOL    HW125427   0.664   2.878   2.732  0.5290 -2.1030  0.2045
 4598SOL    HW225428   0.534   2.909   2.787  0.4604 -0.0235 -1.2330
 4599SOL     OW25429   0.348   4.666   2.755  0.2660 -0.2057 -0.1682
 4599SOL    HW125430   0.380   4.618   2.679  0.8194  0.4311 -0.3303
 4599SOL    HW225431   0.380   0.018   2.739  1.4477 -0.3968  1.1542
 4600SOL     OW25432   1.484   2.437   7.292  0.0997 -0.3826 -0.0349
 4600SOL    HW125433   1.542   2.381   7.344 -0.0223  0.5645  1.1014
 4600SOL    HW225434   1.404   2.387   7.279  0.1338 -0.2477 -0.7902
 4601SOL     OW25435   4.278   3.895   7.709  0.0481  0.2254 -0.1836
 4601SOL    HW125436   4.183   3.899   7.724  0.4415 -0.9432  2.7357
 4601SOL    HW225437   4.306   3.985   7.695  0.2941  0.1749 -0.0216
 4602SOL     OW25438   1.728   2.200  16.953  0.3111  0.6365 -0.2987
 4602SOL    HW125439   1.804   2.159  16.911  0.4900  2.4074 -1.7049
 4602SOL    HW225440   1.679   2.130  16.996  1.0968 -0.1649 -0.7040
 4603SOL     OW25441   1.207   2.526  13.665 -0.0945  0.0471 -0.3911
 4603SOL    HW125442   1.134   2.542  13.605 -1.4592 -0.5227  1.1400
 4603SOL    HW225443   1.271   2.582  13.621 -1.3903  1.0272 -1.0387
 4604SOL     OW25444   3.119   1.341   8.489 -0.1062  0.6338 -1.0543
 4604SOL    HW125445   3.210   1.367   8.482 -0.0021  0.6810  0.3232
 4604SOL    HW225446   3.142   1.252   8.515 -1.9133 -0.1694 -2.1848
 4605SOL     OW25447   3.540   1.133   3.643  0.0277 -0.1170  0.5508
 4605SOL    HW125448   3.460   1.163   3.599  0.2577  0.6123  0.6241
 4605SOL    HW225449   3.603   1.131   3.571  0.0930 -2.8143  0.6835
 4606SOL     OW25450   0.413   0.361   5.926 -0.0902  0.0952 -0.3723
 4606SOL    HW125451   0.343   0.416   5.962  0.1258  1.1034 -1.4797
 4606SOL    HW225452   0.387   0.336   5.837 -0.3581 -1.6310  0.1932
 4607SOL     OW25453   0.188   1.269   5.426 -0.3762 -0.5575  1.2493
 4607SOL    HW125454   0.133   1.346   5.418 -1.1614 -1.2253  0.1732
 4607SOL    HW225455   0.168   1.231   5.512  0.2894 -1.8200  0.8532
 4608SOL     OW25456   2.950   0.624  12.163 -0.1127 -0.1614  0.1796
 4608SOL    HW125457   2.991   0.654  12.082 -1.3193  2.0317  0.3979
 4608SOL    HW225458   3.021   0.653  12.221 -0.1429  1.4097 -0.6020
 4609SOL     OW25459   3.768   3.602  10.008 -0.2486 -0.6245  0.5166
 4609SOL    HW125460   3.752   3.643  10.094 -3.0787 -0.8536  0.1071
 4609SOL    HW225461   3.856   3.630   9.983 -0.5333 -0.4289 -0.2508
 4610SOL     OW25462   1.765   1.290   6.180  0.1285  0.4725  0.0965
 4610SOL    HW125463   1.738   1.286   6.088  1.5843  0.4551 -0.3300
 4610SOL    HW225464   1.770   1.195   6.189  0.2668  0.7384  2.6523
 4611SOL     OW25465   4.522   2.029   3.841 -0.3601  0.5463  0.2250
 4611SOL    HW125466   4.490   1.953   3.792  0.1142  0.5226 -0.0466
 4611SOL    HW225467   4.557   2.076   3.766  0.5170  1.2692  1.0770
 4612SOL     OW25468   2.812   1.045  13.781 -0.0424 -0.3062  0.3554
 4612SOL    HW125469   2.854   1.126  13.751 -1.3763 -0.4072 -1.7352
 4612SOL    HW225470   2.767   1.011  13.704  0.3772  1.9438 -0.8812
 4613SOL     OW25471   1.599   0.367   7.721  0.0133  0.5120 -0.1228
 4613SOL    HW125472   1.565   0.413   7.798  0.1484 -0.7849  0.7172
 4613SOL    HW225473   1.549   0.414   7.655 -1.1680 -0.8679 -0.1970
 4614SOL     OW25474   3.173   4.345  11.669 -0.0122  0.0695  0.4339
 4614SOL    HW125475   3.166   4.250  11.670 -0.6861  0.1299  1.3980
 4614SOL    HW225476   3.137   4.374  11.585 -0.8896 -2.1967  0.0389
 4615SOL     OW25477   2.000   3.932   5.479 -0.4713 -0.0640 -0.3145
 4615SOL    HW125478   1.928   3.877   5.449 -0.0164 -0.5778 -0.4712
 4615SOL    HW225479   1.985   3.953   5.571  2.9718 -1.5401  0.5848
 4616SOL     OW25480   4.253   2.183   5.395 -0.4556  0.1193  0.1088
 4616SOL    HW125481   4.299   2.261   5.363 -0.7924  0.0322 -0.5797
 4616SOL    HW225482   4.272   2.186   5.489 -0.1679 -1.2035  0.0959
 4617SOL     OW25483   1.765   4.142  10.360 -0.5166  0.0352 -0.1582
 4617SOL    HW125484   1.742   4.115  10.449 -0.5910 -0.2929 -0.2780
 4617SOL    HW225485   1.757   4.236  10.375  0.1199  0.1481 -0.5014
 4618SOL     OW25486   3.541   3.863  16.615 -0.3108  0.2587  0.1431
 4618SOL    HW125487   3.619   3.825  16.575 -0.0649  0.6051  0.3069
 4618SOL    HW225488   3.528   3.804  16.690  2.2987 -1.9575 -1.1288
 4619SOL     OW25489   0.512   1.279   5.717  0.0844 -0.0999 -0.3365
 4619SOL    HW125490   0.419   1.258   5.721  0.0799  0.0119  0.0917
 4619SOL    HW225491   0.548   1.211   5.774  0.9606 -1.1621 -2.1672
 4620SOL     OW25492   0.535   3.723   5.430  0.3614  0.2247 -0.2145
 4620SOL    HW125493   0.571   3.793   5.376 -0.6006  0.6956 -0.2366
 4620SOL    HW225494   0.614   3.669   5.440 -0.2837 -1.0261 -1.8103
 4621SOL     OW25495   3.842   0.394   8.422  0.2317 -0.1446  0.4125
 4621SOL    HW125496   3.820   0.335   8.351  0.1849  1.0371 -0.5468
 4621SOL    HW225497   3.936   0.405   8.405  0.2748 -2.5508 -0.8434
 4622SOL     OW25498   3.608   2.076  16.598  0.3399  0.0687  0.0503
 4622SOL    HW125499   3.530   2.058  16.650  0.4074 -0.3304  0.0176
 4622SOL    HW225500   3.663   2.003  16.626 -2.4067 -2.5807 -1.3991
 4623SOL     OW25501   4.445   0.871   7.538 -0.1075 -0.0762 -0.0093
 4623SOL    HW125502   4.538   0.861   7.559 -0.4325  0.1445  1.5898
 4623SOL    HW225503   4.431   0.799   7.477 -0.5059  1.4477 -1.6850
 4624SOL     OW25504   1.925   3.065   4.443 -0.3232 -0.3126  0.3516
 4624SOL    HW125505   1.853   3.005   4.460  0.5728 -0.9445  1.9219
 4624SOL    HW225506   2.002   3.009   4.454 -0.7231 -0.7963  0.6580
 4625SOL     OW25507   3.298   0.326  10.949  0.6786 -0.1396  0.3552
 4625SOL    HW125508   3.256   0.242  10.931  1.7019 -0.3817 -0.8469
 4625SOL    HW225509   3.373   0.334  10.891  0.2316 -0.1604 -0.2260
 4626SOL     OW25510   1.646   1.974  14.465 -0.0020 -0.4048  0.7955
 4626SOL    HW125511   1.617   1.889  14.497 -0.7926 -0.1104  0.8552
 4626SOL    HW225512   1.644   2.028  14.544 -0.6147  1.4320 -0.4536
 4627SOL     OW25513   3.560   2.456   9.473  0.0196  0.7426  0.2469
 4627SOL    HW125514   3.608   2.515   9.530 -0.0717  1.7184 -0.6915
 4627SOL    HW225515   3.533   2.399   9.545 -1.3179  0.0115 -0.8224
 4628SOL     OW25516   4.293   0.086  11.105  0.2616  0.3496  0.5317
 4628SOL    HW125517   4.388   0.087  11.114  0.2582  1.3390  0.4673
 4628SOL    HW225518   4.270   0.173  11.139 -0.6206  0.3123  0.0343
 4629SOL     OW25519   4.607   0.978   5.972  0.2583  0.1403  0.3917
 4629SOL    HW125520   4.527   0.929   5.958  1.2793 -1.8605  1.6108
 4629SOL    HW225521   4.622   1.013   5.884  1.9558 -2.3247 -0.2822
 4630SOL     OW25522   1.917   2.364   6.369 -0.2916 -0.4064 -0.1453
 4630SOL    HW125523   1.953   2.282   6.401  0.0812  0.0832  0.6732
 4630SOL    HW225524   1.886   2.404   6.450  1.7211 -1.4189  1.0944
 4631SOL     OW25525   3.039   4.148  10.580  0.3710  0.3368  0.1383
 4631SOL    HW125526   2.958   4.198  10.573 -0.7519 -1.7838 -1.7455
 4631SOL    HW225527   3.030   4.112  10.668 -1.5879 -0.8688 -0.5583
 4632SOL     OW25528   1.052   2.644   2.710 -0.4096  0.0864 -0.1769
 4632SOL    HW125529   1.048   2.613   2.619  0.9596 -1.6421  0.3627
 4632SOL    HW225530   0.976   2.702   2.720 -0.5455 -0.2022  0.4198
 4633SOL     OW25531   1.384   2.736   8.019  0.1916  0.2595  0.3361
 4633SOL    HW125532   1.407   2.664   7.959  2.3374  1.8448 -0.7577
 4633SOL    HW225533   1.327   2.787   7.962  0.7964  0.0837 -0.4359
 4634SOL     OW25534   1.201   1.417   9.306 -0.6063  0.3237  0.5075
 4634SOL    HW125535   1.244   1.430   9.222  0.2690  1.2406  1.0945
 4634SOL    HW225536   1.240   1.336   9.341  1.2097  1.3485  0.8804
 4635SOL     OW25537   0.170   1.486   8.860 -0.0497 -0.5924 -0.1656
 4635SOL    HW125538   0.202   1.532   8.782  1.6040 -1.4735 -0.0257
 4635SOL    HW225539   0.137   1.415   8.806 -2.5599  0.8752 -0.5202
 4636SOL     OW25540   1.468   3.466   6.894 -0.0931  0.2990  0.0729
 4636SOL    HW125541   1.398   3.474   6.829  0.6368  0.7914 -0.6408
 4636SOL    HW225542   1.510   3.389   6.856  1.8702  2.2579 -1.6818
 4637SOL     OW25543   1.495   2.743  13.762  0.2090  0.0383  0.0495
 4637SOL    HW125544   1.534   2.828  13.785  2.3270  0.2094 -4.0874
 4637SOL    HW225545   1.485   2.742  13.666  2.1481  0.0802 -0.1532
 4638SOL     OW25546   1.131   3.706  11.102 -0.7404 -0.2122 -0.2200
 4638SOL    HW125547   1.103   3.709  11.010  3.2652 -0.7042 -1.4346
 4638SOL    HW225548   1.099   3.618  11.124  1.3079 -0.0570  3.2664
 4639SOL     OW25549   0.711   0.802   4.205  0.0581  0.0263 -0.4426
 4639SOL    HW125550   0.626   0.834   4.176  0.6357  0.0451 -2.0737
 4639SOL    HW225551   0.719   0.737   4.135  0.0809  1.9034 -2.1785
 4640SOL     OW25552   0.257   2.586   5.937  0.0400 -0.7016  0.3072
 4640SOL    HW125553   0.304   2.503   5.939  0.2829 -0.5215  1.7516
 4640SOL    HW225554   0.169   2.548   5.945  0.1650 -1.2007 -0.6826
 4641SOL     OW25555   1.539   0.799   8.824  0.5358 -0.1280 -0.5826
 4641SOL    HW125556   1.634   0.810   8.827  0.4450  0.9605 -1.8025
 4641SOL    HW225557   1.498   0.863   8.766  0.2343  0.1488 -0.0614
 4642SOL     OW25558   3.355   0.918  15.941 -0.2115  0.6175 -0.1400
 4642SOL    HW125559   3.288   0.857  15.910  1.8103 -0.9988 -1.3996
 4642SOL    HW225560   3.418   0.902  15.871 -0.4305  3.3570 -0.9263
 4643SOL     OW25561   3.325   2.908   9.695 -0.3661 -0.4126  0.2672
 4643SOL    HW125562   3.248   2.959   9.668 -0.7253 -1.2808 -0.3738
 4643SOL    HW225563   3.359   2.873   9.613  0.6893 -2.6152  1.6572
 4644SOL     OW25564   1.833   2.343   5.061  0.8752 -0.2347  0.3332
 4644SOL    HW125565   1.751   2.342   5.109  0.5869 -0.9299 -0.1763
 4644SOL    HW225566   1.818   2.299   4.978 -3.1693 -3.3552  2.7409
 4645SOL     OW25567   2.544   4.466   6.608 -0.3517  0.2300 -0.5109
 4645SOL    HW125568   2.508   4.397   6.665  0.0054 -0.6765 -1.3854
 4645SOL    HW225569   2.634   4.433   6.602 -1.0309 -1.3058 -2.3158
 4646SOL     OW25570   0.493   4.077  15.088  0.4620 -0.7506  0.4239
 4646SOL    HW125571   0.542   4.159  15.097  0.6549 -0.6520 -1.4539
 4646SOL    HW225572   0.426   4.084  15.156 -1.6027 -0.3465 -1.6149
 4647SOL     OW25573   4.184   2.989  15.121  0.0600  0.1988  0.5418
 4647SOL    HW125574   4.238   2.989  15.200  0.9387 -0.5962 -0.0745
 4647SOL    HW225575   4.245   2.966  15.052  0.3303  1.5024  0.3405
 4648SOL     OW25576   0.260   2.623   4.234 -0.2085  0.5416  0.1478
 4648SOL    HW125577   0.263   2.605   4.140  1.8684  1.6827 -0.0129
 4648SOL    HW225578   0.166   2.642   4.240 -0.2129  0.5005  0.2117
 4649SOL     OW25579   4.493   4.523   9.124  0.3307  0.4650 -0.1478
 4649SOL    HW125580   4.572   4.504   9.175 -0.7684  0.5244  1.5624
 4649SOL    HW225581   4.522   4.566   9.044  1.2995 -0.2877 -0.2002
 4650SOL     OW25582   1.655   2.371   3.120 -0.2461 -0.1223  0.6004
 4650SOL    HW125583   1.569   2.386   3.159 -1.3079 -0.6223 -1.5347
 4650SOL    HW225584   1.666   2.278   3.101 -1.7855 -0.0802 -0.4631
 4651SOL     OW25585   2.201   2.436   3.040  0.3015 -0.5074 -0.4407
 4651SOL    HW125586   2.214   2.521   2.998  0.1426 -1.2474 -1.9579
 4651SOL    HW225587   2.240   2.371   2.983  2.5961 -0.8719  1.5418
 4652SOL     OW25588   2.005   0.710  10.823 -0.0746  0.0261 -0.0136
 4652SOL    HW125589   2.073   0.644  10.810 -0.5255 -0.6456  1.0812
 4652SOL    HW225590   2.006   0.710  10.918  0.7727  0.5333 -0.0314
 4653SOL     OW25591   3.601   1.661  14.935 -0.0430  0.0176 -0.0526
 4653SOL    HW125592   3.618   1.716  14.858 -0.6979 -0.0150 -0.2208
 4653SOL    HW225593   3.637   1.584  14.891 -1.8605  0.8935 -3.1294
 4654SOL     OW25594   2.129   3.497   6.402  0.2536  0.0268 -0.1086
 4654SOL    HW125595   2.200   3.539   6.352 -1.0085  3.6670  1.1701
 4654SOL    HW225596   2.102   3.442   6.329  0.4291 -1.0892  0.6747
 4655SOL     OW25597   2.174   0.497  12.997 -0.0334 -0.4985  0.1207
 4655SOL    HW125598   2.233   0.439  13.046  2.2122  0.5370 -1.3699
 4655SOL    HW225599   2.090   0.452  12.995 -0.7100  0.7186  1.2420
 4656SOL     OW25600   4.706   0.667  11.386  0.1995 -0.2375  0.2957
 4656SOL    HW125601   4.677   0.645  11.475 -0.4637  0.9140  0.3650
 4656SOL    HW225602   4.658   0.601  11.336 -0.9808  0.6981  0.1844
 4657SOL     OW25603   3.620   0.162  10.640  0.2055  0.2766  0.4130
 4657SOL    HW125604   3.708   0.154  10.676  0.0879 -3.2194 -0.0844
 4657SOL    HW225605   3.600   0.070  10.622 -0.0226  0.2707  0.7020
 4658SOL     OW25606   4.470   1.122   7.442 -0.3315  0.5503  0.5856
 4658SOL    HW125607   4.448   1.039   7.484 -0.0293  0.5170  0.6750
 4658SOL    HW225608   4.540   1.155   7.499  1.1308  1.1008 -1.5258
 4659SOL     OW25609   4.332   0.308   4.727 -0.3350  0.1639 -0.3077
 4659SOL    HW125610   4.263   0.366   4.758 -0.8443 -0.0049 -1.1296
 4659SOL    HW225611   4.305   0.220   4.755  1.3687 -0.0112  0.8113
 4660SOL     OW25612   2.588   3.831   8.162  0.3088 -0.5765  0.3628
 4660SOL    HW125613   2.673   3.788   8.148  0.2666 -0.9630  1.3064
 4660SOL    HW225614   2.547   3.808   8.079  0.3797  2.8332 -0.6340
 4661SOL     OW25615   0.776   3.559   8.426 -0.0136  0.3544  0.7138
 4661SOL    HW125616   0.830   3.486   8.455  0.7872 -0.0865 -1.9632
 4661SOL    HW225617   0.791   3.622   8.497  0.4599  0.2849  0.6702
 4662SOL     OW25618   2.100   0.211   9.024 -0.0221  1.0705 -0.1631
 4662SOL    HW125619   2.082   0.277   8.957 -2.0653  1.1498  0.4712
 4662SOL    HW225620   2.015   0.201   9.067 -0.0763  0.7592 -0.3423
 4663SOL     OW25621   4.512   4.269   7.381 -0.1546  0.2862  0.4414
 4663SOL    HW125622   4.560   4.330   7.437  0.8511  0.5244 -0.7070
 4663SOL    HW225623   4.428   4.263   7.427 -0.8000 -0.8745 -0.8742
 4664SOL     OW25624   3.162   2.431   3.980  0.0478 -0.7229  0.2240
 4664SOL    HW125625   3.066   2.435   3.977  0.0338 -0.0107  1.5597
 4664SOL    HW225626   3.197   2.484   3.909 -0.9626 -2.0033 -1.2326
 4665SOL     OW25627   0.490   3.396   4.663 -0.4510  0.4453 -0.0942
 4665SOL    HW125628   0.470   3.487   4.641 -1.6373 -0.5579 -3.1895
 4665SOL    HW225629   0.520   3.419   4.751 -0.3976 -2.0730  0.5414
 4666SOL     OW25630   1.425   2.186   1.584 -0.0533 -0.3871  0.2780
 4666SOL    HW125631   1.336   2.222   1.579 -0.9563 -2.4946  0.7974
 4666SOL    HW225632   1.439   2.168   1.491 -0.0688  0.2980  0.1446
 4667SOL     OW25633   4.636   1.978   6.530  0.3870  0.2675  0.2819
 4667SOL    HW125634   4.552   2.005   6.491  0.1828 -3.2114 -1.6525
 4667SOL    HW225635   4.608   1.934   6.610 -0.3981 -0.4953 -0.4093
 4668SOL     OW25636   3.909   4.077   6.614 -0.5282 -0.0714  0.2359
 4668SOL    HW125637   3.839   4.131   6.650  0.6767  2.0970 -0.6592
 4668SOL    HW225638   3.891   3.995   6.659 -0.4982 -0.4903 -0.5317
 4669SOL     OW25639   0.692   0.776   7.633 -0.0839 -0.7339  0.2821
 4669SOL    HW125640   0.718   0.805   7.545 -0.1993  0.4762  0.6434
 4669SOL    HW225641   0.650   0.696   7.603 -0.8678  0.3851 -1.6524
 4670SOL     OW25642   0.836   0.556   4.593 -0.1860 -0.6877 -0.4967
 4670SOL    HW125643   0.742   0.571   4.593  0.0352  0.6762  0.6304
 4670SOL    HW225644   0.843   0.461   4.604  1.4643 -0.6074 -0.8568
 4671SOL     OW25645   0.788   1.894   0.441  0.5305  0.1866  0.3301
 4671SOL    HW125646   0.778   1.966   0.503  2.4949 -0.2417  1.1554
 4671SOL    HW225647   0.775   1.824   0.505 -0.1617 -0.3961 -0.4541
 4672SOL     OW25648   0.841   0.142   8.587 -0.0711  0.2612 -0.0416
 4672SOL    HW125649   0.747   0.162   8.587  0.3732  2.3372  1.2799
 4672SOL    HW225650   0.881   0.221   8.551 -1.0568  0.3084 -1.0388
 4673SOL     OW25651   0.395   1.321   8.718 -0.0296  0.4923 -0.7099
 4673SOL    HW125652   0.401   1.412   8.748  0.1904  0.4579 -0.6551
 4673SOL    HW225653   0.315   1.296   8.764 -0.1547  0.5312 -0.9066
 4674SOL     OW25654   0.422   1.266   6.830  0.0909 -0.2487 -0.4468
 4674SOL    HW125655   0.421   1.257   6.925 -0.0094  0.1311 -0.4102
 4674SOL    HW225656   0.495   1.327   6.822 -0.4605  0.3806 -0.7119
 4675SOL     OW25657   4.557   3.759   5.925  0.0388  0.1222  0.0019
 4675SOL    HW125658   4.632   3.801   5.883 -0.3179 -0.3393 -1.1023
 4675SOL    HW225659   4.597   3.712   5.998  1.8037  0.6812 -0.5946
 4676SOL     OW25660   3.774   1.982   9.034 -0.5034  0.0884 -0.0068
 4676SOL    HW125661   3.806   1.897   9.003 -1.4066  0.3560 -1.6412
 4676SOL    HW225662   3.830   2.041   8.985  0.9900 -2.7021 -1.6892
 4677SOL     OW25663   3.494   4.458   3.053  0.6009 -0.4378  0.0850
 4677SOL    HW125664   3.573   4.472   3.106 -0.8769 -0.1426  2.2038
 4677SOL    HW225665   3.441   4.408   3.115 -0.9132 -0.3024 -1.1201
 4678SOL     OW25666   1.154   4.155   3.791 -0.1734  0.2760 -0.3203
 4678SOL    HW125667   1.157   4.114   3.705 -0.1778  2.8154 -1.5260
 4678SOL    HW225668   1.113   4.239   3.769  0.0555  0.0532 -1.5861
 4679SOL     OW25669   0.219   3.464   4.866  0.5142  0.3133 -0.5463
 4679SOL    HW125670   0.241   3.426   4.951 -0.3424  0.8994 -0.0658
 4679SOL    HW225671   0.231   3.393   4.803 -0.1495 -0.8730  0.6680
 4680SOL     OW25672   4.013   3.962  12.130 -0.0979 -0.0677 -0.8689
 4680SOL    HW125673   4.091   4.017  12.142  0.1901 -0.7285  0.3807
 4680SOL    HW225674   3.954   3.995  12.198 -0.0006 -1.7144  0.0219
 4681SOL     OW25675   0.618   1.125   3.898 -0.2413 -0.7271 -0.5710
 4681SOL    HW125676   0.582   1.190   3.837  0.8086  0.1163 -0.2819
 4681SOL    HW225677   0.574   1.041   3.883 -1.1760 -0.4825  0.7787
 4682SOL     OW25678   3.507   2.357   2.594  0.1864 -0.1128 -0.4341
 4682SOL    HW125679   3.416   2.328   2.588 -0.7414  2.6398  0.2340
 4682SOL    HW225680   3.499   2.452   2.589  1.6389  0.0954  0.9430
 4683SOL     OW25681   0.503   1.753   4.994  0.1923 -0.0411 -0.2145
 4683SOL    HW125682   0.416   1.786   5.017 -0.0103 -1.6281  1.2920
 4683SOL    HW225683   0.490   1.665   5.029  1.8505 -0.5838 -0.9518
 4684SOL     OW25684   1.945   1.119   7.884  0.6143  0.1439 -0.2089
 4684SOL    HW125685   2.007   1.075   7.941  0.3910  0.0716 -0.0201
 4684SOL    HW225686   1.884   1.048   7.865 -0.4657  0.3078  2.6406
 4685SOL     OW25687   1.593   2.722   3.474  0.0367  0.0916 -0.0359
 4685SOL    HW125688   1.558   2.798   3.428  1.0393  1.0414  0.7645
 4685SOL    HW225689   1.660   2.681   3.418  1.5241  1.2915  0.8780
 4686SOL     OW25690   1.469   4.132   4.385  0.1958 -0.1720  0.0958
 4686SOL    HW125691   1.389   4.168   4.348  0.2352 -1.9353 -1.7501
 4686SOL    HW225692   1.425   4.082   4.454  1.5672 -1.9753 -0.3220
 4687SOL     OW25693   0.871   3.428  10.214  0.0989 -0.0382 -0.0075
 4687SOL    HW125694   0.828   3.438  10.130  0.2345 -1.9294 -0.3189
 4687SOL    HW225695   0.923   3.348  10.207 -0.9557 -0.4360 -3.2237
 4688SOL     OW25696   3.986   0.717   4.707  0.9623  0.2830  0.1914
 4688SOL    HW125697   3.987   0.805   4.668 -1.3741  1.8938  3.7606
 4688SOL    HW225698   4.078   0.690   4.700  0.2523 -1.8545 -0.9478
 4689SOL     OW25699   0.618   4.309  17.029 -0.5448 -0.1171 -0.6097
 4689SOL    HW125700   0.588   4.348  16.947  1.0095  1.0372 -0.6373
 4689SOL    HW225701   0.711   4.328  17.016 -0.7587  2.5553  1.6152
 4690SOL     OW25702   2.286   0.784   7.015 -0.0232 -0.1572 -0.4794
 4690SOL    HW125703   2.334   0.814   6.938  1.0889  0.7284  0.5663
 4690SOL    HW225704   2.209   0.841   7.018  2.4818  3.0543  2.1071
 4691SOL     OW25705   3.599   3.351   0.247 -0.3418 -0.3091  0.2157
 4691SOL    HW125706   3.685   3.324   0.217 -1.2765 -2.1014 -0.8987
 4691SOL    HW225707   3.571   3.388   0.163  2.2335 -3.7804 -2.1832
 4692SOL     OW25708   4.630   0.929  12.512  0.2346 -0.2510 -0.8622
 4692SOL    HW125709   4.718   0.898  12.533 -0.7332 -2.3000  0.1644
 4692SOL    HW225710   4.602   0.844  12.478  1.8261 -1.3345  0.5203
 4693SOL     OW25711   4.160   0.249   5.260 -0.4822  0.1120 -0.5562
 4693SOL    HW125712   4.135   0.166   5.220 -1.5256 -0.9041  2.2094
 4693SOL    HW225713   4.186   0.299   5.183 -0.8062 -0.1307 -0.8217
 4694SOL     OW25714   3.364   4.308   9.556 -0.6019  0.2501 -0.9609
 4694SOL    HW125715   3.378   4.221   9.593 -2.4018  0.0263 -0.8287
 4694SOL    HW225716   3.400   4.303   9.468  0.3838  0.1448 -0.5488
 4695SOL     OW25717   2.714   3.901   4.339 -0.3827  0.7794 -0.1699
 4695SOL    HW125718   2.801   3.914   4.379 -1.2695 -1.6662  2.5094
 4695SOL    HW225719   2.742   3.920   4.249  1.4532  0.1416  0.2622
 4696SOL     OW25720   1.704   0.416  14.388 -0.2089  0.3230  0.1432
 4696SOL    HW125721   1.691   0.510  14.402  1.9217  0.4580  1.1858
 4696SOL    HW225722   1.628   0.380  14.433 -1.5637  1.9247 -0.8304
 4697SOL     OW25723   0.486   2.977   6.915 -0.4029 -0.2412 -0.4005
 4697SOL    HW125724   0.506   2.885   6.936  2.8339  0.6531  0.3039
 4697SOL    HW225725   0.449   3.012   6.996 -0.7691  0.0671 -0.7006
 4698SOL     OW25726   3.180   1.849   9.828  0.2655  0.7613  0.3658
 4698SOL    HW125727   3.264   1.887   9.803  1.0355 -0.7240  0.6740
 4698SOL    HW225728   3.123   1.925   9.842  0.8486  1.2136  0.2877
 4699SOL     OW25729   2.398   2.226   6.463 -0.3297 -0.4711 -0.2391
 4699SOL    HW125730   2.351   2.292   6.412 -0.3902  0.4115  0.9504
 4699SOL    HW225731   2.423   2.283   6.536 -0.7667 -1.9847  1.0722
 4700SOL     OW25732   2.085   0.468   8.922 -0.2501 -0.0519  0.1331
 4700SOL    HW125733   2.174   0.491   8.947 -0.1392 -0.4914  0.1494
 4700SOL    HW225734   2.083   0.474   8.826 -1.8743 -0.6891  0.1211
 4701SOL     OW25735   4.077   0.383   7.411 -0.0512  0.2917 -0.2032
 4701SOL    HW125736   4.093   0.400   7.319  0.3778  0.5588 -0.0786
 4701SOL    HW225737   3.981   0.380   7.408 -0.1590  1.9650  2.0944
 4702SOL     OW25738   3.964   2.804   8.600  0.5188 -0.5822 -0.5801
 4702SOL    HW125739   3.986   2.825   8.691 -0.9616 -0.8694 -0.1503
 4702SOL    HW225740   3.882   2.853   8.587  0.9622  0.1393 -0.6831
 4703SOL     OW25741   3.697   2.306   7.617  0.1971  0.3857  0.0901
 4703SOL    HW125742   3.762   2.262   7.671  0.4313  0.6463  0.0237
 4703SOL    HW225743   3.615   2.303   7.666 -0.5382  0.6421 -1.1108
 4704SOL     OW25744   0.981   2.604   9.314  0.4114  0.3495 -0.5885
 4704SOL    HW125745   0.987   2.689   9.270  0.9150  1.7896  2.2180
 4704SOL    HW225746   0.981   2.631   9.406 -1.3219  2.5985 -1.2515
 4705SOL     OW25747   4.530   3.388  10.512  0.4537 -0.3561  0.3550
 4705SOL    HW125748   4.510   3.482  10.512 -2.6035 -1.0133  0.3922
 4705SOL    HW225749   4.482   3.366  10.592  1.0394 -0.6318  0.6310
 4706SOL     OW25750   2.898   1.953   7.575  0.0074  0.0987 -0.0454
 4706SOL    HW125751   2.842   1.879   7.599  1.3579 -0.7053  0.6683
 4706SOL    HW225752   2.919   2.000   7.656  0.7174  0.4368 -0.4226
 4707SOL     OW25753   0.342   1.846   3.329 -0.2320  0.0835 -0.7406
 4707SOL    HW125754   0.323   1.927   3.282  0.8905  1.5570  1.3714
 4707SOL    HW225755   0.390   1.866   3.409 -1.4506  0.7569 -0.1849
 4708SOL     OW25756   4.346   0.423  10.111  0.4385  0.5512  0.3961
 4708SOL    HW125757   4.399   0.457  10.039  3.2477  3.9686  4.0264
 4708SOL    HW225758   4.282   0.491  10.133 -0.2048 -0.0217  0.3021
 4709SOL     OW25759   1.453   3.384   7.582  0.8878  0.3313 -0.0044
 4709SOL    HW125760   1.487   3.302   7.546 -0.2054 -0.7918  1.5496
 4709SOL    HW225761   1.462   3.442   7.506 -3.8934  0.6942 -0.3101
 4710SOL     OW25762   1.339   2.416   2.583 -0.0408 -0.2147 -1.0153
 4710SOL    HW125763   1.274   2.362   2.627  0.4531  0.4567  0.5270
 4710SOL    HW225764   1.409   2.432   2.647 -1.1225  0.0529  0.0891
 4711SOL     OW25765   1.333   2.287   3.215  0.1901 -0.1272  0.0989
 4711SOL    HW125766   1.325   2.381   3.231  0.9393  0.1879 -1.4223
 4711SOL    HW225767   1.365   2.276   3.126 -1.4546 -1.7407 -0.2998
 4712SOL     OW25768   3.213   1.905   2.522  0.1254  0.0964  0.0636
 4712SOL    HW125769   3.273   1.971   2.557 -2.4836  2.3535  0.2737
 4712SOL    HW225770   3.278   1.853   2.474 -1.3342 -1.4310 -0.2421
 4713SOL     OW25771   3.241   3.943  14.346 -0.3094  0.9565 -0.2445
 4713SOL    HW125772   3.325   3.901  14.328 -0.2598 -0.2039  2.6394
 4713SOL    HW225773   3.206   3.957  14.258 -1.4043 -0.1529  0.0125
 4714SOL     OW25774   3.077   0.852   2.535  0.1900 -0.3851  0.1400
 4714SOL    HW125775   3.011   0.787   2.513  0.2316  0.3857 -2.1953
 4714SOL    HW225776   3.030   0.936   2.539 -0.2835 -0.6627  0.4538
 4715SOL     OW25777   1.352   4.378   5.364 -0.4354  0.5329 -0.4285
 4715SOL    HW125778   1.289   4.446   5.339 -2.5105 -1.2526 -0.0461
 4715SOL    HW225779   1.392   4.363   5.279 -0.4173 -3.2438  0.2448
 4716SOL     OW25780   4.183   1.625   4.286 -0.1644 -0.4749 -0.6711
 4716SOL    HW125781   4.088   1.629   4.280 -0.3416 -3.0477  0.2911
 4716SOL    HW225782   4.192   1.531   4.268  1.0994 -0.4142 -0.3804
 4717SOL     OW25783   3.233   2.868   3.861  0.1198 -0.4678 -0.3994
 4717SOL    HW125784   3.181   2.886   3.940  2.3248  0.9060  0.7364
 4717SOL    HW225785   3.200   2.938   3.804  0.0192 -0.5023 -0.3831
 4718SOL     OW25786   0.101   1.559   6.358  0.6583 -0.0885  0.1203
 4718SOL    HW125787   0.046   1.492   6.315 -0.8238  0.8033  0.6316
 4718SOL    HW225788   0.185   1.512   6.357  1.9691  2.3077 -1.6575
 4719SOL     OW25789   1.431   1.794   0.591  0.0204  0.0464 -0.1874
 4719SOL    HW125790   1.340   1.768   0.578  0.5170 -1.2930 -1.0122
 4719SOL    HW225791   1.467   1.705   0.588 -1.4275 -0.5015 -1.5131
 4720SOL     OW25792   0.342   3.698   4.937  0.4923 -0.4839 -0.3803
 4720SOL    HW125793   0.285   3.623   4.953 -0.5142  0.2983 -0.3253
 4720SOL    HW225794   0.402   3.695   5.012 -1.0612  1.0491  0.9283
 4721SOL     OW25795   2.176   0.576   3.902  0.1324  0.1389  0.1534
 4721SOL    HW125796   2.101   0.541   3.855  1.4794 -1.2195 -0.9969
 4721SOL    HW225797   2.206   0.496   3.947 -0.3339  0.0436  0.2898
 4722SOL     OW25798   2.957   2.823   5.893 -0.7241 -0.4644 -0.2310
 4722SOL    HW125799   3.003   2.766   5.954  0.2431  0.9322  0.3427
 4722SOL    HW225800   2.882   2.766   5.872 -1.8317  0.8704  0.0772
 4723SOL     OW25801   0.599   3.145   2.937 -0.3083 -0.5262  0.9615
 4723SOL    HW125802   0.670   3.088   2.964  0.7609  0.4566  0.2347
 4723SOL    HW225803   0.554   3.152   3.022 -3.6602  1.5542 -0.9753
 4724SOL     OW25804   3.289   2.729   4.983 -0.1490  0.3992  0.5277
 4724SOL    HW125805   3.212   2.774   4.949  0.4849 -0.5044 -2.0875
 4724SOL    HW225806   3.346   2.787   5.034  1.7446 -1.3198  0.3796
 4725SOL     OW25807   1.775   0.706   2.307  0.2419  0.4797  0.5254
 4725SOL    HW125808   1.796   0.630   2.253 -0.6054 -0.2271  1.1791
 4725SOL    HW225809   1.858   0.728   2.351  0.0745 -1.1644  1.7051
 4726SOL     OW25810   4.272   3.346   3.242  0.2103 -0.3569 -0.3114
 4726SOL    HW125811   4.345   3.408   3.238 -0.1831  0.0236 -1.6278
 4726SOL    HW225812   4.244   3.361   3.333 -0.0763  1.2414 -0.6601
 4727SOL     OW25813   0.178   0.250   5.679  0.2183 -0.2503 -0.1485
 4727SOL    HW125814   0.254   0.306   5.666 -0.1815  0.5683  1.0528
 4727SOL    HW225815   0.222   0.173   5.642  1.4024  0.2478  0.2307
 4728SOL     OW25816   3.374   0.622   4.293  0.3256  0.3164 -1.3337
 4728SOL    HW125817   3.307   0.659   4.236 -2.2632 -0.2495  1.3370
 4728SOL    HW225818   3.337   0.658   4.374 -0.5487 -0.3214 -1.4441
 4729SOL     OW25819   4.117   1.875   8.025  0.0050 -0.2327 -0.0264
 4729SOL    HW125820   4.211   1.866   8.016 -0.1557  0.9893 -2.9581
 4729SOL    HW225821   4.089   1.798   7.976  2.3570  1.2674 -3.7037
 4730SOL     OW25822   2.373   2.886   5.815  0.2029  0.1797  0.4120
 4730SOL    HW125823   2.422   2.890   5.897  0.5170  0.7616  0.1921
 4730SOL    HW225824   2.284   2.904   5.844  0.2671  0.1626  0.6247
 4731SOL     OW25825   2.611   2.811   7.037  0.2202  0.1782  0.0033
 4731SOL    HW125826   2.520   2.807   7.006 -0.0449  0.8667  0.6925
 4731SOL    HW225827   2.666   2.836   6.963  0.8120 -3.2552 -0.6982
 4732SOL     OW25828   0.520   4.072   3.898  0.4259 -0.1763 -0.0765
 4732SOL    HW125829   0.507   4.011   3.826  0.5254 -1.1903  0.7616
 4732SOL    HW225830   0.531   4.008   3.968  0.1839 -1.5501 -1.2956
 4733SOL     OW25831   0.822   1.437   4.661 -0.4118  0.3497  0.0663
 4733SOL    HW125832   0.835   1.424   4.567 -0.0692  0.8064  0.0500
 4733SOL    HW225833   0.905   1.481   4.680 -0.9058  0.9212  0.9265
 4734SOL     OW25834   0.798   2.762  14.166  0.5006 -0.0520  0.5927
 4734SOL    HW125835   0.737   2.817  14.115  1.1331 -0.6552 -0.8011
 4734SOL    HW225836   0.829   2.697  14.103  0.0658  1.3371 -1.0622
 4735SOL     OW25837   2.447   2.510  15.207  0.5137  0.1638 -0.1062
 4735SOL    HW125838   2.491   2.528  15.125 -1.2031 -1.2276 -1.3307
 4735SOL    HW225839   2.361   2.498  15.166  0.8975  0.4755 -1.0003
 4736SOL     OW25840   2.314   3.031   6.710  0.1913  0.0609 -0.1399
 4736SOL    HW125841   2.308   2.971   6.785 -0.2687 -0.9115 -0.9576
 4736SOL    HW225842   2.390   3.005   6.659 -0.9259  0.4576 -2.0104
 4737SOL     OW25843   1.096   2.685   1.081 -0.2802 -0.4035 -0.3512
 4737SOL    HW125844   1.037   2.642   1.019 -0.8257  1.6249 -1.2611
 4737SOL    HW225845   1.049   2.764   1.108  1.3465  0.0072  1.2163
 4738SOL     OW25846   3.643   0.514   3.842 -0.1853 -0.7694 -0.1411
 4738SOL    HW125847   3.604   0.451   3.782 -0.7341 -0.5630 -0.0004
 4738SOL    HW225848   3.575   0.581   3.844  0.2297 -0.3299 -0.4587
 4739SOL     OW25849   1.303   0.137   9.387 -0.7189  0.9154 -1.0311
 4739SOL    HW125850   1.232   0.075   9.369  1.0103 -1.4114  0.1316
 4739SOL    HW225851   1.284   0.211   9.330  0.0882  1.4106 -0.6466
 4740SOL     OW25852   4.454   1.366   8.530  0.0198 -0.0295 -0.5533
 4740SOL    HW125853   4.390   1.309   8.573 -1.4027  1.6567 -0.4300
 4740SOL    HW225854   4.496   1.316   8.461 -0.2592  1.7168 -1.9810
 4741SOL     OW25855   3.962   4.443   3.442  0.6972 -0.3754 -0.3701
 4741SOL    HW125856   4.002   4.412   3.361 -0.2907 -1.5420 -0.4230
 4741SOL    HW225857   3.921   4.526   3.418 -0.1065 -0.8186 -0.5474
 4742SOL     OW25858   4.696   1.702   3.031 -0.2952  0.1145  0.2539
 4742SOL    HW125859   4.677   1.678   3.122  2.3114  0.3681  0.8692
 4742SOL    HW225860   4.717   1.616   2.995 -1.5328  0.0121 -0.2352
 4743SOL     OW25861   3.694   2.687   4.157 -0.1629  0.4641  0.5356
 4743SOL    HW125862   3.739   2.636   4.224 -0.9126  0.5808  1.1385
 4743SOL    HW225863   3.737   2.771   4.170  0.9037  0.5407 -3.4826
 4744SOL     OW25864   0.067   3.420  15.446  0.0685  0.3672  0.6913
 4744SOL    HW125865   0.058   3.356  15.375 -0.3330  2.1255 -0.8666
 4744SOL    HW225866   0.134   3.482  15.419 -0.6532  0.7073 -0.3513
 4745SOL     OW25867   2.614   1.847   4.636 -0.6249 -0.0113 -0.4627
 4745SOL    HW125868   2.673   1.847   4.561 -2.0801 -2.5207 -1.6243
 4745SOL    HW225869   2.558   1.770   4.619 -0.3672 -0.8261  2.4007
 4746SOL     OW25870   1.217   2.272   7.005 -0.0197  0.7672 -0.1811
 4746SOL    HW125871   1.154   2.202   6.989  0.5833  0.4509 -1.1891
 4746SOL    HW225872   1.247   2.255   7.094 -1.1509  3.5222  0.7305
 4747SOL     OW25873   4.085   4.291   5.195  0.0311 -0.8000  0.1844
 4747SOL    HW125874   4.068   4.197   5.193 -0.3374 -0.7922  3.4859
 4747SOL    HW225875   4.180   4.289   5.193 -0.0853 -2.4071 -3.5241
 4748SOL     OW25876   4.456   0.482   8.480  0.8515 -0.6969  0.5796
 4748SOL    HW125877   4.434   0.454   8.569 -0.7122 -0.0224  0.4029
 4748SOL    HW225878   4.476   0.575   8.494  1.7484 -0.9881  1.2293
 4749SOL     OW25879   2.235   3.229   5.118 -0.0630 -0.3714 -0.4329
 4749SOL    HW125880   2.154   3.197   5.160  0.1570  0.2679  0.4648
 4749SOL    HW225881   2.238   3.311   5.166 -0.6958 -0.3786 -0.3778
 4750SOL     OW25882   3.030   0.115  17.184  0.0614 -0.0968  0.6063
 4750SOL    HW125883   2.939   0.145  17.179  0.5453  1.6174  2.4113
 4750SOL    HW225884   3.019   0.022  17.164  0.6982  0.1718 -1.0015
 4751SOL     OW25885   0.074   1.801   1.159  0.3931 -0.5405 -0.3492
 4751SOL    HW125886   0.021   1.722   1.148  1.3461 -1.0140 -1.5419
 4751SOL    HW225887   0.044   1.852   1.084 -1.0098  0.2888  0.7658
 4752SOL     OW25888   3.954   3.499  14.848  0.1555 -0.1151 -0.3100
 4752SOL    HW125889   3.928   3.571  14.790  0.6505 -0.2055 -0.6488
 4752SOL    HW225890   4.048   3.495  14.829  0.1129 -0.7452 -0.3820
 4753SOL     OW25891   1.755   3.271   0.226 -0.3954 -0.1456  0.8100
 4753SOL    HW125892   1.831   3.312   0.268  2.0003 -1.8984 -1.8795
 4753SOL    HW225893   1.702   3.350   0.215 -0.6779 -0.3618  0.6204
 4754SOL     OW25894   1.699   2.922  10.972 -0.0372 -0.1664  0.4183
 4754SOL    HW125895   1.728   2.889  11.056 -1.6715 -0.0397  1.0394
 4754SOL    HW225896   1.757   2.876  10.912  0.6882  1.7870 -0.3887
 4755SOL     OW25897   3.707   0.069   1.374  0.0696 -0.6274 -0.3876
 4755SOL    HW125898   3.783   0.028   1.333  0.4347 -0.4896  0.1447
 4755SOL    HW225899   3.751   0.141   1.420  1.1662 -1.6832  0.2177
 4756SOL     OW25900   4.279   1.475  13.961 -0.2770  0.4172  0.2438
 4756SOL    HW125901   4.216   1.521  13.905 -1.4827  2.7187  3.5134
 4756SOL    HW225902   4.361   1.504  13.920 -0.0675  0.7620  0.9172
 4757SOL     OW25903   0.662   1.039  16.490 -0.0313 -0.7784  0.3777
 4757SOL    HW125904   0.620   0.955  16.510 -0.3481 -0.9558 -1.0742
 4757SOL    HW225905   0.592   1.103  16.477 -1.7518 -2.5545  0.9820
 4758SOL     OW25906   0.621   4.243  12.363 -0.5417 -0.2186  0.5963
 4758SOL    HW125907   0.602   4.282  12.278  0.4651  0.3174  0.6166
 4758SOL    HW225908   0.665   4.321  12.397  1.5522 -1.2919  0.3659
 4759SOL     OW25909   1.474   0.342   2.600 -0.2149 -0.1138 -0.0116
 4759SOL    HW125910   1.494   0.428   2.562 -1.0588 -0.5071 -1.3342
 4759SOL    HW225911   1.562   0.323   2.634 -0.1218  1.3877  0.6044
 4760SOL     OW25912   1.946   0.726   9.372  0.6942  0.2955  0.6114
 4760SOL    HW125913   1.889   0.714   9.296 -1.9310 -0.8959  2.7747
 4760SOL    HW225914   1.920   0.659   9.435 -1.2071 -0.6086 -1.1135
 4761SOL     OW25915   0.262   3.694   8.160 -0.3823  0.2509  0.2144
 4761SOL    HW125916   0.277   3.687   8.255  0.9168  0.3370  0.0174
 4761SOL    HW225917   0.239   3.786   8.150  0.5659  0.3917 -0.7115
 4762SOL     OW25918   0.510   3.040  15.847  0.5788  0.8414  0.1965
 4762SOL    HW125919   0.594   3.050  15.802 -0.4234 -0.4121 -1.9476
 4762SOL    HW225920   0.456   3.090  15.786  2.9231  1.7714 -1.1481
 4763SOL     OW25921   0.860   3.398   4.415 -0.6502  0.3897 -0.2184
 4763SOL    HW125922   0.816   3.344   4.481  2.0800  1.3606  2.4291
 4763SOL    HW225923   0.815   3.482   4.407 -0.5534  0.3757 -0.8612
 4764SOL     OW25924   1.305   4.007   1.419 -0.0254  0.5906  0.0169
 4764SOL    HW125925   1.350   4.073   1.367  2.8568 -2.6076 -1.5523
 4764SOL    HW225926   1.317   3.929   1.365  0.2977  0.6004  0.0796
 4765SOL     OW25927   0.843   2.078   1.889  0.1944  0.2404  0.2579
 4765SOL    HW125928   0.857   2.160   1.842  0.9413 -0.9263 -1.5377
 4765SOL    HW225929   0.763   2.099   1.937 -0.4404 -0.7239 -0.3902
 4766SOL     OW25930   3.267   2.399   0.120  0.7029  0.2605  0.6168
 4766SOL    HW125931   3.217   2.329   0.078  0.3801 -0.6085  2.4415
 4766SOL    HW225932   3.273   2.368   0.210  1.2386  0.1081  0.5264
 4767SOL     OW25933   1.754   3.350  11.046 -0.1913 -0.1427 -0.3083
 4767SOL    HW125934   1.818   3.358  11.116 -0.1621 -0.2229 -0.3259
 4767SOL    HW225935   1.680   3.300  11.080  0.2172 -1.0002 -0.6777
 4768SOL     OW25936   3.551   3.123  12.389  0.3441 -0.6878 -0.2684
 4768SOL    HW125937   3.613   3.051  12.382  0.8204 -0.2173 -0.9564
 4768SOL    HW225938   3.570   3.181  12.315 -0.4817  0.7727  0.6521
 4769SOL     OW25939   4.347   3.169   4.983 -0.3065  0.3071 -0.8008
 4769SOL    HW125940   4.261   3.174   4.942  0.5267 -2.3632 -2.8478
 4769SOL    HW225941   4.324   3.175   5.076 -0.6015 -1.6830 -0.7539
 4770SOL     OW25942   3.829   1.374  14.279  0.1464 -0.0818 -0.1222
 4770SOL    HW125943   3.746   1.368  14.327 -1.1343  1.8843 -2.0984
 4770SOL    HW225944   3.832   1.293  14.229 -1.9312  1.2886 -2.4956
 4771SOL     OW25945   3.348   2.886   6.261  0.3967  0.5109  0.1069
 4771SOL    HW125946   3.258   2.863   6.286  0.5130  1.5599  1.4714
 4771SOL    HW225947   3.331   2.977   6.238  0.4085  0.7831  1.1881
 4772SOL     OW25948   3.127   2.340  10.989 -0.3667  0.5609  0.3990
 4772SOL    HW125949   3.177   2.303  11.062 -0.9306  0.6077  0.8066
 4772SOL    HW225950   3.127   2.262  10.934 -1.9429  0.9704 -0.1728
 4773SOL     OW25951   4.286   2.347   7.194 -0.1658  0.1463  0.1165
 4773SOL    HW125952   4.288   2.405   7.271  1.9433  0.9820 -0.5705
 4773SOL    HW225953   4.227   2.384   7.129  0.7155  0.7944 -0.2984
 4774SOL     OW25954   2.265   3.049   9.674  0.0662 -0.3058 -0.1728
 4774SOL    HW125955   2.340   3.104   9.696 -0.7911  1.2497 -1.0917
 4774SOL    HW225956   2.205   3.098   9.731 -1.1737 -1.4483 -0.4810
 4775SOL     OW25957   3.998   2.595   4.607 -0.5880 -0.1307  0.1918
 4775SOL    HW125958   4.053   2.517   4.603 -2.4133 -1.3880 -0.1622
 4775SOL    HW225959   3.994   2.610   4.701  1.1778  2.6855 -0.1858
 4776SOL     OW25960   4.591   1.264   9.365 -0.2457  0.1987 -0.0455
 4776SOL    HW125961   4.572   1.264   9.271  3.3082  1.5542 -0.7539
 4776SOL    HW225962   4.644   1.344   9.365  1.1468 -0.7093  1.6664
 4777SOL     OW25963   2.481   3.555   3.299  0.2359 -0.2400  0.1388
 4777SOL    HW125964   2.508   3.631   3.248  1.4373  0.1191  1.2972
 4777SOL    HW225965   2.400   3.594   3.332 -0.0326  1.7996 -2.9833
 4778SOL     OW25966   0.758   3.758   1.999  0.0834 -0.2727 -0.5431
 4778SOL    HW125967   0.740   3.840   2.044  1.6424 -0.4318  0.3386
 4778SOL    HW225968   0.809   3.783   1.923  1.9417 -2.3782  0.0130
 4779SOL     OW25969   4.331   4.155   5.346 -0.5772  0.1683  0.0309
 4779SOL    HW125970   4.341   4.086   5.279  0.2050  1.3051 -1.0120
 4779SOL    HW225971   4.401   4.201   5.301 -0.2697  1.6577  2.0714
 4780SOL     OW25972   2.303   1.250   6.209 -0.2831  0.5156  0.3495
 4780SOL    HW125973   2.360   1.243   6.133  0.6244 -1.3687  1.2178
 4780SOL    HW225974   2.234   1.185   6.193 -1.4027  1.6175  0.6213
 4781SOL     OW25975   3.267   3.375   8.384 -0.1329 -0.1718  0.0429
 4781SOL    HW125976   3.230   3.392   8.470 -0.8121  2.5563 -0.7961
 4781SOL    HW225977   3.291   3.463   8.355  1.2492 -0.6842 -0.3609
 4782SOL     OW25978   4.037   0.607  14.685 -0.4547  0.1100  0.2465
 4782SOL    HW125979   4.076   0.520  14.678  0.7179  0.7625 -1.3599
 4782SOL    HW225980   4.069   0.636  14.599 -2.2969 -0.5343 -0.6452
 4783SOL     OW25981   3.509   2.060   3.922  0.2588  0.2036 -0.4401
 4783SOL    HW125982   3.488   2.093   3.834 -0.0698  1.4978  0.1318
 4783SOL    HW225983   3.502   2.140   3.975  2.1632 -0.8013  1.3351
 4784SOL     OW25984   2.764   1.167   2.439 -0.0613 -0.0049 -0.6130
 4784SOL    HW125985   2.706   1.191   2.512  0.4695 -0.0369 -0.1818
 4784SOL    HW225986   2.785   1.250   2.396  0.0707  0.3953  0.2306
 4785SOL     OW25987   0.826   2.743   3.812  0.1220 -0.1697  0.0680
 4785SOL    HW125988   0.757   2.684   3.784 -0.4768 -0.3136  1.8991
 4785SOL    HW225989   0.773   2.814   3.849  0.8603  0.5773 -0.3062
 4786SOL     OW25990   0.131   0.727   7.216  0.0164 -0.4937 -0.0501
 4786SOL    HW125991   0.059   0.733   7.154  0.1545 -2.0544 -0.3577
 4786SOL    HW225992   0.175   0.646   7.190  1.2920 -0.2115  1.2158
 4787SOL     OW25993   3.086   2.417   4.468  0.6096  0.2011  0.4937
 4787SOL    HW125994   3.110   2.363   4.392  0.4283  1.3554 -0.3768
 4787SOL    HW225995   3.156   2.482   4.469 -0.8851  1.7530  2.8333
 4788SOL     OW25996   4.338   1.520  10.227 -0.3069 -0.3484 -0.1385
 4788SOL    HW125997   4.388   1.439  10.218  2.6783  1.2722  1.5596
 4788SOL    HW225998   4.328   1.520  10.322 -0.2720  4.0759 -0.1298
 4789SOL     OW25999   0.742   0.431   9.518 -0.3806 -0.2556  0.1106
 4789SOL    HW126000   0.686   0.503   9.488  0.0196  0.0711  0.1368
 4789SOL    HW226001   0.706   0.347   9.489  0.2069 -0.4805  0.0376
 4790SOL     OW26002   0.372   4.353   3.243  0.5059  0.5111  0.3150
 4790SOL    HW126003   0.377   4.437   3.197 -0.1275  0.3090 -0.1244
 4790SOL    HW226004   0.458   4.345   3.284 -0.7417 -4.5848  1.9187
 4791SOL     OW26005   3.366   3.661  13.387  0.2193  0.1852 -0.5387
 4791SOL    HW126006   3.282   3.640  13.428  0.6479 -0.9730 -0.2192
 4791SOL    HW226007   3.430   3.644  13.457  0.5116  2.2215 -0.3118
 4792SOL     OW26008   4.568   4.080  12.102 -0.3687  0.1635 -0.2817
 4792SOL    HW126009   4.560   4.107  12.010  0.7587 -0.4015 -0.5463
 4792SOL    HW226010   4.597   4.160  12.147  1.9660 -1.8744  1.7930
 4793SOL     OW26011   0.035   1.375   2.202  0.8464 -0.6142 -0.3232
 4793SOL    HW126012   0.070   1.452   2.156  0.7305 -1.1407 -1.3112
 4793SOL    HW226013   0.019   1.403   2.292  0.2641 -0.3041 -0.5203
 4794SOL     OW26014   3.382   2.339  10.281  0.0703  0.6471 -0.2180
 4794SOL    HW126015   3.420   2.389  10.353 -0.4115 -0.1018  0.5603
 4794SOL    HW226016   3.452   2.323  10.217  0.6810  1.8286  0.1462
 4795SOL     OW26017   4.627   2.517  12.071  0.6993  0.2949 -0.5531
 4795SOL    HW126018   4.617   2.611  12.083 -2.2718 -0.1440  0.3661
 4795SOL    HW226019   4.628   2.480  12.159 -0.0126  1.2145 -0.1678
 4796SOL     OW26020   4.361   3.100   9.665 -0.1569 -0.3185 -0.2982
 4796SOL    HW126021   4.353   3.157   9.589 -0.0337  0.2312  0.1070
 4796SOL    HW226022   4.292   3.134   9.722  0.4047 -2.3714  1.6285
 4797SOL     OW26023   4.420   3.596   3.184  0.5801  0.1424  0.3642
 4797SOL    HW126024   4.351   3.663   3.184  0.2817 -0.1506  1.4199
 4797SOL    HW226025   4.482   3.635   3.123 -0.4914  1.3099  0.0162
 4798SOL     OW26026   4.558   1.115   4.062 -0.8573  0.6100  0.1423
 4798SOL    HW126027   4.644   1.124   4.103 -0.6110 -0.4227 -0.1261
 4798SOL    HW226028   4.571   1.168   3.983  2.7592  0.1866  0.4693
 4799SOL     OW26029   3.669   4.730   7.460  0.2063  0.4998  0.3294
 4799SOL    HW126030   3.651   0.032   7.374  2.3027  1.2800  0.2355
 4799SOL    HW226031   3.624   4.646   7.454  1.5939 -0.1172 -1.4055
 4800SOL     OW26032   2.451   2.087   7.035  0.1375 -0.1928 -0.1766
 4800SOL    HW126033   2.455   2.066   7.128 -2.2256 -0.8314 -0.2114
 4800SOL    HW226034   2.355   2.088   7.027 -0.0007  1.3583  1.5839
 4801SOL     OW26035   2.604   3.264   7.683  0.0521 -0.4956  0.0910
 4801SOL    HW126036   2.698   3.255   7.699 -0.3332 -2.1262  1.4697
 4801SOL    HW226037   2.601   3.224   7.596  0.4484  0.8407 -0.5325
 4802SOL     OW26038   4.736   0.387   9.216 -0.0896  0.1734  0.4429
 4802SOL    HW126039   0.021   0.425   9.301 -0.5617  0.7545  0.3110
 4802SOL    HW226040   4.640   0.384   9.213 -0.1117  0.2169  1.1775
 4803SOL     OW26041   1.867   3.190   1.523  0.0507 -0.3361  0.6782
 4803SOL    HW126042   1.871   3.186   1.427 -0.1712  2.6102  0.5352
 4803SOL    HW226043   1.777   3.168   1.546 -1.1694 -0.0047 -3.7368
 4804SOL     OW26044   2.115   1.771   7.395  0.3975  0.1230  0.1409
 4804SOL    HW126045   2.142   1.689   7.436 -0.2365 -1.1331 -1.9356
 4804SOL    HW226046   2.036   1.733   7.356  1.0265 -1.9284  0.8588
 4805SOL     OW26047   3.325   4.230   0.101 -0.4743 -0.0139 -0.3397
 4805SOL    HW126048   3.309   4.292   0.171 -2.0192 -0.4243 -0.3219
 4805SOL    HW226049   3.299   4.284   0.026  0.0635  1.0566  0.2622
 4806SOL     OW26050   4.668   1.705   7.425  0.6606 -0.0818  0.4160
 4806SOL    HW126051   4.576   1.678   7.424  0.7295 -0.1520 -3.0453
 4806SOL    HW226052   4.682   1.706   7.520  1.3702 -2.0612  0.3419
 4807SOL     OW26053   3.119   2.210  17.719 -0.0666 -0.5880 -0.1840
 4807SOL    HW126054   3.114   2.153  17.643  0.6778  0.0672 -0.7231
 4807SOL    HW226055   3.060   2.282  17.694  1.0388  0.0779 -0.8388
 4808SOL     OW26056   4.538   0.430   2.008  0.2918  0.3087 -0.2644
 4808SOL    HW126057   4.528   0.408   1.915 -1.5738 -0.3331  0.0946
 4808SOL    HW226058   4.521   0.350   2.057  1.8214  1.1220  1.5705
 4809SOL     OW26059   1.187   2.850   4.813 -0.5203 -0.3924  0.0072
 4809SOL    HW126060   1.207   2.892   4.897 -0.4188  0.6433 -0.5277
 4809SOL    HW226061   1.147   2.919   4.759  0.7480 -1.2130 -1.9657
 4810SOL     OW26062   0.625   1.928   9.450 -0.2702  0.2133 -0.0589
 4810SOL    HW126063   0.712   1.922   9.410  0.5157  1.4898  1.3946
 4810SOL    HW226064   0.612   1.844   9.493  0.4854  1.0891  1.9087
 4811SOL     OW26065   3.624   0.699   7.558  0.1251  0.0969 -0.3398
 4811SOL    HW126066   3.656   0.666   7.642 -1.8698  2.1073  1.2294
 4811SOL    HW226067   3.535   0.666   7.558 -0.6991  2.2903 -0.2999
 4812SOL     OW26068   4.607   4.240   6.197  0.0627  0.2329  0.3776
 4812SOL    HW126069   4.633   4.151   6.177  0.1579  1.1981 -3.6246
 4812SOL    HW226070   4.518   4.221   6.229 -0.0414 -1.8135 -1.1300
 4813SOL     OW26071   0.953   1.140   9.154  0.4299  0.5166  0.3971
 4813SOL    HW126072   0.924   1.198   9.084  0.4207 -1.2000 -1.0355
 4813SOL    HW226073   1.030   1.106   9.109 -0.2391  0.9644 -1.0861
 4814SOL     OW26074   3.677   3.549   5.383  0.6208 -0.4263  1.3427
 4814SOL    HW126075   3.655   3.516   5.470  1.6125  1.4937  2.3035
 4814SOL    HW226076   3.633   3.633   5.395 -0.1049 -0.4676 -1.0386
 4815SOL     OW26077   0.337   4.364   3.543  0.2633  0.3886  0.0215
 4815SOL    HW126078   0.390   4.386   3.466 -1.8998 -0.2541 -1.6521
 4815SOL    HW226079   0.248   4.380   3.511  0.4706  1.4548 -0.0057
 4816SOL     OW26080   4.437   1.190   4.389  0.0396  0.4535  0.2699
 4816SOL    HW126081   4.378   1.147   4.328  0.9130 -1.0668  0.5005
 4816SOL    HW226082   4.473   1.256   4.329 -0.0766 -0.0481 -0.3511
 4817SOL     OW26083   0.491   0.388  15.947 -0.0282 -0.0628 -0.1792
 4817SOL    HW126084   0.544   0.468  15.936  0.2515 -0.2850 -0.4463
 4817SOL    HW226085   0.414   0.413  15.896  1.2911  2.9510 -0.7137
 4818SOL     OW26086   0.768   4.413  13.986  0.3827  0.4084 -0.6204
 4818SOL    HW126087   0.683   4.377  14.009 -1.5624  2.4359 -4.6477
 4818SOL    HW226088   0.790   4.359  13.910 -0.3242  1.0892 -1.3158
 4819SOL     OW26089   4.105   0.743   0.753  0.0668  0.3945  0.2730
 4819SOL    HW126090   4.141   0.829   0.734 -1.3760  0.7115 -0.9765
 4819SOL    HW226091   4.182   0.689   0.734 -0.0896  0.4730 -0.5555
 4820SOL     OW26092   4.255   3.749   4.000 -0.3106 -0.6531  0.0630
 4820SOL    HW126093   4.246   3.660   3.966 -2.0435 -1.1569  1.8429
 4820SOL    HW226094   4.323   3.797   3.954  0.0459 -0.6228  0.6277
 4821SOL     OW26095   2.556   4.233  14.762  0.2993 -0.3815  0.0104
 4821SOL    HW126096   2.564   4.227  14.857  1.8681 -2.2491 -0.2530
 4821SOL    HW226097   2.601   4.157  14.725  1.2126 -0.3519  1.0869
 4822SOL     OW26098   0.571   3.559   1.948  0.6377 -0.4917 -0.0281
 4822SOL    HW126099   0.645   3.618   1.963  0.4276 -0.0091 -0.9007
 4822SOL    HW226100   0.543   3.536   2.036  0.2335  2.2559  0.5605
 4823SOL     OW26101   2.199   1.137   6.818  0.0607  0.1444 -0.3375
 4823SOL    HW126102   2.224   1.222   6.780  0.5835 -0.1699 -0.7071
 4823SOL    HW226103   2.227   1.078   6.748  1.8258  0.4797  0.0697
 4824SOL     OW26104   2.294   0.364  13.677 -0.0493  0.3330 -0.4475
 4824SOL    HW126105   2.301   0.433  13.612  2.8875  1.8106  1.4712
 4824SOL    HW226106   2.360   0.306  13.638 -1.4479 -0.8142 -1.1337
 4825SOL     OW26107   4.346   3.319   8.267  0.0956 -0.1699  0.7203
 4825SOL    HW126108   4.273   3.334   8.327  0.7920  3.2015  0.7198
 4825SOL    HW226109   4.422   3.320   8.326 -0.4171 -0.1818  1.3769
 4826SOL     OW26110   2.903   3.278   6.698 -0.2293 -0.3671  0.1289
 4826SOL    HW126111   2.985   3.238   6.727 -0.1321 -1.1091 -1.1627
 4826SOL    HW226112   2.839   3.248   6.762 -1.1407 -1.0527 -1.1048
 4827SOL     OW26113   0.853   2.753  11.802  0.1773  0.3687  0.2700
 4827SOL    HW126114   0.765   2.748  11.841 -0.4775 -0.0633 -1.2237
 4827SOL    HW226115   0.893   2.673  11.834 -0.2733  0.8767  2.1229
 4828SOL     OW26116   2.584   1.282   8.923  0.0360  0.1258  0.2521
 4828SOL    HW126117   2.538   1.328   8.853 -0.5557  1.9303  1.8026
 4828SOL    HW226118   2.563   1.190   8.907  2.0709 -0.5455  1.3602
 4829SOL     OW26119   1.090   3.901   1.579  0.9342 -0.6906  0.2980
 4829SOL    HW126120   1.034   3.833   1.543  2.8097 -1.0597 -1.9133
 4829SOL    HW226121   1.142   3.930   1.504  1.0488 -0.8380  0.3208
 4830SOL     OW26122   3.392   2.695  16.318 -0.0647  0.1181  0.5295
 4830SOL    HW126123   3.316   2.735  16.278  0.7576  1.2361  0.0824
 4830SOL    HW226124   3.396   2.607  16.281 -0.8789  0.9300 -1.4455
 4831SOL     OW26125   0.953   4.252  16.775 -0.2192 -0.4135  0.1184
 4831SOL    HW126126   1.026   4.312  16.791 -1.3257  0.8584  0.4346
 4831SOL    HW226127   0.888   4.318  16.751  1.9063  1.0810 -1.5543
 4832SOL     OW26128   0.399   3.928   5.571 -0.4786 -0.5367 -0.9185
 4832SOL    HW126129   0.448   3.859   5.527 -1.3631 -1.1796 -0.8938
 4832SOL    HW226130   0.328   3.886   5.620  0.8495 -1.1089  0.5110
 4833SOL     OW26131   0.069   2.843   6.817 -0.1828 -0.3378 -0.2321
 4833SOL    HW126132   0.146   2.871   6.866 -0.7585 -0.2899  0.6601
 4833SOL    HW226133   0.074   2.749   6.831  2.7087 -0.1668 -0.1471
 4834SOL     OW26134   2.104   3.426   7.793  0.3034  0.3255 -0.0261
 4834SOL    HW126135   2.165   3.379   7.736  0.0816 -0.5717  0.4797
 4834SOL    HW226136   2.169   3.467   7.850 -0.1029 -0.8998  1.2827
 4835SOL     OW26137   4.421   4.477   5.673 -0.2551 -0.3229 -0.2765
 4835SOL    HW126138   4.361   4.441   5.609 -0.3080 -0.0803 -0.3641
 4835SOL    HW226139   4.466   4.540   5.616  0.9144 -1.1871 -0.3097
 4836SOL     OW26140   0.947   4.210   8.746 -0.1150  0.2494  0.1955
 4836SOL    HW126141   1.037   4.189   8.722 -0.2598 -2.0871  1.7323
 4836SOL    HW226142   0.908   4.128   8.773  0.5486  0.3087  1.3441
 4837SOL     OW26143   0.105   2.347  11.286 -0.7871  0.0482 -0.3512
 4837SOL    HW126144   0.105   2.340  11.381  1.3051 -1.2914 -0.4334
 4837SOL    HW226145   0.109   2.441  11.267 -0.2489 -0.1268 -1.1332
 4838SOL     OW26146   1.285   2.862   6.512  0.3536 -0.1828 -0.0255
 4838SOL    HW126147   1.248   2.915   6.442 -0.3521 -0.5208  0.0914
 4838SOL    HW226148   1.210   2.803   6.509 -0.0127  0.5567 -4.6180
 4839SOL     OW26149   2.921   0.991   1.257 -0.6742  0.0779  0.0215
 4839SOL    HW126150   2.832   1.022   1.239 -1.1428  0.0920  2.3624
 4839SOL    HW226151   2.965   1.066   1.217 -0.4130 -1.2076 -2.0990
 4840SOL     OW26152   4.474   1.570   8.735 -0.0176  0.2328  0.0851
 4840SOL    HW126153   4.469   1.645   8.676 -0.1379  0.6120  0.5799
 4840SOL    HW226154   4.488   1.502   8.669  0.2120  1.3228 -0.9792
 4841SOL     OW26155   4.343   3.841   1.425  0.1512  0.2525  0.2627
 4841SOL    HW126156   4.281   3.895   1.376  0.4500  1.0790  0.7847
 4841SOL    HW226157   4.294   3.791   1.490  0.3486  0.2870  0.4394
 4842SOL     OW26158   3.971   1.895   5.720 -0.4783 -0.3077 -0.1768
 4842SOL    HW126159   4.023   1.908   5.799  2.3953  0.0755 -2.1170
 4842SOL    HW226160   3.887   1.863   5.752 -0.5988  0.3596  0.1949
 4843SOL     OW26161   3.350   2.765   0.347 -0.1488 -0.0492 -0.2020
 4843SOL    HW126162   3.260   2.769   0.379  0.4369 -0.7823  1.5547
 4843SOL    HW226163   3.378   2.676   0.370  0.9442  0.2444 -0.4162
 4844SOL     OW26164   2.011   4.417   9.345 -0.6960 -0.5083  0.3708
 4844SOL    HW126165   1.968   4.363   9.411 -0.8739 -1.3747 -0.4549
 4844SOL    HW226166   1.941   4.481   9.332 -1.5449 -1.4477  0.3144
 4845SOL     OW26167   3.863   3.204   2.405 -0.3372 -0.0465  0.2201
 4845SOL    HW126168   3.918   3.194   2.483 -0.6158  1.7037  0.6449
 4845SOL    HW226169   3.781   3.165   2.434 -1.0508  1.9626  0.9103
 4846SOL     OW26170   4.166   1.775   6.144  0.3258 -0.3502 -0.4961
 4846SOL    HW126171   4.098   1.812   6.200 -0.2367 -2.8743  0.5046
 4846SOL    HW226172   4.208   1.719   6.209  0.4907  0.2915 -0.0560
 4847SOL     OW26173   2.899   1.663   9.536 -0.2847 -0.1408 -0.0525
 4847SOL    HW126174   2.834   1.685   9.468  0.5124  1.8426 -0.1588
 4847SOL    HW226175   2.968   1.728   9.523 -0.1588 -0.5290 -1.3413
 4848SOL     OW26176   0.953   2.279   4.238  0.0051 -0.3749  0.1692
 4848SOL    HW126177   0.896   2.354   4.253 -1.1407 -1.4862  1.3217
 4848SOL    HW226178   0.940   2.230   4.319 -1.2963 -0.4643 -0.0987
 4849SOL     OW26179   1.448   2.144   8.669  0.3621  1.0721  0.2050
 4849SOL    HW126180   1.387   2.077   8.700 -0.4757  1.0258 -1.5484
 4849SOL    HW226181   1.389   2.188   8.607  0.4765  0.6795 -0.1796
 4850SOL     OW26182   0.572   3.079  12.446 -0.1723  0.2455  0.0220
 4850SOL    HW126183   0.636   3.087  12.376 -1.1303 -0.6849 -0.9581
 4850SOL    HW226184   0.615   3.040  12.522  0.5724 -1.5509 -1.3407
 4851SOL     OW26185   2.882   0.998   1.783 -0.0244  0.2503 -0.3712
 4851SOL    HW126186   2.917   1.032   1.700  1.6291  1.0340  0.6564
 4851SOL    HW226187   2.787   0.995   1.774 -0.1500  2.6310  0.2385
 4852SOL     OW26188   3.384   1.753   3.743  0.4217  0.1930 -0.2481
 4852SOL    HW126189   3.323   1.785   3.677 -1.0701 -1.2720  0.4055
 4852SOL    HW226190   3.349   1.787   3.825  0.3533 -0.0101 -0.1934
 4853SOL     OW26191   0.196   4.685   5.595 -0.2723  0.7456  0.3894
 4853SOL    HW126192   0.262   4.694   5.664  1.5970  2.5073 -1.6507
 4853SOL    HW226193   0.246   4.647   5.523  2.3157  1.8789  1.5731
 4854SOL     OW26194   0.546   0.227  16.164  0.0491 -0.2662 -0.2543
 4854SOL    HW126195   0.533   0.297  16.100  1.8373  0.7945  0.5578
 4854SOL    HW226196   0.606   0.266  16.228  0.4686 -0.3386 -0.6082
 4855SOL     OW26197   2.957   3.659   2.046  0.2803 -0.0696 -0.1641
 4855SOL    HW126198   2.979   3.733   1.990  1.8896 -0.5474 -0.1460
 4855SOL    HW226199   2.870   3.653   2.006 -1.0449  2.0472  2.4415
 4856SOL     OW26200   3.795   1.008   7.475  1.0747  0.0128  0.3231
 4856SOL    HW126201   3.758   1.043   7.556  1.3228  1.0121  0.0064
 4856SOL    HW226202   3.726   1.017   7.410 -0.2025 -1.3963  1.4763
 4857SOL     OW26203   3.798   0.421   1.478 -0.3783  0.2068 -0.5680
 4857SOL    HW126204   3.865   0.386   1.538 -0.8158  1.8406  0.8872
 4857SOL    HW226205   3.849   0.495   1.444  0.4003  0.1320  0.4278
 4858SOL     OW26206   0.302   2.127   8.987  0.4591 -0.4632 -0.1746
 4858SOL    HW126207   0.396   2.113   8.998  0.3342 -0.7174  0.5142
 4858SOL    HW226208   0.264   2.055   9.037  0.4084 -0.3120  0.0032
 4859SOL     OW26209   0.253   1.517   7.574 -0.1473 -0.5308  0.0010
 4859SOL    HW126210   0.238   1.500   7.667 -0.6467  0.9389  0.1960
 4859SOL    HW226211   0.172   1.487   7.534  1.1760 -1.9886 -1.5603
 4860SOL     OW26212   2.748   3.593   9.701 -0.3078  0.2343 -0.2166
 4860SOL    HW126213   2.796   3.571   9.622  1.0170 -0.9774  0.9288
 4860SOL    HW226214   2.740   3.505   9.737  1.5481  0.5377  0.9323
 4861SOL     OW26215   4.045   4.228   3.264 -0.8979 -0.3744 -0.3090
 4861SOL    HW126216   3.952   4.209   3.280 -1.6127 -0.6864 -4.6571
 4861SOL    HW226217   4.050   4.244   3.170 -1.3520 -2.2538 -0.6554
 4862SOL     OW26218   3.562   3.105   2.285  0.0700  0.0175  0.1888
 4862SOL    HW126219   3.498   3.174   2.299 -0.2779 -0.6023  1.5578
 4862SOL    HW226220   3.517   3.026   2.315 -0.0406 -0.6352 -1.6908
 4863SOL     OW26221   3.279   3.877   0.257 -0.1518  0.3104  0.2292
 4863SOL    HW126222   3.333   3.832   0.192  0.5669  0.7170  0.5495
 4863SOL    HW226223   3.249   3.806   0.313  1.0393  0.8789  1.5918
 4864SOL     OW26224   0.378   0.434   5.615 -0.0887  0.1416 -0.0519
 4864SOL    HW126225   0.460   0.477   5.637 -0.3239  1.3169 -1.4497
 4864SOL    HW226226   0.321   0.510   5.621 -0.1222  0.0094  1.3578
 4865SOL     OW26227   4.145   2.709   9.705 -0.0002 -0.4923 -0.0192
 4865SOL    HW126228   4.185   2.677   9.785  2.0023  1.5530 -0.1998
 4865SOL    HW226229   4.228   2.726   9.660 -0.3521  0.5697 -0.2819
 4866SOL     OW26230   4.092   0.923   5.731 -0.2958  0.0549  0.3425
 4866SOL    HW126231   4.004   0.928   5.694  0.3718  0.4371 -1.1564
 4866SOL    HW226232   4.148   0.958   5.662 -1.5333  0.0935 -0.6276
 4867SOL     OW26233   2.922   4.310   5.453 -0.0827  0.2989 -0.2211
 4867SOL    HW126234   2.910   4.404   5.468  0.5425  0.0896  1.6387
 4867SOL    HW226235   2.891   4.276   5.537 -1.5286 -0.0285 -0.8941
 4868SOL     OW26236   0.420   2.932   3.634 -0.5023 -0.5041  0.1008
 4868SOL    HW126237   0.398   2.963   3.722 -1.9964  0.1197 -0.4844
 4868SOL    HW226238   0.339   2.889   3.605  0.7202 -1.9977 -1.0962
 4869SOL     OW26239   0.284   1.933   7.283  0.7170 -0.1121  0.1844
 4869SOL    HW126240   0.198   1.971   7.299 -0.2200 -2.2564  0.3516
 4869SOL    HW226241   0.276   1.838   7.295 -0.9090  0.0782  0.5357
 4870SOL     OW26242   4.259   3.052   0.223  0.8494  0.3143 -0.2037
 4870SOL    HW126243   4.180   3.018   0.265  1.2781  1.5622  1.6143
 4870SOL    HW226244   4.329   3.049   0.288 -0.3141  4.0604  1.2790
 4871SOL     OW26245   1.676   0.373   3.918  0.0546  0.3258  0.0171
 4871SOL    HW126246   1.630   0.444   3.962 -3.8593 -2.3392  0.2765
 4871SOL    HW226247   1.665   0.305   3.985  0.9654 -0.4698 -0.6228
 4872SOL     OW26248   0.687   0.004   6.003 -0.1037  0.0974 -1.2364
 4872SOL    HW126249   0.602   0.039   6.030  0.3471 -0.4818  0.9268
 4872SOL    HW226250   0.661   4.649   5.997 -0.1739 -0.0650  1.1889
 4873SOL     OW26251   1.581   0.637   9.811  0.7482 -0.2982 -0.2421
 4873SOL    HW126252   1.638   0.562   9.795  2.3219  0.9578 -0.5987
 4873SOL    HW226253   1.502   0.606   9.767 -1.6393  3.7359  1.2062
 4874SOL     OW26254   1.250   2.181   1.196 -1.0300  0.3580  0.5634
 4874SOL    HW126255   1.252   2.269   1.158  1.6859 -0.9553 -2.3475
 4874SOL    HW226256   1.194   2.139   1.130  0.3481  1.2284 -1.1537
 4875SOL     OW26257   4.617   2.901   1.202 -0.3778  0.6778  0.6948
 4875SOL    HW126258   4.614   2.866   1.113 -0.5922 -0.9852  1.3502
 4875SOL    HW226259   4.583   2.827   1.253 -0.5239  1.5456  1.8544
 4876SOL     OW26260   1.016   4.492   2.056 -0.2603 -0.5844  0.1097
 4876SOL    HW126261   1.010   4.405   2.016  0.3062 -0.8901  0.6984
 4876SOL    HW226262   0.945   4.537   2.010  0.2933  0.9607  0.7622
 4877SOL     OW26263   0.116   0.918   2.107  0.2119 -0.0352  0.6338
 4877SOL    HW126264   0.084   0.998   2.065  1.1554 -0.6099 -1.1765
 4877SOL    HW226265   0.204   0.913   2.071  0.2269 -1.9360  0.9160
 4878SOL     OW26266   2.694   4.092  14.137  0.5061  0.8118  0.1444
 4878SOL    HW126267   2.667   4.094  14.228  0.9309  0.3378  0.2814
 4878SOL    HW226268   2.645   4.170  14.111  0.4028  1.0688  1.1043
 4879SOL     OW26269   2.220   3.601   9.011  0.3351 -0.3897  0.0464
 4879SOL    HW126270   2.279   3.667   9.047  0.4357 -0.2761 -0.3210
 4879SOL    HW226271   2.284   3.553   8.959  0.8331  1.2987 -0.8981
 4880SOL     OW26272   2.440   0.327   2.217 -0.4010 -0.2212  0.3464
 4880SOL    HW126273   2.362   0.334   2.273 -1.0445 -0.8496 -0.4657
 4880SOL    HW226274   2.425   0.237   2.188  3.4074 -0.6400 -0.2996
 4881SOL     OW26275   2.720   0.087  11.392  0.0174 -0.4849 -0.3328
 4881SOL    HW126276   2.681   0.027  11.455  1.5152 -1.5787 -0.4411
 4881SOL    HW226277   2.672   0.068  11.311  1.1355 -0.5309 -0.9957
 4882SOL     OW26278   0.957   2.063   3.302  0.0267  0.3207 -0.1021
 4882SOL    HW126279   1.004   2.120   3.362 -0.6102  0.3836  0.3413
 4882SOL    HW226280   0.890   2.120   3.265  0.9538  1.5932  0.1964
 4883SOL     OW26281   1.865   3.297   4.603 -0.8155  0.1906  0.1276
 4883SOL    HW126282   1.780   3.253   4.606  0.4273 -2.0743  2.4186
 4883SOL    HW226283   1.910   3.249   4.534  0.0664 -0.7855  1.3880
 4884SOL     OW26284   0.780   3.012   7.094  0.6620  0.4140  0.9945
 4884SOL    HW126285   0.768   2.945   7.161 -2.9577  0.8499  0.7779
 4884SOL    HW226286   0.797   2.954   7.020  1.1771 -0.2497  1.6257
 4885SOL     OW26287   2.012   2.823   9.548 -0.0144  0.1304  0.2081
 4885SOL    HW126288   2.030   2.833   9.455 -1.6285  0.3737 -0.0755
 4885SOL    HW226289   1.944   2.757   9.540 -0.6083  0.6330  1.0353
 4886SOL     OW26290   0.315   4.087   5.370  0.2618 -0.1453  0.8176
 4886SOL    HW126291   0.353   4.039   5.443 -1.7570 -1.7558  0.8235
 4886SOL    HW226292   0.329   4.178   5.397  0.9770 -1.0472  3.5394
 4887SOL     OW26293   2.104   1.270   8.589  0.0534  0.2302 -1.0554
 4887SOL    HW126294   2.055   1.344   8.624  0.7623 -0.9734  2.4606
 4887SOL    HW226295   2.102   1.276   8.493  0.4118  2.1782 -0.9470
 4888SOL     OW26296   1.191   1.918   0.317 -0.1059 -0.2839 -0.2094
 4888SOL    HW126297   1.181   1.852   0.386 -0.6011  0.5160  0.4781
 4888SOL    HW226298   1.111   1.893   0.270  0.9687 -0.7544 -1.7742
 4889SOL     OW26299   4.303   0.130   8.116 -0.4914 -0.4664  0.1070
 4889SOL    HW126300   4.380   0.150   8.063 -0.8611  0.9201  0.0797
 4889SOL    HW226301   4.343   0.095   8.195 -2.5832 -1.3481  0.7738
 4890SOL     OW26302   1.467   2.318  13.789  0.7968  0.1573  0.0030
 4890SOL    HW126303   1.527   2.386  13.757 -0.5297  1.7173  0.8377
 4890SOL    HW226304   1.449   2.272  13.707  0.9374 -1.4970  0.9024
 4891SOL     OW26305   0.913   0.396  14.737 -0.5356  0.4849 -0.0459
 4891SOL    HW126306   0.976   0.411  14.667 -1.4773  1.5488 -0.6740
 4891SOL    HW226307   0.852   0.463  14.704  0.8637  1.4027 -0.7396
 4892SOL     OW26308   2.807   2.173   6.272  0.2581 -0.1926 -0.6075
 4892SOL    HW126309   2.725   2.129   6.297  1.1352 -0.2875  2.1840
 4892SOL    HW226310   2.809   2.258   6.316 -1.2705 -0.4382 -0.0456
 4893SOL     OW26311   1.201   3.326   5.752  0.5290  0.1857  0.0418
 4893SOL    HW126312   1.244   3.291   5.674  0.1281  0.7686 -0.4349
 4893SOL    HW226313   1.245   3.257   5.802  3.2969  1.0006 -1.2420
 4894SOL     OW26314   2.775   3.185   6.909  0.4339  0.3927 -0.2815
 4894SOL    HW126315   2.682   3.183   6.931  1.2006 -1.5329  2.8671
 4894SOL    HW226316   2.814   3.158   6.992 -0.4768 -0.3380 -0.0969
 4895SOL     OW26317   2.877   3.995   2.717  0.2783 -0.2156  0.1811
 4895SOL    HW126318   2.887   4.047   2.797 -0.3816 -0.9733  0.7520
 4895SOL    HW226319   2.952   4.039   2.675  1.5384 -1.2178  1.3874
 4896SOL     OW26320   0.069   4.715  11.998  0.2119  0.2410  0.1325
 4896SOL    HW126321   0.110   4.659  12.064  1.3353  0.1707 -0.6217
 4896SOL    HW226322   4.721   4.673  11.980  0.0096  0.3896  0.7244
 4897SOL     OW26323   3.312   1.427   7.028  0.2452  0.1124 -0.2337
 4897SOL    HW126324   3.315   1.334   7.007 -1.0849  0.1184 -0.4109
 4897SOL    HW226325   3.236   1.440   7.084  1.5804 -0.4755  1.6914
 4898SOL     OW26326   4.370   2.553   5.838 -0.7679  0.4547 -1.0019
 4898SOL    HW126327   4.383   2.551   5.932 -4.8996 -0.3738 -0.4534
 4898SOL    HW226328   4.281   2.518   5.831 -0.0567 -1.9941  2.2737
 4899SOL     OW26329   1.643   0.478  13.113 -1.0030 -0.1454 -0.3908
 4899SOL    HW126330   1.611   0.550  13.167 -0.3282  0.9149 -1.4056
 4899SOL    HW226331   1.638   0.398  13.166  1.0874 -0.3192 -0.4727
 4900SOL     OW26332   1.600   2.989   8.129  0.3979 -0.0229  0.4784
 4900SOL    HW126333   1.559   2.906   8.107  0.8982 -0.1766  0.1303
 4900SOL    HW226334   1.523   3.037   8.161 -1.4838 -1.5005 -1.8952
 4901SOL     OW26335   1.870   3.656   8.263  0.3885 -0.2704 -0.3308
 4901SOL    HW126336   1.820   3.577   8.242 -2.1690  0.7725  1.8372
 4901SOL    HW226337   1.877   3.705   8.181  1.0652  1.8230  0.9679
 4902SOL     OW26338   0.109   0.574   2.559 -0.2629 -0.0940  0.2355
 4902SOL    HW126339   0.058   0.579   2.640 -0.8211  1.0590 -0.1904
 4902SOL    HW226340   0.100   0.480   2.540  1.3456 -0.2935  0.5270
 4903SOL     OW26341   3.843   1.775  12.427  0.4629 -0.1570  0.3506
 4903SOL    HW126342   3.882   1.704  12.376  1.4847 -0.4184  1.4900
 4903SOL    HW226343   3.928   1.813  12.448  0.5200  1.0690 -2.1086
 4904SOL     OW26344   1.488   4.686   6.180  0.3373  0.5655  0.0610
 4904SOL    HW126345   1.507   0.043   6.187 -2.0262  1.0572 -0.0216
 4904SOL    HW226346   1.501   4.677   6.085 -1.5916 -1.1845 -0.0381
 4905SOL     OW26347   2.374   1.946   4.714 -0.1610 -0.3117 -0.3950
 4905SOL    HW126348   2.345   1.919   4.628  0.9063 -1.4769 -0.3863
 4905SOL    HW226349   2.465   1.927   4.694  0.5570  0.7784  1.7460
 4906SOL     OW26350   0.321   4.067   9.122  0.1483 -0.2086  0.3157
 4906SOL    HW126351   0.344   4.088   9.031  0.6920 -0.4020  0.4053
 4906SOL    HW226352   0.234   4.105   9.130  1.4149  2.5451  1.1218
 4907SOL     OW26353   2.966   4.553   1.399 -0.0412 -0.3451  0.2248
 4907SOL    HW126354   2.936   4.474   1.446  0.1383  0.8160  2.2902
 4907SOL    HW226355   2.989   4.601   1.478 -0.6372  0.1520  0.0974
 4908SOL     OW26356   1.682   2.436  10.694  0.2437  0.0439  0.2007
 4908SOL    HW126357   1.718   2.484  10.769  0.6768 -2.5223  1.6034
 4908SOL    HW226358   1.763   2.394  10.665  0.8057  0.5181  1.0628
 4909SOL     OW26359   3.213   4.501   4.388  0.2128  0.1757  0.3776
 4909SOL    HW126360   3.139   4.553   4.356  0.7444  1.7049  1.6277
 4909SOL    HW226361   3.257   4.571   4.437  0.6129 -0.0799  0.3790
 4910SOL     OW26362   4.648   0.375   3.289  0.3344  0.1260 -0.3772
 4910SOL    HW126363   4.644   0.453   3.233 -1.1152  0.5545  0.3073
 4910SOL    HW226364   4.728   0.336   3.255 -0.1736 -0.4174 -0.9403
 4911SOL     OW26365   2.309   2.569   2.781 -0.0215  0.6977  0.0671
 4911SOL    HW126366   2.379   2.629   2.807  2.1306 -1.8740  0.3582
 4911SOL    HW226367   2.348   2.531   2.702 -0.8386  0.0879 -0.0410
 4912SOL     OW26368   2.443   0.310   4.618 -0.3789 -0.5521  0.2182
 4912SOL    HW126369   2.510   0.252   4.581  1.8612  1.7366  0.6638
 4912SOL    HW226370   2.422   0.356   4.537  0.9551 -1.5662 -0.7147
 4913SOL     OW26371   4.539   0.730   1.890  0.1252 -0.4249  0.3221
 4913SOL    HW126372   4.611   0.685   1.932  0.6621  0.4212  0.3096
 4913SOL    HW226373   4.471   0.683   1.939  0.3367  0.8392  1.7993
 4914SOL     OW26374   3.599   1.401   9.343  0.2473  0.3275 -0.1637
 4914SOL    HW126375   3.645   1.438   9.419 -1.5767 -0.1461  1.1617
 4914SOL    HW226376   3.511   1.380   9.376  1.3069 -2.7672  0.7769
 4915SOL     OW26377   1.073   4.287   5.171  0.2972  0.3474 -0.2421
 4915SOL    HW126378   1.113   4.374   5.178  1.6204 -0.4029  1.8439
 4915SOL    HW226379   0.992   4.296   5.220  0.1689 -2.1369  0.0019
 4916SOL     OW26380   3.699   1.034  13.974  0.1037  0.0583  0.1104
 4916SOL    HW126381   3.763   1.090  14.019  0.3984  1.4862 -2.0826
 4916SOL    HW226382   3.727   1.016  13.885  0.2255 -1.1118  0.3824
 4917SOL     OW26383   1.728   3.413   0.549 -0.0039 -0.1461  0.2192
 4917SOL    HW126384   1.803   3.413   0.490  1.4216 -1.7898  2.0502
 4917SOL    HW226385   1.752   3.461   0.629 -0.9596  0.6089  0.0562
 4918SOL     OW26386   1.527   3.026   5.715 -0.2771  0.1229  0.2241
 4918SOL    HW126387   1.604   3.074   5.685  0.8815 -0.5973  1.9971
 4918SOL    HW226388   1.452   3.082   5.695 -1.1216 -1.3264 -0.6963
 4919SOL     OW26389   0.025   1.386  13.777 -0.6632  0.6457 -0.2442
 4919SOL    HW126390   0.113   1.390  13.814 -0.3065 -0.3666 -0.9760
 4919SOL    HW226391   4.713   1.368  13.857  0.7597  1.7046  0.8655
 4920SOL     OW26392   4.054   2.239   3.524 -0.5747 -0.7796 -0.2810
 4920SOL    HW126393   4.013   2.211   3.606  1.1294  1.6136  1.4027
 4920SOL    HW226394   4.093   2.156   3.498 -0.8648 -0.6722 -1.0770
 4921SOL     OW26395   0.749   0.838  12.174 -0.2916 -0.0949  0.1284
 4921SOL    HW126396   0.841   0.828  12.148 -0.5081 -0.3273 -0.5280
 4921SOL    HW226397   0.749   0.764  12.236  3.3227 -0.6610 -0.5397
 4922SOL     OW26398   3.351   2.042   5.704 -0.1831 -0.5831  0.6439
 4922SOL    HW126399   3.434   1.995   5.711  0.4990  0.3525 -1.0521
 4922SOL    HW226400   3.330   2.026   5.612 -0.6487  1.5644  0.3895
 4923SOL     OW26401   4.482   1.304  10.133  0.2017  0.4391  0.4932
 4923SOL    HW126402   4.472   1.245  10.058 -0.7139  0.3196  0.7003
 4923SOL    HW226403   4.577   1.314  10.129  0.1623  0.1441 -1.3498
 4924SOL     OW26404   0.087   0.676   9.136 -0.3771 -0.2570  0.0852
 4924SOL    HW126405   0.112   0.753   9.085 -0.9905 -0.5637 -0.6686
 4924SOL    HW226406   0.165   0.670   9.192 -0.2370  1.8692  0.1024
 4925SOL     OW26407   3.773   3.805  16.460  0.1873  0.0476  0.0540
 4925SOL    HW126408   3.823   3.724  16.471  3.9173  1.9094 -3.1778
 4925SOL    HW226409   3.818   3.825  16.377  1.7632  0.7873  1.0747
 4926SOL     OW26410   1.006   3.344   6.504  0.4298  0.3319 -0.2660
 4926SOL    HW126411   0.960   3.266   6.472  4.3133 -1.8476 -0.5812
 4926SOL    HW226412   1.086   3.349   6.453 -0.5534 -0.4246 -1.8930
 4927SOL     OW26413   3.132   4.385   3.996 -0.1830 -0.0995  0.1141
 4927SOL    HW126414   3.114   4.479   3.990 -2.2774 -0.5140 -0.2594
 4927SOL    HW226415   3.051   4.344   3.965 -1.5205  0.9674  2.1576
 4928SOL     OW26416   1.132   2.137  17.532  0.1082  0.0318  0.5196
 4928SOL    HW126417   1.206   2.175  17.579 -0.2607 -1.7676  2.5330
 4928SOL    HW226418   1.138   2.183  17.448  1.4040 -0.8313  0.1474
 4929SOL     OW26419   2.477   0.596  12.716  0.0799  0.4779  0.3060
 4929SOL    HW126420   2.552   0.585  12.775 -0.3566 -2.9283  0.2596
 4929SOL    HW226421   2.519   0.596  12.630  3.1274  0.7100  1.8055
 4930SOL     OW26422   0.190   2.466   2.337  0.1890  0.3253  0.2411
 4930SOL    HW126423   0.126   2.501   2.276 -0.3264 -0.4350  0.3477
 4930SOL    HW226424   0.196   2.548   2.387  0.3878  0.6990 -0.3962
 4931SOL     OW26425   0.165   0.137   6.167  0.1068 -0.1866  0.7716
 4931SOL    HW126426   0.096   0.161   6.105 -0.3023  1.3451  1.8081
 4931SOL    HW226427   0.152   0.043   6.181  1.0807 -0.6860 -1.7268
 4932SOL     OW26428   0.762   2.062  11.198 -0.1496  0.0671 -0.0889
 4932SOL    HW126429   0.836   2.010  11.230 -0.7457 -0.9137 -0.3205
 4932SOL    HW226430   0.803   2.088  11.116  0.8019 -1.7300 -0.1893
 4933SOL     OW26431   3.542   2.347   5.356 -0.2821  0.7614  0.5451
 4933SOL    HW126432   3.555   2.393   5.273 -0.5803  0.6579  0.4379
 4933SOL    HW226433   3.632   2.344   5.386  0.6319 -3.0812 -2.5776
 4934SOL     OW26434   3.000   1.132   9.326 -0.2136 -0.0085  0.6830
 4934SOL    HW126435   3.020   1.128   9.419  2.9844  0.3959  0.0038
 4934SOL    HW226436   2.941   1.207   9.334 -0.4425 -0.2415  1.1510
 4935SOL     OW26437   2.924   4.520   8.001 -0.4657 -0.3996 -0.5411
 4935SOL    HW126438   2.939   4.563   8.085  0.2835  1.1091 -1.4336
 4935SOL    HW226439   2.840   4.477   8.015  0.4366 -1.7613  0.6669
 4936SOL     OW26440   3.065   0.880  15.671  0.2660  0.0851 -0.0051
 4936SOL    HW126441   2.978   0.919  15.681 -0.2137 -0.7242 -1.0088
 4936SOL    HW226442   3.080   0.888  15.577 -0.2040  0.9450 -0.0061
 4937SOL     OW26443   1.088   3.616  13.107  0.2468 -0.3279 -0.1743
 4937SOL    HW126444   1.044   3.638  13.025  1.1146  0.3028 -0.4699
 4937SOL    HW226445   1.181   3.608  13.086 -0.3048 -0.2382 -2.6397
 4938SOL     OW26446   0.953   2.090   4.777 -0.1187  0.2174  0.2525
 4938SOL    HW126447   0.996   2.026   4.720  1.6673  2.3230 -0.7745
 4938SOL    HW226448   0.872   2.112   4.732 -0.0858  1.6340  0.9074
 4939SOL     OW26449   3.999   2.298   8.495 -0.5117 -0.9143 -1.0794
 4939SOL    HW126450   4.036   2.252   8.570  1.3403  1.8321 -0.3064
 4939SOL    HW226451   3.927   2.350   8.532  0.6722 -1.5742  2.1934
 4940SOL     OW26452   1.086   0.116   2.376 -0.0533  0.5132 -0.6268
 4940SOL    HW126453   1.170   0.161   2.365  1.4099 -2.3142 -0.9469
 4940SOL    HW226454   1.026   0.191   2.381 -1.8355 -0.8662 -1.3081
 4941SOL     OW26455   0.972   1.919  11.270 -0.3177  0.8152 -0.0935
 4941SOL    HW126456   1.060   1.948  11.243  0.6543 -0.2218  1.9767
 4941SOL    HW226457   0.997   1.916  11.362  1.7325  1.0061 -0.6206
 4942SOL     OW26458   1.180   3.242   7.491  0.3628  0.5015  0.1461
 4942SOL    HW126459   1.135   3.161   7.513 -0.2386  1.0469  0.9209
 4942SOL    HW226460   1.226   3.222   7.409 -0.0044  0.7823 -0.1288
 4943SOL     OW26461   3.888   1.684   8.039  0.2853  0.2289  0.2550
 4943SOL    HW126462   3.894   1.642   8.125 -2.2277 -2.0019 -0.6499
 4943SOL    HW226463   3.808   1.736   8.052  2.1106  2.7392  1.5037
 4944SOL     OW26464   3.909   3.605  16.530  0.2210  0.0158  0.4322
 4944SOL    HW126465   3.999   3.611  16.562  0.8740  2.7507 -1.9323
 4944SOL    HW226466   3.859   3.637  16.606  0.1440  0.7981  0.0484
 4945SOL     OW26467   2.148   1.713   2.295 -0.2429  0.3663  0.3387
 4945SOL    HW126468   2.202   1.778   2.340  0.4211  0.3602 -0.4493
 4945SOL    HW226469   2.099   1.767   2.232  0.2485  2.4139  1.6980
 4946SOL     OW26470   0.598   4.333  13.638 -0.2710  0.2161 -0.0803
 4946SOL    HW126471   0.524   4.277  13.616  0.3690 -1.4441  1.9523
 4946SOL    HW226472   0.665   4.279  13.679  0.6791  0.0612 -1.8443
 4947SOL     OW26473   1.984   0.792   6.971 -0.1806 -0.3572 -0.2965
 4947SOL    HW126474   1.973   0.842   6.890  0.2635  0.0042 -0.1292
 4947SOL    HW226475   2.002   0.704   6.938  0.7342 -0.1784 -0.2706
 4948SOL     OW26476   4.088   2.147  12.967 -0.1457 -0.4266 -0.0926
 4948SOL    HW126477   4.073   2.068  13.018 -1.7978  0.3112  0.5721
 4948SOL    HW226478   3.997   2.177  12.963 -0.1318 -0.3010  0.4685
 4949SOL     OW26479   3.737   1.925  12.103  0.1366  0.6993 -0.0499
 4949SOL    HW126480   3.661   1.940  12.158  0.8671  1.8861  0.6290
 4949SOL    HW226481   3.801   1.975  12.153 -0.6129  1.5732  0.0321
 4950SOL     OW26482   4.210   4.091   5.766  0.4329  0.2482 -0.3900
 4950SOL    HW126483   4.243   4.174   5.731 -0.2732  1.3644  1.6285
 4950SOL    HW226484   4.149   4.060   5.699  2.9230  0.2685 -2.6631
 4951SOL     OW26485   3.904   1.963   3.542  0.5255  0.8508 -0.4887
 4951SOL    HW126486   3.816   1.926   3.544  0.3567  1.2783 -0.1116
 4951SOL    HW226487   3.889   2.010   3.624  2.4873  0.0591  0.3252
 4952SOL     OW26488   3.130   0.560   8.406  0.0937  0.1494 -0.2957
 4952SOL    HW126489   3.092   0.509   8.478 -0.2395  2.1367  0.9304
 4952SOL    HW226490   3.191   0.491   8.380  0.9282  1.2220 -1.1920
 4953SOL     OW26491   0.017   1.840   9.459 -0.0451  0.0272  0.7709
 4953SOL    HW126492   0.109   1.851   9.434 -1.1333  2.2745 -2.4257
 4953SOL    HW226493   4.734   1.931   9.480  1.6858  0.6574 -0.3040
 4954SOL     OW26494   2.832   3.582   0.260 -0.6765 -0.8078  0.0812
 4954SOL    HW126495   2.827   3.676   0.274 -1.9010 -0.7169 -0.9784
 4954SOL    HW226496   2.899   3.577   0.192 -0.9794 -0.0647 -0.2702
 4955SOL     OW26497   3.970   3.522  15.130  0.1795  0.3698  0.1158
 4955SOL    HW126498   4.018   3.444  15.160 -1.8791 -0.4982  1.1018
 4955SOL    HW226499   3.950   3.506  15.038  1.3502  0.2837 -0.1315
 4956SOL     OW26500   0.864   3.691   3.209  0.2164  0.2522  0.1303
 4956SOL    HW126501   0.895   3.781   3.213 -0.0055  0.2723  1.4637
 4956SOL    HW226502   0.940   3.634   3.218  0.9336  0.9093 -1.8132
 4957SOL     OW26503   3.169   0.627   0.406 -0.3476  0.3506  0.7157
 4957SOL    HW126504   3.220   0.587   0.336  0.8742 -0.4077  2.0342
 4957SOL    HW226505   3.097   0.564   0.404  1.2058 -1.3284 -1.5634
 4958SOL     OW26506   2.967   1.298   5.332 -0.3829 -0.0961  0.0472
 4958SOL    HW126507   3.048   1.347   5.318 -0.6304  0.1954 -0.3633
 4958SOL    HW226508   2.912   1.347   5.271 -0.7151  0.4737  0.8020
 4959SOL     OW26509   1.637   0.393   4.460 -0.3774 -0.3058  1.0907
 4959SOL    HW126510   1.621   0.356   4.547 -1.6337 -1.0769  0.5439
 4959SOL    HW226511   1.694   0.327   4.420 -2.6885 -0.6622 -1.6261
 4960SOL     OW26512   3.543   0.966   7.025 -0.1620 -1.1513  0.0542
 4960SOL    HW126513   3.615   0.902   7.028 -1.0210 -2.1070  0.2064
 4960SOL    HW226514   3.474   0.924   7.076 -1.7396  1.3871 -0.0155
 4961SOL     OW26515   0.825   1.565  15.222 -0.6612 -0.3915 -0.0865
 4961SOL    HW126516   0.818   1.480  15.178 -0.0967 -0.9217  0.8308
 4961SOL    HW226517   0.886   1.612  15.165 -0.2411 -0.7742  0.0434
 4962SOL     OW26518   3.051   0.724  12.452  0.0558  0.7210  0.2740
 4962SOL    HW126519   3.120   0.751  12.513  0.0632 -0.5357  0.8280
 4962SOL    HW226520   3.080   0.634  12.439 -1.1103  0.0524  2.3893
 4963SOL     OW26521   2.409   0.109   8.315 -0.2841  0.1341 -0.2587
 4963SOL    HW126522   2.401   0.192   8.268 -1.2711  1.0798  1.5456
 4963SOL    HW226523   2.320   0.097   8.350 -0.7020  3.8468 -0.0409
 4964SOL     OW26524   1.848   2.614  17.215  0.1312 -0.3272 -0.1879
 4964SOL    HW126525   1.918   2.628  17.151  0.3423  0.3300  0.1876
 4964SOL    HW226526   1.790   2.563  17.159  0.3592  0.6222 -1.2973
 4965SOL     OW26527   1.940   1.586  11.644  0.1810 -0.1069 -0.4526
 4965SOL    HW126528   1.922   1.495  11.618 -1.6674  0.3141 -0.5933
 4965SOL    HW226529   2.026   1.563  11.681 -1.1401 -1.2107  1.9327
 4966SOL     OW26530   4.062   2.904   3.164 -0.6285  0.0041 -0.5275
 4966SOL    HW126531   4.115   2.963   3.217 -0.6024 -0.3990 -0.1036
 4966SOL    HW226532   4.059   2.824   3.216 -0.8893  0.6725  0.4717
 4967SOL     OW26533   0.320   1.991   2.328 -0.4366  0.1268 -0.0214
 4967SOL    HW126534   0.343   2.082   2.311  0.2839 -0.0568  0.0024
 4967SOL    HW226535   0.401   1.949   2.355 -1.8932 -0.9472  2.6341
 4968SOL     OW26536   2.352   1.863  14.177  0.5152 -0.4514 -0.1535
 4968SOL    HW126537   2.416   1.814  14.126  1.0759  2.6630 -2.4299
 4968SOL    HW226538   2.296   1.887  14.103  0.3166 -2.6477 -0.7257
 4969SOL     OW26539   0.546   2.645   3.646 -0.1468 -0.5873  0.0603
 4969SOL    HW126540   0.459   2.683   3.662  0.2266  0.2098  0.1714
 4969SOL    HW226541   0.599   2.710   3.601  0.5979 -0.3443  1.2736
 4970SOL     OW26542   3.722   4.163  11.132 -0.1930  0.1003  0.3033
 4970SOL    HW126543   3.774   4.243  11.145  1.6055 -0.9081 -0.8103
 4970SOL    HW226544   3.724   4.138  11.040  0.1645  1.0418  0.0490
 4971SOL     OW26545   3.827   1.573   8.292 -0.0532 -0.6875  0.5528
 4971SOL    HW126546   3.764   1.517   8.338 -2.8669  0.6376 -1.6850
 4971SOL    HW226547   3.893   1.593   8.358 -1.0039  0.9586  1.0189
 4972SOL     OW26548   4.119   3.635   1.115  0.2037  0.4890 -0.1514
 4972SOL    HW126549   4.099   3.599   1.202  0.6814  1.6915  0.4670
 4972SOL    HW226550   4.182   3.572   1.081  1.8741  0.8049  2.3636
 4973SOL     OW26551   0.932   4.337   9.020 -0.2181 -0.7356  0.0834
 4973SOL    HW126552   0.952   4.297   8.935  0.0167 -1.3531  0.4249
 4973SOL    HW226553   1.007   4.396   9.023 -0.9764  0.2552 -0.7911
 4974SOL     OW26554   0.635   0.471   2.213  0.3048 -0.3324 -0.5092
 4974SOL    HW126555   0.640   0.377   2.197  0.0185 -0.1914 -1.4143
 4974SOL    HW226556   0.544   0.499   2.198  0.9261  1.2519 -1.3896
 4975SOL     OW26557   2.724   1.628   7.769  0.7877 -0.1518  0.2247
 4975SOL    HW126558   2.747   1.623   7.676 -0.7161 -0.4248 -0.1301
 4975SOL    HW226559   2.708   1.723   7.770  0.9979 -0.0898 -2.5892
 4976SOL     OW26560   3.552   4.224   7.950  0.1187 -0.0173 -0.4845
 4976SOL    HW126561   3.532   4.134   7.975 -1.0836 -0.2638 -2.3639
 4976SOL    HW226562   3.624   4.243   8.010  0.3588 -1.9734 -0.1588
 4977SOL     OW26563   4.024   3.691   3.894 -0.3080 -0.3742 -0.1773
 4977SOL    HW126564   4.096   3.712   3.953  0.2162  0.8804 -1.2729
 4977SOL    HW226565   3.959   3.753   3.927  0.2643  0.9433 -1.5468
 4978SOL     OW26566   0.473   1.753   5.501 -0.0767 -0.1313  0.0840
 4978SOL    HW126567   0.532   1.755   5.576 -1.4036 -0.8086  1.1352
 4978SOL    HW226568   0.386   1.736   5.537 -0.0017 -0.9111 -0.1056
 4979SOL     OW26569   3.657   1.496   2.867  0.2912  0.3349  0.2171
 4979SOL    HW126570   3.712   1.574   2.875  1.6832 -0.3032 -3.2384
 4979SOL    HW226571   3.715   1.420   2.866  0.5675  0.5456  0.4162
 4980SOL     OW26572   1.639   3.577   5.439 -0.6862  0.6769 -0.2305
 4980SOL    HW126573   1.562   3.570   5.495 -0.9255  0.1026 -0.6372
 4980SOL    HW226574   1.605   3.555   5.352  0.8319  0.6264 -0.8160
 4981SOL     OW26575   3.460   3.215   3.060  0.6594 -0.9024  0.4096
 4981SOL    HW126576   3.371   3.192   3.085 -0.1042  0.8380 -0.7326
 4981SOL    HW226577   3.507   3.195   3.141  1.8243 -0.0664 -0.0575
 4982SOL     OW26578   4.122   4.633   5.682  0.1832 -0.0365  0.1249
 4982SOL    HW126579   4.158   4.698   5.742 -1.6985  1.4103 -0.3135
 4982SOL    HW226580   4.179   4.636   5.605  0.4843 -2.5017  0.2415
 4983SOL     OW26581   1.282   0.572  15.855 -0.1892 -0.0985  0.0496
 4983SOL    HW126582   1.206   0.629  15.847  0.0308  0.1336 -0.3496
 4983SOL    HW226583   1.353   0.630  15.882  2.9089 -3.3127 -1.0886
 4984SOL     OW26584   4.580   0.983   6.862  0.2803 -0.0317  0.2866
 4984SOL    HW126585   4.568   1.052   6.929  2.6049  0.1374  0.5275
 4984SOL    HW226586   4.580   1.037   6.783 -1.3650 -1.3019 -0.5551
 4985SOL     OW26587   0.417   2.061  12.031 -0.3131 -0.6250  0.1380
 4985SOL    HW126588   0.367   1.985  12.004 -3.1279  0.7629  1.4852
 4985SOL    HW226589   0.402   2.117  11.954 -0.3030 -2.0712 -0.9181
 4986SOL     OW26590   0.317   1.230   9.182 -0.5935  0.5253 -0.6175
 4986SOL    HW126591   0.274   1.281   9.251 -0.7699 -2.1752  1.3132
 4986SOL    HW226592   0.402   1.273   9.189 -0.7473  0.8883 -0.9810
 4987SOL     OW26593   0.726   0.828   1.139 -0.0267 -0.2412  0.0564
 4987SOL    HW126594   0.718   0.919   1.110  2.8715 -0.1110 -0.3214
 4987SOL    HW226595   0.796   0.795   1.083  0.4549  0.3998  0.2941
 4988SOL     OW26596   2.269   4.632   9.454 -0.0812  0.1586  0.1534
 4988SOL    HW126597   2.294   4.668   9.539 -1.1099  0.6768  0.2362
 4988SOL    HW226598   2.190   4.682   9.435 -0.3274  0.1877  1.3177
 4989SOL     OW26599   3.875   2.698   9.948  0.0450 -0.2880 -0.2717
 4989SOL    HW126600   3.952   2.710  10.004 -0.4627 -3.0864  1.0834
 4989SOL    HW226601   3.808   2.705  10.016 -0.3236  2.0259 -0.9074
 4990SOL     OW26602   2.893   0.166   5.797  0.0729  0.2127 -0.3718
 4990SOL    HW126603   2.859   0.089   5.843 -0.1619  0.2685 -0.4534
 4990SOL    HW226604   2.925   0.125   5.717 -3.7250 -1.0033 -1.2304
 4991SOL     OW26605   1.312   3.197   6.749  0.4574 -0.4653 -0.4655
 4991SOL    HW126606   1.285   3.282   6.715 -2.7375 -2.0693 -1.8735
 4991SOL    HW226607   1.406   3.207   6.764  0.2818 -0.1028  0.3506
 4992SOL     OW26608   1.847   1.304   8.383 -0.2132  0.2692  0.1386
 4992SOL    HW126609   1.933   1.307   8.342 -0.6320 -0.2272 -0.7887
 4992SOL    HW226610   1.829   1.210   8.390 -0.8012  0.3802  0.1436
 4993SOL     OW26611   3.053   0.124   4.173  0.2223  0.1505  0.1912
 4993SOL    HW126612   3.058   0.057   4.242  0.0854  1.5929  1.6138
 4993SOL    HW226613   3.097   0.195   4.221 -0.2032 -0.2485  1.1832
 4994SOL     OW26614   0.748   1.873   4.980 -1.0314 -0.1588  0.0566
 4994SOL    HW126615   0.666   1.825   4.979  0.1364 -2.2046  2.9269
 4994SOL    HW226616   0.713   1.962   4.975  1.3104  0.8160  0.7847
 4995SOL     OW26617   1.397   0.725   9.031 -0.6976 -0.5117 -0.4150
 4995SOL    HW126618   1.447   0.712   8.950  0.4802 -0.2937  0.2854
 4995SOL    HW226619   1.464   0.740   9.098 -3.4672  2.5255  1.6920
 4996SOL     OW26620   1.016   1.193   9.406  0.3748  0.4413 -0.2588
 4996SOL    HW126621   1.089   1.131   9.412  1.2356  1.5477  0.5684
 4996SOL    HW226622   0.992   1.191   9.313 -1.8749 -2.3645  0.3847
 4997SOL     OW26623   2.133   3.204   8.969 -0.4350  0.3239  0.0874
 4997SOL    HW126624   2.092   3.137   9.023  1.1289 -0.4827  0.2803
 4997SOL    HW226625   2.126   3.282   9.023  1.7289  1.2534 -0.9543
 4998SOL     OW26626   3.109   4.135   8.493  0.2347 -0.0086 -0.1187
 4998SOL    HW126627   3.016   4.158   8.496  0.6472  1.5157  0.6821
 4998SOL    HW226628   3.125   4.119   8.586  0.7551  3.1858  0.3504
 4999SOL     OW26629   4.586   0.332   4.651 -0.3272 -0.1692  0.3969
 4999SOL    HW126630   4.605   0.417   4.690  0.0329  0.1069 -0.3912
 4999SOL    HW226631   4.500   0.318   4.690 -0.1892  0.8264  1.0532
 5000SOL     OW26632   1.364   0.629   3.088 -0.1782  0.6459 -0.1982
 5000SOL    HW126633   1.424   0.703   3.095  0.1354  0.2122  1.7116
 5000SOL    HW226634   1.378   0.605   2.997 -1.2396 -1.3515  0.1566
 5001SOL     OW26635   1.572   1.886   1.417  0.0845  0.3196  0.3127
 5001SOL    HW126636   1.591   1.905   1.509  0.4206 -0.0647  0.3253
 5001SOL    HW226637   1.589   1.967   1.369  2.6723  0.5806  1.6787
 5002SOL     OW26638   1.514   1.211   3.051 -0.3573  0.2050 -0.1816
 5002SOL    HW126639   1.487   1.276   3.116 -2.0610 -1.2818  0.5944
 5002SOL    HW226640   1.450   1.141   3.062  0.6637 -0.1761  3.2459
 5003SOL     OW26641   2.866   1.058  14.724 -0.3249  0.6354  0.1674
 5003SOL    HW126642   2.900   1.122  14.662 -1.3044  2.0556  1.1019
 5003SOL    HW226643   2.821   0.986  14.681  0.2986  0.8522 -0.8470
 5004SOL     OW26644   4.580   3.446   5.051  0.3102 -0.0455  0.2662
 5004SOL    HW126645   4.529   3.459   5.131 -1.4324 -0.1611 -0.8207
 5004SOL    HW226646   4.605   3.533   5.019 -0.1516  0.5542  1.5193
 5005SOL     OW26647   0.103   4.112  16.381  0.1898  0.0571  0.6171
 5005SOL    HW126648   0.151   4.171  16.323  0.7358 -2.4094 -1.4811
 5005SOL    HW226649   0.130   4.033  16.334  1.1428  0.9182 -0.2785
 5006SOL     OW26650   4.044   1.859  13.901 -0.2513 -0.4075 -0.8257
 5006SOL    HW126651   4.017   1.916  13.973 -0.9459 -0.9359 -0.6686
 5006SOL    HW226652   4.110   1.916  13.861 -0.7457 -0.3799 -1.5967
 5007SOL     OW26653   0.433   3.168   7.173  0.2404  0.0918 -0.1516
 5007SOL    HW126654   0.447   3.108   7.246  1.5816 -0.4427 -0.8514
 5007SOL    HW226655   0.523   3.195   7.153  0.2849 -0.6179 -0.8869
 5008SOL     OW26656   0.406   2.547   1.788  0.2795  0.2266  0.7030
 5008SOL    HW126657   0.330   2.579   1.740  0.2691 -0.3254  0.3514
 5008SOL    HW226658   0.470   2.527   1.719  1.2574  0.3276  1.5780
 5009SOL     OW26659   1.874   3.947  11.842  0.1170  0.2309 -0.3093
 5009SOL    HW126660   1.831   3.880  11.789  2.5067  0.9112 -3.0881
 5009SOL    HW226661   1.816   4.020  11.818  0.5296  0.4025 -0.7889
 5010SOL     OW26662   2.302   4.369   3.323  0.1179  0.0288 -0.2969
 5010SOL    HW126663   2.250   4.372   3.243 -2.2249  3.2385  1.3311
 5010SOL    HW226664   2.302   4.274   3.338  1.2318  0.0741 -0.0410
 5011SOL     OW26665   4.037   1.413  14.565 -0.5431  0.0282 -0.3354
 5011SOL    HW126666   4.046   1.469  14.488  1.9812 -1.5169 -1.1794
 5011SOL    HW226667   4.084   1.338  14.527  2.4890  2.1438 -0.7470
 5012SOL     OW26668   0.570   4.362   8.469  0.2846 -0.4331 -0.1413
 5012SOL    HW126669   0.614   4.395   8.391  0.8736  0.9815  0.8092
 5012SOL    HW226670   0.513   4.302   8.420  0.7888  0.8574 -2.3149
 5013SOL     OW26671   3.255   1.800   7.117  0.4890 -0.0648 -0.2049
 5013SOL    HW126672   3.345   1.771   7.105 -0.1538 -2.9122  1.8810
 5013SOL    HW226673   3.262   1.896   7.118 -2.4267  0.1679  0.3354
 5014SOL     OW26674   2.024   3.061   9.181 -0.4290 -0.1266  0.5123
 5014SOL    HW126675   2.109   3.060   9.225 -0.6315 -1.2464  0.8730
 5014SOL    HW226676   1.984   3.139   9.220  0.6800  0.5600  0.2770
 5015SOL     OW26677   2.081   2.826   8.401 -0.3928  0.6644  0.2056
 5015SOL    HW126678   2.116   2.749   8.445 -0.2910 -1.2376 -3.1978
 5015SOL    HW226679   1.992   2.831   8.435  0.0319  0.6078  1.3383
 5016SOL     OW26680   3.577   1.217   8.603  0.1699 -0.6436  0.1984
 5016SOL    HW126681   3.644   1.150   8.589  0.4927 -0.4673  0.9009
 5016SOL    HW226682   3.514   1.163   8.650 -0.8168 -0.5658 -1.0592
 5017SOL     OW26683   2.494   3.930   4.492  0.0188  0.0593  0.1867
 5017SOL    HW126684   2.464   4.008   4.445 -0.8955 -0.7394 -0.5494
 5017SOL    HW226685   2.566   3.908   4.433 -0.3853 -1.0834  0.1163
 5018SOL     OW26686   2.153   2.672   3.762 -0.3431 -0.1156 -0.1782
 5018SOL    HW126687   2.193   2.614   3.698 -2.7038  0.3768 -2.1035
 5018SOL    HW226688   2.228   2.729   3.783 -1.8065  2.4604 -1.8813
 5019SOL     OW26689   1.477   4.462  15.185 -0.4454 -0.1395  0.1062
 5019SOL    HW126690   1.412   4.482  15.118 -1.6122  2.6416  2.0902
 5019SOL    HW226691   1.556   4.483  15.134 -0.2380  2.3200  1.4645
 5020SOL     OW26692   1.736   2.861  17.024 -0.6429 -0.0987 -0.4586
 5020SOL    HW126693   1.662   2.835  16.969 -0.4879 -1.6621  0.0508
 5020SOL    HW226694   1.740   2.949  16.987  0.7141 -0.6714 -1.6876
 5021SOL     OW26695   2.471   4.617   8.002 -0.4756  0.1257 -0.6567
 5021SOL    HW126696   2.426   4.651   8.080 -2.4391  3.5799 -3.3179
 5021SOL    HW226697   2.519   4.697   7.979  0.9380 -0.6722 -0.4582
 5022SOL     OW26698   0.073   1.745   6.766  0.5632  0.7127  0.1079
 5022SOL    HW126699   0.020   1.718   6.841 -0.9421  0.3742 -1.0781
 5022SOL    HW226700   0.096   1.667   6.716  1.6068  0.9970  0.1349
 5023SOL     OW26701   0.776   0.369   7.099 -0.3552 -0.6020  0.2684
 5023SOL    HW126702   0.809   0.439   7.156 -1.3317 -0.2938  0.4615
 5023SOL    HW226703   0.752   0.418   7.020 -1.4067  0.1291  1.0328
 5024SOL     OW26704   1.038   1.222  13.061 -0.0376 -0.2003 -0.4030
 5024SOL    HW126705   1.094   1.145  13.060 -0.6755 -0.6469 -1.3533
 5024SOL    HW226706   0.993   1.212  12.977 -1.8942 -0.7394  0.6545
 5025SOL     OW26707   1.761   0.861   4.978 -0.4011 -0.2212 -0.0311
 5025SOL    HW126708   1.679   0.883   5.023 -0.0798  1.4732 -0.2768
 5025SOL    HW226709   1.755   0.773   5.017  0.8595  0.9216  2.7036
 5026SOL     OW26710   0.917   2.124   7.938 -0.2515 -0.3460  0.0966
 5026SOL    HW126711   0.931   2.045   7.887 -0.3385  0.5810 -1.3621
 5026SOL    HW226712   0.968   2.100   8.016  0.7038  0.3049 -0.3322
 5027SOL     OW26713   2.549   1.293   7.495 -0.2500 -0.2917 -0.0461
 5027SOL    HW126714   2.468   1.312   7.447  0.2265 -0.0575 -0.7548
 5027SOL    HW226715   2.616   1.291   7.427  1.6374  1.3574  1.7736
 5028SOL     OW26716   3.511   3.762   1.040 -0.0421 -0.4441 -0.3386
 5028SOL    HW126717   3.466   3.688   0.999 -0.6566 -1.0800  1.4905
 5028SOL    HW226718   3.554   3.721   1.114 -0.6965 -1.6052 -0.6009
 5029SOL     OW26719   2.265   1.998   3.547  0.2416  0.3495  0.6531
 5029SOL    HW126720   2.224   2.056   3.483  0.1989  0.3788  0.7074
 5029SOL    HW226721   2.205   2.021   3.618  0.3272 -1.0979  1.1942
 5030SOL     OW26722   1.420   4.686   2.239 -0.4403  0.4604  0.1887
 5030SOL    HW126723   1.331   4.674   2.207 -0.5819  2.5447 -0.2002
 5030SOL    HW226724   1.402   0.024   2.297  2.1188  0.4197  1.0520
 5031SOL     OW26725   1.930   2.431  16.762  0.3156  0.0909  0.1642
 5031SOL    HW126726   1.900   2.504  16.815  1.5787  2.2666 -2.1632
 5031SOL    HW226727   1.880   2.444  16.681 -0.0684  1.3355  0.6147
 5032SOL     OW26728   0.796   3.021   7.409 -0.5555 -0.4081 -0.3664
 5032SOL    HW126729   0.811   2.936   7.367 -0.6151 -1.6850  2.2283
 5032SOL    HW226730   0.883   3.058   7.425 -0.2992 -1.6877  1.2463
 5033SOL     OW26731   1.693   2.469  17.068  0.6978  0.0967  0.1712
 5033SOL    HW126732   1.696   2.388  17.017  0.5873  0.5924 -0.6196
 5033SOL    HW226733   1.653   2.440  17.150  3.6451 -2.0179  0.8768
 5034SOL     OW26734   2.653   3.721   6.997  0.0036 -0.6320 -0.4710
 5034SOL    HW126735   2.693   3.796   6.953 -0.5104  0.1873  0.4484
 5034SOL    HW226736   2.662   3.647   6.938  1.2102 -0.2581 -0.7520
 5035SOL     OW26737   1.022   2.964   4.392 -0.0888  0.1128  1.2898
 5035SOL    HW126738   1.054   2.952   4.481  1.1468 -1.1411  0.6570
 5035SOL    HW226739   1.027   2.870   4.378  0.9060  0.3477  0.0565
 5036SOL     OW26740   1.252   1.036   7.419 -0.1104  0.7150  0.4892
 5036SOL    HW126741   1.210   1.108   7.372  0.5411 -0.0372 -1.2626
 5036SOL    HW226742   1.284   1.097   7.485  1.8831  0.8249 -0.5832
 5037SOL     OW26743   4.080   2.867   5.805  0.0463  0.1356 -0.0794
 5037SOL    HW126744   4.086   2.851   5.711  0.3742  0.1168 -0.0578
 5037SOL    HW226745   4.015   2.798   5.814 -0.4246  0.7406  1.2302
 5038SOL     OW26746   4.271   1.326   3.786  0.3327 -0.1532 -0.2190
 5038SOL    HW126747   4.185   1.328   3.743 -0.8256  2.4869  2.2017
 5038SOL    HW226748   4.312   1.244   3.759  0.0111 -0.5006  0.3361
 5039SOL     OW26749   0.988   1.968   5.704  0.4299  0.1458  0.3804
 5039SOL    HW126750   0.972   1.948   5.612 -0.3858  0.0073  0.5512
 5039SOL    HW226751   1.002   2.063   5.700  2.4798 -0.1619  0.5293
 5040SOL     OW26752   2.434   0.092   6.833  0.3385 -0.3230 -0.2818
 5040SOL    HW126753   2.379   0.100   6.756 -2.3405 -0.5727  1.5976
 5040SOL    HW226754   2.429   0.180   6.872 -3.0122 -0.5937 -0.1247
 5041SOL     OW26755   0.013   4.582   6.791 -0.8447 -0.0711  0.4411
 5041SOL    HW126756   4.709   4.496   6.800 -1.3080  0.2058  1.0677
 5041SOL    HW226757   0.018   4.607   6.699 -0.8703 -0.4506  0.3390
 5042SOL     OW26758   1.150   4.500  11.328 -0.6497 -0.1665  0.4452
 5042SOL    HW126759   1.104   4.582  11.347  1.1451  1.2000 -1.1570
 5042SOL    HW226760   1.214   4.490  11.399 -2.1187  0.1994  1.8240
 5043SOL     OW26761   0.464   0.961  16.254  0.1624 -0.2972 -0.3077
 5043SOL    HW126762   0.530   0.957  16.184  0.1815  0.7036 -0.3400
 5043SOL    HW226763   0.470   1.049  16.292 -0.0172 -0.0119 -0.9377
 5044SOL     OW26764   2.781   0.548  12.554  0.9030  0.0805  0.3005
 5044SOL    HW126765   2.787   0.642  12.573 -0.4997  0.1855  0.2173
 5044SOL    HW226766   2.701   0.529  12.603  1.4596 -1.0674  0.7495
 5045SOL     OW26767   3.605   2.507   3.468 -0.5199 -0.5394  0.3397
 5045SOL    HW126768   3.597   2.424   3.421 -0.5546 -0.3387 -0.0037
 5045SOL    HW226769   3.701   2.513   3.462 -0.7004  1.1331 -0.6613
 5046SOL     OW26770   4.498   4.351   1.714 -0.4282  0.2160 -0.3834
 5046SOL    HW126771   4.504   4.258   1.695 -1.3891 -0.0616  0.6622
 5046SOL    HW226772   4.459   4.374   1.630 -1.4085  0.8290  0.2433
 5047SOL     OW26773   3.248   2.120   8.163 -0.0236 -0.2006  0.4925
 5047SOL    HW126774   3.212   2.100   8.249 -0.7929  1.4739  0.5443
 5047SOL    HW226775   3.169   2.135   8.112 -0.6438 -0.5744  1.3542
 5048SOL     OW26776   3.341   3.425   6.050  0.0707 -0.5460 -0.1620
 5048SOL    HW126777   3.364   3.496   6.110  0.6651  0.3861 -1.5083
 5048SOL    HW226778   3.414   3.435   5.989 -1.4247  2.4833 -1.3931
 5049SOL     OW26779   3.295   3.423   4.654 -0.2851  0.8080  0.3197
 5049SOL    HW126780   3.216   3.371   4.638  0.1537 -0.6245  2.9178
 5049SOL    HW226781   3.269   3.507   4.615 -0.5009  0.6571  0.1320
 5050SOL     OW26782   2.582   0.002   4.727 -0.2852 -0.1087  0.0268
 5050SOL    HW126783   2.640   0.007   4.802  0.2759 -1.0666 -0.3474
 5050SOL    HW226784   2.510   0.057   4.757  1.2164 -0.5311  4.3223
 5051SOL     OW26785   2.649   3.818   3.226 -0.3284  0.5356  1.0982
 5051SOL    HW126786   2.708   3.818   3.302  0.8963 -2.0836  0.1721
 5051SOL    HW226787   2.711   3.836   3.155  0.6849 -1.3793  1.4834
 5052SOL     OW26788   1.097   0.089   9.855  0.2086  0.4019  0.6336
 5052SOL    HW126789   1.136   0.054   9.936  0.4273 -1.1711 -0.1511
 5052SOL    HW226790   1.158   0.056   9.789 -0.8661  0.9386 -0.6019
 5053SOL     OW26791   0.474   2.073   0.953  0.8616 -0.2941  0.1285
 5053SOL    HW126792   0.397   2.095   1.006 -0.2100 -1.0047 -1.1316
 5053SOL    HW226793   0.444   1.996   0.904  1.2375  0.1794 -0.8385
 5054SOL     OW26794   3.298   0.637   6.047  0.5054 -0.2610  0.3680
 5054SOL    HW126795   3.294   0.571   5.977 -0.4632  1.2161 -0.9536
 5054SOL    HW226796   3.294   0.719   5.998 -2.0386 -1.9326 -2.2270
 5055SOL     OW26797   1.625   1.054   1.302 -0.3270 -0.1361 -0.0248
 5055SOL    HW126798   1.684   1.129   1.301 -1.1888  0.5506  0.4233
 5055SOL    HW226799   1.685   0.996   1.350 -0.0799  0.8314  0.8377
 5056SOL     OW26800   1.295   3.914  15.245  0.5236 -0.1725  0.4642
 5056SOL    HW126801   1.359   3.907  15.174  0.8146  0.1102  0.6979
 5056SOL    HW226802   1.262   4.003  15.230 -2.1592 -1.2970 -0.1962
 5057SOL     OW26803   0.534   2.450   9.944  0.2074 -0.8027 -0.5841
 5057SOL    HW126804   0.619   2.414   9.917 -0.1435 -0.6155 -1.9251
 5057SOL    HW226805   0.478   2.417   9.873 -0.5508 -2.4266  0.7619
 5058SOL     OW26806   0.567   2.908   5.275 -0.3527 -0.5762 -0.1616
 5058SOL    HW126807   0.611   2.976   5.224  0.2574 -0.1974  0.8567
 5058SOL    HW226808   0.603   2.833   5.229 -1.4496 -0.6856 -0.8241
 5059SOL     OW26809   4.011   4.109   8.369 -0.3086 -0.5537 -0.0718
 5059SOL    HW126810   4.001   4.066   8.285  0.4368 -0.9308  0.0403
 5059SOL    HW226811   4.097   4.078   8.396 -0.0182  1.0622  0.8742
 5060SOL     OW26812   0.953   1.283   1.707 -0.5351  0.0313 -0.1933
 5060SOL    HW126813   1.028   1.305   1.652 -2.0362  0.8025 -1.9547
 5060SOL    HW226814   0.880   1.323   1.660 -0.1942  1.4154  0.4633
 5061SOL     OW26815   4.041   1.752   4.503 -0.2280 -0.3399  0.0996
 5061SOL    HW126816   4.019   1.768   4.595  2.3610  0.4407  0.5688
 5061SOL    HW226817   4.087   1.668   4.506  0.4288  0.0884  1.7746
 5062SOL     OW26818   3.635   4.381   3.360  0.1123  0.6160 -0.7772
 5062SOL    HW126819   3.595   4.297   3.336 -0.5774  1.0285 -1.0528
 5062SOL    HW226820   3.686   4.396   3.281  0.6807  1.5033 -0.2423
 5063SOL     OW26821   0.307   4.567   8.469 -0.2280  0.3599 -0.1192
 5063SOL    HW126822   0.300   4.471   8.471  1.6297  0.2131 -0.7486
 5063SOL    HW226823   0.371   4.585   8.538  0.8851  0.0759 -1.0784
 5064SOL     OW26824   3.207   3.721  14.522 -0.2781  0.6787  0.1097
 5064SOL    HW126825   3.240   3.733  14.611 -1.3673 -1.2686  0.7727
 5064SOL    HW226826   3.200   3.810  14.487 -0.0194  1.1805  1.3329
 5065SOL     OW26827   2.964   3.244   8.943 -0.4865 -0.1407 -0.4328
 5065SOL    HW126828   2.909   3.320   8.927  0.2859  0.2836 -1.1153
 5065SOL    HW226829   3.037   3.271   8.886 -0.7692  0.8585 -0.3275
 5066SOL     OW26830   1.841   3.173   7.716 -0.2667 -0.4436  0.3480
 5066SOL    HW126831   1.814   3.100   7.772 -2.5730 -2.1213 -2.9540
 5066SOL    HW226832   1.829   3.248   7.775  0.9900  0.6245 -0.7456
 5067SOL     OW26833   0.167   3.879  14.806  0.1436  0.0251  0.0112
 5067SOL    HW126834   0.168   3.908  14.898  0.1779  0.3393 -0.0886
 5067SOL    HW226835   0.186   3.785  14.812  0.4395  0.0371 -0.7793
 5068SOL     OW26836   1.898   2.434  14.093  0.1912 -0.1570  0.3369
 5068SOL    HW126837   1.971   2.429  14.033  0.9206  2.0604  1.0209
 5068SOL    HW226838   1.832   2.473  14.035  0.1575 -0.1962  0.3487
 5069SOL     OW26839   1.061   1.207   6.831 -0.5208 -0.3120 -0.0064
 5069SOL    HW126840   0.979   1.246   6.802 -0.6203  0.3494  1.1612
 5069SOL    HW226841   1.035   1.134   6.888 -0.8528 -0.0055  0.2323
 5070SOL     OW26842   0.497   4.712   7.321  0.2088 -0.2130 -0.0248
 5070SOL    HW126843   0.412   0.002   7.287  0.8055  2.9533  0.9230
 5070SOL    HW226844   0.478   4.711   7.415 -2.5815 -2.3214 -0.6217
 5071SOL     OW26845   2.326   2.866  14.045  0.7835 -0.6626  0.0977
 5071SOL    HW126846   2.261   2.832  13.984 -2.3738  1.0983  2.4983
 5071SOL    HW226847   2.404   2.833  13.999  1.3454 -0.3680  0.8307
 5072SOL     OW26848   1.356   0.204   2.336  0.5327  0.4651  0.1480
 5072SOL    HW126849   1.338   0.284   2.286  0.4139  0.4967  0.2415
 5072SOL    HW226850   1.407   0.251   2.401 -0.4237  2.1116 -0.2900
 5073SOL     OW26851   2.239   1.661   3.981 -0.3688 -0.4921  0.0428
 5073SOL    HW126852   2.250   1.567   3.994 -0.1545  0.0202  3.6445
 5073SOL    HW226853   2.213   1.670   3.889  1.6650 -0.1051 -0.5032
 5074SOL     OW26854   0.666   1.345   9.489  0.2630  0.5546  0.2329
 5074SOL    HW126855   0.623   1.429   9.508 -1.6891 -0.8865  2.1763
 5074SOL    HW226856   0.757   1.372   9.475  0.7387 -0.2468  1.7417
 5075SOL     OW26857   2.906   1.241  11.300  0.4818  0.4779  0.2091
 5075SOL    HW126858   2.861   1.165  11.339 -1.0356  0.7804 -0.9538
 5075SOL    HW226859   2.998   1.220  11.314  0.0670 -1.7745 -0.4561
 5076SOL     OW26860   2.448   4.596   0.878  0.2875  0.3098  0.0661
 5076SOL    HW126861   2.533   4.633   0.852  1.2358 -1.8287  0.1520
 5076SOL    HW226862   2.478   4.507   0.898 -0.4162  0.4266  1.6956
 5077SOL     OW26863   2.640   2.161  14.978  0.4608 -0.0118  0.2540
 5077SOL    HW126864   2.712   2.187  15.036  0.7258  0.6155 -0.3540
 5077SOL    HW226865   2.557   2.165  15.025 -0.2985  1.5862 -1.2070
 5078SOL     OW26866   1.720   2.461  12.353 -0.1009 -0.5485  0.5300
 5078SOL    HW126867   1.681   2.512  12.282 -0.9135  0.0479  1.4084
 5078SOL    HW226868   1.658   2.391  12.373  0.1528 -1.4451 -1.7527
 5079SOL     OW26869   1.004   2.893  10.301 -0.4572 -0.7819 -0.0628
 5079SOL    HW126870   1.033   2.839  10.375  0.1905  0.4634  0.5854
 5079SOL    HW226871   0.974   2.827  10.239 -0.1538 -0.9560 -0.0217
 5080SOL     OW26872   1.074   3.272   1.574 -0.4681  0.2533  0.1400
 5080SOL    HW126873   1.075   3.176   1.580 -0.2449  0.4037  2.3365
 5080SOL    HW226874   1.039   3.294   1.660  0.8862  0.7016  0.5710
 5081SOL     OW26875   3.097   1.564   7.152  0.6744 -0.0691  0.3407
 5081SOL    HW126876   3.058   1.601   7.231  0.8213  1.1800 -0.1725
 5081SOL    HW226877   3.155   1.636   7.126 -0.4317  0.7580  0.1487
 5082SOL     OW26878   2.306   4.275   8.261 -0.3528 -0.1827 -0.5932
 5082SOL    HW126879   2.271   4.247   8.346  1.5667 -1.1419 -0.1261
 5082SOL    HW226880   2.281   4.366   8.279  0.4539 -0.2018  0.6417
 5083SOL     OW26881   0.645   0.059   6.505  0.5458  0.1349 -0.1451
 5083SOL    HW126882   0.595   4.714   6.502  0.5868  0.0676  1.0978
 5083SOL    HW226883   0.707   0.040   6.435  0.2370 -2.6815  0.3233
 5084SOL     OW26884   0.567   4.310   5.130  0.3473 -0.4894  0.2790
 5084SOL    HW126885   0.496   4.327   5.068  0.8863 -0.9578 -0.4588
 5084SOL    HW226886   0.631   4.276   5.068  1.3303 -1.2795  1.7171
 5085SOL     OW26887   0.450   1.891  13.258  0.2582 -0.0471  0.5689
 5085SOL    HW126888   0.381   1.884  13.324  0.6530 -1.4682  0.8345
 5085SOL    HW226889   0.527   1.862  13.307  0.6743  1.0310  0.5458
 5086SOL     OW26890   0.743   0.609  10.542 -0.6238 -0.2318  0.0087
 5086SOL    HW126891   0.791   0.528  10.558 -2.7740 -1.4159  0.4099
 5086SOL    HW226892   0.809   0.676  10.564  0.4934 -0.6492 -2.0990
 5087SOL     OW26893   0.165   4.401   5.708  0.2674  0.7218 -0.4564
 5087SOL    HW126894   0.082   4.357   5.687  1.1086 -1.2855  0.4094
 5087SOL    HW226895   0.145   4.489   5.677 -2.6501  0.5359  0.8626
 5088SOL     OW26896   3.618   4.270   0.267  0.1527 -0.4108 -0.3239
 5088SOL    HW126897   3.617   4.296   0.359 -2.1941  1.3173 -0.8460
 5088SOL    HW226898   3.563   4.192   0.273  1.7817 -1.7359 -2.8329
 5089SOL     OW26899   3.646   3.257  12.156 -0.9196  0.1203 -0.4009
 5089SOL    HW126900   3.718   3.316  12.135 -0.1588 -0.7354 -0.1636
 5089SOL    HW226901   3.598   3.250  12.073 -0.4693 -0.8437 -0.5876
 5090SOL     OW26902   2.614   1.725   8.961 -0.3634 -0.0576  0.3656
 5090SOL    HW126903   2.650   1.678   8.886 -1.3882  1.0097 -0.7915
 5090SOL    HW226904   2.520   1.737   8.950 -0.5503 -1.0007  0.9928
 5091SOL     OW26905   2.886   4.701  17.473 -0.1120  0.5781  0.2739
 5091SOL    HW126906   2.828   4.625  17.472 -2.4016  2.3347 -0.5846
 5091SOL    HW226907   2.824   0.021  17.426 -0.3650  0.0534 -0.0249
 5092SOL     OW26908   0.107   4.116  13.173  0.2012  0.2069  0.0559
 5092SOL    HW126909   0.027   4.106  13.225  0.5871 -0.4644  0.5112
 5092SOL    HW226910   0.066   4.089  13.091 -0.9229  0.5823  0.4906
 5093SOL     OW26911   4.221   3.771  15.620 -0.4564 -0.0926 -0.1246
 5093SOL    HW126912   4.292   3.807  15.566 -0.3390 -0.0703  0.0452
 5093SOL    HW226913   4.199   3.698  15.562  0.3308  0.7855 -1.5488
 5094SOL     OW26914   1.998   3.711   4.717  0.2163 -0.2560 -0.0249
 5094SOL    HW126915   1.924   3.654   4.738  1.0904 -1.3509  0.1205
 5094SOL    HW226916   1.961   3.798   4.706 -0.1312 -0.6074 -1.7150
 5095SOL     OW26917   2.634   1.998   8.871 -0.9429  0.3131 -0.8207
 5095SOL    HW126918   2.728   2.009   8.859 -1.1042 -0.8438 -3.1523
 5095SOL    HW226919   2.626   1.904   8.885  2.2824  0.5613  2.5500
 5096SOL     OW26920   0.607   2.439   4.038  0.4098  0.0870 -0.2365
 5096SOL    HW126921   0.534   2.493   4.008 -0.8740 -1.3884  0.1977
 5096SOL    HW226922   0.586   2.420   4.129 -0.9720  2.0652 -0.1508
 5097SOL     OW26923   0.388   0.202  11.606 -0.3282  0.2982  0.0897
 5097SOL    HW126924   0.333   0.273  11.638 -0.6662  0.4948 -0.9513
 5097SOL    HW226925   0.392   0.139  11.679 -0.8356 -1.4330 -1.3765
 5098SOL     OW26926   3.912   4.520   6.346  0.0246 -0.1807 -0.2995
 5098SOL    HW126927   3.981   4.544   6.283 -4.0926  3.1015 -3.5801
 5098SOL    HW226928   3.908   4.428   6.321 -1.6376  0.0047 -0.7207
 5099SOL     OW26929   0.749   1.734  17.644 -0.1304 -0.1540 -0.0232
 5099SOL    HW126930   0.798   1.696  17.571 -0.7010 -0.3420 -0.3075
 5099SOL    HW226931   0.732   1.824  17.614  2.5625 -0.0116 -1.1672
 5100SOL     OW26932   2.790   1.102   7.775  0.1040 -0.4507  0.1455
 5100SOL    HW126933   2.859   1.141   7.721 -0.6551 -1.3125 -1.4191
 5100SOL    HW226934   2.829   1.132   7.858  1.3345  1.9232 -1.2828
 5101SOL     OW26935   0.695   3.756   3.428  0.1846  0.0280  0.0191
 5101SOL    HW126936   0.741   3.779   3.348 -0.3505  1.4181  0.1107
 5101SOL    HW226937   0.607   3.790   3.409 -0.2738 -0.7400  0.7789
 5102SOL     OW26938   1.906   0.318   4.549 -0.1707  0.0163 -0.0005
 5102SOL    HW126939   1.990   0.332   4.505 -0.6435 -0.1182 -0.9664
 5102SOL    HW226940   1.892   0.223   4.548  0.7314 -0.1163 -0.1771
 5103SOL     OW26941   0.176   2.174   6.860 -0.5493  0.0853  0.3857
 5103SOL    HW126942   0.128   2.162   6.942  0.0261  1.9510  0.9999
 5103SOL    HW226943   0.227   2.094   6.844 -0.7526  0.3448 -1.5369
 5104SOL     OW26944   0.465   1.699  16.244 -0.3304 -0.3978  0.1476
 5104SOL    HW126945   0.386   1.696  16.189  0.4710 -0.3321 -0.9992
 5104SOL    HW226946   0.458   1.614  16.289 -0.1241 -0.6881 -0.3725
 5105SOL     OW26947   0.267   1.286   1.845  0.4801 -0.1861  0.1052
 5105SOL    HW126948   0.185   1.253   1.882  1.4627  0.0309  2.4947
 5105SOL    HW226949   0.285   1.356   1.908 -2.0932  0.4122  0.1854
 5106SOL     OW26950   4.570   4.553   2.763  0.2193 -0.6625 -0.1070
 5106SOL    HW126951   4.547   4.510   2.681 -0.2561 -0.9839  0.1937
 5106SOL    HW226952   4.658   4.584   2.743 -1.3531  1.7120 -3.2904
 5107SOL     OW26953   0.270   0.569   3.994 -0.2494 -0.8627  0.1610
 5107SOL    HW126954   0.336   0.603   3.933 -1.4943  0.3964 -0.5091
 5107SOL    HW226955   0.321   0.549   4.072  1.1818 -1.2139 -0.8571
 5108SOL     OW26956   2.057   1.895  17.464  0.2034 -0.3019  0.4479
 5108SOL    HW126957   2.036   1.802  17.463  0.7553 -0.4296  1.0991
 5108SOL    HW226958   1.973   1.932  17.489  0.4902  0.8371 -0.2699
 5109SOL     OW26959   1.489   2.733   8.844 -0.5584 -0.3504  0.4076
 5109SOL    HW126960   1.542   2.737   8.924 -0.7498  0.0996  0.5107
 5109SOL    HW226961   1.464   2.641   8.855 -1.3830  0.1560  2.7900
 5110SOL     OW26962   3.283   2.814  10.947  0.3834 -0.3817  0.0164
 5110SOL    HW126963   3.220   2.791  11.015 -1.2274 -0.3388 -1.4732
 5110SOL    HW226964   3.226   2.842  10.875 -0.1222 -1.0989  0.1362
 5111SOL     OW26965   3.855   1.813  15.009  0.4289  0.6787  0.3021
 5111SOL    HW126966   3.764   1.834  14.987 -0.7216 -2.0764  2.4553
 5111SOL    HW226967   3.847   1.792  15.102  2.4586 -3.4623 -0.4840
 5112SOL     OW26968   4.208   0.471  14.245  0.5534  0.1507  0.6303
 5112SOL    HW126969   4.164   0.547  14.284  0.1429 -1.1812  2.7504
 5112SOL    HW226970   4.249   0.434  14.323  0.3759  2.0864  1.6440
 5113SOL     OW26971   3.838   2.852   6.889 -0.1025  0.1800 -0.2608
 5113SOL    HW126972   3.837   2.942   6.921 -2.6186 -0.3415  1.0875
 5113SOL    HW226973   3.904   2.847   6.820 -3.0262 -2.1137 -2.8981
 5114SOL     OW26974   0.018   4.444   6.122 -0.4943 -0.3518  0.2772
 5114SOL    HW126975   4.707   4.370   6.159 -1.5494  0.5271  0.6709
 5114SOL    HW226976   0.093   4.390   6.098 -0.7185 -0.7042  0.3582
 5115SOL     OW26977   4.499   2.906   9.486  0.7160  0.0573 -0.5322
 5115SOL    HW126978   4.410   2.935   9.509  1.2399 -0.4157  2.1077
 5115SOL    HW226979   4.545   2.973   9.537  0.9075 -0.0480 -0.5694
 5116SOL     OW26980   4.152   3.069   0.824 -0.1625 -0.8334  0.3992
 5116SOL    HW126981   4.182   2.981   0.803  0.2924  0.0432 -2.6238
 5116SOL    HW226982   4.217   3.100   0.887  0.8161  2.9839 -2.4915
 5117SOL     OW26983   3.066   0.983  16.834 -0.0059 -0.5025  0.5480
 5117SOL    HW126984   3.151   1.025  16.826 -1.3014  1.5894 -2.3331
 5117SOL    HW226985   3.018   1.059  16.867  2.1907  0.2242  1.9939
 5118SOL     OW26986   3.491   3.864  14.327  0.3618 -0.1988 -0.3065
 5118SOL    HW126987   3.538   3.888  14.247 -0.7408  1.1625 -0.5502
 5118SOL    HW226988   3.540   3.789  14.360  1.6259  0.1841 -1.2884
 5119SOL     OW26989   3.818   4.153   8.683 -0.1518  0.4513  0.0226
 5119SOL    HW126990   3.858   4.148   8.770  0.5631  0.1607 -0.3255
 5119SOL    HW226991   3.774   4.070   8.666 -1.4076  0.7153  2.0673
 5120SOL     OW26992   0.777   1.710   4.666 -0.2032 -0.7248  0.2774
 5120SOL    HW126993   0.777   1.648   4.593 -1.7222  0.6629 -0.8982
 5120SOL    HW226994   0.749   1.650   4.735  0.3923  0.9303  1.9396
 5121SOL     OW26995   3.531   0.640   0.577  0.5442  0.2548  0.0817
 5121SOL    HW126996   3.548   0.643   0.671  0.8514  1.0953 -0.0019
 5121SOL    HW226997   3.546   0.547   0.558 -1.4856 -0.2460  0.8510
 5122SOL     OW26998   3.037   0.378   8.568 -0.4012 -0.1105 -0.4816
 5122SOL    HW126999   3.052   0.290   8.532 -0.8699 -0.4123  0.0486
 5122SOL    HW227000   2.943   0.380   8.584 -0.2985  1.5290 -0.1129
 5123SOL     OW27001   3.970   0.952   9.745  0.0469 -0.1328  0.5217
 5123SOL    HW127002   3.954   1.031   9.797  1.0381  0.8353 -0.6634
 5123SOL    HW227003   4.061   0.943   9.770 -0.1097 -0.6918  0.8837
 5124SOL     OW27004   3.475   4.285   9.316 -0.0367  0.3148  0.2076
 5124SOL    HW127005   3.549   4.313   9.369  0.9594 -0.6350 -0.6758
 5124SOL    HW227006   3.509   4.196   9.305  0.2099  0.1704  2.1712
 5125SOL     OW27007   3.967   3.122  11.846  0.3624  0.1106 -0.1935
 5125SOL    HW127008   3.995   3.083  11.764 -1.9304 -0.4810 -0.6835
 5125SOL    HW227009   3.874   3.138  11.829 -0.3492 -2.6365  0.9935
 5126SOL     OW27010   0.981   4.530   5.474  0.1477 -0.2055  0.4568
 5126SOL    HW127011   0.939   4.616   5.475  0.8859  0.1774 -1.4295
 5126SOL    HW227012   1.064   4.547   5.518 -1.6625 -0.2696  3.8882
 5127SOL     OW27013   1.954   0.679  11.315 -0.0867 -0.2213  0.4223
 5127SOL    HW127014   1.967   0.605  11.256 -1.5907 -0.2673  0.1592
 5127SOL    HW227015   1.970   0.748  11.251  0.0297 -1.2218 -0.6196
 5128SOL     OW27016   2.049   1.281  11.955 -0.0096  0.8291 -0.7630
 5128SOL    HW127017   2.069   1.187  11.955  1.8162  1.2406  2.9133
 5128SOL    HW227018   1.963   1.287  11.913 -0.3278 -2.8899 -0.6398
 5129SOL     OW27019   3.213   3.829   2.624 -0.1952  0.4979 -0.4389
 5129SOL    HW127020   3.272   3.870   2.687 -0.5956  0.1654  0.1543
 5129SOL    HW227021   3.251   3.863   2.544  1.0262  1.3466  0.4940
 5130SOL     OW27022   1.508   4.246  11.109  0.1525  0.5281  0.1196
 5130SOL    HW127023   1.461   4.210  11.185 -1.8558  0.7632 -1.0058
 5130SOL    HW227024   1.549   4.326  11.141  1.8075 -1.3045  2.6108
 5131SOL     OW27025   0.642   2.157   2.201  0.4095 -0.6633 -0.1397
 5131SOL    HW127026   0.563   2.175   2.252  0.0470  1.4975 -1.4360
 5131SOL    HW227027   0.703   2.111   2.258  0.9188 -1.5763 -1.4183
 5132SOL     OW27028   1.277   0.058  17.720 -0.3300  0.0052  0.2885
 5132SOL    HW127029   1.364   0.097  17.725  0.4621 -1.8924  1.5202
 5132SOL    HW227030   1.282   4.733   0.048  1.1456  0.9500  0.9729
 5133SOL     OW27031   1.487   2.062   5.032  0.2936 -0.5918  0.0106
 5133SOL    HW127032   1.422   2.007   5.075  0.4867  0.5685  1.7764
 5133SOL    HW227033   1.569   2.025   5.066  1.4706  1.1158 -0.9393
 5134SOL     OW27034   2.372   1.376  15.165  0.3577  0.2167 -0.3999
 5134SOL    HW127035   2.411   1.420  15.240 -1.3002 -0.0310  0.6243
 5134SOL    HW227036   2.426   1.413  15.096  1.5219 -0.7680 -0.0149
 5135SOL     OW27037   2.175   2.217   6.662 -0.5421  0.3075 -0.2134
 5135SOL    HW127038   2.148   2.185   6.576 -0.4286 -0.1177 -0.0875
 5135SOL    HW227039   2.262   2.179   6.675  0.5442  2.8772  0.1676
 5136SOL     OW27040   2.086   1.981   4.478  0.3320 -0.0731 -0.5617
 5136SOL    HW127041   2.051   1.933   4.403 -1.0590 -2.5543  1.6692
 5136SOL    HW227042   2.102   1.903   4.532 -0.7701 -1.7114 -2.6000
 5137SOL     OW27043   0.428   3.792   2.701 -0.7442 -0.3648 -0.4305
 5137SOL    HW127044   0.500   3.836   2.746 -0.8517  0.5225 -1.1284
 5137SOL    HW227045   0.465   3.762   2.619  0.2524 -0.7926  0.1674
 5138SOL     OW27046   0.767   1.822   1.355  0.5879  0.1250 -0.1478
 5138SOL    HW127047   0.732   1.885   1.291  0.9579 -1.8416 -2.2874
 5138SOL    HW227048   0.772   1.883   1.429 -0.7995  1.5437 -1.2243
 5139SOL     OW27049   4.169   3.427   6.209 -0.0281 -0.2819 -0.1982
 5139SOL    HW127050   4.188   3.477   6.288 -3.1306  0.9299 -0.2302
 5139SOL    HW227051   4.101   3.368   6.240 -1.0609  1.0526  0.0418
 5140SOL     OW27052   4.547   1.313  12.655 -0.1376  0.4865  0.1646
 5140SOL    HW127053   4.506   1.231  12.625 -1.4302  1.8497 -1.7940
 5140SOL    HW227054   4.599   1.281  12.729  0.2193 -1.4519 -0.9222
 5141SOL     OW27055   4.498   4.069   1.603 -0.0722  0.0157 -0.1865
 5141SOL    HW127056   4.522   4.007   1.533 -0.1256  0.2927 -0.4510
 5141SOL    HW227057   4.403   4.067   1.611  0.0630 -2.4774  0.8982
 5142SOL     OW27058   0.219   4.102   4.545 -0.1966  0.0038 -0.2973
 5142SOL    HW127059   0.157   4.044   4.501 -0.9365  0.9214 -0.4651
 5142SOL    HW227060   0.282   4.120   4.474  1.0607 -2.2262  0.2338
 5143SOL     OW27061   2.259   2.159  14.228  0.0938 -0.4989 -0.4253
 5143SOL    HW127062   2.344   2.156  14.182  0.0410  0.1659 -0.5734
 5143SOL    HW227063   2.206   2.119  14.159 -0.3854  0.8594 -0.8552
 5144SOL     OW27064   0.428   0.267   9.242 -0.6242 -0.0960  0.0442
 5144SOL    HW127065   0.493   0.269   9.172 -2.5727 -0.2315 -1.7878
 5144SOL    HW227066   0.360   0.306   9.186 -0.7255  0.7870  0.7664
 5145SOL     OW27067   2.115   0.717   2.947  1.0570 -0.1946 -0.3707
 5145SOL    HW127068   2.080   0.805   2.961 -1.0244 -1.2570  1.1153
 5145SOL    HW227069   2.191   0.705   3.004  1.4929 -0.6880 -1.0552
 5146SOL     OW27070   2.735   4.382   3.426 -0.3757  0.1842  0.6867
 5146SOL    HW127071   2.817   4.423   3.398 -1.0161  1.0272  0.0373
 5146SOL    HW227072   2.681   4.377   3.347  3.6222  0.1479 -2.0763
 5147SOL     OW27073   1.098   1.876   1.244  0.0874  0.5319 -0.4366
 5147SOL    HW127074   1.167   1.924   1.289  0.8248 -0.5105 -0.4787
 5147SOL    HW227075   1.141   1.868   1.159  0.2445  0.7125 -0.3736
 5148SOL     OW27076   0.848   0.189   2.920  0.1209 -0.4271 -0.2445
 5148SOL    HW127077   0.847   0.153   3.008 -1.1633  0.0823 -0.0458
 5148SOL    HW227078   0.820   0.280   2.928  0.5353 -0.2612 -0.6578
 5149SOL     OW27079   0.266   2.426  16.869  0.0228  0.3063  0.6596
 5149SOL    HW127080   0.225   2.381  16.795 -2.1046 -1.8575  3.1493
 5149SOL    HW227081   0.322   2.488  16.822  0.7845 -1.4634 -0.7667
 5150SOL     OW27082   4.251   0.210   9.682  0.7262  0.1534 -0.0661
 5150SOL    HW127083   4.222   0.177   9.597  0.0679  1.7076 -0.4476
 5150SOL    HW227084   4.290   0.129   9.715  0.8279  1.2150  2.4127
 5151SOL     OW27085   4.327   2.119   0.709 -0.2318  0.0599  0.8058
 5151SOL    HW127086   4.388   2.191   0.695 -0.0500 -0.2805 -0.1061
 5151SOL    HW227087   4.337   2.070   0.628 -0.4535  1.0719  0.1676
 5152SOL     OW27088   3.503   3.609   7.595  0.2308 -0.1370  0.3204
 5152SOL    HW127089   3.485   3.621   7.501  2.9571  1.8024  0.0336
 5152SOL    HW227090   3.504   3.698   7.631 -1.5846  0.4058 -0.9350
 5153SOL     OW27091   0.207   3.164   2.563 -0.0811 -0.6427 -0.5791
 5153SOL    HW127092   0.261   3.137   2.488 -1.9035  0.4952 -2.2632
 5153SOL    HW227093   0.152   3.233   2.527 -0.0709 -0.0260  0.5984
 5154SOL     OW27094   1.564   1.041  12.056  0.4601 -0.4362  0.6799
 5154SOL    HW127095   1.653   1.009  12.038  1.2698  1.7739  0.8445
 5154SOL    HW227096   1.509   0.963  12.064 -1.9844  0.8783 -3.1423
 5155SOL     OW27097   1.241   1.531   3.591  0.6174  0.1287 -0.0968
 5155SOL    HW127098   1.229   1.549   3.497  0.2365 -3.1640 -0.6685
 5155SOL    HW227099   1.174   1.593   3.621  0.6791  0.4434 -0.5924
 5156SOL     OW27100   0.548   2.860   0.239 -0.5699 -0.1480  0.0778
 5156SOL    HW127101   0.557   2.767   0.256  2.0415  0.4417  2.0255
 5156SOL    HW227102   0.498   2.850   0.158  0.4061  0.1903 -0.5693
 5157SOL     OW27103   0.035   0.037   7.377  0.1126 -0.6715 -0.2195
 5157SOL    HW127104   4.694   0.042   7.321 -0.2777 -0.7664  0.3084
 5157SOL    HW227105   0.019   0.104   7.443 -0.4972  0.4004 -1.4663
 5158SOL     OW27106   3.227   4.394   7.369  0.5582  0.0724 -0.2137
 5158SOL    HW127107   3.285   4.363   7.439 -1.7232 -0.3764  1.4734
 5158SOL    HW227108   3.275   4.354   7.296  0.9216  0.0130  0.0540
 5159SOL     OW27109   2.705   3.633   5.247  0.5054  0.0706 -0.1810
 5159SOL    HW127110   2.753   3.625   5.165  0.8499 -1.9573  0.2237
 5159SOL    HW227111   2.693   3.553   5.298  3.2201 -0.1874  0.0432
 5160SOL     OW27112   4.666   2.771   3.740 -0.0186  0.5572  0.0279
 5160SOL    HW127113   4.662   2.698   3.802  0.1332 -1.1489 -2.0020
 5160SOL    HW227114   4.603   2.743   3.674 -0.1432 -0.6851  0.6722
 5161SOL     OW27115   0.033   3.065   1.774 -0.6040 -0.3437  0.0207
 5161SOL    HW127116   0.043   3.138   1.835 -1.0751  0.9989 -1.5087
 5161SOL    HW227117   4.725   2.993   1.818 -0.6578 -0.8382 -0.8461
 5162SOL     OW27118   4.669   0.620   6.606  0.5330  0.6341  0.4075
 5162SOL    HW127119   0.015   0.612   6.653  0.6188  1.7302  0.4576
 5162SOL    HW227120   4.609   0.590   6.674 -1.3568  2.5175 -0.4341
 5163SOL     OW27121   3.895   3.484  12.924  0.6947  0.3623 -0.0210
 5163SOL    HW127122   3.889   3.442  12.838  0.3213 -0.3048  0.3364
 5163SOL    HW227123   3.989   3.504  12.923  0.5580  1.0369  0.6643
 5164SOL     OW27124   2.516   2.401  15.464 -0.3266  0.0844 -0.2857
 5164SOL    HW127125   2.527   2.321  15.412  0.8912 -0.7659  1.2899
 5164SOL    HW227126   2.539   2.462  15.394  1.0230 -1.5033 -1.2370
 5165SOL     OW27127   3.519   0.846   2.601 -0.0573  0.0083  0.4051
 5165SOL    HW127128   3.461   0.832   2.525 -0.8597  1.4182  0.7654
 5165SOL    HW227129   3.494   0.932   2.635  0.5395  0.1873  0.3937
 5166SOL     OW27130   0.667   3.450   7.020 -0.2908 -0.2843 -0.5722
 5166SOL    HW127131   0.751   3.459   6.974  0.2341 -1.2043  0.2045
 5166SOL    HW227132   0.681   3.375   7.077 -0.3048 -0.2876 -0.5732
 5167SOL     OW27133   0.172   0.146   7.686  0.0188 -0.5179 -0.0661
 5167SOL    HW127134   0.090   0.190   7.666 -0.1798 -0.2603  1.3168
 5167SOL    HW227135   0.170   0.146   7.782 -4.2483  0.2092 -0.1466
 5168SOL     OW27136   2.867   4.304   7.120  0.5642 -0.8218  0.2486
 5168SOL    HW127137   2.877   4.281   7.212  0.2409  2.0486  0.9807
 5168SOL    HW227138   2.819   4.386   7.117  2.5338  0.3584  0.9195
 5169SOL     OW27139   2.118   1.993  17.228  0.4829  0.4341  0.0304
 5169SOL    HW127140   2.121   1.953  17.315  0.3073  0.6582  0.1397
 5169SOL    HW227141   2.050   2.059  17.245  1.7400  2.0164 -1.0663
 5170SOL     OW27142   0.336   0.534   2.184  0.2016 -0.0688  0.6822
 5170SOL    HW127143   0.248   0.572   2.190 -0.3241 -1.5167  2.0385
 5170SOL    HW227144   0.313   0.460   2.129 -1.8312  2.2346 -1.5793
 5171SOL     OW27145   1.418   4.177   3.853 -0.0605  0.0748  0.2025
 5171SOL    HW127146   1.326   4.179   3.829  0.0509 -0.9665 -0.3459
 5171SOL    HW227147   1.412   4.230   3.932  0.0634  0.9237 -0.3495
 5172SOL     OW27148   1.601   0.087   7.793 -0.0255  0.2576 -0.1436
 5172SOL    HW127149   1.666   0.155   7.779  1.0109 -0.5842  0.5241
 5172SOL    HW227150   1.579   0.053   7.706  0.3733  2.1060 -0.9455
 5173SOL     OW27151   3.705   0.464   9.155 -0.3552 -0.0282  0.8315
 5173SOL    HW127152   3.631   0.455   9.214 -0.4998 -0.9796  0.5147
 5173SOL    HW227153   3.719   0.558   9.161 -1.2516  0.2898 -2.4367
 5174SOL     OW27154   0.543   1.320   7.950 -0.6250 -0.2959  0.3386
 5174SOL    HW127155   0.556   1.330   8.045 -0.4576  2.1706  0.0547
 5174SOL    HW227156   0.540   1.225   7.940  1.5037 -0.7177  3.7310
 5175SOL     OW27157   2.724   3.298   4.610 -0.0949  0.0472  0.1435
 5175SOL    HW127158   2.805   3.266   4.569 -0.0987  0.7850 -0.4309
 5175SOL    HW227159   2.750   3.366   4.673  0.0288 -0.7631  0.9732
 5176SOL     OW27160   3.499   1.586   1.864 -0.0393  0.0646  0.1205
 5176SOL    HW127161   3.515   1.562   1.773  0.7409 -0.1550  0.3154
 5176SOL    HW227162   3.446   1.512   1.893  0.1561 -0.2553 -0.3426
 5177SOL     OW27163   0.191   1.928   5.019  0.1854  0.5661  0.2018
 5177SOL    HW127164   0.123   1.949   5.083 -1.1461 -3.3223  0.0926
 5177SOL    HW227165   0.209   2.014   4.982  0.4464  1.6201  2.7667
 5178SOL     OW27166   2.397   1.388   9.587 -0.1862  0.4048  0.0569
 5178SOL    HW127167   2.471   1.449   9.591 -0.3593  0.7436 -2.1043
 5178SOL    HW227168   2.375   1.415   9.499  1.6673  0.9193 -0.2481
 5179SOL     OW27169   4.055   3.930   3.593  0.6734 -0.2136 -0.2853
 5179SOL    HW127170   4.081   3.989   3.523 -1.1618  1.2249  0.2502
 5179SOL    HW227171   3.987   3.871   3.559  0.8899 -1.2255  1.0288
 5180SOL     OW27172   3.844   0.457   8.798  0.3947 -0.0414 -0.0384
 5180SOL    HW127173   3.935   0.471   8.770  0.1090 -0.9374 -1.4121
 5180SOL    HW227174   3.862   0.440   8.891 -2.1759  0.1920  0.5147
 5181SOL     OW27175   2.412   4.648   7.446  0.0761  0.8891  0.2707
 5181SOL    HW127176   2.406   4.715   7.515 -2.5773  1.9200 -0.9476
 5181SOL    HW227177   2.390   4.711   7.377 -1.0675  0.8151  0.5690
 5182SOL     OW27178   0.500   2.634   6.712  0.2266 -0.3572 -0.2473
 5182SOL    HW127179   0.511   2.590   6.627  0.6035  2.7422 -1.7741
 5182SOL    HW227180   0.426   2.578   6.735  0.3099 -0.6497 -0.6875
 5183SOL     OW27181   2.562   1.409  14.955  0.1445 -0.6751 -0.1690
 5183SOL    HW127182   2.552   1.496  14.915 -0.0886 -0.6509 -0.0580
 5183SOL    HW227183   2.606   1.353  14.891 -0.1898 -0.9404 -0.1669
 5184SOL     OW27184   0.595   0.038  16.981 -0.0244 -0.2227 -0.1482
 5184SOL    HW127185   0.569   0.119  17.026 -1.8712 -0.9364  0.0681
 5184SOL    HW227186   0.515   0.031  16.930  0.2695  0.5611 -0.7132
 5185SOL     OW27187   2.292   0.381  12.500 -0.1860  0.3265 -0.1440
 5185SOL    HW127188   2.267   0.439  12.572  0.9345  0.1122  0.4080
 5185SOL    HW227189   2.370   0.422  12.463  0.2671  1.4197  2.0570
 5186SOL     OW27190   0.269   3.850  14.307  0.2455  0.0410 -0.0775
 5186SOL    HW127191   0.218   3.809  14.377 -0.6811  0.8866 -0.2643
 5186SOL    HW227192   0.325   3.903  14.364 -1.7590  2.4512 -0.3616
 5187SOL     OW27193   3.647   2.844   8.977 -0.1910  0.0819 -0.3991
 5187SOL    HW127194   3.652   2.828   9.071 -3.2575 -0.6936 -0.3793
 5187SOL    HW227195   3.733   2.881   8.956 -0.8229  1.3975 -0.7026
 5188SOL     OW27196   1.780   0.973   5.540 -0.8356 -0.3586  0.0826
 5188SOL    HW127197   1.763   1.034   5.468 -3.1530  0.8577  1.6554
 5188SOL    HW227198   1.824   1.024   5.608  1.2738 -2.1508  0.0495
 5189SOL     OW27199   2.393   4.626   6.434 -0.3275 -0.2975  0.0882
 5189SOL    HW127200   2.419   4.559   6.498  3.4743  1.5409  0.5172
 5189SOL    HW227201   2.441   4.590   6.360  1.0841  1.8827 -0.0544
 5190SOL     OW27202   4.048   3.670   2.324  0.0609 -0.2694 -0.3525
 5190SOL    HW127203   4.049   3.633   2.236 -1.1900 -0.1107 -0.4353
 5190SOL    HW227204   4.102   3.746   2.302 -0.6110  0.4628  0.5281
 5191SOL     OW27205   2.631   1.123   1.605 -0.0212 -0.1562  0.3005
 5191SOL    HW127206   2.629   1.031   1.581  1.0364 -0.4163  1.2077
 5191SOL    HW227207   2.636   1.158   1.516  1.0290  1.0197  0.8185
 5192SOL     OW27208   1.359   2.895   4.165 -0.2187  0.4026 -0.0878
 5192SOL    HW127209   1.290   2.879   4.230  0.2216 -1.4230 -0.0629
 5192SOL    HW227210   1.396   2.810   4.140 -0.5735  0.3730 -0.5136
 5193SOL     OW27211   3.739   2.260   1.303  0.4511 -0.7125 -0.0424
 5193SOL    HW127212   3.800   2.221   1.365  0.9376  0.1992  0.0539
 5193SOL    HW227213   3.714   2.344   1.342  0.2597 -2.0679  2.7321
 5194SOL     OW27214   1.486   4.731  10.265 -0.3331  0.4315  0.3303
 5194SOL    HW127215   1.475   0.078  10.219 -0.8484  0.7825  1.0800
 5194SOL    HW227216   1.505   0.033  10.351 -0.1925 -0.3427  0.6499
 5195SOL     OW27217   0.240   0.760   5.217 -0.0536  0.1453 -0.3446
 5195SOL    HW127218   0.210   0.669   5.212  0.9658 -0.2184  0.0529
 5195SOL    HW227219   0.313   0.743   5.277 -0.9242 -0.9021  0.4359
 5196SOL     OW27220   0.960   3.027   5.628  0.3703 -0.1011  0.2623
 5196SOL    HW127221   0.864   3.030   5.624  0.5247  2.2041 -1.5457
 5196SOL    HW227222   0.988   3.070   5.709 -0.0625  0.1274  0.2940
 5197SOL     OW27223   1.907   0.106  13.796  0.2695 -0.2723 -0.0297
 5197SOL    HW127224   1.907   0.148  13.882  1.7815 -1.3779  0.5181
 5197SOL    HW227225   1.951   0.173  13.744  0.2967 -0.3794 -0.1465
 5198SOL     OW27226   1.334   2.923   7.270 -0.0662  0.2570  0.3215
 5198SOL    HW127227   1.348   2.879   7.185 -2.1546 -0.7131  0.4776
 5198SOL    HW227228   1.362   3.013   7.254 -0.6399  0.0486 -1.8909
 5199SOL     OW27229   4.413   1.999   0.496  0.5822  0.2995 -0.0640
 5199SOL    HW127230   4.372   1.925   0.452  2.1681 -0.3275 -0.5049
 5199SOL    HW227231   4.427   2.055   0.420 -0.3147 -0.9637 -1.1581
 5200SOL     OW27232   4.298   2.295   1.592 -0.1794 -0.3887  0.2009
 5200SOL    HW127233   4.316   2.208   1.558 -0.8732 -1.1707  1.8917
 5200SOL    HW227234   4.376   2.337   1.555 -2.3882  1.0895 -2.7461
 5201SOL     OW27235   1.171   3.523  13.948  0.9215 -0.6653 -0.8376
 5201SOL    HW127236   1.222   3.563  14.018 -0.2532 -0.7376  0.0810
 5201SOL    HW227237   1.143   3.603  13.904 -0.0337 -0.8262 -0.5378
 5202SOL     OW27238   0.477   1.953   1.532 -0.1508 -0.3633  0.0582
 5202SOL    HW127239   0.494   1.993   1.617 -0.5876 -0.0338 -0.0095
 5202SOL    HW227240   0.408   2.011   1.500  1.2570  0.4202 -1.5582
 5203SOL     OW27241   1.646   1.117   7.320 -0.3998 -0.6266  0.3823
 5203SOL    HW127242   1.611   1.181   7.258 -2.5382 -0.4345  1.7738
 5203SOL    HW227243   1.740   1.128   7.308 -0.3870 -1.7271 -0.5216
 5204SOL     OW27244   1.053   1.062   7.888 -0.0948 -0.2427 -0.1610
 5204SOL    HW127245   1.049   0.987   7.948 -1.4916  0.4208  0.5753
 5204SOL    HW227246   1.029   1.137   7.943  2.0521 -0.0638  0.5605
 5205SOL     OW27247   2.994   4.119  10.843 -0.0425 -0.1846 -0.6629
 5205SOL    HW127248   3.022   4.031  10.868 -0.7203 -0.7955 -2.0630
 5205SOL    HW227249   2.919   4.134  10.901  0.3132 -1.1354  0.0383
 5206SOL     OW27250   3.280   2.480   3.041  0.1523  0.5343  0.3616
 5206SOL    HW127251   3.231   2.415   2.990  1.8381 -0.0961 -0.4666
 5206SOL    HW227252   3.229   2.484   3.122  0.0639 -1.8927  0.4235
 5207SOL     OW27253   1.921   4.126   8.713  0.0378 -0.4647 -0.2370
 5207SOL    HW127254   1.938   4.195   8.648  1.0132 -0.5513 -0.0685
 5207SOL    HW227255   1.911   4.164   8.800 -0.4484 -1.3923  0.1106
 5208SOL     OW27256   1.768   4.438  10.165  0.0775  0.2291  0.5778
 5208SOL    HW127257   1.730   4.420  10.251  1.6091  2.9511  1.8235
 5208SOL    HW227258   1.861   4.426  10.185  0.2125 -2.0240 -1.5115
 5209SOL     OW27259   0.510   1.059  11.441 -0.1593 -0.2627  0.7621
 5209SOL    HW127260   0.536   1.149  11.456  1.6931 -1.1323  2.8345
 5209SOL    HW227261   0.441   1.055  11.508 -0.5829  3.7572  0.5660
 5210SOL     OW27262   4.385   3.132  17.725  0.2653 -0.6358 -0.5459
 5210SOL    HW127263   4.331   3.207  17.699  0.0788 -0.7530 -0.4958
 5210SOL    HW227264   4.317   3.089   0.031  0.7977 -0.5867  0.1983
 5211SOL     OW27265   1.044   2.377   3.240  0.4878 -0.7836 -0.1463
 5211SOL    HW127266   1.057   2.318   3.166  2.8512  1.0712 -1.2090
 5211SOL    HW227267   1.108   2.334   3.297  0.4419 -0.2324  0.3241
 5212SOL     OW27268   2.948   1.679   9.799 -0.1883 -0.3507  0.8814
 5212SOL    HW127269   3.026   1.734   9.800  1.0880 -2.1465 -0.5385
 5212SOL    HW227270   2.934   1.661   9.706  1.8982  0.6701  0.3869
 5213SOL     OW27271   2.424   4.554   6.147 -0.4457  0.5177 -0.0689
 5213SOL    HW127272   2.339   4.582   6.114  0.4340  0.8855 -2.0096
 5213SOL    HW227273   2.481   4.624   6.114  1.6631 -1.5223 -0.7584
 5214SOL     OW27274   2.504   4.266   5.073 -0.4555 -0.0318 -0.1255
 5214SOL    HW127275   2.432   4.208   5.093  0.7404 -0.6212  2.3975
 5214SOL    HW227276   2.563   4.258   5.148  0.5032  0.4583 -0.8141
 5215SOL     OW27277   2.024   1.374   7.890 -0.1630 -0.2202  0.1929
 5215SOL    HW127278   1.991   1.285   7.903 -2.0973  0.4003 -0.4283
 5215SOL    HW227279   1.943   1.423   7.905 -0.0436 -0.2916  1.0645
 5216SOL     OW27280   0.298   0.509  15.719 -0.2975  0.2985 -0.2228
 5216SOL    HW127281   0.227   0.573  15.713 -0.9849 -0.5246 -0.9027
 5216SOL    HW227282   0.373   0.568  15.712  0.7099 -0.9934 -0.2757
 5217SOL     OW27283   4.261   4.364  14.831  0.0654  0.7354  0.4927
 5217SOL    HW127284   4.265   4.332  14.921 -0.2157 -1.5772 -0.3192
 5217SOL    HW227285   4.304   4.290  14.790 -0.9723  0.7139 -0.5665
 5218SOL     OW27286   1.699   1.813  17.514  0.1563  0.3715  0.4730
 5218SOL    HW127287   1.618   1.860  17.494 -1.6486 -3.0390 -0.2114
 5218SOL    HW227288   1.749   1.838  17.436 -0.8044 -2.7686 -1.1474
 5219SOL     OW27289   1.795   0.591   9.581  0.5262  0.9277 -0.6281
 5219SOL    HW127290   1.740   0.666   9.606 -1.3287 -0.9185  0.8392
 5219SOL    HW227291   1.794   0.528   9.653 -0.5627 -0.7505 -2.0890
 5220SOL     OW27292   0.576   2.643   1.585  0.0961  0.4749 -0.1030
 5220SOL    HW127293   0.578   2.650   1.489 -0.3335 -2.3412 -0.3312
 5220SOL    HW227294   0.515   2.714   1.604 -0.8380 -0.1842 -0.6344
 5221SOL     OW27295   3.670   4.680   4.413  0.4601 -0.2901 -0.2505
 5221SOL    HW127296   3.602   4.695   4.479  2.0975  3.1030  0.6735
 5221SOL    HW227297   3.667   0.031   4.374  2.2862  0.5556  1.5425
 5222SOL     OW27298   4.649   1.958   4.075 -0.5683 -0.0549  0.1740
 5222SOL    HW127299   4.614   1.997   3.995  0.4270  0.2440 -0.1185
 5222SOL    HW227300   4.630   1.864   4.066  1.0528 -0.1747 -1.8508
 5223SOL     OW27301   3.615   2.404   6.535 -0.5315 -0.2161 -0.2084
 5223SOL    HW127302   3.584   2.419   6.624  4.3478  2.3365  1.0392
 5223SOL    HW227303   3.645   2.493   6.518 -1.6510  0.0656 -0.6547
 5224SOL     OW27304   1.522   0.699   0.538 -0.2205  0.0474 -0.0268
 5224SOL    HW127305   1.556   0.662   0.619  0.8298 -1.0285 -0.9509
 5224SOL    HW227306   1.525   0.631   0.471 -1.4141  0.0276 -0.0550
 5225SOL     OW27307   2.741   1.753  15.125 -0.1059 -0.2027  0.2826
 5225SOL    HW127308   2.769   1.845  15.126 -0.7242 -0.0129  0.1348
 5225SOL    HW227309   2.658   1.753  15.077  0.2190 -1.0430 -0.2650
 5226SOL     OW27310   4.257   2.062  10.196  0.3287 -0.5627  0.2702
 5226SOL    HW127311   4.245   2.047  10.289  1.1283 -1.1758  0.2711
 5226SOL    HW227312   4.265   1.974  10.160 -1.1873 -0.3284 -0.6312
 5227SOL     OW27313   3.561   1.595  16.477 -0.4055 -0.2250 -0.1208
 5227SOL    HW127314   3.508   1.647  16.416 -1.7563 -2.0321 -0.4839
 5227SOL    HW227315   3.520   1.508  16.480  0.9261 -0.8218  0.4119
 5228SOL     OW27316   1.844   4.608   3.147  0.6828  0.3712 -0.9919
 5228SOL    HW127317   1.779   4.679   3.150  0.7315  0.3884 -0.3756
 5228SOL    HW227318   1.872   4.620   3.238  2.3583 -2.1919 -1.1819
 5229SOL     OW27319   0.079   3.041  15.056  0.2040 -0.0443 -0.4113
 5229SOL    HW127320   0.171   3.031  15.079  0.1664  1.5346  0.4172
 5229SOL    HW227321   0.086   2.983  14.980  1.7973 -1.0131  0.4946
 5230SOL     OW27322   4.484   3.040   3.295 -0.4716  0.0493 -0.0607
 5230SOL    HW127323   4.462   3.026   3.203 -0.4271  0.1702 -0.0896
 5230SOL    HW227324   4.397   3.028   3.333 -0.4702 -2.2829 -0.7770
 5231SOL     OW27325   1.026   4.290   5.735 -0.1719 -0.0605 -0.0725
 5231SOL    HW127326   1.070   4.220   5.781 -1.5273 -0.5396  0.4819
 5231SOL    HW227327   1.046   4.266   5.644  1.6683  2.0686 -0.2152
 5232SOL     OW27328   2.842   3.809   8.663 -0.0321 -0.3473  0.0564
 5232SOL    HW127329   2.847   3.802   8.568  0.4723  0.4235  0.0257
 5232SOL    HW227330   2.859   3.901   8.680 -0.6977 -0.4027  1.0504
 5233SOL     OW27331   4.392   1.262   4.776 -0.2557  0.4580  0.1735
 5233SOL    HW127332   4.399   1.358   4.775  1.5571  0.3173 -2.1363
 5233SOL    HW227333   4.300   1.261   4.804 -0.3970  1.2638 -0.2375
 5234SOL     OW27334   0.020   0.583   3.517  0.0169 -0.4070 -0.0097
 5234SOL    HW127335   4.706   0.518   3.468  2.2297 -1.3797 -1.0172
 5234SOL    HW227336   0.036   0.536   3.599 -0.6609 -1.5048 -0.5108
 5235SOL     OW27337   0.750   1.421   0.509  0.0066 -0.0163 -0.1326
 5235SOL    HW127338   0.712   1.405   0.422 -0.7383  0.1317  0.1619
 5235SOL    HW227339   0.843   1.404   0.493  0.2310 -0.8174  1.9735
 5236SOL     OW27340   0.001   4.100   6.445 -0.4906  0.0068  0.2691
 5236SOL    HW127341   0.067   4.036   6.470  0.6188  0.4158 -1.6099
 5236SOL    HW227342   0.041   4.141   6.368 -0.3139  0.7723  0.7732
 5237SOL     OW27343   1.479   2.936   4.673 -0.1102  0.1989 -0.0860
 5237SOL    HW127344   1.482   2.995   4.749  0.2591  2.0175 -1.5169
 5237SOL    HW227345   1.433   2.859   4.707  0.9234 -0.7196 -0.7690
 5238SOL     OW27346   3.369   0.451  14.012 -0.0856  0.2589 -0.1554
 5238SOL    HW127347   3.395   0.530  13.965  0.8044  0.9314  1.4734
 5238SOL    HW227348   3.455   0.440  14.052 -0.4270 -0.3827  0.4068
 5239SOL     OW27349   3.345   3.153  15.346  0.6186  0.6240 -0.4385
 5239SOL    HW127350   3.410   3.082  15.346 -1.3162 -1.1572 -0.2341
 5239SOL    HW227351   3.285   3.117  15.412 -0.9439  4.4080  0.1896
 5240SOL     OW27352   1.040   2.779   6.475  0.2999 -0.3266 -0.7404
 5240SOL    HW127353   0.956   2.743   6.446  0.8932 -2.3800  0.1260
 5240SOL    HW227354   1.018   2.869   6.500  0.0244 -0.2082 -1.4181
 5241SOL     OW27355   3.406   2.136   3.185 -0.4565 -0.0273  0.3035
 5241SOL    HW127356   3.320   2.113   3.151 -1.0270  1.3591  0.7642
 5241SOL    HW227357   3.446   2.201   3.127  3.7356 -1.0046  2.0761
 5242SOL     OW27358   1.115   1.702  17.402  0.2601 -0.0478  0.0730
 5242SOL    HW127359   1.034   1.651  17.398 -1.5495  2.9543 -1.6760
 5242SOL    HW227360   1.097   1.750  17.321 -1.1469 -0.1217  0.3486
 5243SOL     OW27361   4.149   3.872   6.197 -0.1642  0.0559  0.1922
 5243SOL    HW127362   4.117   3.847   6.111  4.0767 -2.7190 -0.5772
 5243SOL    HW227363   4.211   3.800   6.212  1.2173  1.0347 -0.9020
 5244SOL     OW27364   1.704   2.676   5.248  0.1616 -0.0357 -0.7117
 5244SOL    HW127365   1.732   2.722   5.328 -1.4623 -0.7018  0.2384
 5244SOL    HW227366   1.647   2.615   5.293 -0.1662  0.6067 -0.2542
 5245SOL     OW27367   3.400   3.047  14.478 -0.3838 -0.4999  0.1313
 5245SOL    HW127368   3.479   3.082  14.517 -0.7420 -0.1469  0.5337
 5245SOL    HW227369   3.362   3.133  14.457 -0.3980 -0.6586 -0.5055
 5246SOL     OW27370   3.349   2.408  16.224 -0.4856 -0.3756 -0.0086
 5246SOL    HW127371   3.334   2.332  16.281 -1.9064  0.4328  0.6696
 5246SOL    HW227372   3.267   2.414  16.175  0.3241  0.1198 -1.3142
 5247SOL     OW27373   2.025   2.981   7.103 -0.0199 -0.0189 -0.3826
 5247SOL    HW127374   1.938   3.000   7.139  0.3092 -2.4803  1.7638
 5247SOL    HW227375   2.038   2.890   7.130  0.2234 -0.4996 -2.1533
 5248SOL     OW27376   2.636   3.913  13.654  0.0252  0.7397  0.1271
 5248SOL    HW127377   2.556   3.890  13.702 -0.7412 -0.1195 -1.5092
 5248SOL    HW227378   2.702   3.863  13.701 -0.6181  1.9368  2.3023
 5249SOL     OW27379   4.605   1.582  15.381  0.1839 -0.1668  0.4144
 5249SOL    HW127380   4.551   1.654  15.349  1.3560 -0.8691 -3.0672
 5249SOL    HW227381   4.688   1.625  15.363 -0.3337 -0.9435 -3.7721
 5250SOL     OW27382   4.115   1.169   5.336 -0.5001 -0.1804 -0.0332
 5250SOL    HW127383   4.093   1.082   5.303  4.2443 -1.0623 -0.9119
 5250SOL    HW227384   4.185   1.148   5.398  0.3364  1.8344 -0.2652
 5251SOL     OW27385   2.301   3.514   7.523 -0.0012  0.3302  0.3534
 5251SOL    HW127386   2.261   3.448   7.467 -1.1425  0.6428  0.8016
 5251SOL    HW227387   2.227   3.571   7.545  1.1060  1.4429  1.2760
 5252SOL     OW27388   2.976   3.488   6.515 -0.0080  0.2614 -0.3016
 5252SOL    HW127389   3.045   3.480   6.580  0.3320 -1.4691 -0.8803
 5252SOL    HW227390   2.926   3.412   6.544 -0.0622 -0.3403 -1.9702
 5253SOL     OW27391   0.145   0.915  14.164 -0.2433  0.7797 -0.2778
 5253SOL    HW127392   0.213   0.863  14.121  0.2774  0.0728  1.4272
 5253SOL    HW227393   0.164   0.878  14.250 -3.5055  1.1407  0.5962
 5254SOL     OW27394   3.018   2.344   2.733  0.1489 -0.0684  0.4998
 5254SOL    HW127395   3.078   2.299   2.792 -0.3000 -0.7873  0.4089
 5254SOL    HW227396   2.951   2.379   2.792  0.1438  1.1637 -0.2387
 5255SOL     OW27397   1.085   0.026   9.037  0.0413  0.1474 -0.7388
 5255SOL    HW127398   1.064   0.012   8.944 -1.6464  1.1633 -0.5025
 5255SOL    HW227399   1.102   4.672   9.061  3.2810  1.4058  1.8287
 5256SOL     OW27400   2.880   2.648  12.761  0.1387  0.5619 -0.1606
 5256SOL    HW127401   2.903   2.682  12.674  0.7335 -3.2929 -1.5458
 5256SOL    HW227402   2.962   2.669  12.806  0.8706 -0.8524 -0.8260
 5257SOL     OW27403   4.682   4.094   2.946 -0.3502 -0.3187 -0.4431
 5257SOL    HW127404   4.656   4.082   2.855  1.2105 -3.0690 -0.5470
 5257SOL    HW227405   4.688   4.189   2.947 -0.4130 -0.3196  0.4603
 5258SOL     OW27406   2.355   3.840   0.853  0.3100  0.1002  0.5465
 5258SOL    HW127407   2.374   3.747   0.864  1.9097  0.4204  0.5324
 5258SOL    HW227408   2.387   3.853   0.764  0.4972 -0.2137  0.5658
 5259SOL     OW27409   3.237   2.458   5.098  0.2327  0.3489  0.3796
 5259SOL    HW127410   3.300   2.527   5.080  1.5264 -1.3554 -1.5742
 5259SOL    HW227411   3.196   2.485   5.181  1.4395  0.7445  0.8459
 5260SOL     OW27412   0.911   2.927  11.613 -0.7901 -0.1871 -0.4768
 5260SOL    HW127413   0.861   2.990  11.666 -0.9445  0.0748 -0.9345
 5260SOL    HW227414   0.900   2.861  11.681 -0.0304  2.0271  1.8229
 5261SOL     OW27415   3.735   3.440   2.738  0.7193 -0.0307  0.0020
 5261SOL    HW127416   3.640   3.431   2.732  0.5158  1.3951  1.1826
 5261SOL    HW227417   3.758   3.466   2.649 -0.0574 -0.7604 -0.4147
 5262SOL     OW27418   1.550   2.434   2.739 -0.2015  0.3739 -0.3247
 5262SOL    HW127419   1.611   2.460   2.670 -0.7180  2.1597 -0.0960
 5262SOL    HW227420   1.556   2.339   2.747 -4.7708  0.2284  1.5736
 5263SOL     OW27421   1.879   4.222   3.798  0.3420  0.1684 -0.1587
 5263SOL    HW127422   1.825   4.270   3.861 -1.1082 -0.0845 -1.2168
 5263SOL    HW227423   1.847   4.132   3.808  2.7144 -0.7233 -0.5223
 5264SOL     OW27424   0.035   0.808   8.445  0.1427 -0.6752 -0.0018
 5264SOL    HW127425   4.718   0.887   8.444 -2.0046 -2.1473 -0.6091
 5264SOL    HW227426   0.087   0.829   8.523  0.9354 -2.3590 -0.0740
 5265SOL     OW27427   4.051   0.819  11.836 -0.4406 -0.0185  0.4226
 5265SOL    HW127428   4.131   0.767  11.824 -0.4247 -0.4234  2.3794
 5265SOL    HW227429   4.079   0.907  11.862 -0.2524  1.0719 -3.4359
 5266SOL     OW27430   0.305   2.918   7.326 -0.1300 -0.3607  0.1323
 5266SOL    HW127431   0.223   2.911   7.375 -0.3746  2.6767  0.1473
 5266SOL    HW227432   0.362   2.981   7.372 -1.7508  0.0506  1.5642
 5267SOL     OW27433   3.628   0.609   9.571  0.4027 -0.5358 -0.8237
 5267SOL    HW127434   3.616   0.703   9.584 -0.8729 -0.3757 -3.1332
 5267SOL    HW227435   3.593   0.579   9.655  0.9769 -1.4621 -0.9187
 5268SOL     OW27436   2.687   1.968   2.341  0.9342 -0.1999 -0.1781
 5268SOL    HW127437   2.694   2.008   2.428 -1.9385  2.5437 -1.1924
 5268SOL    HW227438   2.606   1.918   2.351 -0.4888  2.3066  0.8297
 5269SOL     OW27439   4.673   3.501   8.868  0.6914  0.1624  0.1383
 5269SOL    HW127440   4.671   3.427   8.929 -2.1037  0.0674 -0.0515
 5269SOL    HW227441   4.585   3.496   8.830  0.7283  2.0596 -0.1884
 5270SOL     OW27442   2.292   4.416  14.257 -0.1109  0.6032  0.0771
 5270SOL    HW127443   2.296   4.509  14.281  0.8541  0.3077  1.0279
 5270SOL    HW227444   2.199   4.406  14.236 -0.7704  1.8644  2.4044
 5271SOL     OW27445   4.333   0.931  11.577 -0.1952 -1.0801  0.8435
 5271SOL    HW127446   4.341   1.026  11.568 -3.6365 -0.8140  0.6549
 5271SOL    HW227447   4.401   0.924  11.644  1.2245  1.0691 -0.3784
 5272SOL     OW27448   4.015   4.041   5.278 -0.7244  0.1470  0.6172
 5272SOL    HW127449   4.030   4.000   5.192  0.8848  2.6295 -0.2786
 5272SOL    HW227450   3.921   4.045   5.297 -1.2010 -0.5632 -1.6070
 5273SOL     OW27451   3.979   4.318   7.283 -0.0888  0.3513 -0.3674
 5273SOL    HW127452   3.974   4.411   7.264  3.6088  0.5991 -0.0128
 5273SOL    HW227453   4.060   4.297   7.237  0.3981  3.1396 -0.7427
 5274SOL     OW27454   2.953   2.184   9.254 -0.6146 -0.2431  0.1550
 5274SOL    HW127455   2.889   2.171   9.324 -0.8225 -0.5157 -0.0845
 5274SOL    HW227456   3.025   2.229   9.298 -1.8558  0.0099  1.9235
 5275SOL     OW27457   3.120   3.077   2.728 -0.9318 -0.9297  0.5507
 5275SOL    HW127458   3.074   3.152   2.691  1.4703 -0.6356 -1.7999
 5275SOL    HW227459   3.148   3.108   2.814  0.7442  2.5217 -1.2336
 5276SOL     OW27460   3.709   1.009  13.700 -0.1466  0.0569 -0.0724
 5276SOL    HW127461   3.718   0.979  13.610 -1.1281 -1.1550  0.2352
 5276SOL    HW227462   3.622   0.974  13.720 -0.6748  1.4491  0.0457
 5277SOL     OW27463   0.135   0.886   2.978  0.3269  0.5496  0.7900
 5277SOL    HW127464   0.212   0.844   3.017 -0.8175 -2.0718  0.1996
 5277SOL    HW227465   0.075   0.818   2.948  0.1861  1.1198 -0.2282
 5278SOL     OW27466   2.841   1.362   9.394 -0.2530  0.0184  0.1349
 5278SOL    HW127467   2.812   1.432   9.335 -0.6054 -0.3248 -0.0932
 5278SOL    HW227468   2.781   1.382   9.466 -0.2008  1.0245 -0.1002
 5279SOL     OW27469   4.205   3.396  14.201 -0.6083  0.2244 -1.1176
 5279SOL    HW127470   4.271   3.409  14.132  0.3644 -0.6799 -0.3614
 5279SOL    HW227471   4.266   3.394  14.275  0.5127  3.4748 -1.9462
 5280SOL     OW27472   1.560   1.547   3.667 -0.7152 -0.2074 -0.1908
 5280SOL    HW127473   1.574   1.513   3.579 -0.3184  1.6103 -0.8332
 5280SOL    HW227474   1.466   1.566   3.665 -0.1169  2.6703 -1.7895
 5281SOL     OW27475   3.527   2.801   1.382 -0.8328  0.3852 -0.2393
 5281SOL    HW127476   3.443   2.821   1.424 -0.3722  0.8038  0.4585
 5281SOL    HW227477   3.601   2.803   1.441 -1.0320  0.7070 -0.0015
 5282SOL     OW27478   2.058   3.143   9.456  0.0348 -0.6659 -0.2075
 5282SOL    HW127479   2.101   3.062   9.483 -0.0835 -0.8053 -0.4400
 5282SOL    HW227480   2.025   3.173   9.541 -1.8111 -1.4493 -0.6540
 5283SOL     OW27481   0.668   4.710   3.129 -0.7569  0.0123  0.4190
 5283SOL    HW127482   0.732   4.675   3.067 -1.5107 -1.2512  0.3612
 5283SOL    HW227483   0.708   4.679   3.210  1.7046  2.2461  0.0681
 5284SOL     OW27484   0.028   1.620   7.987 -0.0692  0.2579 -0.0389
 5284SOL    HW127485   0.056   1.634   8.077 -1.5925  0.9089  0.3297
 5284SOL    HW227486   0.110   1.588   7.949  1.1037  1.0464  1.8068
 5285SOL     OW27487   4.684   0.761   2.741 -0.3030 -0.1425  0.0263
 5285SOL    HW127488   4.604   0.811   2.722 -0.6331 -1.8506 -2.9653
 5285SOL    HW227489   0.018   0.823   2.724 -1.9686  1.8625  0.3171
 5286SOL     OW27490   3.903   3.236  16.095 -0.1266 -0.4280 -0.1094
 5286SOL    HW127491   3.938   3.279  16.173 -0.5962 -1.0257  0.4196
 5286SOL    HW227492   3.864   3.316  16.060  1.6846 -0.7606 -2.9087
 5287SOL     OW27493   2.565   2.398   6.666 -0.3512 -0.3433 -0.1394
 5287SOL    HW127494   2.595   2.321   6.713 -0.7710  0.1990  1.0277
 5287SOL    HW227495   2.651   2.441   6.671  0.3332 -1.9116  1.5894
 5288SOL     OW27496   2.298   4.645   3.037 -0.1965  0.4539  0.8367
 5288SOL    HW127497   2.387   4.618   3.061 -1.0264 -2.0770  1.0349
 5288SOL    HW227498   2.262   4.567   2.996  3.0309 -0.6178  0.0717
 5289SOL     OW27499   2.428   2.517   2.523 -0.0681 -1.0025 -0.2661
 5289SOL    HW127500   2.362   2.472   2.471  0.9613 -2.3271 -0.4259
 5289SOL    HW227501   2.447   2.585   2.459  1.3090 -0.7335  0.4228
 5290SOL     OW27502   4.156   1.663   3.224  0.9291 -0.0826  0.3849
 5290SOL    HW127503   4.147   1.665   3.320  5.0119  1.7087  0.7425
 5290SOL    HW227504   4.247   1.689   3.208  1.0011 -0.5459  0.0381
 5291SOL     OW27505   3.793   0.436   5.400 -0.1882  0.6472  0.2797
 5291SOL    HW127506   3.821   0.369   5.462 -1.2471  1.2784  1.4395
 5291SOL    HW227507   3.699   0.422   5.391 -0.2187  0.9866  0.0604
 5292SOL     OW27508   2.088   0.496   9.404  0.6580 -0.2407 -0.9042
 5292SOL    HW127509   2.130   0.459   9.327 -0.0434 -0.4748 -1.1736
 5292SOL    HW227510   2.117   0.586   9.389  0.4990 -0.1218 -0.5154
 5293SOL     OW27511   1.896   1.237   3.467 -0.2144 -0.3573  0.4259
 5293SOL    HW127512   1.917   1.330   3.457  0.7078 -0.3790  2.1099
 5293SOL    HW227513   1.814   1.240   3.417  0.1603  1.1939 -0.0934
 5294SOL     OW27514   0.943   2.367   2.791  0.0297 -0.1646  0.0016
 5294SOL    HW127515   0.852   2.396   2.785 -0.1479 -0.5284  1.0660
 5294SOL    HW227516   0.987   2.452   2.797 -0.8916  0.5423 -3.0529
 5295SOL     OW27517   0.536   0.689  16.228 -0.1908  0.1191  0.2379
 5295SOL    HW127518   0.501   0.777  16.246  0.8480 -0.0739  3.0956
 5295SOL    HW227519   0.479   0.635  16.282  1.6521 -1.5231  0.5091
 5296SOL     OW27520   4.216   0.859   6.983  1.1321  0.0930  0.5973
 5296SOL    HW127521   4.225   0.772   7.022  3.1545  0.1918  0.3538
 5296SOL    HW227522   4.132   0.893   7.014  0.6100 -0.2714 -0.3819
 5297SOL     OW27523   4.561   4.283  13.009  0.3994 -0.4735 -0.5648
 5297SOL    HW127524   4.491   4.230  13.049 -0.1416  0.3129 -0.4776
 5297SOL    HW227525   4.614   4.221  12.959 -1.9079 -3.0406  0.1353
 5298SOL     OW27526   3.429   3.729  12.201 -0.0659  0.0885 -0.1794
 5298SOL    HW127527   3.513   3.704  12.241 -0.0276  1.3682  0.5285
 5298SOL    HW227528   3.379   3.745  12.281  0.3050 -3.4160  0.7714
 5299SOL     OW27529   2.226   2.516   9.829  0.7842 -0.0179 -0.5304
 5299SOL    HW127530   2.219   2.607   9.801 -2.3616 -0.9197 -2.6316
 5299SOL    HW227531   2.305   2.524   9.883 -0.1435 -0.4427  0.8896
 5300SOL     OW27532   3.821   1.672   9.187 -0.2897  0.1889 -0.0361
 5300SOL    HW127533   3.811   1.585   9.149 -1.2056  0.7214 -0.9889
 5300SOL    HW227534   3.729   1.685   9.211 -0.2108 -1.2855  1.0229
 5301SOL     OW27535   0.393   0.768   3.261  0.2176 -0.5313 -0.2636
 5301SOL    HW127536   0.334   0.727   3.198 -0.8826  1.2543 -0.3965
 5301SOL    HW227537   0.336   0.791   3.335 -1.1780  1.9777 -2.1189
 5302SOL     OW27538   4.446   2.324  11.386 -0.5236 -0.1487 -0.3363
 5302SOL    HW127539   4.429   2.307  11.479  0.4615  0.2371 -0.0821
 5302SOL    HW227540   4.358   2.309  11.351  0.3351 -1.6568 -1.8073
 5303SOL     OW27541   3.763   0.991   2.800 -0.3172 -0.6136  0.0496
 5303SOL    HW127542   3.671   0.990   2.828 -0.3939  1.4540 -0.1680
 5303SOL    HW227543   3.760   0.963   2.708 -1.7605 -1.5747  0.3836
 5304SOL     OW27544   3.137   0.731  11.660  0.1001  0.0663 -0.9852
 5304SOL    HW127545   3.081   0.799  11.620  0.6483  1.0481 -0.0790
 5304SOL    HW227546   3.214   0.731  11.603  0.8502  0.4291  0.0330
 5305SOL     OW27547   0.530   4.560  13.525  0.5312  0.1711 -0.3475
 5305SOL    HW127548   0.532   4.614  13.604 -1.4024 -0.2140 -0.0312
 5305SOL    HW227549   0.541   4.469  13.552 -1.4650 -0.4822 -1.7551
 5306SOL     OW27550   1.073   1.486   8.795 -0.3341 -0.7613  0.2179
 5306SOL    HW127551   1.011   1.558   8.804  0.0572 -0.4076  0.0577
 5306SOL    HW227552   1.149   1.526   8.836 -0.8342  1.5573 -1.1561
 5307SOL     OW27553   0.959   1.279   2.996 -0.4450  0.1136 -0.0367
 5307SOL    HW127554   0.910   1.202   3.022 -0.2656  0.2840  0.7826
 5307SOL    HW227555   0.887   1.311   2.942 -0.6236 -1.1490 -0.5370
 5308SOL     OW27556   3.769   4.568  11.859 -0.0616 -0.1123  0.0139
 5308SOL    HW127557   3.841   4.598  11.804  0.3801  0.1275  0.7204
 5308SOL    HW227558   3.702   4.577  11.792 -0.1662 -1.8787 -0.1321
 5309SOL     OW27559   4.382   1.658   2.188  0.2990  0.5117 -0.4028
 5309SOL    HW127560   4.406   1.567   2.203 -0.0222  0.1673 -2.0445
 5309SOL    HW227561   4.307   1.641   2.130  0.6034 -2.7070  0.1441
 5310SOL     OW27562   4.608   1.685   1.941 -0.0020  0.4436 -0.1286
 5310SOL    HW127563   4.666   1.677   2.017 -0.4345  4.0010  0.5614
 5310SOL    HW227564   4.575   1.595   1.938 -0.6290  0.6528  0.6276
 5311SOL     OW27565   4.272   3.491  15.034  0.1804 -0.4801 -0.4041
 5311SOL    HW127566   4.199   3.433  15.056 -1.9316  1.8056 -1.4105
 5311SOL    HW227567   4.346   3.430  15.030 -0.2457 -1.1628  1.8782
 5312SOL     OW27568   2.633   0.818   5.120  0.2532  0.0266  0.5027
 5312SOL    HW127569   2.576   0.771   5.059 -0.1445  0.6144  0.4226
 5312SOL    HW227570   2.590   0.789   5.200 -0.4406  2.8110  1.1347
 5313SOL     OW27571   2.514   3.473   5.443  0.2781 -0.5539  0.2755
 5313SOL    HW127572   2.459   3.407   5.486  1.2582 -1.2145  0.5280
 5313SOL    HW227573   2.602   3.440   5.463  0.0041 -1.0271  0.7030
 5314SOL     OW27574   3.667   3.628  10.863  0.0555 -0.6596  0.3418
 5314SOL    HW127575   3.583   3.589  10.885 -1.1838  2.5691  1.3406
 5314SOL    HW227576   3.638   3.703  10.812  0.1491  0.2025  1.5396
 5315SOL     OW27577   3.774   0.120   1.055 -0.1574  0.2096  0.4167
 5315SOL    HW127578   3.692   0.087   1.092  0.2339 -2.8965 -1.5429
 5315SOL    HW227579   3.828   0.042   1.067 -0.4690 -0.3447 -1.8657
 5316SOL     OW27580   0.277   3.356   5.163  0.2514 -0.1718  0.2122
 5316SOL    HW127581   0.285   3.440   5.209 -0.3093  0.4050 -0.7525
 5316SOL    HW227582   0.364   3.318   5.174  0.5497  0.6364  0.6816
 5317SOL     OW27583   0.756   2.930   4.334 -0.2094 -0.4477  0.0730
 5317SOL    HW127584   0.780   2.988   4.262 -0.4617  0.0140  0.3592
 5317SOL    HW227585   0.830   2.951   4.391 -0.9736  2.5368 -0.0732
 5318SOL     OW27586   0.864   0.153   6.135 -0.1550 -0.4233 -0.4258
 5318SOL    HW127587   0.782   0.178   6.179  0.4821 -0.0924  0.5596
 5318SOL    HW227588   0.834   0.081   6.079  1.8965 -1.0528 -0.7107
 5319SOL     OW27589   0.123   1.152   7.734 -0.5736  0.0921  0.6102
 5319SOL    HW127590   0.113   1.060   7.710 -1.5486  0.2269  0.5019
 5319SOL    HW227591   0.041   1.185   7.696 -1.1882  1.3182  2.9583
 5320SOL     OW27592   1.707   2.566   7.860  0.0670 -0.1507 -0.0270
 5320SOL    HW127593   1.644   2.638   7.855  1.1079  0.6108 -2.3888
 5320SOL    HW227594   1.781   2.610   7.818 -0.9493  0.5126 -1.1296
 5321SOL     OW27595   4.376   2.232   5.792 -0.5633 -0.1366  0.2137
 5321SOL    HW127596   4.368   2.288   5.869 -0.5403  0.0583  0.0735
 5321SOL    HW227597   4.304   2.255   5.733 -1.4873 -0.0522  1.3825
 5322SOL     OW27598   0.345   1.175  17.063  0.2486 -0.3501 -0.3027
 5322SOL    HW127599   0.389   1.110  17.009 -1.1737 -0.3169 -1.4898
 5322SOL    HW227600   0.275   1.206  17.006  0.3001  2.5270  1.1904
 5323SOL     OW27601   0.033   1.750  10.990  0.0438  0.0831 -0.0656
 5323SOL    HW127602   0.098   1.686  10.961  2.1754  2.1745  0.1188
 5323SOL    HW227603   4.712   1.701  11.049 -1.4077  0.2678 -1.3442
 5324SOL     OW27604   0.837   3.121   7.673  0.1465 -0.0391  0.2387
 5324SOL    HW127605   0.857   3.105   7.581  1.2755  1.3163  0.2383
 5324SOL    HW227606   0.743   3.106   7.681  0.2941 -1.3886 -0.6150
 5325SOL     OW27607   0.272   3.263   4.424  0.3073  0.3564  0.3902
 5325SOL    HW127608   0.260   3.358   4.418 -1.2050  0.1270 -0.4312
 5325SOL    HW227609   0.219   3.241   4.500 -1.8055  1.4999 -0.7450
 5326SOL     OW27610   0.557   1.307   9.123 -0.4410  0.4724  0.5013
 5326SOL    HW127611   0.636   1.323   9.175 -0.3095 -0.3012  0.5317
 5326SOL    HW227612   0.580   1.295   9.031  0.3939  1.3773  0.5973
 5327SOL     OW27613   3.314   0.378   8.308  0.5391 -0.2083  0.5017
 5327SOL    HW127614   3.241   0.340   8.259  0.2343 -0.2951  1.0239
 5327SOL    HW227615   3.354   0.298   8.340  1.8005 -0.9214 -2.9099
 5328SOL     OW27616   1.335   4.479   3.789  0.0056 -0.2305  0.5297
 5328SOL    HW127617   1.389   4.505   3.863 -0.7950  2.2749  0.2339
 5328SOL    HW227618   1.250   4.488   3.831 -0.7010  0.7769 -1.1335
 5329SOL     OW27619   4.549   3.676   2.254  0.2270  0.1669  0.7533
 5329SOL    HW127620   4.533   3.675   2.348  0.1594  1.6801  0.7460
 5329SOL    HW227621   4.594   3.591   2.250  0.9210  0.5101  1.4112
 5330SOL     OW27622   4.081   3.894   5.934  0.3189  0.1907  0.1514
 5330SOL    HW127623   4.146   3.839   5.891 -1.2124 -0.2802 -1.5631
 5330SOL    HW227624   4.098   3.983   5.904 -2.8498  0.6413 -0.3259
 5331SOL     OW27625   0.477   0.371   5.190 -0.0830 -0.1219 -0.0916
 5331SOL    HW127626   0.421   0.442   5.222 -1.3893 -1.8979  1.5570
 5331SOL    HW227627   0.456   0.294   5.242  0.5607  0.5557  1.1688
 5332SOL     OW27628   3.437   3.913   4.021 -0.2044  0.2021  0.2863
 5332SOL    HW127629   3.362   3.946   4.070 -0.7306 -0.1219 -0.3062
 5332SOL    HW227630   3.508   3.949   4.075 -0.3464  1.3059 -0.2456
 5333SOL     OW27631   3.297   1.831   7.789  0.6767  0.1719 -0.2503
 5333SOL    HW127632   3.355   1.762   7.755  0.2499 -0.7349  0.8625
 5333SOL    HW227633   3.320   1.898   7.725 -3.3802  0.1020 -1.7718
 5334SOL     OW27634   1.095   1.212   8.390 -0.4920  0.1035 -0.5943
 5334SOL    HW127635   1.113   1.127   8.350 -0.6915 -0.3261  0.2221
 5334SOL    HW227636   1.148   1.266   8.331  1.4822  0.7777  1.7851
 5335SOL     OW27637   4.133   1.410  12.253 -0.2163 -0.4805 -0.2894
 5335SOL    HW127638   4.186   1.455  12.319 -1.1175  0.9642 -0.5584
 5335SOL    HW227639   4.196   1.347  12.217 -0.0912 -0.0759 -0.7685
 5336SOL     OW27640   2.599   3.959   6.607  0.3855  0.1132 -0.3023
 5336SOL    HW127641   2.683   3.953   6.652 -0.1454  0.3129  0.7294
 5336SOL    HW227642   2.539   3.948   6.681 -0.1557  0.1579 -0.7312
 5337SOL     OW27643   3.538   3.620   7.064 -0.4886  0.1961  0.3061
 5337SOL    HW127644   3.527   3.568   6.984  1.9284  1.2342 -0.6953
 5337SOL    HW227645   3.590   3.690   7.025  1.0312 -0.5569  0.9908
 5338SOL     OW27646   1.521   1.693   9.990  0.0237  0.3250  0.1469
 5338SOL    HW127647   1.598   1.638  10.003  1.4352  2.1679 -0.5499
 5338SOL    HW227648   1.522   1.753  10.065 -0.4650 -1.7418  1.8179
 5339SOL     OW27649   0.669   3.641   5.033 -0.4980 -0.1700  0.5334
 5339SOL    HW127650   0.670   3.735   5.019  3.2772 -0.3513 -0.2028
 5339SOL    HW227651   0.746   3.632   5.089 -0.4994 -0.0975  0.5461
 5340SOL     OW27652   3.664   3.978   4.190  0.1641  0.1157 -0.1587
 5340SOL    HW127653   3.670   3.912   4.259 -2.9960 -0.5078 -0.5055
 5340SOL    HW227654   3.759   3.992   4.191 -0.0767  1.6849  1.6241
 5341SOL     OW27655   1.146   1.346   1.550  0.2713  0.2297 -0.1824
 5341SOL    HW127656   1.156   1.405   1.476 -2.5454  1.0612  0.0694
 5341SOL    HW227657   1.233   1.310   1.564  0.6627 -0.6113 -4.8927
 5342SOL     OW27658   2.318   0.424   9.904 -0.4622 -0.0849 -0.1430
 5342SOL    HW127659   2.246   0.422   9.969  1.0639  0.1756  1.5580
 5342SOL    HW227660   2.275   0.443   9.821 -0.3413 -1.6190 -0.5546
 5343SOL     OW27661   3.681   4.244   1.529  0.3625  0.3911 -0.0365
 5343SOL    HW127662   3.622   4.264   1.456  1.1181  1.5326 -0.3318
 5343SOL    HW227663   3.621   4.180   1.568 -0.6324  0.3509 -1.6643
 5344SOL     OW27664   0.938   4.302   7.666 -0.2060  0.1851  0.3335
 5344SOL    HW127665   0.931   4.222   7.614 -1.2070  1.1418 -0.9615
 5344SOL    HW227666   1.028   4.331   7.650  0.2542 -1.7354 -0.5283
 5345SOL     OW27667   0.101   1.244  13.536  0.5380 -0.4864  0.0357
 5345SOL    HW127668   0.195   1.254  13.548  0.6022 -0.7143 -0.2849
 5345SOL    HW227669   0.067   1.291  13.612  1.2428  1.5791 -0.8988
 5346SOL     OW27670   2.069   0.721  17.315  0.3456  0.4936 -0.2664
 5346SOL    HW127671   2.097   0.650  17.373  4.4563  2.0204 -0.3682
 5346SOL    HW227672   2.138   0.785  17.334 -0.0195  0.8884 -0.2711
 5347SOL     OW27673   3.067   4.429   9.360  0.4648  0.0442 -0.4921
 5347SOL    HW127674   3.032   4.344   9.331  0.6009 -0.3215  0.4272
 5347SOL    HW227675   3.042   4.426   9.452 -1.2573  2.3527 -0.8969
 5348SOL     OW27676   0.846   1.116  16.709 -0.9504  0.4411 -0.6527
 5348SOL    HW127677   0.933   1.101  16.673 -1.7118 -3.2923 -0.9189
 5348SOL    HW227678   0.790   1.084  16.638 -2.1138 -0.2112  0.5644
 5349SOL     OW27679   1.260   1.920   7.313  0.4066  0.3132 -0.5048
 5349SOL    HW127680   1.232   1.846   7.261 -0.5413  0.3245 -0.0014
 5349SOL    HW227681   1.189   1.983   7.299  1.3466  1.3445 -0.6610
 5350SOL     OW27682   2.848   2.309  12.377 -0.5980  0.2545  0.2397
 5350SOL    HW127683   2.849   2.292  12.283  0.5304 -1.0787  0.4854
 5350SOL    HW227684   2.767   2.356  12.399 -0.7682 -0.8472  1.9931
 5351SOL     OW27685   2.137   2.468   4.471  0.2228  0.1260  0.1055
 5351SOL    HW127686   2.201   2.539   4.471 -0.7211  0.9899 -1.0264
 5351SOL    HW227687   2.144   2.428   4.557 -1.0045  0.2722  0.2773
 5352SOL     OW27688   1.681   1.010   6.206  0.1146 -0.9738  0.1846
 5352SOL    HW127689   1.661   1.009   6.299  2.6309 -0.9294  0.7204
 5352SOL    HW227690   1.596   0.981   6.174 -0.1597 -0.1680  0.1896
 5353SOL     OW27691   0.531   3.933   9.220  0.2006  0.6453  0.6675
 5353SOL    HW127692   0.450   3.980   9.204  0.0029 -0.8717 -3.0011
 5353SOL    HW227693   0.540   3.934   9.315 -0.0521  0.4677  0.6948
 5354SOL     OW27694   4.516   0.885  11.761  0.6609  0.0062  0.0390
 5354SOL    HW127695   4.471   0.825  11.821  1.6151 -1.0668 -0.3261
 5354SOL    HW227696   4.538   0.952  11.825  1.2058  1.2149 -1.4309
 5355SOL     OW27697   2.894   4.277   1.439 -0.3382 -0.4590  0.1261
 5355SOL    HW127698   2.874   4.272   1.533  1.0229 -3.2823  0.2468
 5355SOL    HW227699   2.882   4.189   1.405  0.8495 -0.2082 -0.9161
 5356SOL     OW27700   1.993   1.311  11.173 -0.2595  0.2652  1.1475
 5356SOL    HW127701   1.897   1.311  11.178 -0.2374 -0.2361  1.5513
 5356SOL    HW227702   2.011   1.394  11.128 -0.3675 -0.5941 -0.4784
 5357SOL     OW27703   2.395   1.479  17.676 -0.2272 -0.7663 -0.0760
 5357SOL    HW127704   2.380   1.390  17.707 -0.0287 -1.0029 -0.6496
 5357SOL    HW227705   2.484   1.465  17.643  1.3207  2.6893  2.7141
 5358SOL     OW27706   4.196   3.380   7.329  0.0157 -0.4695 -0.2326
 5358SOL    HW127707   4.194   3.379   7.234  0.1071 -3.3905 -0.2098
 5358SOL    HW227708   4.173   3.471   7.352  0.3797 -0.2326 -0.8224
 5359SOL     OW27709   3.860   1.626   9.492 -0.2930  0.6016 -0.2692
 5359SOL    HW127710   3.795   1.555   9.486 -1.6047  1.9236 -1.7891
 5359SOL    HW227711   3.886   1.651   9.404 -0.7962  3.2616  0.3451
 5360SOL     OW27712   1.569   4.710   3.918 -0.3814 -0.2043  0.1008
 5360SOL    HW127713   1.596   4.686   4.007  0.0741  0.3251  0.1067
 5360SOL    HW227714   1.479   0.006   3.922 -0.2297  0.2935 -0.6440
 5361SOL     OW27715   1.143   0.715   3.355 -0.0724  0.2058 -0.3204
 5361SOL    HW127716   1.053   0.747   3.359 -0.4741 -0.5111 -3.4725
 5361SOL    HW227717   1.134   0.640   3.414  0.7060  0.5857  0.2849
 5362SOL     OW27718   2.557   0.036  11.170 -0.1577  0.6422 -0.3748
 5362SOL    HW127719   2.527   0.048  11.080 -0.9171  0.7610 -0.0989
 5362SOL    HW227720   2.471   0.006  11.198 -0.5254  1.7649 -0.3404
 5363SOL     OW27721   0.111   2.474   7.108 -0.3580 -0.3489  0.3156
 5363SOL    HW127722   0.090   2.380   7.106  0.3480 -0.5279  1.3153
 5363SOL    HW227723   0.132   2.487   7.201  5.3548 -0.7965 -0.8843
 5364SOL     OW27724   0.590   0.287   0.766 -0.0719 -0.2079 -0.0442
 5364SOL    HW127725   0.557   0.368   0.805 -1.1441 -0.1774 -1.0365
 5364SOL    HW227726   0.558   0.225   0.831  0.7572 -1.5236 -0.8965
 5365SOL     OW27727   3.642   2.994   5.441  0.4131 -0.1411  0.0375
 5365SOL    HW127728   3.562   2.987   5.493 -0.1131  1.3612 -0.5724
 5365SOL    HW227729   3.705   3.000   5.513  0.7908 -0.8111 -0.2314
 5366SOL     OW27730   2.662   0.200   6.540 -0.2862  0.2902 -0.0497
 5366SOL    HW127731   2.572   0.182   6.511 -0.4004 -0.2683  0.6603
 5366SOL    HW227732   2.692   0.254   6.466  0.0547 -0.4864 -0.4732
 5367SOL     OW27733   4.464   3.995  10.264 -1.0628  0.8503  0.0634
 5367SOL    HW127734   4.447   3.912  10.219 -2.3538  0.7998  0.6548
 5367SOL    HW227735   4.543   3.962  10.308 -1.1706 -0.7599 -0.9411
 5368SOL     OW27736   3.323   0.534   3.829 -0.0332 -0.0094  0.5474
 5368SOL    HW127737   3.245   0.485   3.802  1.2192 -1.1652 -0.9289
 5368SOL    HW227738   3.318   0.597   3.758 -1.2609  2.1193  2.5462
 5369SOL     OW27739   4.307   0.916   2.474  0.1979  0.4851 -0.3558
 5369SOL    HW127740   4.328   0.824   2.462 -0.5247 -0.0167  2.2348
 5369SOL    HW227741   4.246   0.944   2.406 -0.1702  0.8149  0.1081
 5370SOL     OW27742   2.820   1.544   1.909  0.0358  0.5353  0.2580
 5370SOL    HW127743   2.781   1.464   1.874 -1.5625  2.5129 -2.4507
 5370SOL    HW227744   2.821   1.598   1.830  1.6750  1.2401  0.7623
 5371SOL     OW27745   2.337   2.827   6.963 -0.2550  0.0733 -0.4295
 5371SOL    HW127746   2.277   2.787   7.026  0.0426  1.1042  0.5207
 5371SOL    HW227747   2.329   2.778   6.882 -0.7179 -1.6745  0.6841
 5372SOL     OW27748   4.429   0.023  16.007  0.5802 -0.7896  0.6157
 5372SOL    HW127749   4.431   4.697  16.079  2.4801 -0.1687  1.1078
 5372SOL    HW227750   4.494   4.710  15.956  0.1998  0.1309 -0.7731
 5373SOL     OW27751   1.031   0.844   8.048 -1.0585 -0.8046  0.1502
 5373SOL    HW127752   1.065   0.760   8.018 -0.8404 -0.2538 -1.1385
 5373SOL    HW227753   0.957   0.820   8.103 -0.7169 -1.0466  0.5099
 5374SOL     OW27754   2.693   0.615   2.819 -0.3194 -0.1539  0.1574
 5374SOL    HW127755   2.761   0.577   2.764  1.2103  0.3941  1.6569
 5374SOL    HW227756   2.680   0.542   2.880 -1.1708  0.2927  0.5058
 5375SOL     OW27757   1.795   1.857   7.651 -0.1902 -0.2378 -0.6380
 5375SOL    HW127758   1.860   1.842   7.720 -1.3057 -0.6471  0.3248
 5375SOL    HW227759   1.732   1.785   7.656  0.1476 -0.4180  1.1176
 5376SOL     OW27760   1.751   0.516   4.705  0.1068  0.3960  0.5697
 5376SOL    HW127761   1.777   0.436   4.750  1.5406  0.0148 -0.9344
 5376SOL    HW227762   1.790   0.500   4.619  1.7310  1.3927  1.1313
 5377SOL     OW27763   1.757   1.828   6.016  0.1232  0.3486  0.4275
 5377SOL    HW127764   1.689   1.836   6.083 -1.1473 -3.1987 -0.4408
 5377SOL    HW227765   1.760   1.914   5.972 -3.9653 -0.3940 -1.3090
 5378SOL     OW27766   0.444   1.170   3.369 -0.1476 -0.0423 -0.2963
 5378SOL    HW127767   0.473   1.248   3.417 -0.6334 -0.0630  0.0310
 5378SOL    HW227768   0.451   1.192   3.276  1.7344  0.4275 -0.0542
 5379SOL     OW27769   2.518   2.695   9.694 -0.2535 -0.0583 -0.4340
 5379SOL    HW127770   2.516   2.659   9.605 -2.0547 -2.1729  0.4810
 5379SOL    HW227771   2.427   2.711   9.720 -0.3235  0.1351 -0.7981
 5380SOL     OW27772   0.077   3.252   2.962 -0.3534 -0.1023 -0.1269
 5380SOL    HW127773   0.113   3.313   3.026  1.1371 -0.0383 -1.0333
 5380SOL    HW227774   0.125   3.177   2.996 -0.4718 -0.5387 -0.9291
 5381SOL     OW27775   3.083   2.531   2.546  0.4078 -0.3848  0.7034
 5381SOL    HW127776   3.081   2.611   2.597  1.1404 -0.1313  0.3339
 5381SOL    HW227777   3.037   2.472   2.606 -2.4336  0.8015 -0.2779
 5382SOL     OW27778   1.918   0.702   8.236 -0.3430  0.3024  0.4825
 5382SOL    HW127779   1.828   0.734   8.228 -0.6582  0.3204  4.1882
 5382SOL    HW227780   1.959   0.713   8.150 -0.9306 -2.5851 -0.1802
 5383SOL     OW27781   0.249   4.131   3.156 -0.0804 -0.3526  0.2580
 5383SOL    HW127782   0.278   4.215   3.193  0.1718 -0.3974  0.1666
 5383SOL    HW227783   0.332   4.085   3.169 -0.8190 -1.3491  1.3912
 5384SOL     OW27784   0.275   0.982  15.847 -0.0658 -0.2500  0.3314
 5384SOL    HW127785   0.259   1.072  15.816  1.3446 -0.2385 -0.4064
 5384SOL    HW227786   0.259   1.001  15.939 -1.1551 -0.5154  0.2007
 5385SOL     OW27787   0.296   4.065   0.801  0.4932 -0.1685  0.5482
 5385SOL    HW127788   0.266   4.132   0.863 -3.6814 -0.7600 -0.8202
 5385SOL    HW227789   0.230   3.996   0.802  0.4737 -0.2064 -2.5159
 5386SOL     OW27790   4.625   1.281   7.637  0.2747  0.0315  0.1341
 5386SOL    HW127791   4.564   1.329   7.693 -0.1710 -1.5836  1.0328
 5386SOL    HW227792   4.663   1.360   7.598  0.3192 -0.5453 -0.9928
 5387SOL     OW27793   3.006   2.092  14.003  0.2827 -0.6904 -0.3233
 5387SOL    HW127794   3.060   2.053  14.073  0.0445 -1.0069 -0.3173
 5387SOL    HW227795   2.997   2.015  13.946 -0.9243 -1.6568  1.1573
 5388SOL     OW27796   3.578   1.381   4.115  0.1712 -0.2130  0.7048
 5388SOL    HW127797   3.578   1.463   4.165 -2.1134  1.2132 -1.5951
 5388SOL    HW227798   3.521   1.394   4.039  0.8558  1.1123  0.4063
 5389SOL     OW27799   4.117   4.631   7.498  0.1872  0.1244  0.5442
 5389SOL    HW127800   4.036   4.681   7.505 -1.1405 -2.2876  2.4084
 5389SOL    HW227801   4.096   4.549   7.543 -1.5125 -0.5550 -1.4896
 5390SOL     OW27802   1.270   3.554   5.329  0.8595 -0.2018  0.2207
 5390SOL    HW127803   1.278   3.533   5.236  1.4991 -2.0992  0.7016
 5390SOL    HW227804   1.196   3.614   5.339  1.9605  0.9181  1.6181
 5391SOL     OW27805   4.306   0.662   3.910  0.1969 -0.4237 -0.7920
 5391SOL    HW127806   4.306   0.666   3.814  0.6258  3.6862 -0.6421
 5391SOL    HW227807   4.278   0.752   3.930 -0.8888 -0.8833 -0.2370
 5392SOL     OW27808   2.747   3.381   3.555  0.2474  0.5384 -0.2264
 5392SOL    HW127809   2.747   3.352   3.464 -0.5323  0.5573 -0.2325
 5392SOL    HW227810   2.660   3.360   3.588  0.9010  0.0870  1.2336
 5393SOL     OW27811   4.409   1.960   3.544 -0.5100 -0.2130 -0.1383
 5393SOL    HW127812   4.318   1.938   3.523 -1.2267 -0.4624  3.2689
 5393SOL    HW227813   4.451   1.877   3.522 -0.7063 -0.3040 -0.1725
 5394SOL     OW27814   1.837   4.632   9.293 -0.2724  0.0407  0.6858
 5394SOL    HW127815   1.838   4.609   9.201  1.8965 -1.4185  1.0727
 5394SOL    HW227816   1.746   4.660   9.304 -0.3786 -0.0118 -0.1032
 5395SOL     OW27817   4.009   2.471   9.679  0.4347  0.5618  0.2842
 5395SOL    HW127818   4.044   2.559   9.690  0.5431  0.5964 -0.3366
 5395SOL    HW227819   4.034   2.431   9.762  1.6154  0.5026 -0.0954
 5396SOL     OW27820   2.147   1.871   1.920  0.0025 -0.3614 -0.3613
 5396SOL    HW127821   2.238   1.859   1.949  0.4578  1.2136 -1.1369
 5396SOL    HW227822   2.122   1.784   1.889  0.3073 -0.2945 -0.7976
 5397SOL     OW27823   3.536   0.413   1.793  0.5294  0.3764 -0.0650
 5397SOL    HW127824   3.496   0.337   1.752 -0.1759  0.4523  0.4959
 5397SOL    HW227825   3.467   0.443   1.851 -0.1969 -3.9754  1.2404
 5398SOL     OW27826   2.991   0.973   5.211 -0.4023 -0.1394  0.5992
 5398SOL    HW127827   3.061   0.983   5.275 -2.5242 -1.4325  3.1147
 5398SOL    HW227828   3.035   1.006   5.133  0.3988  0.9246  1.4878
 5399SOL     OW27829   4.207   2.684  14.178  0.5208  0.2015  0.1970
 5399SOL    HW127830   4.141   2.621  14.206  1.6419 -1.3894 -0.7831
 5399SOL    HW227831   4.185   2.699  14.086 -0.4395  1.9612  0.7117
 5400SOL     OW27832   4.648   1.262   9.077 -0.1998  0.3179 -0.1098
 5400SOL    HW127833   4.598   1.339   9.048 -1.6663 -0.1561  1.1519
 5400SOL    HW227834   4.720   1.312   9.114  1.5922 -2.7281  0.5196
 5401SOL     OW27835   4.554   0.973   8.526  0.3000  0.5880 -0.3498
 5401SOL    HW127836   4.535   1.010   8.613 -3.4050  2.2491 -1.8830
 5401SOL    HW227837   4.495   1.024   8.471 -0.6653 -0.5410 -0.3912
 5402SOL     OW27838   3.773   2.049   4.743 -0.4011  0.1292 -0.3462
 5402SOL    HW127839   3.713   1.975   4.733  0.2906 -0.2201 -2.0342
 5402SOL    HW227840   3.779   2.080   4.652 -2.0530 -0.6436 -0.7156
 5403SOL     OW27841   0.764   2.903  13.484 -0.4876  0.4153 -0.1071
 5403SOL    HW127842   0.778   2.835  13.419 -0.1172  1.4420 -1.0984
 5403SOL    HW227843   0.759   2.982  13.431  1.4126  1.7634  1.7091
 5404SOL     OW27844   1.536   1.289   2.654 -0.3742  0.0880 -0.7692
 5404SOL    HW127845   1.578   1.372   2.632 -2.4438  0.7811 -2.0187
 5404SOL    HW227846   1.482   1.323   2.726  0.5629 -0.7806  0.3586
 5405SOL     OW27847   4.709   0.646   6.120  0.0325  0.2186 -0.4923
 5405SOL    HW127848   4.688   0.680   6.033 -0.4068  1.5385  0.1371
 5405SOL    HW227849   4.629   0.602   6.148 -1.0484  0.9305 -2.4725
 5406SOL     OW27850   0.465   1.986   4.109 -0.3574  0.5760 -0.0530
 5406SOL    HW127851   0.462   1.992   4.205 -1.2640 -0.9788  0.0225
 5406SOL    HW227852   0.370   1.986   4.104 -0.3608 -2.8561 -0.1854
 5407SOL     OW27853   4.013   0.215   4.400  0.3729  0.0314 -0.1162
 5407SOL    HW127854   4.008   0.283   4.468  1.2779 -0.7855  0.7700
 5407SOL    HW227855   4.001   0.138   4.456 -1.5356  0.8365  0.5717
 5408SOL     OW27856   3.369   3.182   4.088 -0.1053 -0.4719  0.1772
 5408SOL    HW127857   3.382   3.092   4.058  0.1772 -1.3414  2.9060
 5408SOL    HW227858   3.318   3.213   4.013 -0.6487  3.0560  2.0349
 5409SOL     OW27859   3.310   0.314  11.729  0.4053  0.0374  0.3092
 5409SOL    HW127860   3.240   0.374  11.704  2.8402  1.9561 -1.8914
 5409SOL    HW227861   3.307   0.316  11.825  0.0844  3.5466  0.2296
 5410SOL     OW27862   2.711   3.912   2.501  0.0921 -0.5533 -0.4992
 5410SOL    HW127863   2.760   3.837   2.533  1.2075  0.4719  0.1672
 5410SOL    HW227864   2.749   3.978   2.558  0.9320 -0.3874 -1.2402
 5411SOL     OW27865   0.709   0.390   3.446  0.1854 -0.0561  0.6068
 5411SOL    HW127866   0.773   0.411   3.514  1.1416 -0.9487 -0.0149
 5411SOL    HW227867   0.674   0.478   3.435  0.3776  0.0543  0.8840
 5412SOL     OW27868   3.968   0.468   9.574 -0.0123  0.5215  0.2989
 5412SOL    HW127869   3.993   0.546   9.623  0.9779  0.5197 -0.2006
 5412SOL    HW227870   4.038   0.474   9.509  0.2816 -1.4408  0.4258
 5413SOL     OW27871   0.887   2.478   0.310 -0.5658 -0.8934  0.2043
 5413SOL    HW127872   0.871   2.424   0.233 -0.3016  0.7481 -0.9814
 5413SOL    HW227873   0.943   2.541   0.265 -1.6921 -0.7569 -1.0149
 5414SOL     OW27874   2.357   4.526   2.562 -0.1424 -0.1063  0.1482
 5414SOL    HW127875   2.363   4.574   2.480  0.5019 -0.0238  0.2421
 5414SOL    HW227876   2.359   4.432   2.542  1.5259 -0.0906  0.1887
 5415SOL     OW27877   0.457   2.099   9.553  0.1868  0.0695 -0.2276
 5415SOL    HW127878   0.424   2.133   9.470  3.2474 -0.9265 -1.8656
 5415SOL    HW227879   0.515   2.028   9.524  0.7254 -0.0574  1.1330
 5416SOL     OW27880   2.442   3.511   8.892 -0.4739  0.4019  0.2806
 5416SOL    HW127881   2.477   3.504   8.803  1.6170 -2.4535  1.3306
 5416SOL    HW227882   2.423   3.418   8.906  0.2186 -0.0398 -1.7207
 5417SOL     OW27883   0.361   0.183   4.157 -0.4676 -0.1105 -0.0243
 5417SOL    HW127884   0.280   0.228   4.180 -0.3671 -0.0480  0.2112
 5417SOL    HW227885   0.335   0.159   4.068  0.4931 -0.3704 -0.2362
 5418SOL     OW27886   3.196   4.018  10.110  0.0477 -0.2936  0.2008
 5418SOL    HW127887   3.263   3.956  10.081  0.1719  0.6046 -1.4228
 5418SOL    HW227888   3.165   4.061  10.031 -1.8146 -0.8696  0.5988
 5419SOL     OW27889   0.618   1.861  16.829  0.3346  0.6157  0.2466
 5419SOL    HW127890   0.676   1.909  16.888 -2.1735  1.5474  1.9598
 5419SOL    HW227891   0.683   1.794  16.809 -1.2132 -0.7130 -0.3086
 5420SOL     OW27892   1.824   3.983   8.976 -0.7290  0.7273  0.5863
 5420SOL    HW127893   1.870   3.946   9.052  0.3430 -2.9301 -1.8544
 5420SOL    HW227894   1.842   4.077   8.978  0.6885  0.5181 -2.3450
 5421SOL     OW27895   0.828   0.806   7.033 -0.7115 -0.4848  0.6254
 5421SOL    HW127896   0.765   0.821   6.963 -2.4447 -0.9690  2.1121
 5421SOL    HW227897   0.785   0.757   7.103 -1.0613 -0.5550  0.3603
 5422SOL     OW27898   0.961   1.733   4.252  0.6590  0.0018  0.0592
 5422SOL    HW127899   1.012   1.813   4.239 -1.6936  1.5224  0.2142
 5422SOL    HW227900   0.874   1.771   4.258  1.0966  1.1532 -0.8364
 5423SOL     OW27901   2.992   2.292   7.609  0.2519  0.5450  0.0873
 5423SOL    HW127902   3.032   2.329   7.531  0.2467  0.1320 -0.1067
 5423SOL    HW227903   3.056   2.303   7.679  0.7233 -3.1975  0.2215
 5424SOL     OW27904   2.220   3.971   4.116 -0.2372  0.1534  0.3285
 5424SOL    HW127905   2.161   3.897   4.098 -1.1876  0.6661  1.3740
 5424SOL    HW227906   2.151   4.036   4.126 -0.0565  0.3670  0.1946
 5425SOL     OW27907   0.432   3.518   5.666  0.6583  0.3515  0.4027
 5425SOL    HW127908   0.465   3.583   5.603  1.1149 -0.2243  0.0485
 5425SOL    HW227909   0.501   3.515   5.732 -0.2026  3.9691  1.5031
 5426SOL     OW27910   1.350   0.559  14.733  0.3507  0.0924 -0.0726
 5426SOL    HW127911   1.322   0.506  14.808 -0.7821  2.5977  1.3090
 5426SOL    HW227912   1.401   0.491  14.690 -0.1709 -0.0023 -0.5459
 5427SOL     OW27913   0.078   4.402  14.012 -0.0784 -0.3477 -0.2189
 5427SOL    HW127914   0.115   4.348  14.082  1.2073 -0.5907 -1.0731
 5427SOL    HW227915   0.150   4.417  13.951  0.2991 -2.9353 -0.3978
 5428SOL     OW27916   0.970   3.628   3.788  0.5249 -0.2071  0.3785
 5428SOL    HW127917   0.905   3.697   3.774 -1.3970 -1.7493  1.7593
 5428SOL    HW227918   0.930   3.554   3.743 -1.9507  2.8886 -2.5457
 5429SOL     OW27919   1.872   0.681   8.992 -0.0386  0.6093 -0.4111
 5429SOL    HW127920   1.872   0.687   8.896  1.0701 -1.0185 -0.5081
 5429SOL    HW227921   1.939   0.613   9.000 -0.2570  0.3868 -0.4929
 5430SOL     OW27922   4.145   1.608   2.859  0.5954  0.0112  0.0109
 5430SOL    HW127923   4.079   1.678   2.867  0.2297 -0.3228 -0.0608
 5430SOL    HW227924   4.220   1.665   2.843 -0.1238  0.8055 -0.5644
 5431SOL     OW27925   0.134   3.798   6.612  0.5377  0.3418 -0.0332
 5431SOL    HW127926   0.220   3.769   6.642  2.0491  2.6821 -2.1808
 5431SOL    HW227927   0.103   3.848   6.688 -0.8605 -1.4465  0.5937
 5432SOL     OW27928   1.771   0.835   7.223 -0.0504 -0.3323 -0.0253
 5432SOL    HW127929   1.816   0.903   7.273  1.1755 -1.2521  0.1206
 5432SOL    HW227930   1.816   0.819   7.140 -0.5941  0.9957 -0.5766
 5433SOL     OW27931   0.740   4.687  13.984 -0.4800 -0.2365  0.4442
 5433SOL    HW127932   0.728   4.696  13.890  1.8533 -1.8804  0.0168
 5433SOL    HW227933   0.738   4.592  13.990  1.3451 -0.3652 -1.0608
 5434SOL     OW27934   2.075   2.818   6.396 -0.1435 -0.0303  0.3372
 5434SOL    HW127935   1.983   2.837   6.415 -0.2281 -0.2662  0.1700
 5434SOL    HW227936   2.056   2.740   6.343  0.9170  0.9400 -1.4634
 5435SOL     OW27937   3.966   0.655   3.333 -0.0008 -0.1072  0.2310
 5435SOL    HW127938   3.944   0.634   3.243  2.4693 -0.4622 -0.2647
 5435SOL    HW227939   3.934   0.580   3.383 -0.3487 -0.1060  0.0129
 5436SOL     OW27940   2.882   4.252   2.163 -0.0490  0.0609  0.5826
 5436SOL    HW127941   2.886   4.157   2.169  0.1600  0.1041  1.1581
 5436SOL    HW227942   2.787   4.261   2.175 -0.4156 -2.3241 -0.6493
 5437SOL     OW27943   3.157   3.357  10.727  0.9943  0.0337  0.6937
 5437SOL    HW127944   3.178   3.445  10.693  2.1322  0.3517  2.2528
 5437SOL    HW227945   3.243   3.317  10.719  1.1702  0.7196 -0.9421
 5438SOL     OW27946   0.221   2.495  14.307 -0.5263  0.1640 -0.5613
 5438SOL    HW127947   0.190   2.405  14.313  2.1838 -0.8699 -2.2742
 5438SOL    HW227948   0.203   2.520  14.217 -4.1258  1.1253  0.3929
 5439SOL     OW27949   0.417   4.321   6.916 -0.3004  0.0240 -0.0567
 5439SOL    HW127950   0.384   4.311   6.827  1.2529  0.4740 -0.6931
 5439SOL    HW227951   0.390   4.412   6.925 -0.9625 -0.2736  0.8818
 5440SOL     OW27952   3.333   1.096   3.878 -0.2354 -0.4820  0.4499
 5440SOL    HW127953   3.350   1.150   3.801 -0.2431 -1.7303 -0.4364
 5440SOL    HW227954   3.399   1.028   3.863  0.2923 -0.3239  1.9970
 5441SOL     OW27955   2.291   0.606   7.744 -0.3833 -0.4188 -0.3103
 5441SOL    HW127956   2.206   0.649   7.753 -0.4106 -0.5385  0.0108
 5441SOL    HW227957   2.277   0.556   7.664  2.1626 -1.6262 -0.0051
 5442SOL     OW27958   2.473   2.627   6.495  0.3750 -0.3017  0.1172
 5442SOL    HW127959   2.515   2.554   6.542  2.4520  0.4092 -0.6680
 5442SOL    HW227960   2.532   2.623   6.420 -0.1060  1.7785 -0.3602
 5443SOL     OW27961   0.448   1.432  11.711 -0.4476  0.3596 -0.5964
 5443SOL    HW127962   0.374   1.373  11.727  1.8520 -2.8213 -1.7499
 5443SOL    HW227963   0.404   1.513  11.682 -2.1050 -0.3023  0.0610
 5444SOL     OW27964   0.274   3.440   0.313 -0.5332 -0.2319  0.2032
 5444SOL    HW127965   0.185   3.467   0.292 -0.8691 -1.9929 -0.6344
 5444SOL    HW227966   0.308   3.428   0.224 -1.5481  0.1041 -0.2346
 5445SOL     OW27967   2.123   3.703   5.851 -0.2669  0.6400  0.5228
 5445SOL    HW127968   2.027   3.705   5.844 -0.2649 -0.0132  0.3023
 5445SOL    HW227969   2.153   3.744   5.770 -3.0891 -1.0597 -1.3939
 5446SOL     OW27970   1.471   0.929  16.751  0.5159 -0.1109  0.2207
 5446SOL    HW127971   1.526   0.891  16.819  1.8790  0.2984 -0.6440
 5446SOL    HW227972   1.524   1.005  16.730  0.0836  0.2460  0.4262
 5447SOL     OW27973   3.973   1.286   0.915  0.1986 -0.0758 -0.2008
 5447SOL    HW127974   3.897   1.242   0.877  2.0033 -1.5762 -1.9900
 5447SOL    HW227975   3.970   1.238   0.998  1.4935  0.0102 -0.1016
 5448SOL     OW27976   2.399   0.698   2.658 -0.1660 -0.6175  0.4332
 5448SOL    HW127977   2.426   0.638   2.728 -0.9210 -2.2901 -0.7203
 5448SOL    HW227978   2.487   0.710   2.623 -0.4166  1.5476  0.5728
 5449SOL     OW27979   0.092   0.829   0.874 -0.3798  0.0252  0.0520
 5449SOL    HW127980   0.052   0.812   0.960  0.3367 -1.0575  0.1737
 5449SOL    HW227981   0.166   0.887   0.895 -0.4737 -1.4685  4.6395
 5450SOL     OW27982   4.451   0.490  11.614  0.3693 -0.1605 -0.2125
 5450SOL    HW127983   4.526   0.545  11.635  1.3131 -0.6456 -2.3613
 5450SOL    HW227984   4.385   0.556  11.592  0.2697 -0.4365 -0.7252
 5451SOL     OW27985   3.695   3.355   7.939 -0.0085  0.4872  0.2865
 5451SOL    HW127986   3.719   3.440   7.977  0.3647 -0.2043  1.5873
 5451SOL    HW227987   3.756   3.292   7.975  1.0694  0.1605 -2.1117
 5452SOL     OW27988   4.004   0.847   7.457 -0.3149  0.7503  0.4996
 5452SOL    HW127989   3.972   0.761   7.432  3.5681 -0.1621 -1.4643
 5452SOL    HW227990   3.927   0.902   7.469 -2.5557 -1.8873 -1.9018
 5453SOL     OW27991   3.301   4.687   7.626 -0.3069 -0.5860 -0.5821
 5453SOL    HW127992   3.250   4.663   7.703  2.3326 -3.0360  0.4086
 5453SOL    HW227993   3.385   4.646   7.647  1.2704  1.1707 -3.4468
 5454SOL     OW27994   0.351   0.278   9.932 -0.0368  0.0541 -0.3042
 5454SOL    HW127995   0.380   0.196   9.972 -0.1452 -0.3762 -1.1320
 5454SOL    HW227996   0.308   0.325  10.004  0.0765 -2.3726  1.3501
 5455SOL     OW27997   0.030   3.985  14.599 -0.1642  0.1539 -0.0035
 5455SOL    HW127998   0.079   3.958  14.677 -0.6840 -2.6103 -0.6621
 5455SOL    HW227999   0.027   3.901  14.555 -0.8564  0.3656 -0.3716
 5456SOL     OW28000   3.504   0.604   8.839 -0.2158  0.3091  0.6442
 5456SOL    HW128001   3.592   0.639   8.831 -0.2999  0.6480  1.2128
 5456SOL    HW228002   3.468   0.658   8.909 -0.5557 -0.4385  1.0418
 5457SOL     OW28003   1.925   2.446   5.299  0.2364 -0.0146 -0.0189
 5457SOL    HW128004   1.883   2.530   5.278  1.4051  1.3025  2.8724
 5457SOL    HW228005   1.918   2.397   5.217  1.2325 -1.2067  0.6179
 5458SOL     OW28006   0.621   0.963  13.956  0.1224  0.3725  0.2644
 5458SOL    HW128007   0.608   0.870  13.938  0.8132 -0.0303  1.8867
 5458SOL    HW228008   0.583   1.007  13.880  0.1382  0.6807  0.4340
 5459SOL     OW28009   0.695   3.268   7.214 -0.4963 -0.0533 -0.4731
 5459SOL    HW128010   0.723   3.178   7.194 -0.1088  0.7582 -3.5054
 5459SOL    HW228011   0.760   3.294   7.280 -0.3853  1.0337 -1.0225
 5460SOL     OW28012   2.577   0.687  15.220 -0.0026 -0.1927 -0.0327
 5460SOL    HW128013   2.552   0.602  15.184  1.6170 -0.4369 -0.5591
 5460SOL    HW228014   2.644   0.655  15.279  1.3448 -2.1446 -2.6127
 5461SOL     OW28015   2.081   0.899   2.183  0.4212  0.3846  0.1779
 5461SOL    HW128016   2.105   0.809   2.204 -0.1821 -0.4361 -2.7592
 5461SOL    HW228017   1.997   0.894   2.137 -0.5247 -0.8051  2.0057
 5462SOL     OW28018   1.490   0.762  15.875 -0.1480 -0.2370 -0.2034
 5462SOL    HW128019   1.465   0.839  15.824 -2.1769 -0.5269  0.3324
 5462SOL    HW228020   1.566   0.728  15.828 -0.3076 -0.9639  0.0645
 5463SOL     OW28021   4.551   2.121  10.170 -0.1292 -0.2172 -0.8742
 5463SOL    HW128022   4.574   2.183  10.240 -2.0404 -0.8518  0.2958
 5463SOL    HW228023   4.459   2.101  10.186  0.2134  0.5929  2.1415
 5464SOL     OW28024   1.891   0.430   5.542 -0.2133  0.2129 -0.2205
 5464SOL    HW128025   1.865   0.448   5.632  0.2672  0.0595 -0.0533
 5464SOL    HW228026   1.866   0.508   5.493 -0.2521  0.3281 -0.0124
 5465SOL     OW28027   0.870   2.785   7.263 -0.3261 -0.4004  0.2561
 5465SOL    HW128028   0.806   2.720   7.233  0.8680 -2.1078  1.3540
 5465SOL    HW228029   0.932   2.775   7.191  0.8088  1.0318  1.0436
 5466SOL     OW28030   2.008   2.176  11.456  0.1777 -0.0041  0.3504
 5466SOL    HW128031   2.052   2.094  11.432 -0.1108  0.2784 -1.1466
 5466SOL    HW228032   2.077   2.197  11.519  0.2671  1.2300 -0.1637
 5467SOL     OW28033   2.703   0.588   7.636 -0.2844  0.8907 -0.8944
 5467SOL    HW128034   2.773   0.625   7.690 -1.2074  1.9659 -0.4365
 5467SOL    HW228035   2.648   0.663   7.613  0.1387  1.5543  0.2436
 5468SOL     OW28036   3.539   1.680   8.381  0.1912  0.2143  0.0435
 5468SOL    HW128037   3.586   1.622   8.441  0.0552 -0.3030 -0.3528
 5468SOL    HW228038   3.608   1.743   8.363  0.3666 -0.1313 -0.4942
 5469SOL     OW28039   0.958   2.687  17.256 -0.0007  0.1953  0.4072
 5469SOL    HW128040   1.049   2.682  17.284  0.4241 -1.4470 -1.2671
 5469SOL    HW228041   0.947   2.782  17.258  0.6499  0.2621  0.6825
 5470SOL     OW28042   2.471   3.951  11.046 -0.1658  0.2448  0.1557
 5470SOL    HW128043   2.417   3.884  11.004 -0.2175  0.7650 -0.5976
 5470SOL    HW228044   2.522   3.906  11.114  1.4031 -1.3362 -2.0801
 5471SOL     OW28045   3.548   1.387  10.699  0.7329  0.2705  0.3778
 5471SOL    HW128046   3.525   1.465  10.647  0.5289 -0.0086  0.0446
 5471SOL    HW228047   3.601   1.341  10.634 -1.2554 -1.2969 -0.1238
 5472SOL     OW28048   2.431   3.151   3.954  0.0912  0.3780 -0.0165
 5472SOL    HW128049   2.503   3.183   3.901 -1.8891  3.4071 -0.8862
 5472SOL    HW228050   2.472   3.151   4.040  0.3643  1.5461 -0.1573
 5473SOL     OW28051   0.611   2.919  14.015 -0.1029  0.1160  0.4467
 5473SOL    HW128052   0.551   2.848  13.993  0.2369  0.2560 -0.9176
 5473SOL    HW228053   0.655   2.931  13.931  3.2020 -0.1340  2.1493
 5474SOL     OW28054   0.918   2.926  16.925  0.0352  0.2486 -0.2485
 5474SOL    HW128055   1.007   2.955  16.943 -1.0622  4.0795 -0.9604
 5474SOL    HW228056   0.891   2.972  16.846 -1.7532  3.3001  2.1389
 5475SOL     OW28057   3.717   2.245  12.070 -0.6497 -0.1955 -0.0342
 5475SOL    HW128058   3.807   2.213  12.063 -0.4773  0.1156  0.7519
 5475SOL    HW228059   3.732   2.332  12.033 -1.2408  0.8735  2.2215
 5476SOL     OW28060   2.500   0.236  13.516  0.1040  0.3757  0.2254
 5476SOL    HW128061   2.568   0.243  13.582  0.0811 -0.4669  0.3311
 5476SOL    HW228062   2.566   0.260  13.451 -0.8364  0.9938 -0.4977
 5477SOL     OW28063   0.027   2.375   7.973 -0.3749 -0.1918  0.6343
 5477SOL    HW128064   4.700   2.327   7.920  0.8917 -1.1963  0.0450
 5477SOL    HW228065   0.105   2.321   7.968 -0.0551  0.3465 -0.2094
 5478SOL     OW28066   4.579   2.444   6.896 -0.0037 -0.3520  0.0188
 5478SOL    HW128067   4.591   2.431   6.991  2.2786  1.4298 -0.0200
 5478SOL    HW228068   4.542   2.357   6.885 -2.4457  0.7832 -0.7100
 5479SOL     OW28069   2.929   1.501   6.128  0.3481  0.2951  0.0581
 5479SOL    HW128070   2.979   1.420   6.129  0.0784  0.1442  0.8967
 5479SOL    HW228071   3.008   1.554   6.125  0.4320  0.2496  1.4841
 5480SOL     OW28072   1.798   2.477  14.533 -0.0785 -0.5663  0.3876
 5480SOL    HW128073   1.783   2.571  14.528 -0.1469 -0.5931  0.0553
 5480SOL    HW228074   1.775   2.452  14.443  0.4715  1.4986 -0.3218
 5481SOL     OW28075   1.941   1.458  17.744 -0.0685 -0.0151  0.0512
 5481SOL    HW128076   1.922   1.442   0.090 -1.9455  1.2001 -0.1234
 5481SOL    HW228077   1.931   1.376  17.696 -2.0426  0.8327 -0.9794
 5482SOL     OW28078   1.024   1.034   2.484 -0.0921 -0.1831 -0.2997
 5482SOL    HW128079   1.046   1.076   2.567 -1.7147  0.1919 -0.0572
 5482SOL    HW228080   0.970   1.090   2.427  4.4214  2.0530 -2.3594
 5483SOL     OW28081   0.783   1.569   1.277  0.2928 -0.0261  0.9015
 5483SOL    HW128082   0.775   1.662   1.299  2.3505  0.4734 -0.4790
 5483SOL    HW228083   0.692   1.539   1.281  0.7442 -1.5357 -0.3038
 5484SOL     OW28084   2.190   4.679   3.306  0.0630 -0.7816  0.0537
 5484SOL    HW128085   2.130   4.604   3.304 -0.6740 -0.2212  1.5901
 5484SOL    HW228086   2.232   4.663   3.221  0.1904  1.5271 -0.3344
 5485SOL     OW28087   2.564   0.695  14.953  0.7466 -0.0987 -0.7439
 5485SOL    HW128088   2.545   0.785  14.927  1.5471 -0.3140 -2.0985
 5485SOL    HW228089   2.544   0.698  15.046  2.5577  0.3720 -0.3576
 5486SOL     OW28090   4.587   1.180   3.166 -0.2201  0.5373  0.0729
 5486SOL    HW128091   4.610   1.152   3.254  2.0716 -0.3544 -0.8082
 5486SOL    HW228092   4.621   1.270   3.169 -0.1271  0.4287  2.0064
 5487SOL     OW28093   4.230   4.578  10.983 -0.1866  0.3479 -0.3295
 5487SOL    HW128094   4.266   4.655  11.027 -2.5845  0.9150  0.6378
 5487SOL    HW228095   4.239   4.597  10.890 -0.1959  0.4223 -0.3155
 5488SOL     OW28096   0.120   3.062  12.989 -0.6999 -0.1853 -0.0664
 5488SOL    HW128097   0.143   3.086  13.079  3.2695  0.2107 -1.2133
 5488SOL    HW228098   0.050   2.999  13.005 -0.5756 -0.3863 -0.3204
 5489SOL     OW28099   4.123   0.105  16.525 -0.2278  0.4622 -0.3417
 5489SOL    HW128100   4.116   0.144  16.612 -0.3096  3.5763 -1.7592
 5489SOL    HW228101   4.055   0.155  16.481 -0.1381  1.1955  0.3595
 5490SOL     OW28102   0.596   0.726   1.684 -0.2681 -0.1290  0.4410
 5490SOL    HW128103   0.675   0.695   1.641 -2.5710 -1.5455 -2.8102
 5490SOL    HW228104   0.565   0.645   1.724 -1.4308 -0.1568 -0.5125
 5491SOL     OW28105   3.945   1.089   9.986 -0.9774  0.2689  0.0397
 5491SOL    HW128106   3.922   1.018  10.046 -0.2807  1.7554  2.0384
 5491SOL    HW228107   4.038   1.100  10.006 -1.3225  1.0957  1.1927
 5492SOL     OW28108   2.082   3.098   4.835  0.7074 -0.1230  0.1950
 5492SOL    HW128109   2.113   3.106   4.925  0.1163  1.9146  0.2214
 5492SOL    HW228110   2.057   3.006   4.823 -0.6709 -0.0369  2.5718
 5493SOL     OW28111   1.829   3.225   9.313 -0.3015 -0.0291  0.2946
 5493SOL    HW128112   1.806   3.318   9.305 -1.4830 -0.2385  1.2400
 5493SOL    HW228113   1.888   3.228   9.389  0.1848  1.9052 -0.1546
 5494SOL     OW28114   1.256   2.576  12.062 -0.3116 -0.0522 -0.0395
 5494SOL    HW128115   1.256   2.481  12.077  0.8348  0.2249  1.6539
 5494SOL    HW228116   1.333   2.583  12.006 -1.4425  0.2632 -1.5636
 5495SOL     OW28117   0.594   3.664  17.524 -0.5255 -0.0617  0.1001
 5495SOL    HW128118   0.672   3.714  17.502 -0.4450  0.5505  1.7985
 5495SOL    HW228119   0.610   3.616  17.605 -0.1362  0.0489  0.0833
 5496SOL     OW28120   4.709   0.920  12.176 -0.1331  0.3210  0.1959
 5496SOL    HW128121   4.679   0.852  12.116  1.4283 -1.4023  1.3554
 5496SOL    HW228122   0.045   0.868  12.210 -0.4728 -0.9095 -0.9609
 5497SOL     OW28123   0.333   1.874   0.829 -0.3337  0.5264  0.7622
 5497SOL    HW128124   0.266   1.806   0.833  0.5885 -0.4652 -0.9305
 5497SOL    HW228125   0.399   1.836   0.771  1.1386 -0.4003  3.0072
 5498SOL     OW28126   0.171   0.017   0.315  0.3350 -0.4635  0.1248
 5498SOL    HW128127   0.204   4.677   0.361  0.3804 -0.5132  0.0088
 5498SOL    HW228128   0.237   0.021   0.245  2.8589  0.5410  2.5869
 5499SOL     OW28129   0.972   2.828   2.204 -0.1799 -0.6821 -0.5871
 5499SOL    HW128130   0.884   2.794   2.186 -0.2263 -1.4969  1.2510
 5499SOL    HW228131   1.033   2.762   2.172 -0.5138 -1.4406  0.3507
 5500SOL     OW28132   4.517   2.046   5.412  0.1500  0.5554 -0.0230
 5500SOL    HW128133   4.527   2.128   5.460  2.7872 -0.3860  1.0230
 5500SOL    HW228134   4.429   2.054   5.375  0.3725  0.8721 -0.4972
 5501SOL     OW28135   2.710   1.850   7.278 -0.1294  0.0469 -0.3078
 5501SOL    HW128136   2.762   1.875   7.201  1.3571  0.2106  0.7458
 5501SOL    HW228137   2.674   1.932   7.310 -2.9679 -0.3348 -2.5836
 5502SOL     OW28138   1.787   3.243   7.459  0.0755 -0.4808 -0.3921
 5502SOL    HW128139   1.692   3.241   7.474  0.3171  0.3453  1.3287
 5502SOL    HW228140   1.816   3.225   7.549  0.5441 -1.8981 -0.8225
 5503SOL     OW28141   2.031   4.574  16.049 -0.2714 -0.6505  0.0487
 5503SOL    HW128142   2.121   4.600  16.030 -0.7375  1.1528  0.3552
 5503SOL    HW228143   2.041   4.480  16.065 -0.9062 -0.9072 -1.1122
 5504SOL     OW28144   1.189   4.346   7.354 -0.3357  0.7447 -0.2887
 5504SOL    HW128145   1.128   4.372   7.286  1.6345  1.8013 -1.6363
 5504SOL    HW228146   1.171   4.398   7.432  1.9044 -0.8785  1.3511
 5505SOL     OW28147   1.464   3.421   9.889  0.1560 -0.4574 -0.1099
 5505SOL    HW128148   1.391   3.387   9.839  0.4918 -1.1028 -0.1642
 5505SOL    HW228149   1.426   3.435   9.976  0.4525  0.2387 -0.0949
 5506SOL     OW28150   2.424   3.756   4.214  0.4206 -0.4793 -0.4546
 5506SOL    HW128151   2.504   3.807   4.229  0.4125 -0.7317  0.4322
 5506SOL    HW228152   2.362   3.824   4.239 -0.9126 -1.7305 -0.3862
 5507SOL     OW28153   3.258   1.319  14.394 -0.3427  0.3008 -0.2349
 5507SOL    HW128154   3.308   1.356  14.322 -1.5462 -0.9643 -1.7468
 5507SOL    HW228155   3.203   1.393  14.420 -2.4880 -0.5705 -2.2061
 5508SOL     OW28156   3.506   4.455   4.073 -0.4942 -0.1600 -0.2104
 5508SOL    HW128157   3.596   4.476   4.100  0.7507 -0.9095 -3.7936
 5508SOL    HW228158   3.468   4.542   4.069 -0.3001 -0.0659 -0.0318
 5509SOL     OW28159   4.602   2.653  11.097 -0.8385 -0.3482 -0.3651
 5509SOL    HW128160   4.668   2.642  11.029 -0.2108  2.0533 -0.1181
 5509SOL    HW228161   4.578   2.561  11.110 -1.1662 -0.1835  0.2022
 5510SOL     OW28162   1.387   3.228   3.008 -0.0730  0.2391  0.2334
 5510SOL    HW128163   1.327   3.257   3.078 -0.9291  1.0792 -0.8526
 5510SOL    HW228164   1.380   3.133   3.021  1.4221  0.3586  1.8101
 5511SOL     OW28165   2.829   3.290  16.084  0.1774 -0.1672 -0.0345
 5511SOL    HW128166   2.886   3.354  16.126  2.6305 -2.0818 -0.4316
 5511SOL    HW228167   2.868   3.270  15.999  1.1454 -1.0002  0.6038
 5512SOL     OW28168   2.956   0.749   7.414 -0.0245  0.5275 -0.1255
 5512SOL    HW128169   2.906   0.668   7.401  1.4003 -0.3958  0.2058
 5512SOL    HW228170   3.003   0.715   7.490  0.6314  2.1304  0.1853
 5513SOL     OW28171   2.121   3.367   9.738 -0.3203  0.2930  0.3137
 5513SOL    HW128172   2.034   3.373   9.697  0.1483  2.3079 -0.3599
 5513SOL    HW228173   2.142   3.460   9.744  0.8133  0.1032 -0.7855
 5514SOL     OW28174   0.036   0.687   8.791  0.3200  0.3154 -0.1427
 5514SOL    HW128175   0.079   0.759   8.838  1.6184  0.5582 -1.6964
 5514SOL    HW228176   0.114   0.636   8.770  2.0066  2.7373  0.1483
 5515SOL     OW28177   2.616   2.487  16.816  0.2902 -0.3498  0.3972
 5515SOL    HW128178   2.655   2.460  16.900  0.5281 -1.4293 -0.0617
 5515SOL    HW228179   2.523   2.466  16.819  0.0786  0.4348 -0.8169
 5516SOL     OW28180   4.589   4.286   5.800 -0.1934 -1.2505 -0.6907
 5516SOL    HW128181   4.530   4.352   5.763  2.1073  1.4791  0.4573
 5516SOL    HW228182   4.575   4.305   5.893 -1.1445 -2.3476 -0.6137
 5517SOL     OW28183   4.258   4.718   5.190  0.4614 -0.1301  0.2191
 5517SOL    HW128184   4.288   4.643   5.140  0.8629 -1.4968  2.5133
 5517SOL    HW228185   4.316   0.043   5.145  0.1563  0.7603  1.0376
 5518SOL     OW28186   0.683   0.007   4.695  0.1352 -0.5404 -0.1164
 5518SOL    HW128187   0.591   0.031   4.685 -0.0257 -0.7103  0.9281
 5518SOL    HW228188   0.720   0.078   4.748  3.1135 -2.3547  0.2345
 5519SOL     OW28189   2.190   4.242   6.334  0.2772  0.0168 -0.0384
 5519SOL    HW128190   2.194   4.284   6.420 -0.1685  1.8959 -0.9364
 5519SOL    HW228191   2.233   4.157   6.349  1.3390  0.6605  0.5232
 5520SOL     OW28192   3.344   0.784   2.992  0.0245 -0.5801  0.0428
 5520SOL    HW128193   3.267   0.781   2.934  0.2837 -1.5958 -0.2345
 5520SOL    HW228194   3.341   0.698   3.032 -0.8367 -0.3251  0.5296
 5521SOL     OW28195   0.644   1.400  14.257 -0.3035 -0.1320 -0.5956
 5521SOL    HW128196   0.586   1.324  14.255  0.4361 -0.7236  0.4285
 5521SOL    HW228197   0.700   1.383  14.182 -0.6760  0.2023 -0.9552
 5522SOL     OW28198   3.258   3.580  14.302 -0.3781  0.0629  0.2910
 5522SOL    HW128199   3.168   3.558  14.281  0.1074  0.2258 -1.9880
 5522SOL    HW228200   3.237   3.644  14.370 -0.7117  1.5799 -1.2158
 5523SOL     OW28201   2.885   2.294  16.267  0.3477 -0.3902  0.2764
 5523SOL    HW128202   2.946   2.223  16.288 -0.5384 -0.8527  1.2489
 5523SOL    HW228203   2.806   2.243  16.283  0.5141 -1.0176 -0.9192
 5524SOL     OW28204   2.952   3.318  14.894  0.0989  0.5594  0.1354
 5524SOL    HW128205   2.926   3.274  14.975  0.3377 -0.3548 -0.2909
 5524SOL    HW228206   3.046   3.332  14.910  0.4614 -1.0918 -0.5698
 5525SOL     OW28207   3.488   4.036   3.786  0.7099  0.1130  0.3743
 5525SOL    HW128208   3.443   4.102   3.839  0.6873 -1.0852  1.8167
 5525SOL    HW228209   3.471   3.960   3.840 -0.1361 -1.0732 -1.5706
 5526SOL     OW28210   3.563   0.345  11.576  0.2402 -0.3940 -0.0103
 5526SOL    HW128211   3.521   0.424  11.539 -0.8487 -0.7869  0.3776
 5526SOL    HW228212   3.498   0.312  11.638  0.9195  1.1633  1.5030
 5527SOL     OW28213   3.780   3.440   1.705  0.3177  0.2931  0.4799
 5527SOL    HW128214   3.804   3.531   1.721 -4.6484  1.8064 -0.6919
 5527SOL    HW228215   3.705   3.432   1.764 -0.5028 -1.5250 -0.7825
 5528SOL     OW28216   0.518   3.132   3.201 -0.1072  0.6996  0.4094
 5528SOL    HW128217   0.479   3.046   3.210  0.1468  0.3496 -1.6794
 5528SOL    HW228218   0.563   3.147   3.284  1.5286  2.4505 -0.7931
 5529SOL     OW28219   4.709   2.320   4.460  0.1343  0.1679  0.3430
 5529SOL    HW128220   4.718   2.246   4.401  1.0234 -0.1502  0.8878
 5529SOL    HW228221   4.614   2.329   4.456  0.1799  0.3714 -0.2725
 5530SOL     OW28222   4.625   0.276  16.753 -0.2490  0.4452  0.3499
 5530SOL    HW128223   4.646   0.230  16.672 -2.5329  0.5231 -0.3027
 5530SOL    HW228224   4.549   0.228  16.784 -0.2360  0.1426 -0.0819
 5531SOL     OW28225   3.861   2.220   1.550 -0.3849  0.0364 -0.2812
 5531SOL    HW128226   3.906   2.292   1.593  2.3618 -1.2913 -0.9824
 5531SOL    HW228227   3.778   2.220   1.598 -0.8708 -0.7635 -1.1312
 5532SOL     OW28228   1.058   1.686   5.620  0.4215  0.0393  0.4949
 5532SOL    HW128229   0.996   1.671   5.549  0.5699 -0.3241  0.4416
 5532SOL    HW228230   1.036   1.777   5.640 -0.4757 -0.3775  1.3752
 5533SOL     OW28231   0.008   4.199   7.266 -0.0977 -0.1031 -0.2529
 5533SOL    HW128232   0.014   4.103   7.260  1.0966 -0.0244 -0.4718
 5533SOL    HW228233   4.661   4.210   7.309  0.1433  0.3780  0.0886
 5534SOL     OW28234   2.772   2.832   8.926  0.8958 -0.3119 -0.5068
 5534SOL    HW128235   2.819   2.756   8.962  0.8473 -0.7368 -1.3353
 5534SOL    HW228236   2.835   2.894   8.964  0.1628 -0.6167  1.2021
 5535SOL     OW28237   1.535   4.344   5.569  0.8336 -0.4353 -0.5776
 5535SOL    HW128238   1.464   4.325   5.508  2.0180 -0.2616 -1.9910
 5535SOL    HW228239   1.593   4.399   5.516  1.4742 -0.6664 -0.1157
 5536SOL     OW28240   3.936   1.337   9.844  0.2367  0.2134  0.2564
 5536SOL    HW128241   4.018   1.355   9.798 -0.6461 -1.5343 -2.0201
 5536SOL    HW228242   3.958   1.265   9.903 -0.4434  0.4854  0.8435
 5537SOL     OW28243   3.702   0.549   4.884 -0.4332  0.7168  0.6613
 5537SOL    HW128244   3.726   0.524   4.973  0.2206  1.3636  0.6677
 5537SOL    HW228245   3.784   0.567   4.839  0.4559  0.8670  2.3288
 5538SOL     OW28246   4.719   1.904  17.221  0.1537 -0.0691  0.3050
 5538SOL    HW128247   4.632   1.908  17.180  0.9816  3.5996 -1.1086
 5538SOL    HW228248   0.022   1.862  17.144 -0.3490  0.4088 -0.2198
 5539SOL     OW28249   0.562   4.361  15.675  0.6851 -0.1730 -0.2490
 5539SOL    HW128250   0.481   4.315  15.697 -0.3428  1.8192  0.0764
 5539SOL    HW228251   0.597   4.300  15.610 -0.2476 -0.2875 -0.6442
 5540SOL     OW28252   1.825   4.104   6.035  0.1168  0.2451 -0.6614
 5540SOL    HW128253   1.920   4.111   6.034  0.4292 -3.2303  1.2825
 5540SOL    HW228254   1.810   4.127   6.127  2.9775 -0.5558  0.0139
 5541SOL     OW28255   1.575   1.898   4.086  0.2885 -0.2168  0.7775
 5541SOL    HW128256   1.523   1.823   4.056  0.0415  1.1649 -2.2272
 5541SOL    HW228257   1.636   1.850   4.143  0.4208 -1.4868 -0.4470
 5542SOL     OW28258   1.947   0.502   3.809 -0.6385  0.3900  0.1037
 5542SOL    HW128259   1.869   0.481   3.861 -1.8345 -0.9795 -2.2046
 5542SOL    HW228260   1.898   0.490   3.727 -0.2795 -2.0323  0.2436
 5543SOL     OW28261   2.407   2.296   7.936 -0.3161 -0.0901 -0.1947
 5543SOL    HW128262   2.469   2.361   7.902  0.7841 -0.1214  1.7637
 5543SOL    HW228263   2.387   2.317   8.028 -1.0859  2.6083 -0.9808
 5544SOL     OW28264   2.536   3.867   2.029 -0.1505  0.2733 -0.1703
 5544SOL    HW128265   2.597   3.890   2.100 -0.7231  1.4911 -0.0760
 5544SOL    HW228266   2.468   3.818   2.075  1.4071 -1.9238 -0.1464
 5545SOL     OW28267   1.529   3.186   3.355  1.1326 -0.6337 -0.2060
 5545SOL    HW128268   1.492   3.265   3.395  2.1866 -0.2596  0.0092
 5545SOL    HW228269   1.619   3.214   3.340  1.2802 -0.4983  0.9441
 5546SOL     OW28270   2.654   3.605  15.465  0.4011 -0.2957 -0.4798
 5546SOL    HW128271   2.711   3.678  15.439  1.9468 -1.4096 -0.2716
 5546SOL    HW228272   2.584   3.653  15.509  0.1367  0.4212 -1.6956
 5547SOL     OW28273   1.792   1.948  17.301 -0.8976 -0.6625  0.3126
 5547SOL    HW128274   1.833   2.034  17.296 -0.9344 -0.5254  2.3554
 5547SOL    HW228275   1.749   1.952  17.216 -0.2138 -0.9908 -0.0470
 5548SOL     OW28276   1.001   2.438  13.490 -1.0792  0.5152 -0.1727
 5548SOL    HW128277   1.027   2.360  13.540 -0.0445 -0.2607 -1.9496
 5548SOL    HW228278   0.972   2.400  13.407  0.2869  1.3922 -1.0536
 5549SOL     OW28279   4.290   4.295   4.998  0.2005 -0.4819 -0.1345
 5549SOL    HW128280   4.220   4.231   4.984  0.0444 -0.3335 -0.0321
 5549SOL    HW228281   4.364   4.257   4.951 -0.0302 -1.4040  0.2405
 5550SOL     OW28282   1.590   4.066   2.387  0.6351  0.1393 -0.2234
 5550SOL    HW128283   1.574   4.122   2.463 -1.7280  0.4611 -0.9541
 5550SOL    HW228284   1.596   4.126   2.312 -2.0733  1.0273  0.2885
 5551SOL     OW28285   0.098   0.536  11.853 -0.4429  0.1024  0.1431
 5551SOL    HW128286   0.168   0.531  11.788 -0.1914 -0.0202  0.4285
 5551SOL    HW228287   0.133   0.491  11.929 -3.3568  0.7705  1.8849
 5552SOL     OW28288   1.161   1.818   4.958 -1.0781  0.0398  0.0049
 5552SOL    HW128289   1.147   1.819   4.863 -1.6766 -1.8637  0.0763
 5552SOL    HW228290   1.113   1.897   4.982 -0.7293 -0.3125  1.8066
 5553SOL     OW28291   0.875   2.354   6.135  0.0693 -0.0634 -0.1095
 5553SOL    HW128292   0.809   2.315   6.193  0.0191 -1.3463 -1.0459
 5553SOL    HW228293   0.880   2.305   6.053  0.3072  0.0797 -0.1822
 5554SOL     OW28294   2.223   0.522   4.228  0.0275 -0.2236 -0.4663
 5554SOL    HW128295   2.296   0.508   4.289 -1.1740  1.8644  1.4385
 5554SOL    HW228296   2.239   0.446   4.172  2.3604 -1.6017  2.0339
 5555SOL     OW28297   1.569   0.476   6.267 -0.0133  0.0130 -0.1720
 5555SOL    HW128298   1.615   0.543   6.217  0.6205 -0.5236 -0.3021
 5555SOL    HW228299   1.480   0.510   6.260 -0.6087 -1.5700 -0.3314
 5556SOL     OW28300   4.167   4.374   3.780 -0.2322  0.0731  0.5620
 5556SOL    HW128301   4.227   4.432   3.735 -0.7261  0.6884  0.6981
 5556SOL    HW228302   4.210   4.379   3.866  0.4387 -1.1750  0.2934
 5557SOL     OW28303   1.405   1.676   2.138  0.1433 -0.6190 -0.3387
 5557SOL    HW128304   1.352   1.604   2.173 -0.9511  0.7888  0.9221
 5557SOL    HW228305   1.362   1.703   2.057  1.7602  2.0138 -0.3191
 5558SOL     OW28306   3.869   2.016   8.161  0.0056 -0.0197 -0.6095
 5558SOL    HW128307   3.923   2.079   8.208  0.4674 -0.8824  0.0044
 5558SOL    HW228308   3.931   1.949   8.134  0.8770 -0.4754  2.5270
 5559SOL     OW28309   1.460   0.857  15.383  0.5507 -0.0008  0.3255
 5559SOL    HW128310   1.442   0.860  15.289  1.1421  0.9365  0.2435
 5559SOL    HW228311   1.548   0.821  15.381  0.5926  0.2142 -1.5684
 5560SOL     OW28312   1.418   0.477   4.625 -0.2798 -0.2066  0.1461
 5560SOL    HW128313   1.480   0.429   4.679  0.0516 -2.3643 -2.1281
 5560SOL    HW228314   1.474   0.524   4.564  1.3878 -3.0356 -0.5134
 5561SOL     OW28315   1.008   0.484   9.314  0.3206 -0.3686  0.4611
 5561SOL    HW128316   0.969   0.541   9.248 -0.6821 -1.6600 -0.0499
 5561SOL    HW228317   0.979   0.525   9.395 -2.7725 -1.9603  0.1424
 5562SOL     OW28318   1.639   0.166   3.728 -0.1172  0.0801  0.4009
 5562SOL    HW128319   1.665   0.237   3.787 -1.1023  0.5803  0.2302
 5562SOL    HW228320   1.620   0.104   3.797  0.3708  0.6696  1.0636
 5563SOL     OW28321   2.028   0.212  10.886 -0.3345  0.0594  0.6462
 5563SOL    HW128322   2.112   0.211  10.932  0.4664  0.1131 -0.7831
 5563SOL    HW228323   2.064   0.210  10.797 -0.0804 -2.0867  0.7807
 5564SOL     OW28324   3.069   3.421  14.595  0.6048  0.1181  0.3540
 5564SOL    HW128325   3.108   3.446  14.678 -0.0198 -3.3031  1.6466
 5564SOL    HW228326   3.029   3.503  14.565  1.2216  0.7085  1.1223
 5565SOL     OW28327   4.521   1.416   4.244 -0.4792 -0.5105  0.0617
 5565SOL    HW128328   4.575   1.391   4.169  2.4222  1.2809  1.5743
 5565SOL    HW228329   4.567   1.488   4.287 -1.1023  1.4569 -2.5543
 5566SOL     OW28330   2.060   4.381   3.646 -0.1600  0.0138 -0.7455
 5566SOL    HW128331   2.019   4.328   3.714 -1.6375  0.1953 -1.4866
 5566SOL    HW228332   1.994   4.366   3.579  0.8606 -0.1835 -1.7130
 5567SOL     OW28333   3.422   4.492  13.169 -0.0556  0.1428 -0.0228
 5567SOL    HW128334   3.342   4.540  13.147  0.2586  0.4809 -0.4290
 5567SOL    HW228335   3.480   4.559  13.206  0.4292 -0.9670  1.2442
 5568SOL     OW28336   0.642   0.858   3.073 -0.7501 -0.2906  0.5978
 5568SOL    HW128337   0.559   0.826   3.108 -2.3154 -0.5560 -3.2859
 5568SOL    HW228338   0.663   0.791   3.007 -1.4126  1.6747 -1.6051
 5569SOL     OW28339   4.547   1.620  12.786  0.1927  0.2599  0.1278
 5569SOL    HW128340   4.637   1.612  12.818  1.0588  1.6160 -1.9500
 5569SOL    HW228341   4.523   1.529  12.805  2.5567 -0.5472 -0.7341
 5570SOL     OW28342   3.526   0.995   2.956 -0.4951  0.3839  0.4635
 5570SOL    HW128343   3.485   1.051   2.890  2.0877 -0.7907 -2.1376
 5570SOL    HW228344   3.458   0.928   2.949  0.8249 -0.7451 -1.6513
 5571SOL     OW28345   2.483   2.066   0.667 -0.1361  0.1122 -0.1845
 5571SOL    HW128346   2.524   2.069   0.580  1.7069  1.3532  0.7197
 5571SOL    HW228347   2.420   2.137   0.660  3.4874  3.1395 -2.3774
 5572SOL     OW28348   2.829   4.067   8.747 -0.2302 -0.5029  1.2205
 5572SOL    HW128349   2.770   4.127   8.793 -0.6219  0.3168 -0.3513
 5572SOL    HW228350   2.914   4.093   8.783  0.4273 -2.1066  0.7847
 5573SOL     OW28351   3.878   1.643   7.687 -0.2775 -0.4911  0.2353
 5573SOL    HW128352   3.823   1.636   7.609 -0.0559 -0.9668  0.1186
 5573SOL    HW228353   3.874   1.736   7.708  1.5396 -0.4785  0.5906
 5574SOL     OW28354   1.914   2.926  13.537  0.3004  0.3690  0.0992
 5574SOL    HW128355   1.901   3.001  13.596 -0.8857 -2.0624  2.9326
 5574SOL    HW228356   1.902   2.973  13.454  0.3108  1.8606  0.9296
 5575SOL     OW28357   2.266   3.238   3.631  0.4295 -0.2405 -0.2232
 5575SOL    HW128358   2.219   3.255   3.712  0.0516 -0.3510 -0.4229
 5575SOL    HW228359   2.194   3.230   3.568  0.5858  0.0620 -0.4438
 5576SOL     OW28360   0.700   4.638  17.307  0.1026  0.3024 -0.5820
 5576SOL    HW128361   0.653   4.677  17.381  3.6887  0.7037  1.4564
 5576SOL    HW228362   0.628   4.581  17.280 -1.0857  1.8608 -0.7039
 5577SOL     OW28363   2.906   3.996   1.989  0.2052  0.2649 -0.1678
 5577SOL    HW128364   2.965   3.954   1.927  0.6412 -1.9929  1.7614
 5577SOL    HW228365   2.823   4.009   1.943 -0.7858  1.1802  1.9145
 5578SOL     OW28366   2.693   2.540   2.733 -0.2962  0.7391  0.0522
 5578SOL    HW128367   2.648   2.624   2.740  0.7520  1.3045  0.0441
 5578SOL    HW228368   2.691   2.525   2.828 -1.4327 -0.3409 -0.1513
 5579SOL     OW28369   0.717   0.651   3.995  0.2640 -0.2105 -0.1184
 5579SOL    HW128370   0.661   0.640   3.918  2.7786  2.3372 -2.3215
 5579SOL    HW228371   0.806   0.646   3.959  0.5293  3.6417 -0.0326
 5580SOL     OW28372   3.625   2.509   3.961  0.5466 -0.0349  0.2423
 5580SOL    HW128373   3.713   2.535   3.932  0.2565  0.0388 -0.5656
 5580SOL    HW228374   3.600   2.581   4.018  1.1674 -0.0955  0.5954
 5581SOL     OW28375   3.490   0.503   6.204  0.4786 -0.6723  0.2827
 5581SOL    HW128376   3.414   0.542   6.159 -0.0544  0.5766  2.2310
 5581SOL    HW228377   3.461   0.414   6.222 -3.0682  0.4956  0.4684
 5582SOL     OW28378   2.466   3.691   6.547 -0.2918  0.8053 -0.2723
 5582SOL    HW128379   2.489   3.661   6.459  0.2376 -0.1030  0.1684
 5582SOL    HW228380   2.472   3.786   6.543 -1.5573  0.8857 -0.4722
 5583SOL     OW28381   1.708   0.344   5.227 -0.1055  0.6766 -0.2454
 5583SOL    HW128382   1.768   0.413   5.254 -0.6103  0.3529  1.6841
 5583SOL    HW228383   1.663   0.313   5.306  1.0250 -1.4856 -0.4432
 5584SOL     OW28384   1.188   1.494   2.165  0.3747  0.0989 -0.3816
 5584SOL    HW128385   1.164   1.450   2.084  0.5401 -0.1913 -0.2746
 5584SOL    HW228386   1.150   1.436   2.231 -0.0338 -0.1971 -0.8762
 5585SOL     OW28387   1.986   4.730  11.106 -0.2959  0.0886  0.7692
 5585SOL    HW128388   2.003   0.034  11.191 -1.1868  0.9599  0.5226
 5585SOL    HW228389   1.922   0.047  11.060  1.3027  0.8944 -0.5247
 5586SOL     OW28390   2.353   2.558  12.655  0.4252  0.5441 -0.0305
 5586SOL    HW128391   2.410   2.570  12.731  0.6712 -1.5330  0.1141
 5586SOL    HW228392   2.376   2.468  12.633  0.9026  1.3122 -2.6651
 5587SOL     OW28393   3.955   3.352   6.835  0.5282  0.3945 -0.0453
 5587SOL    HW128394   3.891   3.422   6.828 -0.0964 -0.2927 -1.1623
 5587SOL    HW228395   3.945   3.329   6.927  0.5165 -0.5976 -0.2900
 5588SOL     OW28396   0.006   1.989   7.378 -0.1339 -1.0145  0.0134
 5588SOL    HW128397   4.733   1.895   7.390  2.9403 -1.2708  0.4605
 5588SOL    HW228398   4.669   2.018   7.432 -0.7142 -0.9172 -0.8446
 5589SOL     OW28399   4.508   3.779  12.911 -0.0955 -0.4013  0.8042
 5589SOL    HW128400   4.555   3.708  12.867  0.2911  0.5777 -0.3850
 5589SOL    HW228401   4.522   3.744  12.999  1.7472  0.0370  0.7028
 5590SOL     OW28402   4.155   0.042   3.022  1.0101 -0.1278 -0.6298
 5590SOL    HW128403   4.090   4.728   2.974 -2.4135  2.7762  0.8922
 5590SOL    HW228404   4.237   4.735   3.003  0.7158 -0.7558 -0.4515
 5591SOL     OW28405   0.915   0.050   5.501  0.0928 -0.1843 -0.0398
 5591SOL    HW128406   0.905   0.132   5.452  1.3846 -0.5004 -0.8435
 5591SOL    HW228407   0.867   0.072   5.581 -1.6691 -1.6443 -0.6655
 5592SOL     OW28408   0.158   1.976   2.918 -0.3101  0.2170 -0.0132
 5592SOL    HW128409   0.124   1.976   3.008  2.0116 -1.1312  0.8887
 5592SOL    HW228410   0.165   2.068   2.892  1.3452  0.2058  0.3847
 5593SOL     OW28411   1.973   2.146  12.388  0.2501 -0.5336 -1.0833
 5593SOL    HW128412   1.879   2.129  12.387  0.1343 -0.1275  1.3109
 5593SOL    HW228413   2.012   2.079  12.332 -0.7017 -1.8387 -0.2030
 5594SOL     OW28414   0.352   2.814   3.150 -0.0420  0.0806  0.4383
 5594SOL    HW128415   0.350   2.723   3.122  0.3435  0.2179 -0.0363
 5594SOL    HW228416   0.398   2.811   3.233 -0.2016  0.5533  0.5478
 5595SOL     OW28417   3.824   4.245   2.952  0.0367 -0.0956  0.8045
 5595SOL    HW128418   3.823   4.321   3.011  0.3902  2.9331 -3.0505
 5595SOL    HW228419   3.756   4.272   2.890  0.3111 -1.8795 -0.2517
 5596SOL     OW28420   1.020   0.713   9.456 -0.0562  0.0734 -0.0685
 5596SOL    HW128421   0.978   0.776   9.514  0.4769  0.4387 -0.0847
 5596SOL    HW228422   1.068   0.664   9.524  0.9333  1.0972 -0.0393
 5597SOL     OW28423   0.819   0.408   6.340 -0.8799 -0.1147  0.3442
 5597SOL    HW128424   0.745   0.358   6.304 -0.6227 -1.3349  1.5205
 5597SOL    HW228425   0.859   0.338   6.391 -1.6123 -0.8573 -0.0969
 5598SOL     OW28426   3.014   3.771   7.607  0.4371 -0.2638  0.1694
 5598SOL    HW128427   2.921   3.777   7.584  0.1771  0.1449  1.3094
 5598SOL    HW228428   3.061   3.789   7.525  1.7892 -2.9639  0.3695
 5599SOL     OW28429   0.315   1.646   9.486 -0.2145 -0.2136 -0.2426
 5599SOL    HW128430   0.245   1.668   9.547 -1.0180 -0.0183 -1.2493
 5599SOL    HW228431   0.303   1.709   9.415  0.9818 -0.4096 -0.6274
 5600SOL     OW28432   1.645   0.314   3.380 -0.6395 -0.4092  0.2794
 5600SOL    HW128433   1.690   0.338   3.461  0.2745 -0.8520 -0.0986
 5600SOL    HW228434   1.597   0.394   3.360 -0.3827 -0.1725  0.6148
 5601SOL     OW28435   4.457   4.263   0.729 -0.1285 -0.7634 -0.6146
 5601SOL    HW128436   4.546   4.286   0.758 -0.3239 -0.0933 -0.5462
 5601SOL    HW228437   4.460   4.170   0.753 -0.0430 -0.9955 -1.5146
 5602SOL     OW28438   0.741   3.452   8.170  0.0390 -0.8215 -0.0427
 5602SOL    HW128439   0.771   3.499   8.249 -1.3376 -0.4120  0.2369
 5602SOL    HW228440   0.676   3.512   8.134 -0.5650 -1.1246  0.5280
 5603SOL     OW28441   0.374   1.697  16.801 -0.6136  0.4622 -0.4534
 5603SOL    HW128442   0.441   1.765  16.807 -0.8317  0.7554 -1.2571
 5603SOL    HW228443   0.305   1.736  16.747  0.7812  2.5655 -0.7187
 5604SOL     OW28444   1.336   0.269   4.282  0.3230  0.3473  0.6081
 5604SOL    HW128445   1.259   0.272   4.338  1.5436 -1.0560  2.3449
 5604SOL    HW228446   1.319   0.337   4.216 -0.4567 -0.9123 -0.5073
 5605SOL     OW28447   3.789   4.423  12.352 -0.1631 -0.8052  0.3676
 5605SOL    HW128448   3.875   4.432  12.393 -0.4071  0.5290  0.6120
 5605SOL    HW228449   3.809   4.426  12.258 -0.1810  0.3475  0.3990
 5606SOL     OW28450   2.255   3.133   6.100 -0.4208  0.3479 -0.1260
 5606SOL    HW128451   2.195   3.202   6.072 -1.7883  0.0948  2.1486
 5606SOL    HW228452   2.292   3.172   6.179 -2.1846 -0.1731  0.9507
 5607SOL     OW28453   2.212   2.720   3.087  0.3517 -0.2970 -0.5867
 5607SOL    HW128454   2.171   2.800   3.055  0.1136 -0.1216  0.1639
 5607SOL    HW228455   2.293   2.754   3.126 -0.6779 -1.7324  2.7764
 5608SOL     OW28456   4.334   4.217   1.956  0.5421  0.4139  0.5461
 5608SOL    HW128457   4.394   4.143   1.964  2.5468  1.8876 -0.8791
 5608SOL    HW228458   4.275   4.175   1.894  0.9638 -1.3856  1.3566
 5609SOL     OW28459   3.778   3.251   6.612 -0.6472 -0.5594 -0.0461
 5609SOL    HW128460   3.814   3.334   6.641  0.1621 -0.4133 -1.4760
 5609SOL    HW228461   3.854   3.207   6.574 -0.2180 -0.3731  0.6004
 5610SOL     OW28462   2.793   1.454   8.517 -0.0980  0.3869 -0.1683
 5610SOL    HW128463   2.870   1.400   8.531 -0.4857 -0.4601 -1.3282
 5610SOL    HW228464   2.790   1.473   8.423  1.3273 -0.3705 -0.3598
 5611SOL     OW28465   0.762   0.117  12.942  0.6570 -0.1976  0.1721
 5611SOL    HW128466   0.684   0.137  12.994 -1.7522  0.4139 -3.7003
 5611SOL    HW228467   0.792   0.030  12.968 -3.4864 -1.8286 -0.5999
 5612SOL     OW28468   1.644   4.706   5.243 -0.2145  0.9663 -0.6508
 5612SOL    HW128469   1.679   4.710   5.332 -0.3198  0.7965 -0.6019
 5612SOL    HW228470   1.557   0.007   5.251 -1.1427 -1.3858  0.4430
 5613SOL     OW28471   0.492   2.588   1.315 -0.2407 -0.4396 -0.4496
 5613SOL    HW128472   0.424   2.623   1.257 -0.0340  1.0210  0.1955
 5613SOL    HW228473   0.571   2.629   1.279  0.7920 -1.8417  0.1998
 5614SOL     OW28474   4.183   3.657   4.742  0.4283  0.3470  0.3487
 5614SOL    HW128475   4.104   3.604   4.752  0.3184  0.4333 -0.0602
 5614SOL    HW228476   4.202   3.632   4.651 -1.5392 -0.6796  0.2285
 5615SOL     OW28477   0.167   2.777   7.574  0.3291  0.1533 -0.6236
 5615SOL    HW128478   0.103   2.848   7.583  0.1395 -0.5713  3.8241
 5615SOL    HW228479   0.247   2.822   7.600 -0.0574  1.2692 -1.3855
 5616SOL     OW28480   3.952   0.753   8.498 -0.2914 -0.2526  0.3804
 5616SOL    HW128481   3.963   0.708   8.414  0.5665 -0.2290  0.4825
 5616SOL    HW228482   3.881   0.703   8.538  2.5968 -2.1647  3.0350
 5617SOL     OW28483   0.012   2.691   0.668  0.5689 -0.3497 -0.1412
 5617SOL    HW128484   0.066   2.768   0.685 -1.6960  0.4274  3.5915
 5617SOL    HW228485   0.073   2.632   0.624 -0.1120 -1.7846  0.8116
 5618SOL     OW28486   1.687   1.009   8.424  0.1563  0.0294  0.2790
 5618SOL    HW128487   1.629   1.080   8.452  2.2002  3.0642 -3.0514
 5618SOL    HW228488   1.649   0.980   8.341  0.9194  2.4163 -0.9181
 5619SOL     OW28489   4.470   1.175   2.340 -0.3425 -0.3974  0.3126
 5619SOL    HW128490   4.500   1.084   2.341  0.9167  0.0369  1.3306
 5619SOL    HW228491   4.393   1.173   2.282 -0.0607  1.1753 -0.1108
 5620SOL     OW28492   4.179   1.285   7.660 -0.2512 -0.0880 -0.1416
 5620SOL    HW128493   4.167   1.204   7.709  0.5210  0.7536  1.4374
 5620SOL    HW228494   4.104   1.271   7.602  0.2140 -2.7062 -0.1083
 5621SOL     OW28495   2.343   0.330   1.874  0.3414 -0.0424  0.2235
 5621SOL    HW128496   2.265   0.305   1.924  0.7817  0.9527  1.4148
 5621SOL    HW228497   2.387   0.248   1.896  1.7669  0.8356  0.5761
 5622SOL     OW28498   1.265   2.585   5.781 -0.1480 -0.3534  0.0578
 5622SOL    HW128499   1.256   2.495   5.811  1.5804 -0.8837 -1.0849
 5622SOL    HW228500   1.255   2.565   5.688  2.6303  0.2130 -0.3495
 5623SOL     OW28501   3.538   0.123  16.086  0.3782 -0.4442  0.3484
 5623SOL    HW128502   3.498   0.165  16.010  1.4052  0.3827  0.2797
 5623SOL    HW228503   3.481   0.142  16.161  1.6589  3.5133  0.2903
 5624SOL     OW28504   2.657   4.252   4.822 -0.2393  0.2780 -0.5997
 5624SOL    HW128505   2.649   4.328   4.764  0.9470  0.3790 -0.6354
 5624SOL    HW228506   2.656   4.294   4.908  0.4148  2.1311 -1.4904
 5625SOL     OW28507   0.284   2.389  11.765  0.2949  0.4657  0.2843
 5625SOL    HW128508   0.333   2.452  11.713  1.0270 -0.7620 -0.5020
 5625SOL    HW228509   0.238   2.440  11.831  1.2113 -2.4677  3.1711
 5626SOL     OW28510   0.696   2.214   6.289 -0.6703 -0.2108 -0.6054
 5626SOL    HW128511   0.737   2.241   6.372  0.4261  0.4696 -1.3681
 5626SOL    HW228512   0.606   2.193   6.313  0.4810 -1.2874  2.8817
 5627SOL     OW28513   4.616   0.743   3.754  0.4460  0.2410  0.7195
 5627SOL    HW128514   4.554   0.684   3.711  2.1419  0.9903 -2.7937
 5627SOL    HW228515   4.681   0.679   3.781  0.1093 -0.2257  0.4102
 5628SOL     OW28516   0.268   1.525  17.275 -0.1966  1.0167  0.2079
 5628SOL    HW128517   0.245   1.433  17.257  1.4036  0.2776  2.0264
 5628SOL    HW228518   0.265   1.545  17.181 -1.1338 -2.5026 -0.5257
 5629SOL     OW28519   1.056   0.618  16.654 -0.2685 -0.0723  0.0936
 5629SOL    HW128520   1.104   0.607  16.735 -1.0524  1.2680  0.7393
 5629SOL    HW228521   1.083   0.707  16.632 -0.6977  0.4740  1.8186
 5630SOL     OW28522   0.317   2.530  10.677  0.2804  0.0503 -0.9593
 5630SOL    HW128523   0.336   2.559  10.766  0.7882  0.2518 -1.1359
 5630SOL    HW228524   0.235   2.575  10.656  0.0777 -0.5865 -1.5057
 5631SOL     OW28525   3.702   0.445   6.036  0.0466  0.1534 -0.3807
 5631SOL    HW128526   3.642   0.499   6.088 -0.0795 -0.7590  0.4367
 5631SOL    HW228527   3.767   0.406   6.094 -2.3490 -2.8826  0.2933
 5632SOL     OW28528   2.210   0.026   5.644  0.1943 -0.5318  0.4037
 5632SOL    HW128529   2.277   0.082   5.684  0.1616  0.3447 -0.7451
 5632SOL    HW228530   2.147   0.096   5.626  0.7331 -0.5487 -1.5957
 5633SOL     OW28531   3.852   1.143   6.685 -0.2503  0.2102 -0.0593
 5633SOL    HW128532   3.858   1.055   6.722  0.1932 -0.2381 -1.1701
 5633SOL    HW228533   3.865   1.123   6.592 -2.9001 -3.3033  0.3360
 5634SOL     OW28534   2.250   0.337   9.217  0.4322 -0.3186 -0.7594
 5634SOL    HW128535   2.209   0.278   9.154  1.2846 -1.2418 -0.4491
 5634SOL    HW228536   2.345   0.338   9.201  0.9461 -0.7598  2.1681
 5635SOL     OW28537   4.398   3.837  17.545  0.0461  0.3398 -0.1916
 5635SOL    HW128538   4.416   3.929  17.524  4.0137 -0.4389 -0.3362
 5635SOL    HW228539   4.310   3.853  17.577  0.0308  3.7529 -1.8732
 5636SOL     OW28540   1.188   2.527  16.803 -0.1981  0.0228  0.1927
 5636SOL    HW128541   1.180   2.442  16.758 -0.4576 -0.1641  0.5979
 5636SOL    HW228542   1.215   2.509  16.893  0.2463  1.8420  0.4142
 5637SOL     OW28543   3.517   0.187   6.226 -0.0269  0.2296  0.1368
 5637SOL    HW128544   3.443   0.149   6.178  0.2117 -0.7543  0.5414
 5637SOL    HW228545   3.594   0.176   6.169 -0.0840 -0.8125  0.2671
 5638SOL     OW28546   0.682   2.157   3.496 -0.1127 -0.3765  0.1036
 5638SOL    HW128547   0.708   2.195   3.412  0.2511 -1.2149 -0.1610
 5638SOL    HW228548   0.641   2.228   3.544  2.1663  2.0877 -1.5671
 5639SOL     OW28549   2.578   1.183   1.317 -0.4484  0.4248 -0.3075
 5639SOL    HW128550   2.619   1.162   1.232  0.8017  1.1238  0.1288
 5639SOL    HW228551   2.486   1.175   1.291 -0.6378  0.6535  0.2956
 5640SOL     OW28552   1.130   2.277   1.413 -0.1552  0.3383  0.0877
 5640SOL    HW128553   1.183   2.264   1.335  1.7086 -0.1179  1.4311
 5640SOL    HW228554   1.069   2.347   1.389  2.1896  2.0862 -0.7681
 5641SOL     OW28555   4.107   4.239   2.134  0.7556  0.2617  1.0281
 5641SOL    HW128556   4.046   4.235   2.061  0.2019  1.5987  1.4167
 5641SOL    HW228557   4.189   4.220   2.088 -1.3493 -2.4663 -1.5306
 5642SOL     OW28558   4.028   3.577   5.866  0.3995 -0.4618  0.0517
 5642SOL    HW128559   4.029   3.608   5.775  4.8343 -0.7353  0.0008
 5642SOL    HW228560   4.103   3.628   5.899  0.1185  0.6434 -1.0216
 5643SOL     OW28561   1.567   4.279   5.174  0.8974 -0.4303 -0.5324
 5643SOL    HW128562   1.663   4.285   5.182  0.8621 -2.5802  1.3210
 5643SOL    HW228563   1.562   4.243   5.085  1.1658  2.4651 -1.7061
 5644SOL     OW28564   0.963   0.219   9.414 -0.3149 -0.0870  0.2662
 5644SOL    HW128565   0.950   0.216   9.509 -0.0777 -0.3883  0.2899
 5644SOL    HW228566   1.009   0.300   9.393  0.5523 -0.1831  1.7737
 5645SOL     OW28567   4.523   0.077   1.130  0.6294 -0.7589 -0.3011
 5645SOL    HW128568   4.500   4.721   1.119  0.6924 -0.8638  0.4497
 5645SOL    HW228569   4.538   0.114   1.044  2.1396  0.2443  0.4005
 5646SOL     OW28570   0.808   2.057   7.059  0.5210 -0.6036  0.0940
 5646SOL    HW128571   0.800   2.072   6.965  0.5096  1.3480  0.4027
 5646SOL    HW228572   0.745   1.986   7.064 -0.5322  0.3883  0.9230
 5647SOL     OW28573   1.246   2.566   7.021  0.3166 -0.1769 -0.4504
 5647SOL    HW128574   1.162   2.587   7.062  0.4002  1.0565 -0.9181
 5647SOL    HW228575   1.229   2.480   6.983  1.5198  0.5811 -2.6915
 5648SOL     OW28576   2.318   1.237   0.032 -0.0223  0.0555  0.1689
 5648SOL    HW128577   2.229   1.203   0.027  0.3187 -0.8740  0.4560
 5648SOL    HW228578   2.317   1.303   0.101  2.4993 -0.5577  0.7797
 5649SOL     OW28579   2.398   3.203   6.298 -0.4136  0.7307 -0.3700
 5649SOL    HW128580   2.405   3.137   6.367  0.2697  0.4637 -0.6859
 5649SOL    HW228581   2.475   3.258   6.315  0.1059 -0.4223  1.0454
 5650SOL     OW28582   1.557   1.598  10.840 -0.0711  0.0487  0.2032
 5650SOL    HW128583   1.507   1.639  10.769  0.4060 -1.6704 -1.1200
 5650SOL    HW228584   1.510   1.635  10.915 -1.4514 -1.2843  0.0101
 5651SOL     OW28585   4.267   1.441   8.295 -0.1869 -0.4380  0.1159
 5651SOL    HW128586   4.338   1.460   8.234 -0.5095  1.4921  0.3447
 5651SOL    HW228587   4.226   1.368   8.249  1.1966 -0.3668 -1.2120
 5652SOL     OW28588   3.867   3.436   3.336 -0.1772  0.3326  0.6191
 5652SOL    HW128589   3.858   3.393   3.250  0.7897 -0.1469  0.7591
 5652SOL    HW228590   3.935   3.500   3.314  0.2261  0.6053  2.6622
 5653SOL     OW28591   3.204   1.136   2.374  0.1671  0.5140  0.1076
 5653SOL    HW128592   3.144   1.092   2.313 -0.1082 -1.3313  1.7069
 5653SOL    HW228593   3.160   1.137   2.460 -1.3648  0.9873 -0.6753
 5654SOL     OW28594   4.395   2.016   6.165 -0.4782  0.2596  0.1292
 5654SOL    HW128595   4.407   1.926   6.195 -0.4344  1.0249  2.3799
 5654SOL    HW228596   4.449   2.011   6.086 -0.7075  1.9037 -0.1390
 5655SOL     OW28597   1.393   4.438   4.807  0.1147  0.3691  0.3267
 5655SOL    HW128598   1.351   4.354   4.830 -1.1610  1.4951  2.0963
 5655SOL    HW228599   1.442   4.459   4.886 -0.7872 -0.7018  1.1819
 5656SOL     OW28600   2.276   3.178   0.426  0.2511  0.0693 -0.5523
 5656SOL    HW128601   2.325   3.169   0.344  0.5321 -2.2638 -0.1062
 5656SOL    HW228602   2.207   3.113   0.417  0.7086 -0.7475  1.9110
 5657SOL     OW28603   3.656   4.570   5.930  0.3369  0.1717 -0.2987
 5657SOL    HW128604   3.698   4.487   5.950  1.7624  1.1693  0.8508
 5657SOL    HW228605   3.718   4.627   5.975 -2.6958  1.9087  1.7233
 5658SOL     OW28606   4.596   0.915  16.524 -0.0097  0.0920  0.3303
 5658SOL    HW128607   4.574   0.822  16.521 -0.6339  0.2502  0.1272
 5658SOL    HW228608   4.548   0.943  16.602  1.7180  0.2731  1.3202
 5659SOL     OW28609   0.697   1.214   7.225  0.1815  0.6225  0.1719
 5659SOL    HW128610   0.763   1.279   7.203 -1.0011  0.9986 -2.2986
 5659SOL    HW228611   0.710   1.207   7.320 -0.4400  1.8441  0.3378
 5660SOL     OW28612   2.631   3.038   8.377 -0.0393 -1.3117  0.4844
 5660SOL    HW128613   2.603   3.128   8.361 -0.5026 -1.3355  1.1943
 5660SOL    HW228614   2.600   3.035   8.467  4.7753 -0.2796  2.1742
 5661SOL     OW28615   4.494   0.585   5.272  0.0556  0.3808  0.0934
 5661SOL    HW128616   4.565   0.623   5.220  0.2404  2.8974  2.1593
 5661SOL    HW228617   4.543   0.525   5.328 -1.5673 -0.8327  0.2245
 5662SOL     OW28618   1.918   2.098   6.034  0.0990 -0.0787 -0.2220
 5662SOL    HW128619   1.880   2.070   6.117 -1.2105 -0.1198 -0.8502
 5662SOL    HW228620   1.901   2.192   6.031  1.7720  0.2293 -0.2420
 5663SOL     OW28621   1.086   1.273   1.214  0.1941 -0.2510 -0.3066
 5663SOL    HW128622   1.127   1.198   1.171  2.9106  0.4450  1.0480
 5663SOL    HW228623   0.999   1.237   1.230  0.5135 -0.2627  1.4687
 5664SOL     OW28624   1.447   2.905  12.577  0.3399  0.2526  0.0967
 5664SOL    HW128625   1.404   2.973  12.628 -0.7843 -0.1138 -0.3492
 5664SOL    HW228626   1.485   2.961  12.509  1.9106 -0.1676  0.6185
 5665SOL     OW28627   4.400   4.470  16.555 -0.3793  0.6995 -0.2105
 5665SOL    HW128628   4.421   4.559  16.527 -0.3941  1.0581  0.9431
 5665SOL    HW228629   4.442   4.418  16.486 -2.2101 -0.0646 -0.7581
 5666SOL     OW28630   1.698   0.058  17.263  1.0193 -0.2520 -0.1957
 5666SOL    HW128631   1.660   0.074  17.177  0.8366  1.7884  0.2660
 5666SOL    HW228632   1.789   0.086  17.256  0.6311  1.2791  1.0933
 5667SOL     OW28633   2.758   2.084   8.128  0.1827  0.2846 -0.5390
 5667SOL    HW128634   2.719   2.155   8.179 -1.8855 -2.3509  1.5435
 5667SOL    HW228635   2.774   2.013   8.190 -0.8320  1.1229  0.6629
 5668SOL     OW28636   4.370   0.327   6.191  0.1733 -0.9067 -0.0534
 5668SOL    HW128637   4.397   0.236   6.205  0.0519 -0.9404 -0.0412
 5668SOL    HW228638   4.402   0.359   6.275  1.0249  0.5645 -0.9427
 5669SOL     OW28639   1.149   0.258   8.781 -0.1261  0.3702 -0.2160
 5669SOL    HW128640   1.131   0.172   8.743 -3.1103  0.5102  0.9052
 5669SOL    HW228641   1.224   0.242   8.839 -0.4726 -1.8674 -0.3667
 5670SOL     OW28642   3.646   1.685   0.241  0.2723 -0.0626 -0.4116
 5670SOL    HW128643   3.730   1.730   0.251  1.3158 -2.2629  0.5606
 5670SOL    HW228644   3.675   1.594   0.245 -1.2377 -0.5393 -0.2339
 5671SOL     OW28645   4.676   2.646   2.209  0.0904 -0.0229 -0.1562
 5671SOL    HW128646   4.618   2.593   2.155 -1.2578  0.6558  0.6343
 5671SOL    HW228647   4.638   2.629   2.295 -0.9877  2.0767 -0.2283
 5672SOL     OW28648   2.083   2.641  15.764  0.0421 -0.1846 -0.5134
 5672SOL    HW128649   2.160   2.688  15.795  0.6330 -0.1814 -2.0144
 5672SOL    HW228650   2.092   2.651  15.669  0.1060  1.4268 -0.3401
 5673SOL     OW28651   4.218   3.271   5.983  0.6955 -0.4160  0.8435
 5673SOL    HW128652   4.232   3.316   6.066  0.8748 -0.0173  0.5987
 5673SOL    HW228653   4.297   3.287   5.930  1.0539 -1.6959  0.9832
 5674SOL     OW28654   4.418   0.178   9.374  0.1763  0.4909  0.1163
 5674SOL    HW128655   4.455   0.214   9.293  0.9275  0.8102  0.6066
 5674SOL    HW228656   4.332   0.152   9.342  0.8705 -2.0052  0.2244
 5675SOL     OW28657   3.274   0.524   4.602 -0.6143  0.2131  0.0123
 5675SOL    HW128658   3.343   0.569   4.651 -0.6397 -0.7865  0.9403
 5675SOL    HW228659   3.216   0.497   4.673 -0.4897  0.2074  0.1115
 5676SOL     OW28660   1.963   1.087   7.094 -0.0649  0.1300 -0.2763
 5676SOL    HW128661   1.958   1.108   7.000  0.1520  1.2843 -0.0334
 5676SOL    HW228662   2.010   1.005   7.081  0.5114  0.3966  0.1478
 5677SOL     OW28663   2.506   3.493   4.338  0.4409 -0.4025 -0.1781
 5677SOL    HW128664   2.433   3.452   4.384 -1.4054 -0.5848 -3.2804
 5677SOL    HW228665   2.464   3.565   4.291  1.3117  0.6945  0.7037
 5678SOL     OW28666   1.449   3.205   8.573  0.3281  0.1302 -0.2604
 5678SOL    HW128667   1.459   3.284   8.626  1.0918  1.8806 -3.0673
 5678SOL    HW228668   1.523   3.154   8.605  0.2120  0.1518  0.0422
 5679SOL     OW28669   2.903   3.036   5.270  0.1070 -0.0196 -0.1937
 5679SOL    HW128670   2.987   3.012   5.309  0.5707  1.0242 -0.5679
 5679SOL    HW228671   2.929   3.106   5.210 -1.0460  0.9839  0.4663
 5680SOL     OW28672   0.796   1.812   8.618 -0.0714 -0.6012  0.3021
 5680SOL    HW128673   0.788   1.753   8.543  0.1724  0.1376 -0.3054
 5680SOL    HW228674   0.734   1.882   8.599 -0.7486 -0.5809  2.5655
 5681SOL     OW28675   4.438   1.608   7.455 -0.1934 -0.5160  0.3610
 5681SOL    HW128676   4.385   1.646   7.385  1.7472 -2.0247 -1.9229
 5681SOL    HW228677   4.409   1.516   7.457 -0.4908 -0.4085  0.9362
 5682SOL     OW28678   3.670   3.923   0.078  0.2013 -0.5801 -0.6026
 5682SOL    HW128679   3.610   3.977   0.130  1.4809  0.6045 -0.3374
 5682SOL    HW228680   3.688   3.844   0.129 -0.2067  0.9776  1.9667
 5683SOL     OW28681   4.196   0.845   6.596 -0.1104  0.5656 -0.5570
 5683SOL    HW128682   4.137   0.832   6.521 -0.5520  0.9451 -0.2703
 5683SOL    HW228683   4.261   0.776   6.583 -0.0907  0.2445  1.2526
 5684SOL     OW28684   2.512   0.898  16.751 -0.1724  0.1832 -0.1924
 5684SOL    HW128685   2.592   0.861  16.714  0.4001 -1.4176  2.5878
 5684SOL    HW228686   2.515   0.847  16.833 -0.3011 -0.4553 -0.5880
 5685SOL     OW28687   2.636   0.439   4.195  0.6608  0.3641  0.2565
 5685SOL    HW128688   2.709   0.389   4.232  0.3014  0.1936  0.7366
 5685SOL    HW228689   2.686   0.495   4.135  2.1769  1.1347  2.2578
 5686SOL     OW28690   3.728   2.298  11.258 -0.2849  0.0158  0.4162
 5686SOL    HW128691   3.655   2.354  11.229  1.1398  0.8697 -1.4859
 5686SOL    HW228692   3.798   2.333  11.203  0.7332 -1.5659  0.7263
 5687SOL     OW28693   1.466   3.300   6.189 -0.6113  0.3422  0.5402
 5687SOL    HW128694   1.488   3.343   6.107 -1.4031  0.9248  0.6327
 5687SOL    HW228695   1.489   3.211   6.164  2.1019  0.8507  1.2634
 5688SOL     OW28696   3.661   4.157   2.419 -0.4341  0.0907  0.2613
 5688SOL    HW128697   3.681   4.250   2.408 -1.4736  0.4499  1.3772
 5688SOL    HW228698   3.573   4.157   2.458 -0.0197  1.1765  1.1862
 5689SOL     OW28699   1.992   4.042  10.676  0.5930  0.2155 -0.1603
 5689SOL    HW128700   1.907   4.083  10.660 -0.0541 -0.9289  0.2679
 5689SOL    HW228701   2.000   4.057  10.770 -2.9600 -0.9565  0.3219
 5690SOL     OW28702   4.502   0.505   4.016  0.3861 -0.3552  0.0567
 5690SOL    HW128703   4.441   0.539   3.950  1.1817 -0.1659 -0.5972
 5690SOL    HW228704   4.478   0.412   4.015  0.5673 -0.4105  3.7540
 5691SOL     OW28705   4.094   4.002   1.297 -0.0026  0.2019 -0.2479
 5691SOL    HW128706   4.049   3.918   1.305 -1.0730  0.6082 -2.0434
 5691SOL    HW228707   4.047   4.063   1.353  0.3991  0.4923 -0.2319
 5692SOL     OW28708   4.423   2.287  14.295 -0.4001  0.2098 -0.5034
 5692SOL    HW128709   4.422   2.202  14.340 -0.1212 -0.1677 -1.2194
 5692SOL    HW228710   4.340   2.278  14.249 -0.7586  1.7319 -0.1458
 5693SOL     OW28711   2.758   0.613   8.535 -0.3719 -0.3317 -0.2172
 5693SOL    HW128712   2.791   0.526   8.556  0.6523  0.6829  2.4381
 5693SOL    HW228713   2.671   0.605   8.573  0.4894  0.0300  1.8593
 5694SOL     OW28714   4.561   1.603   9.541 -0.2488  0.4080  0.2801
 5694SOL    HW128715   4.547   1.623   9.449 -1.4971  0.2427  0.4457
 5694SOL    HW228716   4.621   1.678   9.550 -0.4640  0.8628 -2.2186
 5695SOL     OW28717   4.354   0.008   8.384 -0.0059  0.7548  0.1593
 5695SOL    HW128718   4.312   0.089   8.415 -0.3177  1.1289 -1.2319
 5695SOL    HW228719   4.379   4.694   8.461  0.1856  0.2309 -0.2564
 5696SOL     OW28720   0.695   3.664   0.056  0.1721 -0.6648 -0.0039
 5696SOL    HW128721   0.787   3.665   0.030  0.6206 -0.8143  1.5894
 5696SOL    HW228722   0.698   3.658   0.151 -0.3781  4.2604  0.3438
 5697SOL     OW28723   2.237   0.346   8.284 -0.7149 -0.2344 -0.4372
 5697SOL    HW128724   2.186   0.376   8.209  0.4461  0.5236 -0.9015
 5697SOL    HW228725   2.275   0.428   8.316 -1.2060  0.2821 -1.1741
 5698SOL     OW28726   1.499   3.114   0.267 -0.1762  0.0954 -0.5901
 5698SOL    HW128727   1.528   3.111   0.358 -1.2322  0.2497 -0.2433
 5698SOL    HW228728   1.553   3.184   0.232 -0.1480  0.7858  0.8357
 5699SOL     OW28729   1.000   1.316   0.420  0.6668 -0.1550  0.2653
 5699SOL    HW128730   0.934   1.299   0.353  0.1427  0.4771  0.6234
 5699SOL    HW228731   1.037   1.399   0.390 -0.0842  1.2559  3.2995
 5700SOL     OW28732   0.919   0.894   9.674 -0.1175  0.3819  0.4026
 5700SOL    HW128733   0.909   0.984   9.706  2.1254  0.8543 -0.1719
 5700SOL    HW228734   0.932   0.840   9.751 -2.6838  0.1301  0.6528
 5701SOL     OW28735   4.558   4.665   1.813  0.5014  0.2787 -0.5288
 5701SOL    HW128736   4.568   4.614   1.893 -1.6963 -0.6985 -0.8791
 5701SOL    HW228737   4.645   4.705   1.813  1.3239 -1.5652 -2.2893
 5702SOL     OW28738   3.557   4.639   9.180  0.6015  0.6279  0.2353
 5702SOL    HW128739   3.556   4.639   9.084  2.4866 -1.3977  0.2186
 5702SOL    HW228740   3.466   4.657   9.203 -0.2362 -1.1705 -1.5971
 5703SOL     OW28741   2.105   1.709   8.490 -0.3323  0.1057 -0.2397
 5703SOL    HW128742   2.173   1.647   8.463  0.2718  0.8949 -0.5296
 5703SOL    HW228743   2.091   1.695   8.583 -1.2064 -0.2891 -0.4327
 5704SOL     OW28744   2.223   1.568   7.890 -0.9349 -0.2633  0.1747
 5704SOL    HW128745   2.183   1.482   7.885  1.2090 -1.3524  1.5699
 5704SOL    HW228746   2.288   1.569   7.819  2.3113 -1.9462  3.1029
 5705SOL     OW28747   1.083   2.076   8.147  0.0486  0.3026 -0.0869
 5705SOL    HW128748   1.142   2.138   8.105 -1.0899  0.9238 -0.7499
 5705SOL    HW228749   1.062   2.127   8.225 -0.0848  0.8892 -0.5081
 5706SOL     OW28750   2.886   4.339  16.299 -0.1311 -0.3163  0.3236
 5706SOL    HW128751   2.973   4.378  16.303 -0.3593  0.0115  2.0404
 5706SOL    HW228752   2.844   4.414  16.341  1.2577  0.8199 -0.3340
 5707SOL     OW28753   1.650   4.206  11.982 -0.6847  0.7955  0.3569
 5707SOL    HW128754   1.721   4.251  11.935  1.4853 -2.3665  0.5912
 5707SOL    HW228755   1.703   4.130  12.007  0.4545  1.6673  0.6096
 5708SOL     OW28756   1.436   3.815   7.412 -0.0223  0.2504 -0.3413
 5708SOL    HW128757   1.441   3.907   7.389  1.3153 -0.0644 -1.3131
 5708SOL    HW228758   1.344   3.800   7.436  0.1157  0.7770  0.5270
 5709SOL     OW28759   4.005   3.459   3.764  0.5862  0.0447  0.6930
 5709SOL    HW128760   4.013   3.538   3.818  2.5471  1.2778 -1.4044
 5709SOL    HW228761   3.950   3.489   3.691  1.7731  0.3376 -0.0777
 5710SOL     OW28762   0.921   0.786  10.695 -0.6085  0.6347 -0.0758
 5710SOL    HW128763   0.966   0.844  10.634  0.5304 -0.9113 -0.6886
 5710SOL    HW228764   0.914   0.846  10.770 -0.9982 -1.1039  1.2674
 5711SOL     OW28765   3.826   4.214   1.196 -0.0056 -0.2767  0.2502
 5711SOL    HW128766   3.915   4.197   1.166  0.1851  0.0046  0.6643
 5711SOL    HW228767   3.802   4.132   1.240  0.3362  0.8380  2.5077
 5712SOL     OW28768   0.949   3.686  12.456 -0.3673 -0.3441 -0.0772
 5712SOL    HW128769   0.998   3.657  12.379  0.2356 -0.8362  0.4980
 5712SOL    HW228770   1.019   3.725  12.508  0.1202  0.2099 -1.1362
 5713SOL     OW28771   2.785   0.187   7.059 -0.2189 -0.4276  0.0483
 5713SOL    HW128772   2.771   0.193   6.964  0.6338 -1.9599 -0.1655
 5713SOL    HW228773   2.881   0.183   7.056 -0.1489  0.7057  0.8137
 5714SOL     OW28774   3.317   2.241   6.193 -0.0984 -0.0158  0.4920
 5714SOL    HW128775   3.343   2.202   6.110  1.8760  2.8077 -0.2303
 5714SOL    HW228776   3.222   2.249   6.185 -0.2264 -0.2382  1.7538
 5715SOL     OW28777   3.623   2.848   2.973  0.3632  0.4985 -0.3886
 5715SOL    HW128778   3.556   2.852   2.904  0.5897  0.1837 -0.6261
 5715SOL    HW228779   3.568   2.878   3.046  0.5884 -1.8081  0.7057
 5716SOL     OW28780   2.996   1.261   3.710  0.6774  0.2226 -0.0305
 5716SOL    HW128781   2.928   1.286   3.773  1.4124  1.7225  0.1748
 5716SOL    HW228782   2.944   1.221   3.641  0.0862  0.5436  0.2238
 5717SOL     OW28783   0.348   2.225  15.316 -0.4890 -0.0879 -0.2202
 5717SOL    HW128784   0.392   2.230  15.231  2.9105 -1.8359  1.4558
 5717SOL    HW228785   0.302   2.309  15.316 -0.4288 -0.0550  0.3877
 5718SOL     OW28786   1.113   0.988   8.967  0.1570 -0.5635  0.3924
 5718SOL    HW128787   1.071   0.945   8.893  2.1621 -0.5783 -0.7399
 5718SOL    HW228788   1.107   0.913   9.027 -1.0663 -0.0225  0.9514
 5719SOL     OW28789   0.344   3.140  12.827  0.2138 -0.1665  0.0936
 5719SOL    HW128790   0.380   3.054  12.805  0.0905 -0.6092  1.6026
 5719SOL    HW228791   0.285   3.115  12.898 -1.1175  0.6314 -0.7270
 5720SOL     OW28792   2.678   1.506  15.210  0.7948  0.1670  0.3232
 5720SOL    HW128793   2.734   1.579  15.183 -0.1889  0.4322 -0.9908
 5720SOL    HW228794   2.654   1.464  15.127 -1.1159  1.6043  0.1581
 5721SOL     OW28795   0.680   2.119  11.968 -0.1856  0.3776 -0.1865
 5721SOL    HW128796   0.683   2.135  11.873  2.4200 -0.3952 -0.2463
 5721SOL    HW228797   0.589   2.093  11.984 -0.0846  0.3094  0.2587
 5722SOL     OW28798   1.334   0.054  12.366  0.1365  0.1122  0.2039
 5722SOL    HW128799   1.288   4.712  12.396 -2.8243  2.1656  0.9842
 5722SOL    HW228800   1.378   0.087  12.445  0.5699  0.4735 -0.1858
 5723SOL     OW28801   3.534   3.857  14.878  0.2034 -0.4028 -0.5530
 5723SOL    HW128802   3.557   3.915  14.805  0.1498  2.0468  1.3801
 5723SOL    HW228803   3.619   3.851  14.921  1.0873  2.0213 -1.9323
 5724SOL     OW28804   2.217   4.533   8.347 -0.4707  0.1707  0.3219
 5724SOL    HW128805   2.197   4.592   8.274  1.9892 -1.4233 -1.6451
 5724SOL    HW228806   2.294   4.573   8.388  0.1407 -1.5463  0.8634
 5725SOL     OW28807   2.140   0.319   5.260  0.2732  0.1572  0.2011
 5725SOL    HW128808   2.084   0.396   5.247 -0.7634 -0.4567  1.0661
 5725SOL    HW228809   2.169   0.295   5.172  1.5078  1.0686  0.3558
 5726SOL     OW28810   3.760   3.419   2.289  0.7061  0.2030 -0.0487
 5726SOL    HW128811   3.761   3.410   2.193 -1.1061 -0.8522  0.0196
 5726SOL    HW228812   3.784   3.330   2.314 -2.0129 -0.3861  0.4501
 5727SOL     OW28813   4.047   0.373   1.270 -0.0736 -0.0710  0.4829
 5727SOL    HW128814   4.069   0.323   1.348 -3.0475  0.6956  1.8344
 5727SOL    HW228815   4.022   0.457   1.309  0.6822  0.5089 -0.2880
 5728SOL     OW28816   1.826   4.292   5.011 -0.3301  0.3892  0.3011
 5728SOL    HW128817   1.842   4.283   4.917 -1.9904 -1.3358  0.1900
 5728SOL    HW228818   1.865   4.210   5.043  1.8184  1.5922  0.7950
 5729SOL     OW28819   2.945   0.223   6.586  0.3454 -0.0988  0.0075
 5729SOL    HW128820   2.975   0.161   6.653 -1.1595  3.0680  3.5975
 5729SOL    HW228821   2.866   0.177   6.558 -0.7830  0.8287  1.6850
 5730SOL     OW28822   1.412   3.502  16.500 -0.0825 -0.0605  0.3225
 5730SOL    HW128823   1.388   3.410  16.508  0.3259 -0.2661 -0.8966
 5730SOL    HW228824   1.492   3.492  16.551 -0.3040 -1.0041  0.4849
 5731SOL     OW28825   3.153   0.778   4.529  0.1045 -0.6570  0.0222
 5731SOL    HW128826   3.189   0.721   4.597 -0.1246 -0.2273  0.5068
 5731SOL    HW228827   3.101   0.714   4.480 -1.3092 -0.0996  0.7981
 5732SOL     OW28828   0.169   0.753  17.492  0.0576  0.4074  0.3035
 5732SOL    HW128829   0.121   0.754  17.409  0.9392 -1.5232 -0.2381
 5732SOL    HW228830   0.155   0.664  17.526  1.3102  0.2648  0.4459
 5733SOL     OW28831   2.410   2.429   6.920 -0.4281  0.9698  0.2656
 5733SOL    HW128832   2.439   2.388   6.838 -0.7048 -4.4597  2.8912
 5733SOL    HW228833   2.489   2.443   6.972 -0.3190  1.2131  0.0340
 5734SOL     OW28834   4.548   0.186   5.329  0.2053 -0.1726 -0.3895
 5734SOL    HW128835   4.478   0.221   5.273  1.1845 -1.6391 -2.5484
 5734SOL    HW228836   4.515   0.208   5.416 -0.4741 -1.5221 -0.3130
 5735SOL     OW28837   1.402   4.677   4.196 -0.1212  0.3715 -0.3357
 5735SOL    HW128838   1.402   4.690   4.291 -0.4553 -0.0654 -0.2788
 5735SOL    HW228839   1.396   0.030   4.163 -0.7717  0.0895 -0.9642
 5736SOL     OW28840   3.608   4.637  15.728  0.0685  0.3170 -0.4782
 5736SOL    HW128841   3.635   4.640  15.636 -1.0144  0.0187 -0.8042
 5736SOL    HW228842   3.621   4.728  15.756 -2.8584  0.3370  0.7667
 5737SOL     OW28843   3.837   3.772   0.654 -0.3026  1.0844 -0.0201
 5737SOL    HW128844   3.833   3.824   0.735  1.3720  1.8748 -0.4265
 5737SOL    HW228845   3.747   3.783   0.623 -0.8243 -1.6306  0.5829
 5738SOL     OW28846   4.264   1.067  15.584  0.0809  0.5269  0.0232
 5738SOL    HW128847   4.347   1.101  15.620 -0.0240  1.5266 -0.6762
 5738SOL    HW228848   4.285   0.986  15.539  0.3139  1.0404 -0.8007
 5739SOL     OW28849   0.591   3.239   9.272 -0.0190 -0.4207  0.6427
 5739SOL    HW128850   0.549   3.280   9.197  0.1928  0.7620  1.1729
 5739SOL    HW228851   0.680   3.273   9.269  0.3211 -1.5868 -1.8539
 5740SOL     OW28852   0.175   2.459   8.465 -0.4205  0.6390  0.2902
 5740SOL    HW128853   0.091   2.418   8.486  0.2171 -1.1809 -0.7084
 5740SOL    HW228854   0.151   2.549   8.443  0.1915  0.7071 -0.1230
 5741SOL     OW28855   4.193   3.057   4.525  0.0849 -0.3460  0.4159
 5741SOL    HW128856   4.233   3.102   4.451  1.0670  1.5654  2.0803
 5741SOL    HW228857   4.144   3.127   4.568  1.7217  2.4095 -2.2351
 5742SOL     OW28858   1.044   3.961   5.446 -0.0484 -0.1469  0.5285
 5742SOL    HW128859   0.962   3.921   5.475 -0.8370  0.2670 -1.1478
 5742SOL    HW228860   1.100   3.926   5.515 -0.5115 -2.0831 -0.0831
 5743SOL     OW28861   3.564   4.209   6.617  0.0320  0.1074 -0.2877
 5743SOL    HW128862   3.617   4.286   6.638 -1.5404  0.9640  0.5918
 5743SOL    HW228863   3.491   4.243   6.566  0.4862  0.5643 -0.6301
 5744SOL     OW28864   1.321   4.504   8.835  0.2483 -0.1021 -0.5169
 5744SOL    HW128865   1.412   4.477   8.822  0.5123 -0.2727  1.8204
 5744SOL    HW228866   1.279   4.435   8.784  1.1394  0.7701 -2.4548
 5745SOL     OW28867   3.425   3.084  11.767 -0.6291  0.0337 -0.2128
 5745SOL    HW128868   3.390   3.162  11.811  0.9558  0.4874  0.2479
 5745SOL    HW228869   3.509   3.108  11.730 -1.3148 -0.1318 -1.8807
 5746SOL     OW28870   0.676   3.309  11.782  0.4389 -0.1263 -0.6791
 5746SOL    HW128871   0.601   3.262  11.745 -0.9541  1.1649  0.5260
 5746SOL    HW228872   0.730   3.243  11.826  1.8382  0.6849 -1.1723
 5747SOL     OW28873   2.818   4.569   7.183  0.1241 -0.1196 -0.0453
 5747SOL    HW128874   2.876   4.544   7.255 -0.4706 -2.5048 -0.3891
 5747SOL    HW228875   2.738   4.591   7.230 -0.1979  0.1003 -0.6875
 5748SOL     OW28876   3.174   1.677   6.870 -0.9106 -0.3962  0.6835
 5748SOL    HW128877   3.210   1.731   6.940 -0.0964 -0.6204  0.4309
 5748SOL    HW228878   3.253   1.630   6.845 -1.6803 -1.8192  0.9041
 5749SOL     OW28879   4.344   0.178   4.064  0.3948 -0.0282  0.1622
 5749SOL    HW128880   4.414   0.184   3.998 -0.5276  0.2386 -0.7930
 5749SOL    HW228881   4.266   0.174   4.009  0.3028 -3.9273  0.5725
 5750SOL     OW28882   1.972   4.068   5.059  0.0800 -0.2968  0.4164
 5750SOL    HW128883   2.034   4.019   5.112  0.2605 -0.0649  0.4193
 5750SOL    HW228884   1.892   4.015   5.057 -1.2949  1.8178  0.1346
 5751SOL     OW28885   2.785   1.164   3.544 -0.4781 -0.3215  0.1134
 5751SOL    HW128886   2.729   1.107   3.596  0.3566 -0.5805  0.7447
 5751SOL    HW228887   2.801   1.112   3.466  0.7545 -1.2383  0.9860
 5752SOL     OW28888   1.389   2.048  13.816  0.5253 -0.0105  0.0858
 5752SOL    HW128889   1.464   2.079  13.765  1.0307 -0.2053  0.7134
 5752SOL    HW228890   1.426   2.000  13.890  1.3548 -0.5216 -0.6644
 5753SOL     OW28891   1.502   2.490   5.364 -0.4254  0.7404  0.5279
 5753SOL    HW128892   1.459   2.521   5.444 -0.6736  2.8737 -0.4290
 5753SOL    HW228893   1.488   2.396   5.370 -1.0390  0.8774  1.2419
 5754SOL     OW28894   4.065   1.293   9.318  0.1586  0.4204 -0.2034
 5754SOL    HW128895   4.135   1.314   9.380  0.8462  0.5937 -1.0403
 5754SOL    HW228896   4.043   1.212   9.364 -1.3126  2.1853  2.1784
 5755SOL     OW28897   4.502   2.919  17.599  0.1782  0.3365  0.2232
 5755SOL    HW128898   4.462   2.902  17.514 -0.3997 -1.7119  0.8938
 5755SOL    HW228899   4.442   2.986  17.632  1.2154  1.5299 -0.3205
 5756SOL     OW28900   0.167   3.995   5.911  0.1237  0.8584  0.2691
 5756SOL    HW128901   0.180   3.905   5.880 -0.1243  1.0737 -0.4621
 5756SOL    HW228902   0.219   3.983   5.990 -2.0028  1.3474  1.7391
 5757SOL     OW28903   2.334   1.581   8.400  0.0639 -0.1469 -0.0656
 5757SOL    HW128904   2.375   1.530   8.330 -1.4012  0.6135 -1.4825
 5757SOL    HW228905   2.411   1.631   8.426 -1.2754  0.4398  2.7442
 5758SOL     OW28906   3.865   1.708  12.072  0.4276  0.3954 -0.1842
 5758SOL    HW128907   3.820   1.790  12.089 -1.4502 -0.3649 -1.3665
 5758SOL    HW228908   3.794   1.654  12.108  1.1846  0.0282  0.7460
 5759SOL     OW28909   2.253   2.213   0.351  0.1543  0.3434  0.0555
 5759SOL    HW128910   2.290   2.131   0.318 -0.9160 -0.4881  0.9405
 5759SOL    HW228911   2.187   2.183   0.413 -0.7146  1.4213 -0.3537
 5760SOL     OW28912   0.908   0.616  14.075 -0.0907  0.1252 -0.2317
 5760SOL    HW128913   0.819   0.585  14.058  0.7848 -2.3285 -0.3614
 5760SOL    HW228914   0.970   0.568  14.020  0.6484  0.2931  0.4786
 5761SOL     OW28915   1.785   3.616   9.065 -0.4142 -0.1940 -0.5490
 5761SOL    HW128916   1.706   3.590   9.015  0.5655 -1.1660 -1.6053
 5761SOL    HW228917   1.851   3.626   8.996 -1.9984 -0.7907 -2.1724
 5762SOL     OW28918   2.705   2.928   3.246 -0.0403 -0.2594  0.1042
 5762SOL    HW128919   2.703   3.023   3.236 -0.2266 -0.1160  1.5528
 5762SOL    HW228920   2.752   2.900   3.167  1.4173 -0.6906  1.1251
 5763SOL     OW28921   4.091   2.066   9.892 -0.4515 -0.8373 -0.2795
 5763SOL    HW128922   4.172   2.099   9.854  0.1514 -0.5894  1.2225
 5763SOL    HW228923   4.102   1.973   9.872  1.3331 -0.8333  0.7217
 5764SOL     OW28924   4.032   4.691  16.840 -0.1891  0.5955  0.2615
 5764SOL    HW128925   4.047   0.039  16.796  0.3415  0.7385  0.7215
 5764SOL    HW228926   4.005   4.722  16.926  0.9922  0.7001  0.6015
 5765SOL     OW28927   3.449   1.856   3.387 -0.3042 -0.5288 -0.8614
 5765SOL    HW128928   3.505   1.785   3.420  0.5431  0.7407  0.4648
 5765SOL    HW228929   3.509   1.896   3.324 -0.8199  3.2175  1.0196
 5766SOL     OW28930   4.125   1.084   6.285  0.1915  0.3208  0.2518
 5766SOL    HW128931   4.190   1.144   6.322 -1.0106  1.9542 -0.2650
 5766SOL    HW228932   4.175   1.008   6.257  1.7168  1.8356 -1.1658
 5767SOL     OW28933   3.998   0.646  13.126  0.2955 -0.4778 -0.4850
 5767SOL    HW128934   4.027   0.565  13.084 -1.3873 -0.7578 -1.1004
 5767SOL    HW228935   4.030   0.707  13.059 -1.0057 -0.0628 -0.7186
 5768SOL     OW28936   1.387   1.636   6.806 -0.0474 -0.3727  0.1146
 5768SOL    HW128937   1.393   1.541   6.808  2.3373 -0.1774  1.7788
 5768SOL    HW228938   1.478   1.663   6.822  0.2702 -0.8971 -0.7808
 5769SOL     OW28939   2.086   1.309   8.315  0.3516 -0.1023 -0.3998
 5769SOL    HW128940   2.156   1.368   8.287  0.0066 -0.1394 -1.3526
 5769SOL    HW228941   2.121   1.235   8.265  0.6813 -0.6295  0.5993
 5770SOL     OW28942   2.032   2.782   9.279  0.6132  0.2594  0.2696
 5770SOL    HW128943   2.010   2.861   9.230  1.9867  0.3646 -0.1755
 5770SOL    HW228944   2.010   2.716   9.213  1.5783 -0.3166  0.5155
 5771SOL     OW28945   1.238   3.308   9.809 -0.2748 -0.4894 -0.1324
 5771SOL    HW128946   1.157   3.351   9.835 -1.1993 -2.3555  0.0572
 5771SOL    HW228947   1.218   3.309   9.715  0.6369 -0.4520 -0.3336
 5772SOL     OW28948   2.031   1.068   5.308 -0.0301 -0.2063  0.4226
 5772SOL    HW128949   1.953   1.124   5.309  0.1493  0.0284  1.7143
 5772SOL    HW228950   2.084   1.096   5.234  2.2618 -2.3220  1.2545
 5773SOL     OW28951   1.208   4.653   4.794 -0.4890 -0.2715  0.1071
 5773SOL    HW128952   1.226   4.715   4.864  0.7173 -0.6277  0.1102
 5773SOL    HW228953   1.271   4.582   4.810 -0.8968 -0.8904 -1.0086
 5774SOL     OW28954   4.698   2.369   1.668 -0.1129 -0.9553 -0.3349
 5774SOL    HW128955   4.707   2.278   1.639  2.0596 -1.0124  0.4765
 5774SOL    HW228956   4.710   2.361   1.763 -1.4325 -0.3086 -0.1149
 5775SOL     OW28957   0.409   3.046   4.995  0.1095  0.6663 -0.4724
 5775SOL    HW128958   0.450   3.020   4.912 -0.6084 -1.5976 -0.1153
 5775SOL    HW228959   0.323   3.053   4.954  0.3847  1.2912 -0.9384
 5776SOL     OW28960   3.295   4.487   9.215 -0.3567 -0.6120  0.2737
 5776SOL    HW128961   3.219   4.453   9.264 -1.0948 -3.2835 -2.7589
 5776SOL    HW228962   3.353   4.412   9.231  0.1323 -0.0599  1.0665
 5777SOL     OW28963   3.794   0.279  16.756  0.0705 -0.0792  0.0601
 5777SOL    HW128964   3.772   0.193  16.721 -0.0250 -0.1537  0.3023
 5777SOL    HW228965   3.883   0.262  16.787 -0.0801  2.4692  1.8782
 5778SOL     OW28966   0.172   0.949  11.842  0.9910  0.3211 -0.0395
 5778SOL    HW128967   0.180   0.927  11.935 -0.8243  0.6370  0.2039
 5778SOL    HW228968   0.146   1.040  11.856 -3.1979 -1.0043  0.8734
 5779SOL     OW28969   0.651   2.331   4.844  0.1408  0.5437 -0.3637
 5779SOL    HW128970   0.588   2.398   4.815  0.6554  1.1019 -0.1994
 5779SOL    HW228971   0.679   2.309   4.756 -1.4165  0.8421 -0.9437
 5780SOL     OW28972   3.316   0.874   2.410  0.7709  0.2137  0.1664
 5780SOL    HW128973   3.312   0.968   2.430 -1.2512  0.8424 -3.2103
 5780SOL    HW228974   3.228   0.842   2.431  0.3239  1.1345 -0.2868
 5781SOL     OW28975   4.351   1.128  16.176 -0.6443  0.1222 -0.0721
 5781SOL    HW128976   4.291   1.196  16.206  1.8711  1.3796  2.1137
 5781SOL    HW228977   4.433   1.162  16.211  0.6001 -0.9145 -1.9652
 5782SOL     OW28978   0.307   3.951   6.139  0.2861  0.8650 -0.2182
 5782SOL    HW128979   0.373   3.913   6.081 -0.9463 -0.7473 -0.5626
 5782SOL    HW228980   0.300   3.878   6.200  0.5715  1.6476  0.7483
 5783SOL     OW28981   0.189   0.811  15.037  0.2920 -0.1394 -0.0858
 5783SOL    HW128982   0.279   0.836  15.013 -1.1852  2.8525 -2.5088
 5783SOL    HW228983   0.209   0.728  15.080 -1.1522 -1.3979 -1.8562
 5784SOL     OW28984   2.989   4.170   9.302 -0.0943 -0.6662 -0.0192
 5784SOL    HW128985   3.062   4.136   9.249  0.9798  2.3411 -0.4540
 5784SOL    HW228986   2.933   4.099   9.269 -1.1281 -0.8988  2.2501
 5785SOL     OW28987   1.075   2.845   8.404  0.2832 -0.4051 -0.3012
 5785SOL    HW128988   1.006   2.821   8.342  0.3779  0.6368 -0.8160
 5785SOL    HW228989   1.153   2.808   8.365  0.6896 -2.0230  2.0654
 5786SOL     OW28990   0.774   1.776   3.442 -0.3396  0.0509  0.0174
 5786SOL    HW128991   0.839   1.844   3.460 -1.4373  1.4062 -1.1603
 5786SOL    HW228992   0.751   1.744   3.529  2.1843 -1.4203  0.1338
 5787SOL     OW28993   1.112   0.509   3.537  1.0595 -0.2601 -0.3372
 5787SOL    HW128994   1.042   0.444   3.540  1.4171 -0.6177  0.5112
 5787SOL    HW228995   1.112   0.550   3.624 -0.9633  1.7038 -1.2742
 5788SOL     OW28996   0.163   0.867   2.563 -0.2779  0.4039 -0.0331
 5788SOL    HW128997   0.076   0.901   2.540 -0.1371  1.3690  0.8277
 5788SOL    HW228998   0.159   0.774   2.543 -0.9674  1.0970 -3.1782
 5789SOL     OW28999   3.718   0.407   2.506 -0.0514  0.6649  0.7356
 5789SOL    HW129000   3.796   0.461   2.494  0.9618 -1.5513 -2.6519
 5789SOL    HW229001   3.658   0.463   2.456 -0.9022 -0.8157  0.0980
 5790SOL     OW29002   0.995   4.131  10.868  0.0049 -0.3562  0.2620
 5790SOL    HW129003   0.975   4.181  10.789 -2.1341 -1.6760 -0.0295
 5790SOL    HW229004   0.906   4.107  10.896  0.7667 -1.9122  1.3404
 5791SOL     OW29005   2.202   1.429   7.427  0.3797 -0.5830  0.3287
 5791SOL    HW129006   2.141   1.474   7.485  3.2634 -0.8611  3.5976
 5791SOL    HW229007   2.141   1.365   7.392  1.3048 -1.4975  0.3723
 5792SOL     OW29008   4.571   0.651  10.139  0.0199 -0.3773 -0.0260
 5792SOL    HW129009   4.575   0.589  10.067 -0.6576  1.2309 -1.4576
 5792SOL    HW229010   4.586   0.586  10.208  1.3871 -0.0121  0.0167
 5793SOL     OW29011   1.114   3.998   8.357 -0.0997  0.5548 -0.1481
 5793SOL    HW129012   1.103   3.903   8.350 -0.8789  0.5790  0.7152
 5793SOL    HW229013   1.040   4.035   8.405 -0.8371  2.2563 -2.6250
 5794SOL     OW29014   2.032   0.464  16.229  0.3442 -0.2754  0.8647
 5794SOL    HW129015   2.046   0.489  16.320 -0.7746  1.2064  0.6229
 5794SOL    HW229016   2.100   0.397  16.222  0.1678 -0.3482 -0.2497
 5795SOL     OW29017   4.127   3.595  13.204 -0.2561  0.9651 -0.4453
 5795SOL    HW129018   4.094   3.549  13.127  0.8181 -0.8414  0.1753
 5795SOL    HW229019   4.130   3.533  13.277  1.4184 -0.1263 -1.4396
 5796SOL     OW29020   3.716   1.462  12.149 -0.4058  0.1353  0.4635
 5796SOL    HW129021   3.746   1.376  12.120  0.7673 -0.1746  2.6103
 5796SOL    HW229022   3.629   1.474  12.110  0.6827  0.0118 -2.0550
 5797SOL     OW29023   4.365   2.722   7.473  0.0858 -0.4829 -0.2960
 5797SOL    HW129024   4.428   2.752   7.539 -1.2404 -0.3157  0.9083
 5797SOL    HW229025   4.290   2.778   7.493  0.8054  0.8561 -1.3200
 5798SOL     OW29026   0.506   0.517   1.828  0.7309  0.7324 -0.1625
 5798SOL    HW129027   0.413   0.504   1.814  0.7260 -0.1211  0.6718
 5798SOL    HW229028   0.536   0.432   1.860  3.1066  1.8240  0.5623
 5799SOL     OW29029   2.094   3.533   2.006  0.3556 -0.4466  0.1406
 5799SOL    HW129030   2.160   3.550   2.074 -1.3506  1.7028  1.2799
 5799SOL    HW229031   2.056   3.462   2.056  2.5012 -0.4666  1.7828
 5800SOL     OW29032   2.126   4.249  13.419  0.3769 -0.2662 -0.1183
 5800SOL    HW129033   2.153   4.318  13.357  1.7507 -0.4986  0.2238
 5800SOL    HW229034   2.066   4.301  13.473 -0.2895  0.2453 -1.3418
 5801SOL     OW29035   3.069   1.631  17.540 -0.1681  0.0532 -0.3382
 5801SOL    HW129036   3.085   1.542  17.570  0.7916  0.0704 -0.7887
 5801SOL    HW229037   2.977   1.636  17.564 -0.3345  1.0001 -1.1664
 5802SOL     OW29038   2.397   1.877   2.373 -0.2631 -0.3052  0.1627
 5802SOL    HW129039   2.378   1.829   2.454  0.6032 -0.6703  0.1578
 5802SOL    HW229040   2.395   1.968   2.401 -0.9559 -0.4579  0.6074
 5803SOL     OW29041   2.436   1.832  17.466  0.3533  0.1235 -0.1363
 5803SOL    HW129042   2.404   1.915  17.432 -0.0034  1.1894  2.8227
 5803SOL    HW229043   2.488   1.792  17.396  0.5862  0.2458 -0.0296
 5804SOL     OW29044   3.794   2.349   5.463  0.2896 -0.3423  0.2342
 5804SOL    HW129045   3.815   2.346   5.370  0.2144 -0.4991  0.2229
 5804SOL    HW229046   3.838   2.269   5.488  2.0524  0.7039  0.4358
 5805SOL     OW29047   4.407   4.021   2.181 -0.4107 -0.4527 -0.1043
 5805SOL    HW129048   4.476   3.985   2.237  0.9766  2.7107  0.2263
 5805SOL    HW229049   4.439   4.019   2.091 -2.4061 -0.6980 -0.8059
 5806SOL     OW29050   0.235   4.705   3.562  0.3602  0.1781 -0.4154
 5806SOL    HW129051   0.327   4.729   3.573 -0.1485  1.2810  1.5801
 5806SOL    HW229052   0.196   0.033   3.503  0.3432 -2.4183 -3.2319
 5807SOL     OW29053   2.449   3.354  13.156 -0.5378  0.1773  0.4128
 5807SOL    HW129054   2.510   3.360  13.083 -1.3918 -1.3972 -0.4572
 5807SOL    HW229055   2.463   3.446  13.177  0.8230  0.4101 -1.4904
 5808SOL     OW29056   3.762   0.004  16.717 -0.6326  0.6260  0.1587
 5808SOL    HW129057   3.821   4.676  16.679  1.1629  1.6793  1.1522
 5808SOL    HW229058   3.729   4.697  16.796  1.2833  0.4687  0.8858
 5809SOL     OW29059   1.545   1.895  12.165 -0.0161  0.4369  0.0323
 5809SOL    HW129060   1.470   1.838  12.147  0.0729  0.1218  0.6702
 5809SOL    HW229061   1.598   1.863  12.092 -1.3352  0.5877 -0.9921
 5810SOL     OW29062   1.288   1.435   4.472 -0.3527  0.2865 -0.0346
 5810SOL    HW129063   1.288   1.530   4.474 -2.3753  0.2557  0.9807
 5810SOL    HW229064   1.379   1.408   4.490  0.1756  1.0002 -1.6850
 5811SOL     OW29065   1.257   4.397  13.102  0.5689 -0.1521 -0.1187
 5811SOL    HW129066   1.210   4.336  13.045  0.1365 -0.0103  0.0865
 5811SOL    HW229067   1.201   4.436  13.169 -0.1154  0.4869 -1.0634
 5812SOL     OW29068   2.834   2.608  16.704  0.2632 -0.4372  0.5123
 5812SOL    HW129069   2.758   2.553  16.722 -0.2142 -0.0713 -0.3909
 5812SOL    HW229070   2.871   2.577  16.622  0.1090 -0.9137  0.6227
 5813SOL     OW29071   2.147   1.759   9.534 -0.1528 -0.0899 -0.1300
 5813SOL    HW129072   2.241   1.778   9.533  0.4233 -2.8957  0.4244
 5813SOL    HW229073   2.110   1.840   9.500  0.4122  1.2278  2.4429
 5814SOL     OW29074   2.221   2.473   6.054 -0.0499 -0.3541 -0.0421
 5814SOL    HW129075   2.243   2.564   6.075  1.5357 -1.1712  1.8663
 5814SOL    HW229076   2.306   2.442   6.024  0.1040  0.1170 -0.0927
 5815SOL     OW29077   3.966   3.727   5.618  0.3128 -0.4259  0.2035
 5815SOL    HW129078   4.030   3.795   5.596 -0.0213 -0.3058 -0.3874
 5815SOL    HW229079   3.886   3.778   5.627  1.6496  2.1985 -2.9290
 5816SOL     OW29080   0.808   3.056   1.999 -0.0144  0.8236 -0.2448
 5816SOL    HW129081   0.771   2.968   1.988  1.8210  0.0288 -0.0071
 5816SOL    HW229082   0.733   3.098   2.041  0.0367  3.6397 -2.9779
 5817SOL     OW29083   1.070   2.047   7.065  0.1462  0.1678 -0.1535
 5817SOL    HW129084   1.099   1.973   7.012  2.7792  2.3883 -1.8255
 5817SOL    HW229085   0.975   2.039   7.075  0.3109 -1.4092  0.2265
 5818SOL     OW29086   3.967   0.487   7.191 -1.2944  0.6211 -0.0812
 5818SOL    HW129087   3.913   0.415   7.159  0.2802 -0.2951 -0.6451
 5818SOL    HW229088   3.909   0.530   7.254 -1.8673  0.8023 -0.7215
 5819SOL     OW29089   1.715   1.682   2.210 -0.2733  0.5272  0.3284
 5819SOL    HW129090   1.633   1.724   2.232 -1.1765 -1.7080  1.2589
 5819SOL    HW229091   1.691   1.596   2.173 -0.5239  1.3015 -1.3019
 5820SOL     OW29092   4.664   3.410   2.181  0.0071 -0.3099 -0.2850
 5820SOL    HW129093   4.680   3.327   2.227  1.4030  0.8967  1.3957
 5820SOL    HW229094   0.013   3.450   2.192  0.2378  0.3168 -4.3135
 5821SOL     OW29095   3.796   0.543   6.891 -0.4506  0.1481  0.1524
 5821SOL    HW129096   3.802   0.463   6.944 -0.0008 -1.0155 -1.6447
 5821SOL    HW229097   3.888   0.567   6.881 -0.7032  1.0944  0.1287
 5822SOL     OW29098   3.045   1.533   7.816 -0.3578 -0.6516  0.1556
 5822SOL    HW129099   3.083   1.494   7.895  0.4437  1.0987  0.6425
 5822SOL    HW229100   3.118   1.513   7.759 -0.3242 -0.2538  0.0602
 5823SOL     OW29101   2.200   3.872   8.179 -0.1779  0.3421  0.7054
 5823SOL    HW129102   2.181   3.785   8.213  2.9552 -0.5019  0.3236
 5823SOL    HW229103   2.225   3.853   8.088 -0.2873 -1.1316  0.9888
 5824SOL     OW29104   3.311   1.946   5.453  0.4835 -0.0661 -0.0101
 5824SOL    HW129105   3.316   1.871   5.394  2.4684 -1.4735  1.9210
 5824SOL    HW229106   3.321   2.013   5.386 -0.6580  0.3424  0.2213
 5825SOL     OW29107   1.979   1.515   3.392 -0.2721 -0.4119  0.5938
 5825SOL    HW129108   2.074   1.531   3.398 -0.3555  0.2171  0.2116
 5825SOL    HW229109   1.946   1.567   3.465 -1.3786 -0.2452 -0.0300
 5826SOL     OW29110   0.619   0.973   7.974 -0.3594  0.7220 -0.6908
 5826SOL    HW129111   0.605   0.997   7.883  0.5654 -0.6869 -1.1946
 5826SOL    HW229112   0.686   0.906   7.967  0.1513  1.2228 -0.5650
 5827SOL     OW29113   0.910   1.089   2.751 -0.0126 -0.2338 -0.5137
 5827SOL    HW129114   0.858   1.157   2.709 -1.0884 -1.6525 -1.4758
 5827SOL    HW229115   0.864   1.074   2.833 -0.4373 -0.1453 -0.7372
 5828SOL     OW29116   2.742   0.465   3.612  0.1132 -0.3572 -0.5239
 5828SOL    HW129117   2.739   0.374   3.641 -2.0224  0.1338  0.7967
 5828SOL    HW229118   2.675   0.503   3.669 -0.5507 -2.0771 -0.1448
 5829SOL     OW29119   1.548   2.125   1.306  0.9587 -0.8291 -0.1201
 5829SOL    HW129120   1.601   2.203   1.293 -0.9002  0.3384 -0.7257
 5829SOL    HW229121   1.538   2.087   1.219  3.0838  0.3170 -0.8594
 5830SOL     OW29122   2.000   0.844  10.592  1.0495 -0.0746 -0.0397
 5830SOL    HW129123   2.002   0.798  10.676  0.0261  0.2190  0.1550
 5830SOL    HW229124   2.065   0.904  10.628  0.5824  1.0444 -1.0695
 5831SOL     OW29125   0.524   1.235   8.492  0.5067 -0.0870  0.0230
 5831SOL    HW129126   0.479   1.153   8.470  1.0854 -0.5914  0.7499
 5831SOL    HW229127   0.476   1.265   8.569 -0.5653  3.0084 -1.8460
 5832SOL     OW29128   3.560   1.097   6.662  0.5521 -0.7640  0.2574
 5832SOL    HW129129   3.580   1.027   6.600 -0.6673 -0.8741 -0.0081
 5832SOL    HW229130   3.648   1.133   6.677  0.9077 -1.1081 -0.9580
 5833SOL     OW29131   1.587   2.680  17.542  0.1823 -0.1506 -0.1757
 5833SOL    HW129132   1.598   2.670  17.447 -0.0844 -0.1421 -0.2080
 5833SOL    HW229133   1.640   2.758  17.561  0.0178 -0.9547  3.4451
 5834SOL     OW29134   4.469   1.442   2.364  0.1953  0.2597 -0.7752
 5834SOL    HW129135   4.477   1.347   2.371 -1.7118  0.1076 -0.6782
 5834SOL    HW229136   4.558   1.467   2.391  0.4298 -0.8478 -0.4882
 5835SOL     OW29137   1.246   1.215   6.641  0.0088 -0.3457 -0.9795
 5835SOL    HW129138   1.312   1.166   6.691 -0.2061  1.3219  0.9200
 5835SOL    HW229139   1.182   1.235   6.708  0.3892  2.3374 -1.4034
 5836SOL     OW29140   0.061   2.937   5.053  0.4120  0.1120 -0.1342
 5836SOL    HW129141   0.007   2.917   5.130  1.9749  0.5886  1.0783
 5836SOL    HW229142   0.145   2.928   5.098 -0.2520 -3.0575  0.4587
 5837SOL     OW29143   1.717   2.758  14.533 -0.0293 -0.2963 -0.1383
 5837SOL    HW129144   1.672   2.822  14.479 -0.4467  0.1854  0.7777
 5837SOL    HW229145   1.649   2.733  14.596 -0.8998  2.9037  0.2146
 5838SOL     OW29146   2.717   1.000   3.295  0.6359  0.4731  0.1412
 5838SOL    HW129147   2.730   1.091   3.271 -0.8631  0.8490  0.7572
 5838SOL    HW229148   2.624   0.999   3.320 -0.0005  0.1338 -2.1846
 5839SOL     OW29149   0.911   3.453   0.407 -0.2975  0.8617 -0.2699
 5839SOL    HW129150   0.911   3.357   0.405 -5.8205  0.9288 -1.5594
 5839SOL    HW229151   0.991   3.482   0.362  0.6825 -0.7825  0.4209
 5840SOL     OW29152   3.817   1.270   3.181  0.2422  0.7209  1.1200
 5840SOL    HW129153   3.888   1.333   3.167  1.6529 -0.5993  2.2472
 5840SOL    HW229154   3.835   1.209   3.110  0.0136  0.9565  0.8591
 5841SOL     OW29155   4.355   1.815  14.966 -0.0226 -0.1972 -0.4163
 5841SOL    HW129156   4.302   1.825  15.045  0.9383 -1.5920  0.4121
 5841SOL    HW229157   4.321   1.727  14.949 -0.9127 -0.0878  0.8090
 5842SOL     OW29158   0.655   3.707   6.604  0.1950 -0.2660  0.4336
 5842SOL    HW129159   0.672   3.765   6.677  0.3539 -0.2556  0.3873
 5842SOL    HW229160   0.740   3.664   6.610  0.8320  1.6582  4.6305
 5843SOL     OW29161   4.693   2.169   3.037  0.3995  0.0363  0.3142
 5843SOL    HW129162   4.651   2.133   2.959  0.4454  0.5973  0.0343
 5843SOL    HW229163   4.669   2.094   3.093 -0.5083  0.1469  0.0757
 5844SOL     OW29164   3.999   1.842   2.112 -0.0744  0.0364  0.3177
 5844SOL    HW129165   3.922   1.899   2.108 -0.7100 -0.9877 -2.3157
 5844SOL    HW229166   3.988   1.771   2.049  1.3786 -1.9082  2.2459
 5845SOL     OW29167   1.596   0.164   3.016 -0.3954  0.2098  0.3511
 5845SOL    HW129168   1.660   0.225   2.979  0.1174 -0.2633  0.4657
 5845SOL    HW229169   1.624   0.154   3.108  3.4379  0.7587 -0.7539
 5846SOL     OW29170   3.784   2.278  15.892  0.0873 -0.3098  0.7992
 5846SOL    HW129171   3.872   2.251  15.920  0.6702  1.0099  0.2650
 5846SOL    HW229172   3.749   2.193  15.868  2.6990 -0.5275 -2.1791
 5847SOL     OW29173   1.436   0.057   8.000 -0.2820  0.5117 -0.0526
 5847SOL    HW129174   1.488   0.028   7.925 -0.3096  0.1120  0.0836
 5847SOL    HW229175   1.492   0.127   8.033 -0.1835 -0.6609  2.2741
 5848SOL     OW29176   3.270   1.458   7.693  0.1826  0.1241 -0.2785
 5848SOL    HW129177   3.342   1.521   7.681 -1.1449  2.2506  2.8466
 5848SOL    HW229178   3.254   1.431   7.603  0.2221  0.7714 -0.4803
 5849SOL     OW29179   3.352   0.476   6.576  0.1653 -0.2935  0.4590
 5849SOL    HW129180   3.264   0.495   6.609 -0.3405 -0.9602 -0.5009
 5849SOL    HW229181   3.329   0.439   6.491 -0.8281  0.4213  0.4128
 5850SOL     OW29182   1.162   1.055   8.711  0.4648 -0.2515 -0.5810
 5850SOL    HW129183   1.128   1.143   8.693 -1.1150 -0.6616  0.4445
 5850SOL    HW229184   1.153   1.057   8.806 -0.8870  0.4929 -0.7292
 5851SOL     OW29185   4.375   3.009   7.710  0.4921 -0.5179 -0.0372
 5851SOL    HW129186   4.372   3.062   7.630 -1.1943 -2.4879 -1.3013
 5851SOL    HW229187   4.303   3.051   7.756 -0.1319  0.2454 -1.7254
 5852SOL     OW29188   2.381   1.413  10.670 -0.6160  0.1272  0.5229
 5852SOL    HW129189   2.470   1.439  10.643  0.3942 -1.0533  2.7435
 5852SOL    HW229190   2.341   1.499  10.663  1.2205  0.8554 -1.0802
 5853SOL     OW29191   4.005   0.716  15.326  0.0767 -0.2295 -0.7183
 5853SOL    HW129192   4.080   0.754  15.372 -1.5775  0.2376  1.5892
 5853SOL    HW229193   3.987   0.782  15.259 -0.8439  0.8418  0.5927
 5854SOL     OW29194   0.739   2.107   4.615 -0.1538  0.4482 -0.4438
 5854SOL    HW129195   0.671   2.056   4.658 -0.7827  0.0682 -1.8806
 5854SOL    HW229196   0.689   2.148   4.545  0.0230  1.2461 -0.1029
 5855SOL     OW29197   2.957   0.987   0.717 -0.5887  0.6997 -0.4216
 5855SOL    HW129198   3.009   0.920   0.761 -0.7673  0.1963 -0.9765
 5855SOL    HW229199   3.008   1.006   0.638 -0.8561 -0.1002 -0.7858
 5856SOL     OW29200   3.846   4.052   5.978 -0.3349  0.1918 -0.5771
 5856SOL    HW129201   3.901   3.982   5.942  1.1552  0.7198  0.6435
 5856SOL    HW229202   3.770   4.004   6.011  0.7744 -1.7346 -0.8089
 5857SOL     OW29203   4.542   2.149   7.491  0.6252  0.2434  0.2486
 5857SOL    HW129204   4.496   2.122   7.571  0.4098 -0.6691 -0.1853
 5857SOL    HW229205   4.559   2.240   7.514  1.3445 -0.1774  1.4166
 5858SOL     OW29206   4.311   4.096  12.624 -0.4626  0.4801 -0.5057
 5858SOL    HW129207   4.321   4.040  12.700  0.0175  0.0419 -0.8892
 5858SOL    HW229208   4.361   4.052  12.555 -1.3439  1.3232 -1.6765
 5859SOL     OW29209   0.589   2.251   6.957  0.0559 -0.0002  0.0220
 5859SOL    HW129210   0.508   2.297   6.982  0.3533  0.8239 -0.5079
 5859SOL    HW229211   0.634   2.249   7.041  0.2426  0.7634 -0.0579
 5860SOL     OW29212   2.860   1.118   8.555 -0.4951  0.2795 -0.1043
 5860SOL    HW129213   2.909   1.176   8.613 -2.0850  2.6951 -1.1872
 5860SOL    HW229214   2.921   1.046   8.537 -1.0903 -0.0862 -0.6758
 5861SOL     OW29215   0.166   1.606   0.470  0.0217  0.1704  0.0224
 5861SOL    HW129216   0.224   1.579   0.399 -1.2466  1.7479 -1.6024
 5861SOL    HW229217   0.156   1.700   0.452  1.2076  0.4515  0.8215
 5862SOL     OW29218   3.356   2.753   4.135 -0.1148 -0.0583  0.0095
 5862SOL    HW129219   3.417   2.825   4.113  2.0465 -1.9409 -0.1556
 5862SOL    HW229220   3.317   2.741   4.048  1.3486 -2.1786 -0.3489
 5863SOL     OW29221   0.120   2.555  11.907  0.2198  0.0184 -0.1873
 5863SOL    HW129222   0.061   2.591  11.973 -1.9641 -2.5844 -0.7093
 5863SOL    HW229223   0.055   2.527  11.843  0.3653 -0.8679  0.0629
 5864SOL     OW29224   2.365   1.143   3.005 -0.3442  0.3530  0.1835
 5864SOL    HW129225   2.274   1.115   3.012 -0.8122  1.9787  0.5281
 5864SOL    HW229226   2.402   1.090   2.934  2.0810  0.3009  1.4850
 5865SOL     OW29227   1.894   4.391   5.879  0.4527 -0.4524  0.3199
 5865SOL    HW129228   1.931   4.362   5.796 -0.3413  1.1619 -0.5953
 5865SOL    HW229229   1.879   4.484   5.863  4.5144  0.1508  0.1405
 5866SOL     OW29230   0.704   2.141   3.211 -0.0357  0.2796 -0.1977
 5866SOL    HW129231   0.731   2.165   3.123  1.8206 -2.3922 -0.3309
 5866SOL    HW229232   0.682   2.048   3.208  0.9846  0.0289 -0.0546
 5867SOL     OW29233   4.628   3.776   2.009 -0.2113 -0.2477  0.2270
 5867SOL    HW129234   4.601   3.753   2.098  1.6249  2.5874  1.5460
 5867SOL    HW229235   4.718   3.745   2.014 -0.6709 -1.8018 -1.2491
 5868SOL     OW29236   0.982   0.223  15.883  0.3506  0.1966 -0.6090
 5868SOL    HW129237   0.927   0.292  15.919  0.3644 -0.2715  0.3036
 5868SOL    HW229238   1.063   0.267  15.858  0.4981  0.8472  1.0729
 5869SOL     OW29239   4.328   2.528  14.638  0.1356  0.2597 -0.2530
 5869SOL    HW129240   4.290   2.440  14.635 -1.3759  0.8894  0.5864
 5869SOL    HW229241   4.363   2.526  14.549 -2.2797 -1.9152 -1.1430
 5870SOL     OW29242   2.572   0.484   3.196  0.3773  0.4001 -0.1895
 5870SOL    HW129243   2.603   0.401   3.233 -0.5147 -0.8086 -2.1821
 5870SOL    HW229244   2.579   0.544   3.271 -0.5701  1.5615 -1.0293
 5871SOL     OW29245   1.377   2.956  14.176 -0.3874 -0.4131  0.6352
 5871SOL    HW129246   1.426   2.877  14.153  2.2189  0.7475  2.2049
 5871SOL    HW229247   1.289   2.939  14.143 -0.6683  1.0068  0.6540
 5872SOL     OW29248   0.424   2.743  13.943  0.7452 -0.2048 -0.4909
 5872SOL    HW129249   0.367   2.668  13.957  1.4982 -0.7754 -0.4675
 5872SOL    HW229250   0.356   2.804  13.971  1.2386  0.3219 -0.4384
 5873SOL     OW29251   3.847   0.113   0.767 -0.3135 -0.4951  0.0165
 5873SOL    HW129252   3.826   0.204   0.745 -0.1681 -1.1090 -2.6617
 5873SOL    HW229253   3.856   0.129   0.861 -1.3788  0.4190 -0.0363
 5874SOL     OW29254   4.051   2.656   4.247 -0.2973  0.2747  0.4354
 5874SOL    HW129255   4.058   2.562   4.263 -1.0737 -0.1813 -1.7931
 5874SOL    HW229256   4.084   2.700   4.325 -0.6552  0.0009  0.7405
 5875SOL     OW29257   4.300   2.007   7.336  0.5086  0.6004 -0.1235
 5875SOL    HW129258   4.379   2.061   7.332 -0.4464  2.1205  1.4919
 5875SOL    HW229259   4.333   1.934   7.389  0.3508  0.5623 -0.0780
 5876SOL     OW29260   4.663   0.868  15.754  0.5135 -0.3852  0.0055
 5876SOL    HW129261   4.605   0.906  15.820 -0.8027 -1.6595 -0.4301
 5876SOL    HW229262   4.659   0.936  15.687  1.5247 -0.0488  0.2813
 5877SOL     OW29263   3.824   4.219  11.767 -0.1830 -0.7455  0.1323
 5877SOL    HW129264   3.754   4.239  11.830 -0.9202  0.4376 -1.0554
 5877SOL    HW229265   3.886   4.289  11.786  2.2818 -2.1165 -2.9046
 5878SOL     OW29266   4.367   0.089   6.509  0.3396 -0.0013  0.4667
 5878SOL    HW129267   4.369   4.735   6.538 -0.7790 -0.3503 -0.5790
 5878SOL    HW229268   4.357   0.127   6.597 -0.9657 -0.0259  0.3269
 5879SOL     OW29269   1.254   2.888   5.076 -0.6681  0.3919  0.6394
 5879SOL    HW129270   1.288   2.801   5.055  0.7219  0.9740  0.5382
 5879SOL    HW229271   1.173   2.856   5.115 -1.2775 -0.3607 -1.2256
 5880SOL     OW29272   1.625   3.223   9.733  0.5558  0.3627  0.2159
 5880SOL    HW129273   1.561   3.293   9.742 -2.4609 -2.8257  3.1903
 5880SOL    HW229274   1.656   3.215   9.823  0.8139  2.7239  0.3547
 5881SOL     OW29275   0.623   3.762   3.088 -0.1058 -0.1074  0.4629
 5881SOL    HW129276   0.667   3.714   3.017 -0.2184 -0.2994  0.5208
 5881SOL    HW229277   0.638   3.709   3.166  1.6380 -2.1631 -1.2391
 5882SOL     OW29278   4.465   4.593   0.319  0.6868 -0.4440 -0.2037
 5882SOL    HW129279   4.483   4.585   0.225  2.1159  1.3844 -0.0991
 5882SOL    HW229280   4.411   4.672   0.311 -0.6000 -1.1252  1.7698
 5883SOL     OW29281   3.696   2.087   4.207  0.8356 -1.1175 -0.5189
 5883SOL    HW129282   3.631   2.017   4.213  1.6892 -1.6874  1.8864
 5883SOL    HW229283   3.640   2.162   4.186 -1.7510 -2.6255  0.9876
 5884SOL     OW29284   1.122   1.660   2.681 -0.3013 -0.3306  0.3706
 5884SOL    HW129285   1.167   1.698   2.606 -1.2268  1.2494  0.6257
 5884SOL    HW229286   1.038   1.705   2.690 -0.6945 -0.7897 -0.8721
 5885SOL     OW29287   3.408   4.632   6.831  0.2430 -0.4078 -0.5153
 5885SOL    HW129288   3.401   4.726   6.816 -0.3530 -0.1431  1.3889
 5885SOL    HW229289   3.361   4.612   6.912 -0.3928 -1.7238 -1.2037
 5886SOL     OW29290   1.728   4.201   5.691 -0.2594 -0.2043 -0.3113
 5886SOL    HW129291   1.651   4.257   5.680 -0.2612  0.0965  1.1578
 5886SOL    HW229292   1.743   4.209   5.785 -0.2642 -0.8230 -0.2572
 5887SOL     OW29293   3.241   3.712   4.632  0.1159  0.0209 -0.0591
 5887SOL    HW129294   3.185   3.781   4.667 -1.5261 -1.6550  0.5482
 5887SOL    HW229295   3.307   3.714   4.701  1.2968 -1.0553 -1.1709
 5888SOL     OW29296   0.419   4.034  12.218 -0.7520  0.2009  0.1491
 5888SOL    HW129297   0.404   3.940  12.207 -2.1645  0.5313 -0.8314
 5888SOL    HW229298   0.414   4.063  12.127 -2.6328 -2.6750 -0.6416
 5889SOL     OW29299   3.003   1.436   9.007 -0.1587 -0.5671 -0.3456
 5889SOL    HW129300   3.051   1.508   9.049 -1.8809  0.1628  0.3965
 5889SOL    HW229301   3.008   1.467   8.917 -2.4088  0.6597 -0.0496
 5890SOL     OW29302   0.569   2.872  17.249 -0.5525 -0.6312 -0.0365
 5890SOL    HW129303   0.643   2.914  17.204 -1.5889  1.6017  0.3338
 5890SOL    HW229304   0.516   2.848  17.173  0.5735 -2.2343 -0.3260
 5891SOL     OW29305   2.400   2.278   7.426  0.2038 -0.7009 -0.0192
 5891SOL    HW129306   2.399   2.298   7.520 -0.1466 -1.1931  0.0816
 5891SOL    HW229307   2.309   2.254   7.408 -0.5020 -0.1396  2.8252
 5892SOL     OW29308   2.288   3.014   1.785 -0.0118  0.9070  0.0329
 5892SOL    HW129309   2.242   2.945   1.835  2.4451 -0.6590  0.1482
 5892SOL    HW229310   2.215   3.044   1.731 -1.7895 -1.9674  0.7898
 5893SOL     OW29311   3.189   3.223   3.873  0.4625 -0.1421  0.0878
 5893SOL    HW129312   3.268   3.241   3.822  0.3098 -0.0778 -0.1249
 5893SOL    HW229313   3.137   3.174   3.809 -1.1146  1.1654  0.3451
 5894SOL     OW29314   2.352   1.288   5.183 -0.1565 -0.1782  0.3682
 5894SOL    HW129315   2.425   1.268   5.241  0.7881 -0.8231 -1.0363
 5894SOL    HW229316   2.360   1.383   5.169  0.0060  0.0241  1.8257
 5895SOL     OW29317   1.361   2.136  12.038  0.0958  0.3976  0.1552
 5895SOL    HW129318   1.308   2.179  12.105  0.2726 -0.4920  0.8741
 5895SOL    HW229319   1.410   2.072  12.090 -1.8046 -0.1281  1.2768
 5896SOL     OW29320   3.715   1.799  14.694  0.1083  0.0629 -0.1000
 5896SOL    HW129321   3.720   1.834  14.605  3.6775 -0.3668 -0.0586
 5896SOL    HW229322   3.791   1.741  14.693 -0.2066 -0.3567  0.1320
 5897SOL     OW29323   0.971   1.906   5.414  0.1193 -0.1987  0.3451
 5897SOL    HW129324   0.980   1.885   5.321 -0.2575  3.9708 -0.6079
 5897SOL    HW229325   0.878   1.927   5.411  0.1656  0.1419  1.2788
 5898SOL     OW29326   4.538   2.888   6.867  0.1227  0.1381 -0.1262
 5898SOL    HW129327   4.525   2.826   6.938  0.1993 -1.1846 -1.2628
 5898SOL    HW229328   4.627   2.860   6.843 -0.5669  2.3776 -5.2588
 5899SOL     OW29329   4.556   4.361  17.063 -0.2188 -0.1299 -0.0818
 5899SOL    HW129330   4.651   4.372  17.067 -0.5159  2.6290 -0.5766
 5899SOL    HW229331   4.543   4.351  16.969 -2.0295 -0.9307  0.2617
 5900SOL     OW29332   3.577   2.766   4.707 -0.0412 -0.7822  0.8818
 5900SOL    HW129333   3.534   2.814   4.778 -0.6667 -0.0127 -0.0130
 5900SOL    HW229334   3.598   2.683   4.751 -1.4321 -1.0492  1.0494
 5901SOL     OW29335   1.400   3.377   4.453 -0.0506 -0.1789 -0.1733
 5901SOL    HW129336   1.318   3.404   4.494  0.7058  4.4801 -1.6760
 5901SOL    HW229337   1.356   3.345   4.374 -1.3930  1.0825  0.0619
 5902SOL     OW29338   3.659   1.800   4.377 -0.0312 -0.1422 -0.8102
 5902SOL    HW129339   3.739   1.848   4.360  0.0988 -0.2154 -0.4159
 5902SOL    HW229340   3.652   1.805   4.473 -0.9958  1.6274 -0.9861
 5903SOL     OW29341   0.740   4.187   2.301  0.3311  0.4586 -0.3721
 5903SOL    HW129342   0.742   4.269   2.251  3.2970  0.1788 -0.6942
 5903SOL    HW229343   0.738   4.224   2.390 -1.1065  1.8911 -1.0165
 5904SOL     OW29344   1.614   3.107   6.503  0.2622  0.2260 -0.2231
 5904SOL    HW129345   1.633   3.194   6.468 -1.5402 -0.3577 -2.6164
 5904SOL    HW229346   1.576   3.130   6.588 -0.2255 -1.4142  0.0073
 5905SOL     OW29347   3.991   0.168  11.725  0.2619 -0.4219  0.5303
 5905SOL    HW129348   3.938   0.182  11.646  1.1263  0.1280  0.0470
 5905SOL    HW229349   4.052   0.242  11.721  3.2619 -2.8811  0.0816
 5906SOL     OW29350   3.344   1.273  15.652 -0.3593 -0.2166 -0.1299
 5906SOL    HW129351   3.330   1.221  15.573 -0.3786 -0.6968  0.1932
 5906SOL    HW229352   3.432   1.239  15.668  1.0725  4.6086  2.3929
 5907SOL     OW29353   2.805   1.756   1.625  0.4814 -0.0305 -0.3315
 5907SOL    HW129354   2.892   1.770   1.663 -0.3007  0.8026  1.1640
 5907SOL    HW229355   2.754   1.816   1.678 -1.4369 -1.1190 -0.9704
 5908SOL     OW29356   1.406   1.129   6.847  0.0978 -0.2117  0.2369
 5908SOL    HW129357   1.483   1.073   6.853 -0.9997 -1.8009 -0.6251
 5908SOL    HW229358   1.347   1.097   6.915 -1.1086 -1.3916 -1.3821
 5909SOL     OW29359   1.603   3.237   6.740  0.5780  0.4339 -0.4107
 5909SOL    HW129360   1.669   3.304   6.760  0.8230  0.1471 -0.2708
 5909SOL    HW229361   1.655   3.158   6.754  0.2614  0.7824  2.5851
 5910SOL     OW29362   3.497   0.559   8.374 -0.4585  0.2586 -0.2896
 5910SOL    HW129363   3.486   0.536   8.467  0.6670 -1.7889 -0.6766
 5910SOL    HW229364   3.441   0.490   8.337 -1.6463  0.4336  1.1475
 5911SOL     OW29365   3.747   3.397   6.288  0.1718  0.1915 -0.5005
 5911SOL    HW129366   3.772   3.416   6.198 -0.7961  0.2478 -0.7584
 5911SOL    HW229367   3.826   3.365   6.332 -1.5559  0.6186  2.9145
 5912SOL     OW29368   3.248   1.259  16.529  0.0956 -0.2080  0.7749
 5912SOL    HW129369   3.234   1.354  16.534 -0.9946 -0.2528 -1.4788
 5912SOL    HW229370   3.196   1.239  16.452  0.0998  0.1228  0.6860
 5913SOL     OW29371   4.539   0.600   9.638 -0.4911 -0.0650 -0.6336
 5913SOL    HW129372   4.490   0.520   9.618  1.8917 -1.6447 -0.1972
 5913SOL    HW229373   4.620   0.589   9.588 -0.8475 -0.3534 -1.1500
 5914SOL     OW29374   2.870   0.099  12.116  0.2030 -0.0844  0.1417
 5914SOL    HW129375   2.956   0.129  12.147 -0.3964  0.8769  0.8648
 5914SOL    HW229376   2.834   0.183  12.088 -0.6265 -1.9319 -4.1922
 5915SOL     OW29377   2.784   1.632  10.447  0.8121 -0.1945  0.0803
 5915SOL    HW129378   2.829   1.697  10.500  3.0097 -0.9718 -0.7927
 5915SOL    HW229379   2.810   1.652  10.357  4.5543 -1.0658  0.9684
 5916SOL     OW29380   3.241   3.988   2.388  0.3106  0.2491 -0.2020
 5916SOL    HW129381   3.256   3.929   2.314  0.1869  0.0108 -0.0340
 5916SOL    HW229382   3.306   4.057   2.372  1.7523 -1.4044 -1.4446
 5917SOL     OW29383   3.457   0.865   2.166 -0.5472 -0.2255  0.4195
 5917SOL    HW129384   3.413   0.940   2.126  0.7757 -0.0420 -0.6533
 5917SOL    HW229385   3.393   0.844   2.234 -0.9720 -1.0298 -0.2394
 5918SOL     OW29386   3.930   1.871   5.063 -0.5018 -0.5783  0.0912
 5918SOL    HW129387   4.010   1.905   5.102 -1.5679 -0.5474  2.2492
 5918SOL    HW229388   3.909   1.931   4.991  0.5160  0.0469  0.3141
 5919SOL     OW29389   1.191   0.346   9.747 -0.0821 -0.3532  0.0942
 5919SOL    HW129390   1.192   0.265   9.797  0.0842 -1.0790 -1.0892
 5919SOL    HW229391   1.102   0.375   9.768  0.2505  1.1192 -0.5140
 5920SOL     OW29392   1.608   0.632   1.658  0.1450  0.3117 -0.5955
 5920SOL    HW129393   1.632   0.720   1.629  1.6786  0.0589 -0.0920
 5920SOL    HW229394   1.533   0.611   1.602  1.3142 -2.6738 -1.0398
 5921SOL     OW29395   4.649   2.344   1.294  0.6829 -0.0841 -0.0796
 5921SOL    HW129396   4.619   2.311   1.209  1.5078  1.0347 -0.8014
 5921SOL    HW229397   0.002   2.372   1.276 -1.0311  4.1957 -1.8593
 5922SOL     OW29398   3.006   2.488   4.917  0.1146 -0.2460 -0.1429
 5922SOL    HW129399   2.915   2.465   4.932 -0.1141 -0.3413 -1.7741
 5922SOL    HW229400   3.050   2.468   5.000 -1.7047 -1.1947  0.5818
 5923SOL     OW29401   0.302   3.810   3.966 -0.6502  0.0790 -0.4125
 5923SOL    HW129402   0.334   3.722   3.946  0.9826  0.6002 -0.1143
 5923SOL    HW229403   0.214   3.780   3.944 -0.5041 -0.8747  0.3438
 5924SOL     OW29404   1.136   2.209   1.857 -0.1650 -0.2793  0.3752
 5924SOL    HW129405   1.097   2.126   1.828 -0.0253  0.2426 -1.2676
 5924SOL    HW229406   1.227   2.179   1.864 -0.0454 -0.0079 -0.0451
 5925SOL     OW29407   3.108   1.246   6.387 -0.4248  0.2300  0.2163
 5925SOL    HW129408   3.038   1.197   6.431 -1.0805 -0.0348 -1.1386
 5925SOL    HW229409   3.186   1.239   6.442  0.1402  0.4673 -0.5589
 5926SOL     OW29410   1.874   3.727   7.766  0.7028 -0.0408  0.5995
 5926SOL    HW129411   1.815   3.802   7.757 -0.1761 -1.1398 -2.9525
 5926SOL    HW229412   1.827   3.667   7.708 -0.7536  1.4747  0.2105
 5927SOL     OW29413   1.730   2.962  14.252 -0.3221  0.4377  0.4498
 5927SOL    HW129414   1.712   3.053  14.277  0.5152 -0.1890  3.3631
 5927SOL    HW229415   1.819   2.965  14.287 -0.5177  0.4763  0.9393
 5928SOL     OW29416   4.535   4.350  16.347 -0.3525 -0.5160  0.4452
 5928SOL    HW129417   4.621   4.393  16.346  0.4141 -2.0499  0.1698
 5928SOL    HW229418   4.556   4.258  16.334  0.2169 -0.3831  0.4250
 5929SOL     OW29419   2.398   3.593   8.189 -0.5368  1.1103 -0.3033
 5929SOL    HW129420   2.445   3.674   8.207  0.8697 -0.1425  1.6346
 5929SOL    HW229421   2.366   3.568   8.276 -1.8943  1.6165 -0.6531
 5930SOL     OW29422   2.776   0.213   2.525 -0.1452 -0.4895  0.3710
 5930SOL    HW129423   2.712   0.210   2.597 -1.7907 -0.9558 -1.1282
 5930SOL    HW229424   2.845   0.166   2.571  1.7772  2.3433  0.3933
 5931SOL     OW29425   3.061   3.678   5.043  0.8359  0.2462  0.0376
 5931SOL    HW129426   2.982   3.626   5.027  1.4361 -0.1678 -1.5391
 5931SOL    HW229427   3.038   3.757   4.995  1.5000  0.2930 -0.2020
 5932SOL     OW29428   3.514   1.370   2.657 -0.1358  0.3676  0.0172
 5932SOL    HW129429   3.556   1.410   2.733  1.2473  0.6461 -0.9059
 5932SOL    HW229430   3.556   1.400   2.577  2.7442 -0.2440  1.2961
 5933SOL     OW29431   4.015   4.608   3.647 -0.7611  0.0160 -0.1564
 5933SOL    HW129432   3.953   4.602   3.719 -2.0737 -0.1576 -1.3135
 5933SOL    HW229433   4.010   4.520   3.610 -1.0805 -0.4763  1.0330
 5934SOL     OW29434   1.036   1.528   8.123  0.1729  0.0276 -0.4095
 5934SOL    HW129435   1.017   1.613   8.162  0.3214 -0.6232  1.1015
 5934SOL    HW229436   1.114   1.546   8.071 -2.0088 -1.9970 -4.3712
 5935SOL     OW29437   2.130   4.164   5.345  0.6628  0.5622  0.3039
 5935SOL    HW129438   2.055   4.208   5.305  2.2768  0.4884 -2.8054
 5935SOL    HW229439   2.087   4.085   5.378  0.2880  0.1105 -1.2376
 5936SOL     OW29440   3.410   1.945   2.138  0.2812 -0.8001 -0.6686
 5936SOL    HW129441   3.333   1.890   2.154  1.0041 -1.1799  1.4730
 5936SOL    HW229442   3.391   1.960   2.045  1.3560  0.2018 -0.7242
 5937SOL     OW29443   2.175   2.540   7.949 -0.1999 -0.2078 -0.4978
 5937SOL    HW129444   2.124   2.459   7.950 -1.3859  0.5451  0.3306
 5937SOL    HW229445   2.171   2.565   8.041  3.2118  3.6771 -1.4062
 5938SOL     OW29446   2.166   2.120   7.071 -0.4413 -0.0291 -0.6923
 5938SOL    HW129447   2.168   2.190   7.006  1.4989 -0.4286 -1.0387
 5938SOL    HW229448   2.118   2.063   7.012 -1.7493  0.4163 -0.0853
 5939SOL     OW29449   4.077   4.509   4.991  0.2683 -0.1232 -0.0759
 5939SOL    HW129450   4.112   4.446   4.928  0.0035 -0.9385  0.5879
 5939SOL    HW229451   4.086   4.462   5.074  1.1503 -0.1117 -0.1686
 5940SOL     OW29452   1.815   3.339   5.158  0.0164  0.0205  0.1090
 5940SOL    HW129453   1.751   3.360   5.225  1.9761  0.4052  1.8767
 5940SOL    HW229454   1.772   3.330   5.073 -1.0463  2.0340  0.4574
 5941SOL     OW29455   3.967   1.909   4.305 -0.3286 -0.2187 -0.2913
 5941SOL    HW129456   4.051   1.954   4.302 -1.3669  1.8088  1.5384
 5941SOL    HW229457   3.980   1.850   4.380 -0.2724  1.0378  0.6710
 5942SOL     OW29458   4.668   3.606  12.778 -0.3495  0.1473  0.3546
 5942SOL    HW129459   4.720   3.651  12.711  1.9282 -2.2603  0.5103
 5942SOL    HW229460   4.664   3.514  12.754 -2.1193  0.5700 -0.9832
 5943SOL     OW29461   3.327   0.999  16.184  0.0742 -0.1952 -0.0861
 5943SOL    HW129462   3.250   1.050  16.157 -1.4755 -0.1864  4.3380
 5943SOL    HW229463   3.339   0.948  16.104 -3.2672 -1.5303  0.2591
 5944SOL     OW29464   0.276   4.517   8.828 -0.6478  0.3605 -0.3655
 5944SOL    HW129465   0.298   4.502   8.920  1.3434 -2.8117 -1.4046
 5944SOL    HW229466   0.361   4.525   8.786 -0.7882  2.6451 -0.2482
 5945SOL     OW29467   3.707   3.600   3.073  0.0777 -0.0457 -0.3122
 5945SOL    HW129468   3.702   3.505   3.060 -0.7133 -0.1054  0.3712
 5945SOL    HW229469   3.790   3.624   3.032 -1.0445  3.3216 -0.6470
 5946SOL     OW29470   4.698   1.397   6.167 -0.0762  0.2468 -0.2300
 5946SOL    HW129471   4.624   1.456   6.155 -0.7917 -1.3921 -3.9464
 5946SOL    HW229472   4.651   1.321   6.200  0.4590  1.0762  2.3906
 5947SOL     OW29473   3.040   3.119  10.808 -0.0464 -0.2936 -0.1598
 5947SOL    HW129474   3.062   3.208  10.779 -0.0518  0.3886  1.9347
 5947SOL    HW229475   3.103   3.062  10.765 -1.0835 -0.7615 -1.0633
 5948SOL     OW29476   0.247   2.292   2.815  0.7202  0.1892 -0.0096
 5948SOL    HW129477   0.341   2.273   2.808  0.5670 -0.0449 -1.3124
 5948SOL    HW229478   0.237   2.308   2.721  3.5547  1.1125 -0.1530
 5949SOL     OW29479   0.058   2.593  10.919 -0.0155  0.1576 -0.3514
 5949SOL    HW129480   0.145   2.554  10.910 -0.7048 -0.8127 -2.8510
 5949SOL    HW229481   0.053   2.629  10.830  1.0200 -0.4141 -0.6339
 5950SOL     OW29482   1.809   1.602  12.925  0.0930 -0.1661 -0.0719
 5950SOL    HW129483   1.801   1.618  12.831  0.2368 -0.8501 -0.1982
 5950SOL    HW229484   1.734   1.634  12.975 -0.1993  0.8120 -1.1200
 5951SOL     OW29485   2.375   1.841   2.096  0.1018 -0.0272 -0.2610
 5951SOL    HW129486   2.457   1.793   2.085  0.5535  0.7020 -0.0591
 5951SOL    HW229487   2.393   1.870   2.185 -0.4509 -0.2480 -0.0758
 5952SOL     OW29488   3.678   1.299  10.469 -0.0601  0.4884 -0.4280
 5952SOL    HW129489   3.663   1.368  10.404  2.1983  2.1675  0.8465
 5952SOL    HW229490   3.738   1.238  10.426  0.2015  0.8352 -0.5528
 5953SOL     OW29491   2.659   4.732  11.653 -0.1407  0.3925  0.2888
 5953SOL    HW129492   2.660   0.083  11.689 -3.7237 -1.0822  3.9308
 5953SOL    HW229493   2.685   4.687  11.734 -0.0466  0.8376  0.5016
 5954SOL     OW29494   4.095   4.094   6.335  0.1690  0.1138 -0.5262
 5954SOL    HW129495   4.049   4.062   6.413 -0.3843  0.7374 -0.5996
 5954SOL    HW229496   4.123   4.014   6.290 -1.3644 -0.0693 -1.1529
 5955SOL     OW29497   0.025   4.449   8.246  0.0556 -0.5592 -0.3366
 5955SOL    HW129498   0.009   4.429   8.154  0.3395  0.0127 -0.5125
 5955SOL    HW229499   0.102   4.506   8.243  0.4201 -1.0577 -0.4133
 5956SOL     OW29500   3.421   1.495   6.751 -0.3211  0.3274  0.0366
 5956SOL    HW129501   3.498   1.442   6.730 -0.7670  0.2393 -1.3886
 5956SOL    HW229502   3.400   1.456   6.836  1.0084  0.6461  0.5223
 5957SOL     OW29503   3.365   2.031  16.746 -0.0790  0.0499  0.2609
 5957SOL    HW129504   3.291   2.091  16.753 -0.5301 -0.6401  1.4269
 5957SOL    HW229505   3.312   1.952  16.748 -4.0470  2.6621 -1.0975
 5958SOL     OW29506   1.880   4.259   8.976  0.0627  0.0498  0.6171
 5958SOL    HW129507   1.806   4.313   9.002  0.1098  0.9089 -1.0011
 5958SOL    HW229508   1.949   4.324   8.991  0.0073 -0.1153  1.5983
 5959SOL     OW29509   0.266   0.290   2.980 -0.0665 -0.3099 -0.1304
 5959SOL    HW129510   0.236   0.294   2.889 -4.7564  0.3371  1.4071
 5959SOL    HW229511   0.358   0.275   2.962  0.9960  3.5294  2.1095
 5960SOL     OW29512   2.066   3.185  13.691  0.1030 -0.3551 -0.2023
 5960SOL    HW129513   2.141   3.153  13.740 -1.9201 -3.9465  0.4960
 5960SOL    HW229514   2.050   3.271  13.732  4.4578 -0.3032  1.3264
 5961SOL     OW29515   2.039   4.043   9.781  0.2732  0.1729 -0.3328
 5961SOL    HW129516   2.111   3.984   9.804 -0.9560 -0.8295  0.9305
 5961SOL    HW229517   2.073   4.095   9.709 -0.5399 -0.7101 -1.3583
 5962SOL     OW29518   1.573   1.784   4.391  0.2560 -0.3244  0.3412
 5962SOL    HW129519   1.603   1.808   4.479 -1.1780 -0.3223  0.8190
 5962SOL    HW229520   1.549   1.873   4.364  2.1718  0.0846 -0.0340
 5963SOL     OW29521   2.280   3.889   5.465 -0.9244 -0.1251  0.5006
 5963SOL    HW129522   2.194   3.927   5.483 -0.8468  0.8530 -1.1743
 5963SOL    HW229523   2.339   3.962   5.479 -0.2801 -0.6290  0.3923
 5964SOL     OW29524   2.127   1.278  11.524  0.2281  0.3830  0.0170
 5964SOL    HW129525   2.223   1.269  11.529  0.0562 -0.9290  1.1219
 5964SOL    HW229526   2.117   1.357  11.472  0.1159 -0.0585 -0.6274
 5965SOL     OW29527   0.443   1.384   5.401 -0.3355  0.8294 -0.3133
 5965SOL    HW129528   0.357   1.349   5.423 -0.2876  0.6856 -0.3618
 5965SOL    HW229529   0.470   1.418   5.487 -3.0085 -2.6372  1.8977
 5966SOL     OW29530   2.290   2.160  13.106  0.6331 -0.1094 -0.2219
 5966SOL    HW129531   2.367   2.106  13.089 -0.6233 -1.2010 -2.5437
 5966SOL    HW229532   2.314   2.207  13.186  1.3894  1.1761 -1.2059
 5967SOL     OW29533   0.941   3.678   8.658  0.0661  0.1722  0.2968
 5967SOL    HW129534   0.920   3.689   8.751 -0.8510 -1.1689  0.2508
 5967SOL    HW229535   0.984   3.593   8.666  1.3889  1.1375  3.3164
 5968SOL     OW29536   4.499   1.545  12.514  0.0206  0.3191 -0.0476
 5968SOL    HW129537   4.510   1.595  12.595  0.5201 -0.5717  0.4356
 5968SOL    HW229538   4.524   1.457  12.543 -0.2103  0.0437 -0.6876
 5969SOL     OW29539   1.734   4.133   3.473 -0.1429  0.2985 -0.3142
 5969SOL    HW129540   1.723   4.038   3.480  2.0015 -0.1861 -3.5736
 5969SOL    HW229541   1.653   4.151   3.521 -0.9424 -0.9956 -1.2056
 5970SOL     OW29542   4.092   4.110   0.110 -0.1262 -0.0351 -0.8900
 5970SOL    HW129543   4.006   4.152   0.106  0.7447  1.6143 -2.3796
 5970SOL    HW229544   4.070   4.018   0.123 -0.8826  0.4377  1.2488
 5971SOL     OW29545   1.789   4.664   7.951  0.2614 -0.3350  0.1018
 5971SOL    HW129546   1.718   4.723   7.925 -0.0667 -0.6166  0.3651
 5971SOL    HW229547   1.805   4.685   8.043 -0.8535  1.1543 -0.0376
 5972SOL     OW29548   3.555   2.952   4.086  0.1987 -0.3559  0.8259
 5972SOL    HW129549   3.604   2.987   4.160  1.0926  2.2029 -0.9496
 5972SOL    HW229550   3.626   2.914   4.035 -2.0300 -1.2892 -1.6022
 5973SOL     OW29551   0.581   3.792   8.458 -0.2574 -0.4424 -0.5546
 5973SOL    HW129552   0.616   3.719   8.408  0.4674  1.0508 -2.2554
 5973SOL    HW229553   0.622   3.867   8.415 -0.6036 -0.5824 -1.1197
 5974SOL     OW29554   2.928   2.300   8.369  0.0382  0.2412  0.1236
 5974SOL    HW129555   2.838   2.330   8.354 -1.1283 -2.7792  0.9755
 5974SOL    HW229556   2.923   2.211   8.403  1.0624  0.2213  0.2058
 5975SOL     OW29557   0.211   1.413   1.606  0.2847 -0.3855 -0.9043
 5975SOL    HW129558   0.300   1.447   1.612 -0.2991  1.1077 -0.5980
 5975SOL    HW229559   0.205   1.363   1.687  0.4582  0.9802 -0.0355
 5976SOL     OW29560   3.104   3.437   1.992  0.0781 -0.1750 -0.0840
 5976SOL    HW129561   3.150   3.469   2.069  0.1847 -2.2101  0.7073
 5976SOL    HW229562   3.033   3.499   1.977 -0.1259 -0.1660  0.9308
 5977SOL     OW29563   0.394   2.396   8.615  0.2224 -0.5503 -0.2341
 5977SOL    HW129564   0.311   2.407   8.568 -1.1058 -1.2377  1.9673
 5977SOL    HW229565   0.395   2.484   8.652  1.6698 -0.8084  0.3188
 5978SOL     OW29566   0.048   2.891   8.588  0.5897 -0.5077 -0.2309
 5978SOL    HW129567   0.060   2.796   8.589  0.4182 -0.5349 -0.9023
 5978SOL    HW229568   0.019   2.899   8.497 -1.3054 -0.3338  0.3858
 5979SOL     OW29569   4.061   0.125  10.387 -0.1619 -1.1021 -0.4456
 5979SOL    HW129570   4.024   0.156  10.470 -1.4179 -0.8564 -1.0957
 5979SOL    HW229571   4.082   0.032  10.399  1.0825 -1.1464 -3.1090
 5980SOL     OW29572   2.623   4.010  14.621 -0.2898 -0.1601 -0.1301
 5980SOL    HW129573   2.706   3.971  14.648 -0.6828  0.1969  1.5779
 5980SOL    HW229574   2.647   4.036  14.532 -1.8971 -0.3153 -0.6032
 5981SOL     OW29575   4.142   0.633   6.179  0.3251  0.3370 -0.3151
 5981SOL    HW129576   4.108   0.596   6.261 -0.3786  2.1300  0.1931
 5981SOL    HW229577   4.064   0.671   6.139  1.4576  2.7988 -0.1811
 5982SOL     OW29578   2.888   2.849   8.021 -0.1982 -0.3742  0.2231
 5982SOL    HW129579   2.915   2.877   8.108  0.9304 -1.5966  0.2778
 5982SOL    HW229580   2.933   2.765   8.012 -0.4624 -0.4113 -0.8304
 5983SOL     OW29581   0.263   2.013   6.193  0.0488 -0.2265  0.2456
 5983SOL    HW129582   0.226   1.959   6.263 -0.3207 -0.6944 -0.3051
 5983SOL    HW229583   0.185   2.068   6.181 -0.4748 -1.2390 -0.9808
 5984SOL     OW29584   2.207   1.511  11.746  0.1146 -0.0534  0.3837
 5984SOL    HW129585   2.222   1.430  11.697  0.3817 -0.2194  0.7369
 5984SOL    HW229586   2.189   1.480  11.835 -0.7409  0.5044  0.4113
 5985SOL     OW29587   1.774   1.350   6.907 -0.1270 -0.8270 -0.4770
 5985SOL    HW129588   1.857   1.387   6.936 -2.4211  1.6641  2.8718
 5985SOL    HW229589   1.816   1.267   6.882 -1.9267 -1.3264 -1.8896
 5986SOL     OW29590   4.054   3.077   4.111 -0.2950  0.0316 -0.0589
 5986SOL    HW129591   4.026   3.166   4.089 -3.1184 -0.5357  1.2716
 5986SOL    HW229592   4.027   3.021   4.038  0.9245 -1.3948  0.5813
 5987SOL     OW29593   3.369   4.023   7.513  0.2242  0.1039 -0.0491
 5987SOL    HW129594   3.287   3.999   7.556  0.2544  0.2405  0.0867
 5987SOL    HW229595   3.363   4.116   7.533 -0.1090  0.2452 -0.7975
 5988SOL     OW29596   2.889   3.618  14.482 -0.5306  0.2863  0.4530
 5988SOL    HW129597   2.820   3.592  14.421 -1.1810  1.3903  0.7126
 5988SOL    HW229598   2.857   3.691  14.535 -1.3510  1.7162 -1.9650
 5989SOL     OW29599   1.890   0.942   2.594 -0.0195  0.3869  0.4173
 5989SOL    HW129600   1.916   0.878   2.528 -2.1776 -0.5729  0.4816
 5989SOL    HW229601   1.973   0.983   2.616 -1.5123  2.5229  2.0826
 5990SOL     OW29602   0.017   1.162   2.018 -0.0001 -0.4987 -0.1051
 5990SOL    HW129603   0.015   1.237   2.077 -0.3369 -1.3700  0.9942
 5990SOL    HW229604   4.664   1.168   1.986 -0.0130  0.8872  0.1809
 5991SOL     OW29605   3.713   2.517   9.775 -0.5361  0.4029  0.4124
 5991SOL    HW129606   3.805   2.505   9.798 -0.8103  0.2246  1.4103
 5991SOL    HW229607   3.679   2.574   9.844 -0.6241  0.0681  0.6458
 5992SOL     OW29608   4.102   1.102   5.922 -0.2075 -0.0072 -0.3692
 5992SOL    HW129609   4.022   1.051   5.936  0.1598 -0.2699  0.8070
 5992SOL    HW229610   4.128   1.046   5.850 -1.0724 -2.4308  1.2236
 5993SOL     OW29611   4.431   2.959   5.676  1.1199 -0.3972 -0.9034
 5993SOL    HW129612   4.439   2.899   5.750 -1.2079  2.6852  1.8308
 5993SOL    HW229613   4.367   2.914   5.620  2.5758 -1.9113 -1.3293
 5994SOL     OW29614   4.532   2.729   2.800 -0.1090  0.0078  0.5403
 5994SOL    HW129615   4.517   2.732   2.895 -3.2385 -0.1785  0.0229
 5994SOL    HW229616   4.486   2.647   2.785  2.1163 -0.7774 -2.0559
 5995SOL     OW29617   2.307   1.640   1.308 -0.2513  0.4602 -0.0237
 5995SOL    HW129618   2.302   1.701   1.233 -0.3723  1.4869  0.8176
 5995SOL    HW229619   2.393   1.665   1.341  0.5371 -1.2517 -0.7711
 5996SOL     OW29620   1.159   1.580  15.533  0.1897  0.1206 -0.1478
 5996SOL    HW129621   1.081   1.525  15.524 -0.7423  1.3641  0.4340
 5996SOL    HW229622   1.201   1.559  15.450  1.4077 -0.6026  0.6480
 5997SOL     OW29623   2.585   2.363   8.556  0.0961 -0.7347 -0.2093
 5997SOL    HW129624   2.632   2.280   8.550  0.0490 -0.8422  0.8761
 5997SOL    HW229625   2.567   2.380   8.464  0.6684 -1.6141 -0.4841
 5998SOL     OW29626   2.753   1.110  16.672  0.1254 -0.1364 -0.7360
 5998SOL    HW129627   2.830   1.166  16.671  0.0326  0.0711  3.6698
 5998SOL    HW229628   2.762   1.071  16.759 -0.9146 -1.8101 -1.3626
 5999SOL     OW29629   3.378   0.826  12.342  0.1998 -0.0587 -0.1537
 5999SOL    HW129630   3.338   0.775  12.272 -0.0638  0.1552 -0.1565
 5999SOL    HW229631   3.385   0.916  12.312  1.7262 -1.6648 -4.6430
 6000SOL     OW29632   2.790   1.811   2.635 -0.1921  0.8335 -0.0308
 6000SOL    HW129633   2.870   1.764   2.610 -0.8349  0.3280 -1.1436
 6000SOL    HW229634   2.826   1.900   2.633  0.7996  0.4610  0.9315
 6001SOL     OW29635   2.039   1.666   4.703 -0.6066 -0.3593 -0.1856
 6001SOL    HW129636   1.947   1.683   4.682 -0.6204 -1.9548 -1.5191
 6001SOL    HW229637   2.064   1.679   4.611  2.0399 -2.4689  0.2511
 6002SOL     OW29638   0.055   1.303   0.506  0.4612  0.6608 -0.1177
 6002SOL    HW129639   0.087   1.263   0.425 -1.5509  0.8923 -1.0222
 6002SOL    HW229640   4.716   1.355   0.478 -0.0566 -0.4634 -0.8147
 6003SOL     OW29641   2.073   3.969   3.822  0.0513  0.2074 -0.1723
 6003SOL    HW129642   2.076   3.978   3.918 -0.0467  2.2349 -0.3569
 6003SOL    HW229643   1.979   3.950   3.814 -0.2745  2.5285 -1.7030
 6004SOL     OW29644   4.709   2.842   5.309 -0.4674 -0.3324  0.3056
 6004SOL    HW129645   4.667   2.757   5.297 -1.5763  0.4322 -1.3243
 6004SOL    HW229646   0.051   2.810   5.352 -1.2562  1.1868  2.8833
 6005SOL     OW29647   1.804   4.098   6.857 -0.3881  0.0015  0.1089
 6005SOL    HW129648   1.722   4.101   6.808 -0.8459 -1.2577  0.8048
 6005SOL    HW229649   1.837   4.011   6.833 -0.9300  0.0810 -0.9414
 6006SOL     OW29650   3.266   0.886   5.010  0.2962 -0.4656  0.6032
 6006SOL    HW129651   3.249   0.875   5.103  0.5415 -0.3435  0.6618
 6006SOL    HW229652   3.215   0.811   4.978  2.0774 -1.3846 -0.0570
 6007SOL     OW29653   1.095   2.609   1.484  0.0051 -0.2237  0.2042
 6007SOL    HW129654   1.029   2.569   1.427 -0.2355  0.9129 -0.3200
 6007SOL    HW229655   1.129   2.670   1.419 -1.6545  2.0885  1.4848
 6008SOL     OW29656   0.560   3.288   4.132 -0.5483  0.1626  0.2311
 6008SOL    HW129657   0.645   3.324   4.106  0.0469 -0.3405  1.4735
 6008SOL    HW229658   0.535   3.226   4.063  0.6263 -1.2326  1.0481
 6009SOL     OW29659   3.697   2.579   2.984  0.3644 -0.3492 -0.0506
 6009SOL    HW129660   3.708   2.587   2.890 -0.8101 -3.2463 -0.4384
 6009SOL    HW229661   3.689   2.673   3.001 -0.6323 -0.8435  2.2796
 6010SOL     OW29662   4.566   1.774   4.481 -0.1632  0.4389 -0.6296
 6010SOL    HW129663   4.641   1.720   4.453 -1.6522 -2.0324  0.1869
 6010SOL    HW229664   4.511   1.771   4.403  0.1993  0.9921 -0.9041
 6011SOL     OW29665   3.945   2.126   9.545  0.0849 -0.1020  0.1330
 6011SOL    HW129666   4.035   2.094   9.545 -0.0850 -0.5791  3.0641
 6011SOL    HW229667   3.917   2.079   9.466  0.4403  2.3753 -1.4550
 6012SOL     OW29668   2.158   0.210   6.310  0.1974 -0.6354  0.5050
 6012SOL    HW129669   2.087   0.150   6.290  0.7055 -1.4819  1.2180
 6012SOL    HW229670   2.124   0.286   6.263  1.2426  0.7510  1.9763
 6013SOL     OW29671   3.399   0.312   4.487 -0.0059  0.4586 -0.0536
 6013SOL    HW129672   3.377   0.404   4.500 -0.4619  0.3119  0.2616
 6013SOL    HW229673   3.465   0.324   4.420  2.4496  0.4229  2.3809
 6014SOL     OW29674   0.411   2.960   6.125 -0.1967 -0.1950 -0.7580
 6014SOL    HW129675   0.447   2.939   6.211  1.9727 -0.2039 -1.6656
 6014SOL    HW229676   0.342   3.021   6.151  0.4079  0.2230 -0.1189
 6015SOL     OW29677   4.286   0.910   3.031  0.1995  0.9976 -0.1509
 6015SOL    HW129678   4.194   0.923   3.005  0.1314 -0.9170 -0.9025
 6015SOL    HW229679   4.328   0.992   3.006  2.2368 -0.5566 -1.8544
 6016SOL     OW29680   3.326   1.667   5.007  0.6100  0.4248  0.5767
 6016SOL    HW129681   3.386   1.741   4.999  0.3044  0.4186 -1.8860
 6016SOL    HW229682   3.391   1.613   5.052  0.9332 -0.1006 -0.5169
 6017SOL     OW29683   2.175   0.978   7.986 -0.6857 -0.7606 -0.0356
 6017SOL    HW129684   2.189   1.024   8.068 -0.4663  2.3058 -1.7801
 6017SOL    HW229685   2.265   0.977   7.951 -0.5823  0.5615  0.2102
 6018SOL     OW29686   3.974   3.033  15.944  0.1427 -0.4374 -0.1955
 6018SOL    HW129687   3.979   2.968  16.013  0.3480  0.2904  0.4783
 6018SOL    HW229688   3.952   3.110  15.997 -2.1394  0.0803 -1.8703
 6019SOL     OW29689   2.068   0.720  15.366 -0.1287 -0.1056  0.2644
 6019SOL    HW129690   2.040   0.810  15.349  0.0575  0.0637  0.8469
 6019SOL    HW229691   2.132   0.727  15.437  0.6282  0.6550 -0.4763
 6020SOL     OW29692   3.938   3.321   7.093 -0.1260  0.0165 -0.7336
 6020SOL    HW129693   3.887   3.388   7.138  0.0319 -0.3680  0.0108
 6020SOL    HW229694   4.026   3.357   7.104 -0.5182  0.4671  0.9585
 6021SOL     OW29695   1.995   1.621  17.505 -0.5129  0.4589  0.7024
 6021SOL    HW129696   1.989   1.599  17.598 -0.2057  0.1694  0.6548
 6021SOL    HW229697   2.073   1.570  17.479 -0.3385  0.5610  1.0270
 6022SOL     OW29698   2.986   0.734   1.648 -0.4417  0.0586  0.3449
 6022SOL    HW129699   3.031   0.756   1.566  0.4135  0.7766  1.0087
 6022SOL    HW229700   3.011   0.813   1.696 -0.4944  1.5703 -2.1314
 6023SOL     OW29701   1.555   0.631   7.118  0.6720 -0.3432 -0.0353
 6023SOL    HW129702   1.565   0.698   7.185  0.2066 -0.0903 -0.2213
 6023SOL    HW229703   1.598   0.667   7.041 -0.2370 -2.8183 -1.7036
 6024SOL     OW29704   3.641   4.385   1.101 -0.2277 -0.1678  0.2902
 6024SOL    HW129705   3.590   4.390   1.182 -1.7965 -1.3314 -0.6214
 6024SOL    HW229706   3.707   4.323   1.129 -0.5101  0.0102  1.3516
 6025SOL     OW29707   3.648   4.409   9.481  0.2659 -0.4868 -0.4123
 6025SOL    HW129708   3.742   4.393   9.474  0.4285 -0.0327  0.9130
 6025SOL    HW229709   3.647   4.503   9.465 -1.3151 -0.2967  0.8241
 6026SOL     OW29710   0.429   2.952   1.106  0.5614  0.5327  0.0664
 6026SOL    HW129711   0.441   3.007   1.183  0.9337  0.9667 -0.2999
 6026SOL    HW229712   0.463   3.010   1.037 -1.3486  1.9748  0.3421
 6027SOL     OW29713   1.312   4.041   6.628  0.4301 -0.6698 -0.5843
 6027SOL    HW129714   1.309   4.097   6.705  1.8085  0.2944 -1.2539
 6027SOL    HW229715   1.326   4.108   6.562  1.3103 -0.5587 -0.2866
 6028SOL     OW29716   1.865   2.327   6.873 -0.2980  0.3595  0.3895
 6028SOL    HW129717   1.955   2.356   6.891 -0.3237  1.1785 -0.7721
 6028SOL    HW229718   1.824   2.409   6.900 -2.3895 -0.7667  0.6109
 6029SOL     OW29719   0.253   1.361   3.205  0.4419 -0.5975  0.2854
 6029SOL    HW129720   0.346   1.369   3.183  0.2734  1.0081  0.1435
 6029SOL    HW229721   0.229   1.276   3.169  1.5736 -0.2892 -1.1958
 6030SOL     OW29722   3.590   3.251   3.911  0.0048  0.5223  0.2939
 6030SOL    HW129723   3.577   3.209   3.996 -0.4104 -0.1456 -0.1053
 6030SOL    HW229724   3.673   3.206   3.895 -0.6770 -0.6514  0.0658
 6031SOL     OW29725   2.117   2.037   3.779  0.5350 -0.3860  0.1354
 6031SOL    HW129726   2.128   2.025   3.873  2.5303  1.7382  0.1847
 6031SOL    HW229727   2.054   2.109   3.787 -0.0365 -0.7822 -0.8215
 6032SOL     OW29728   1.748   1.487   7.547  0.1039 -0.0406  0.1842
 6032SOL    HW129729   1.764   1.406   7.596 -0.4127 -0.3700 -0.1914
 6032SOL    HW229730   1.690   1.533   7.608  0.8333  1.7837 -0.4865
 6033SOL     OW29731   3.404   4.472   2.270 -0.0737  0.9920 -0.4635
 6033SOL    HW129732   3.336   4.532   2.299  2.0542  2.1258  2.1141
 6033SOL    HW229733   3.444   4.464   2.356  0.7383 -3.1029 -1.2249
 6034SOL     OW29734   1.359   0.582  13.401  0.3287 -0.1109 -0.3946
 6034SOL    HW129735   1.443   0.624  13.417  0.3190  0.1109 -0.9527
 6034SOL    HW229736   1.316   0.641  13.339 -0.5937 -1.1751 -0.7635
 6035SOL     OW29737   3.681   1.947   7.990 -0.0175 -0.0524  0.5381
 6035SOL    HW129738   3.600   1.953   8.041 -0.3184  1.6910 -0.1676
 6035SOL    HW229739   3.747   1.977   8.052  1.2200  1.2337 -1.3945
 6036SOL     OW29740   4.602   1.731   3.658 -0.5205 -0.4463  0.2510
 6036SOL    HW129741   4.577   1.704   3.570  0.0963 -2.6964  0.7775
 6036SOL    HW229742   4.694   1.742   3.632 -1.1446  1.1416 -1.2168
 6037SOL     OW29743   1.552   1.059   7.597 -0.0263 -0.3483  0.2603
 6037SOL    HW129744   1.601   1.034   7.519 -0.0147  0.3596  0.0491
 6037SOL    HW229745   1.551   1.154   7.594 -0.5563 -0.3325  0.8346
 6038SOL     OW29746   2.109   3.934   3.105 -0.0951 -0.1400 -0.6903
 6038SOL    HW129747   2.043   4.001   3.127 -0.9671 -1.2996  0.2090
 6038SOL    HW229748   2.111   3.953   3.011 -2.1335  0.8908 -0.5350
 6039SOL     OW29749   0.654   4.736   9.042 -0.5588 -0.5071  0.0778
 6039SOL    HW129750   0.702   0.033   9.117 -1.4312 -1.3720  1.0298
 6039SOL    HW229751   0.613   0.079   9.010  0.4733 -0.2921 -0.7024
 6040SOL     OW29752   2.639   0.264   4.910 -0.8744  0.1497 -0.8800
 6040SOL    HW129753   2.597   0.222   4.985  0.1547  1.3551  0.3613
 6040SOL    HW229754   2.674   0.345   4.947  0.9758 -0.7842 -0.6194
 6041SOL     OW29755   3.253   3.985  10.516  0.1452 -0.2852 -0.6274
 6041SOL    HW129756   3.277   3.990  10.609 -0.5042 -1.1760 -0.4143
 6041SOL    HW229757   3.163   4.010  10.533  1.3292  2.6089  1.4318
 6042SOL     OW29758   2.277   0.396   7.255 -0.0666 -0.2620  0.1068
 6042SOL    HW129759   2.190   0.434   7.238 -0.4455  0.2314  3.1585
 6042SOL    HW229760   2.325   0.463   7.206 -0.2950 -1.0565 -1.1888
 6043SOL     OW29761   2.708   0.320   8.587  0.6706  0.3194 -0.3078
 6043SOL    HW129762   2.612   0.325   8.592  0.5091  0.6644 -3.7651
 6043SOL    HW229763   2.712   0.286   8.497  1.3658 -1.6572  0.4641
 6044SOL     OW29764   2.309   0.588   8.369 -0.1829 -0.1008 -0.1284
 6044SOL    HW129765   2.265   0.641   8.436 -2.6383  2.0517 -3.4696
 6044SOL    HW229766   2.295   0.647   8.295 -0.3629 -0.0961 -0.0916
 6045SOL     OW29767   2.830   2.675  16.283  0.1500  0.5475  0.0156
 6045SOL    HW129768   2.820   2.769  16.297  1.6644  0.5670  0.9159
 6045SOL    HW229769   2.836   2.680  16.188  1.2299 -0.1839  0.0545
 6046SOL     OW29770   4.597   2.575   2.455  0.1273  0.0257 -0.1371
 6046SOL    HW129771   4.656   2.633   2.503  2.1393 -0.7469 -1.7023
 6046SOL    HW229772   4.617   2.490   2.494  0.0754  0.0749 -0.0031
 6047SOL     OW29773   4.338   1.208  11.709 -0.4438  0.8733  0.4975
 6047SOL    HW129774   4.353   1.233  11.618 -0.3345 -0.6436  0.1009
 6047SOL    HW229775   4.394   1.277  11.745  1.5784 -0.8167  0.5912
 6048SOL     OW29776   0.287   3.534   2.606  0.0120 -0.1066  0.5109
 6048SOL    HW129777   0.219   3.588   2.565  0.1940 -0.2055  0.0760
 6048SOL    HW229778   0.253   3.525   2.695 -1.0355  1.9660  0.3113
 6049SOL     OW29779   1.448   4.424   7.308  0.1417  0.2119  0.1781
 6049SOL    HW129780   1.432   4.488   7.378 -0.7333 -0.7248  0.8283
 6049SOL    HW229781   1.360   4.388   7.314  1.0490 -1.9991  0.1337
 6050SOL     OW29782   0.178   0.884   8.972 -0.9201  0.1838 -0.3544
 6050SOL    HW129783   0.108   0.947   8.988 -2.5260 -1.8749  0.6930
 6050SOL    HW229784   0.254   0.926   9.012 -0.4448 -1.1445  0.1093
 6051SOL     OW29785   2.112   2.299   9.088 -0.1587 -0.5078  0.2091
 6051SOL    HW129786   2.207   2.312   9.088 -0.4880  1.9984  1.2015
 6051SOL    HW229787   2.095   2.308   8.995  2.2734 -2.6453 -0.4285
 6052SOL     OW29788   4.413   1.593  13.336  0.0618 -0.2455  0.5017
 6052SOL    HW129789   4.323   1.563  13.332 -1.0466  2.9218  2.0401
 6052SOL    HW229790   4.428   1.585  13.430 -1.7958  0.4261  0.8457
 6053SOL     OW29791   1.457   4.528  10.085 -0.0410  0.6351 -0.2533
 6053SOL    HW129792   1.542   4.485  10.088 -0.2476  0.2504  0.1264
 6053SOL    HW229793   1.465   4.598  10.149 -1.1747  0.8632 -0.3494
 6054SOL     OW29794   2.545   3.394   7.302 -0.3617  0.7075 -0.1687
 6054SOL    HW129795   2.559   3.299   7.312  0.8963  0.5383 -3.5366
 6054SOL    HW229796   2.587   3.413   7.218 -0.2696 -2.1969 -0.7791
 6055SOL     OW29797   1.103   3.546   3.221 -1.1069 -0.4386 -0.1039
 6055SOL    HW129798   1.125   3.562   3.313 -2.7736 -2.1312  0.5840
 6055SOL    HW229799   1.150   3.463   3.211  1.6133  0.8719  1.7115
 6056SOL     OW29800   1.989   0.801   5.268 -0.2824  0.5411 -0.6930
 6056SOL    HW129801   2.015   0.812   5.176  3.9539  0.1098  0.4548
 6056SOL    HW229802   2.014   0.890   5.295  0.3191  0.2725 -0.3542
 6057SOL     OW29803   4.013   4.033  12.807 -0.1277 -0.3396 -0.6565
 6057SOL    HW129804   4.106   4.042  12.831 -0.1739  0.9276 -0.9474
 6057SOL    HW229805   3.978   4.030  12.896 -1.0273 -1.7559 -1.0620
 6058SOL     OW29806   0.450   0.011   6.812 -0.1816 -0.8261 -0.6119
 6058SOL    HW129807   0.376   0.007   6.873  1.3205  0.5653  1.3325
 6058SOL    HW229808   0.412   4.736   6.726 -0.3021  1.7269 -0.9256
 6059SOL     OW29809   3.610   3.337   5.167  0.1818  0.4011  0.1312
 6059SOL    HW129810   3.648   3.413   5.211  0.4925 -0.9250  2.1593
 6059SOL    HW229811   3.573   3.286   5.239  2.3827  2.0703  2.4326
 6060SOL     OW29812   4.607   0.340   7.065  0.3511  0.0647 -0.0578
 6060SOL    HW129813   4.669   0.330   7.138  0.0703  1.9454  0.4477
 6060SOL    HW229814   4.637   0.415   7.014  2.8797 -0.6056  0.4256
 6061SOL     OW29815   0.144   4.370  13.279  0.6199  0.6110  0.2597
 6061SOL    HW129816   0.119   4.288  13.238  1.3466  0.2257  0.5817
 6061SOL    HW229817   0.210   4.400  13.217  1.5454 -0.3020  0.8022
 6062SOL     OW29818   3.784   2.480  10.970 -0.4740 -0.2273 -0.7225
 6062SOL    HW129819   3.854   2.459  11.032 -0.9776  0.3634  0.0541
 6062SOL    HW229820   3.815   2.435  10.892  0.4874 -0.9572  0.0827
 6063SOL     OW29821   0.602   4.527   0.390 -0.0082  0.3641 -0.2122
 6063SOL    HW129822   0.684   4.489   0.360 -0.2701 -0.3909  0.0140
 6063SOL    HW229823   0.616   4.611   0.347  0.6292 -0.8291 -2.3631
 6064SOL     OW29824   2.665   1.019   9.291 -0.9922  0.9775 -0.3194
 6064SOL    HW129825   2.715   1.084   9.242 -1.1652  1.5484  0.2623
 6064SOL    HW229826   2.650   1.053   9.379  1.8194  0.7491  0.2244
 6065SOL     OW29827   4.169   0.138   9.258  0.0847  0.3811 -0.4374
 6065SOL    HW129828   4.102   0.206   9.254  0.9349  1.1969 -0.9374
 6065SOL    HW229829   4.120   0.063   9.226  0.5003 -0.6336  1.3322
 6066SOL     OW29830   3.142   0.067   9.300  0.0840 -0.1379 -0.6550
 6066SOL    HW129831   3.196   0.141   9.272  0.4445 -0.2835 -0.3327
 6066SOL    HW229832   3.201   0.030   9.365 -0.3064  0.4204  0.0162
 6067SOL     OW29833   0.934   2.159  11.015  0.4860  0.5108 -0.2442
 6067SOL    HW129834   1.009   2.102  10.999  0.2662  0.7112 -1.9460
 6067SOL    HW229835   0.944   2.221  10.942  0.2637 -0.3982 -1.0417
 6068SOL     OW29836   4.311   4.428   7.210  0.3090  0.3680 -0.5071
 6068SOL    HW129837   4.257   4.362   7.167 -1.4248  1.2320  0.3722
 6068SOL    HW229838   4.352   4.372   7.276  0.4067 -0.6227 -1.4042
 6069SOL     OW29839   0.920   1.298   3.480  0.2151 -0.1713  0.4218
 6069SOL    HW129840   0.915   1.311   3.574 -0.3284  0.1401  0.3475
 6069SOL    HW229841   0.882   1.381   3.451  1.0762 -0.2778 -1.0070
 6070SOL     OW29842   4.293   1.160   7.027  0.0040  0.6362 -0.0310
 6070SOL    HW129843   4.253   1.119   7.104  0.3466  0.5640  0.1084
 6070SOL    HW229844   4.311   1.087   6.968 -0.5014 -0.0732  0.6896
 6071SOL     OW29845   2.440   4.298   6.161  0.1070 -0.0060  0.1275
 6071SOL    HW129846   2.377   4.277   6.230  0.1209 -1.5912 -0.3406
 6071SOL    HW229847   2.441   4.393   6.166  0.1948 -0.0127  0.2477
 6072SOL     OW29848   0.957   4.400   6.234  0.5334  0.1909 -0.4336
 6072SOL    HW129849   0.918   4.332   6.288  1.7935 -0.8687 -0.8551
 6072SOL    HW229850   1.025   4.344   6.195 -0.4708  0.5096 -2.6087
 6073SOL     OW29851   4.355   0.786   4.248 -0.0315 -0.8229 -0.1244
 6073SOL    HW129852   4.264   0.760   4.238 -0.1093  0.1386 -1.9618
 6073SOL    HW229853   4.331   0.877   4.227  0.4931 -0.1432  2.1557
 6074SOL     OW29854   3.897   4.476   5.708 -0.0536  0.3365  0.1212
 6074SOL    HW129855   3.965   4.543   5.702  0.1572  0.1873  0.8945
 6074SOL    HW229856   3.910   4.463   5.802  0.0577  0.3556  0.1084
 6075SOL     OW29857   1.168   0.554   8.553  0.5354  0.2496 -0.1077
 6075SOL    HW129858   1.253   0.558   8.597  0.3206  0.8910  0.2412
 6075SOL    HW229859   1.144   0.645   8.535  2.7191  1.1577  1.5923
 6076SOL     OW29860   3.515   2.236   2.116 -0.7687 -0.2475 -0.3082
 6076SOL    HW129861   3.424   2.249   2.142 -0.3559 -1.7862  1.8309
 6076SOL    HW229862   3.556   2.240   2.203  0.0908  0.3484 -0.7294
 6077SOL     OW29863   2.053   0.210   2.437 -0.3128  0.4467  0.4450
 6077SOL    HW129864   2.009   0.208   2.352  0.2930  1.0433  0.1090
 6077SOL    HW229865   2.092   0.124   2.426 -0.4242  0.5442 -0.7066
 6078SOL     OW29866   0.588   3.712   2.444  0.4774  0.1367 -0.2402
 6078SOL    HW129867   0.634   3.636   2.480 -1.2151 -1.1846 -0.8375
 6078SOL    HW229868   0.648   3.778   2.478 -1.4946  1.2648  1.0434
 6079SOL     OW29869   1.238   3.495   5.983  0.1145  0.3970 -0.1471
 6079SOL    HW129870   1.234   3.423   5.921 -2.0742 -1.4692  2.1979
 6079SOL    HW229871   1.188   3.465   6.058  0.8106  1.3229  0.6823
 6080SOL     OW29872   1.533   3.010  12.344 -0.2589 -0.0571 -0.2127
 6080SOL    HW129873   1.622   3.044  12.339 -0.7765  1.0642 -1.7690
 6080SOL    HW229874   1.473   3.077  12.312  0.8985  1.1233  0.0990
 6081SOL     OW29875   2.585   1.473  17.097  0.9418  0.1248 -0.1515
 6081SOL    HW129876   2.542   1.409  17.041  2.0200 -0.0714 -0.7572
 6081SOL    HW229877   2.644   1.522  17.040  2.5696 -1.9866 -0.2662
 6082SOL     OW29878   1.021   4.336   4.812  0.9011  0.1006 -0.1307
 6082SOL    HW129879   1.043   4.330   4.719  1.5209  0.5078 -0.0125
 6082SOL    HW229880   0.977   4.420   4.825  0.0636 -0.2517 -0.7200
 6083SOL     OW29881   0.135   1.845  13.660 -0.0315  0.5332  0.6037
 6083SOL    HW129882   0.185   1.927  13.664  0.8524  0.1014 -1.9014
 6083SOL    HW229883   0.164   1.810  13.576  2.6964 -0.5165  1.9919
 6084SOL     OW29884   0.735   4.586   7.216  0.2269 -0.0851 -0.2034
 6084SOL    HW129885   0.653   4.615   7.257  1.0294 -1.7155  2.5835
 6084SOL    HW229886   0.704   4.603   7.127  2.3323  0.5469 -0.8078
 6085SOL     OW29887   1.408   0.841   7.344  0.5780  0.2783  0.3345
 6085SOL    HW129888   1.359   0.921   7.360 -0.8067 -0.6190  0.6060
 6085SOL    HW229889   1.356   0.807   7.271  1.1629  0.0630  0.0201
 6086SOL     OW29890   3.474   0.284   7.468 -0.0831 -0.2981 -0.6993
 6086SOL    HW129891   3.422   0.206   7.451  0.1285 -0.1818 -1.8725
 6086SOL    HW229892   3.410   0.343   7.508  1.0082 -0.3840  1.1536
 6087SOL     OW29893   3.537   3.341   3.462  0.1598 -0.0918  0.0261
 6087SOL    HW129894   3.536   3.429   3.425  0.6074  0.6140  1.6869
 6087SOL    HW229895   3.626   3.337   3.497  1.1965  1.2801 -2.5307
 6088SOL     OW29896   1.085   3.689   0.396  0.0471  0.1730  0.1061
 6088SOL    HW129897   1.130   3.655   0.474 -2.0133 -2.5101  0.1066
 6088SOL    HW229898   0.995   3.707   0.422  0.3177  0.0857  1.1140
 6089SOL     OW29899   4.596   2.416   7.579 -0.1930 -0.0408  0.8191
 6089SOL    HW129900   4.535   2.412   7.652 -0.9207  3.4019  0.4036
 6089SOL    HW229901   4.673   2.453   7.622 -2.5712  1.5179  3.7089
 6090SOL     OW29902   1.414   2.564   1.848  0.0257 -0.1703  0.2491
 6090SOL    HW129903   1.375   2.508   1.781  0.4796 -1.3191  0.9396
 6090SOL    HW229904   1.366   2.646   1.838  1.0172  0.4698  0.7221
 6091SOL     OW29905   3.099   1.944   7.393  0.4025 -0.5927 -0.3027
 6091SOL    HW129906   3.051   1.976   7.469  1.2221  1.5146 -0.6711
 6091SOL    HW229907   3.148   2.021   7.366 -1.7737  1.0151  0.3544
 6092SOL     OW29908   0.215   1.671  13.454  0.3569  0.4513 -0.6517
 6092SOL    HW129909   0.245   1.633  13.536 -0.7154  0.5160 -0.2184
 6092SOL    HW229910   0.121   1.651  13.451 -0.0384  1.9461  1.8310
 6093SOL     OW29911   1.393   0.876   3.705  0.1193 -0.5451  0.4679
 6093SOL    HW129912   1.458   0.878   3.635  0.0974  2.4808  0.5210
 6093SOL    HW229913   1.331   0.941   3.673 -1.2908 -1.4671  1.3506
 6094SOL     OW29914   0.293   1.826  13.035  0.0721 -0.5066  0.5949
 6094SOL    HW129915   0.341   1.854  13.113 -0.8104  0.7633  0.6792
 6094SOL    HW229916   0.205   1.834  13.070 -0.4330 -0.4706 -0.6901
 6095SOL     OW29917   0.476   4.281   9.933  0.0511 -0.2780  0.1044
 6095SOL    HW129918   0.502   4.337  10.006 -0.4535 -0.8668  0.7315
 6095SOL    HW229919   0.418   4.219   9.976 -0.2944  0.0243  0.0717
 6096SOL     OW29920   0.826   2.910   8.754 -0.4966  0.2471  0.3101
 6096SOL    HW129921   0.843   2.854   8.679  1.7575 -0.1450  1.0913
 6096SOL    HW229922   0.731   2.912   8.766 -0.4517 -0.2108  0.7418
 6097SOL     OW29923   2.677   0.599   7.235  0.4151 -0.3617  0.7025
 6097SOL    HW129924   2.632   0.515   7.221  1.5661 -0.5347 -2.0127
 6097SOL    HW229925   2.736   0.579   7.307  3.0023  1.2348 -0.9724
 6098SOL     OW29926   1.385   0.237  14.912  0.2036  0.7050 -0.0836
 6098SOL    HW129927   1.340   0.241  14.827 -0.1747  1.6831  0.1611
 6098SOL    HW229928   1.463   0.190  14.882  0.3871  1.4999 -0.8613
 6099SOL     OW29929   1.521   2.323   1.047  0.2473 -0.1287  0.2079
 6099SOL    HW129930   1.525   2.413   1.015  0.5036 -0.1847  0.0759
 6099SOL    HW229931   1.430   2.320   1.076  0.2227  1.0561  0.2532
 6100SOL     OW29932   0.749   2.988   6.254  0.1431  0.1618  0.8437
 6100SOL    HW129933   0.726   2.962   6.164  0.6378  0.6759  0.5630
 6100SOL    HW229934   0.705   3.073   6.254  4.0882  2.1783  1.9661
 6101SOL     OW29935   0.927   3.362   9.594  0.0334  0.0519  0.1821
 6101SOL    HW129936   0.978   3.281   9.591 -0.4039 -0.1984 -0.5561
 6101SOL    HW229937   0.951   3.398   9.680  1.4789 -2.4370  0.7974
 6102SOL     OW29938   1.929   3.404   4.030  0.1246  0.0332  0.2110
 6102SOL    HW129939   1.972   3.443   4.106 -1.9565  0.6745  1.0617
 6102SOL    HW229940   1.872   3.343   4.075 -1.7588  0.6970 -1.2803
 6103SOL     OW29941   1.696   1.645   9.225  0.1019  0.0887 -0.6732
 6103SOL    HW129942   1.699   1.725   9.173  1.2025  0.5597  0.1139
 6103SOL    HW229943   1.784   1.615   9.205 -0.6685 -2.4714 -0.2342
 6104SOL     OW29944   0.863   3.555  16.054 -0.1369 -0.2654  0.3741
 6104SOL    HW129945   0.942   3.505  16.077  0.9188  1.0029 -0.4849
 6104SOL    HW229946   0.867   3.625  16.118 -0.1156  0.5177 -0.4829
 6105SOL     OW29947   0.128   1.751   3.565  0.2818 -0.4798  0.8655
 6105SOL    HW129948   0.189   1.678   3.554 -2.4189 -2.6415  0.2195
 6105SOL    HW229949   0.104   1.771   3.475  0.6438  0.3241  0.9492
 6106SOL     OW29950   2.496   3.824   3.489 -0.3498  0.2578  0.0642
 6106SOL    HW129951   2.568   3.763   3.478 -1.7362 -1.3513  0.0094
 6106SOL    HW229952   2.416   3.776   3.469 -1.6156  2.0277  0.8083
 6107SOL     OW29953   3.016   1.284   2.878  0.2343 -0.3900  0.5064
 6107SOL    HW129954   3.102   1.324   2.885 -0.7039  1.9074 -1.4602
 6107SOL    HW229955   2.980   1.352   2.821  2.4117 -0.2339 -0.6414
 6108SOL     OW29956   2.040   3.340   6.156  0.3751  0.8485 -0.1709
 6108SOL    HW129957   1.969   3.360   6.095 -0.8343 -0.2402  0.8958
 6108SOL    HW229958   1.989   3.279   6.209 -0.8393  2.3116  0.3324
 6109SOL     OW29959   2.107   3.284  16.267  0.6061 -0.2436 -0.2899
 6109SOL    HW129960   2.062   3.361  16.230 -0.7017 -0.9904 -0.2491
 6109SOL    HW229961   2.182   3.277  16.208 -0.5767 -2.2534 -1.5358
 6110SOL     OW29962   1.803   4.732   5.457 -0.0533  0.0545  0.1706
 6110SOL    HW129963   1.773   0.034   5.540  0.8822 -1.7930  1.3752
 6110SOL    HW229964   1.865   0.066   5.441  0.1866 -0.2672 -0.2991
 6111SOL     OW29965   0.871   2.898   5.241  0.2968  0.1007  0.6742
 6111SOL    HW129966   0.904   2.825   5.189  0.7513  0.7709  0.0016
 6111SOL    HW229967   0.904   2.880   5.329  2.7747  0.1846 -0.2350
 6112SOL     OW29968   0.525   4.540  16.114 -0.5156  0.3673 -0.2827
 6112SOL    HW129969   0.583   4.589  16.173 -1.1199  0.6023  0.1178
 6112SOL    HW229970   0.587   4.471  16.089  1.4592  2.2080 -0.4841
 6113SOL     OW29971   4.226   4.685   9.524 -0.7813  0.1777 -0.2295
 6113SOL    HW129972   4.234   4.654   9.614  1.1800  0.6158 -0.2619
 6113SOL    HW229973   4.135   4.710   9.506 -1.0673 -2.4339 -2.4190
 6114SOL     OW29974   1.477   1.437   2.390  0.6094 -0.9681 -0.3175
 6114SOL    HW129975   1.527   1.406   2.315  1.0402  0.5302 -0.6567
 6114SOL    HW229976   1.444   1.355   2.426 -1.2783  0.1463  0.5211
 6115SOL     OW29977   3.742   4.671  11.222 -0.0106 -0.0746 -0.2451
 6115SOL    HW129978   3.761   4.731  11.294 -0.9559  0.5097 -0.4871
 6115SOL    HW229979   3.694   4.734  11.169 -1.7929 -1.0206  0.2635
 6116SOL     OW29980   1.088   1.297   6.210 -0.0323 -0.1248  0.1516
 6116SOL    HW129981   1.168   1.336   6.245 -0.1812 -0.4497  0.8597
 6116SOL    HW229982   1.119   1.208   6.230  1.8631  0.5365  0.1715
 6117SOL     OW29983   2.755   3.061   4.814  0.1674 -0.0503  0.2274
 6117SOL    HW129984   2.695   2.993   4.847 -0.1881  0.2042  0.1029
 6117SOL    HW229985   2.707   3.109   4.746  0.1884  1.2941  1.1789
 6118SOL     OW29986   2.514   1.070   4.015 -0.2017  0.2451 -0.2174
 6118SOL    HW129987   2.435   1.018   4.004 -0.9842  1.2535  0.6210
 6118SOL    HW229988   2.507   1.109   4.103  1.3037 -0.0525  0.0439
 6119SOL     OW29989   2.093   4.121  10.424  0.1870  0.6701  0.3030
 6119SOL    HW129990   2.067   4.095  10.513  1.3004  0.3747  0.5481
 6119SOL    HW229991   2.015   4.169  10.396  0.3607 -0.7298 -2.5573
 6120SOL     OW29992   2.117   2.726   5.516  0.2408  1.0095 -0.1976
 6120SOL    HW129993   2.117   2.713   5.611  2.7877  0.3430 -0.2708
 6120SOL    HW229994   2.135   2.640   5.478  2.0251  0.1634  2.5220
 6121SOL     OW29995   1.387   2.638  12.527  0.1285 -0.0113  0.2220
 6121SOL    HW129996   1.389   2.733  12.540  0.9984  0.3785 -2.6613
 6121SOL    HW229997   1.480   2.615  12.517  0.6452  1.6957  1.0557
 6122SOL     OW29998   2.642   2.611   8.065 -0.1053 -0.1767 -0.2244
 6122SOL    HW129999   2.581   2.604   7.992  0.0244 -2.0940 -0.1350
 6122SOL    HW230000   2.649   2.705   8.081 -3.6057  0.0985 -0.1841
 6123SOL     OW30001   0.276   1.347   6.288  0.1767 -0.3762 -0.6060
 6123SOL    HW130002   0.333   1.337   6.212  1.1621 -3.8851  0.5615
 6123SOL    HW230003   0.249   1.255   6.289 -1.6312  0.1707  1.0178
 6124SOL     OW30004   3.140   4.252   3.519 -0.0992  0.6105  0.8156
 6124SOL    HW130005   3.204   4.182   3.536 -0.9109 -0.0663  1.1025
 6124SOL    HW230006   3.100   4.211   3.442  2.2139 -0.9185  0.4020
 6125SOL     OW30007   1.388   0.124  13.868 -0.4220  0.2664  0.0761
 6125SOL    HW130008   1.479   0.098  13.855 -0.4931 -0.2180  0.5210
 6125SOL    HW230009   1.389   0.216  13.894 -2.5062  0.4706 -0.6320
 6126SOL     OW30010   0.435   0.539   8.671  0.2026  0.1055  0.3863
 6126SOL    HW130011   0.400   0.534   8.760 -0.3060 -0.3824  0.1594
 6126SOL    HW230012   0.457   0.632   8.681  2.2601 -0.4821  1.2055
 6127SOL     OW30013   3.658   4.701   9.448  0.8063 -0.1167  0.0223
 6127SOL    HW130014   3.616   0.047   9.474 -0.5444 -1.5741  2.5058
 6127SOL    HW230015   3.632   4.707   9.356 -2.6128 -1.3248  0.9218
 6128SOL     OW30016   1.346   4.399   7.058 -0.2227  0.2119 -0.2943
 6128SOL    HW130017   1.394   4.419   7.139  0.3970 -4.7721  0.5347
 6128SOL    HW230018   1.371   4.312   7.030 -0.0925  0.1191  0.1071
 6129SOL     OW30019   2.134   0.208  10.635  0.0811  0.0714  0.0300
 6129SOL    HW130020   2.053   0.191  10.587  2.0675 -2.7640 -2.3185
 6129SOL    HW230021   2.193   0.146  10.593  2.4946  2.7923 -0.6092
 6130SOL     OW30022   4.703   2.673  13.040  0.2568 -0.3433 -0.3676
 6130SOL    HW130023   0.031   2.645  12.975  2.0760 -1.1103  1.7561
 6130SOL    HW230024   4.689   2.763  13.012  2.7583 -0.3135 -1.5057
 6131SOL     OW30025   0.295   0.084  11.828 -0.2627  0.4639  0.1370
 6131SOL    HW130026   0.218   0.098  11.884  0.4474 -2.7474  1.8802
 6131SOL    HW230027   0.315   4.729  11.848 -0.7023 -0.0367 -1.7032
 6132SOL     OW30028   0.325   2.131   1.390 -0.1273  0.1308  0.9092
 6132SOL    HW130029   0.338   2.226   1.399  1.2537  0.0039  0.1647
 6132SOL    HW230030   0.294   2.134   1.300 -1.0816 -1.0715  1.1976
 6133SOL     OW30031   1.423   3.497  13.017 -0.3491  0.0345 -0.7192
 6133SOL    HW130032   1.500   3.464  13.063 -0.9792 -0.4409 -0.0064
 6133SOL    HW230033   1.439   3.591  13.027  1.6587 -0.3448 -0.2951
 6134SOL     OW30034   1.976   1.378   8.918 -0.3689 -0.2584  0.1740
 6134SOL    HW130035   1.927   1.335   8.847 -0.7282  2.5813 -1.2813
 6134SOL    HW230036   2.043   1.311   8.935  0.6727  0.3548 -1.5187
 6135SOL     OW30037   1.884   0.335  16.563  0.1218  0.5764 -0.0885
 6135SOL    HW130038   1.850   0.416  16.599  1.1869  1.6553 -1.5315
 6135SOL    HW230039   1.811   0.307  16.507  0.0863  2.2106 -0.8626
 6136SOL     OW30040   0.760   3.028  17.137 -0.4386  0.4941 -0.1528
 6136SOL    HW130041   0.811   2.974  17.076  0.3066  0.1162  0.8118
 6136SOL    HW230042   0.728   3.103  17.086 -1.0628  0.6592  0.4808
 6137SOL     OW30043   4.388   3.765   5.236 -0.0068 -0.0814  0.0887
 6137SOL    HW130044   4.306   3.776   5.284 -0.4447  1.2807 -0.9841
 6137SOL    HW230045   4.391   3.670   5.241 -0.0989  0.0454  2.8171
 6138SOL     OW30046   2.166   2.848  10.010 -0.6558 -0.1318  0.2216
 6138SOL    HW130047   2.114   2.856   9.930  1.1273 -0.4229 -0.9485
 6138SOL    HW230048   2.184   2.942  10.018  0.2942 -0.3565  0.6225
 6139SOL     OW30049   2.997   3.626  13.072  0.3822 -0.1467  0.2042
 6139SOL    HW130050   3.016   3.717  13.049  2.1362 -0.4718  0.3178
 6139SOL    HW230051   3.002   3.582  12.987 -0.6833 -1.1841  0.6832
 6140SOL     OW30052   2.558   1.533   2.617  0.1738 -0.1648  0.9096
 6140SOL    HW130053   2.590   1.558   2.531  1.2977  0.6137  1.5616
 6140SOL    HW230054   2.462   1.535   2.608  0.1592 -3.4886  0.5855
 6141SOL     OW30055   3.307   2.568   8.819  0.3122  0.1041  0.9461
 6141SOL    HW130056   3.381   2.612   8.779 -0.5420  0.8212  0.1591
 6141SOL    HW230057   3.235   2.619   8.782  2.1935  1.4311 -0.8167
 6142SOL     OW30058   3.728   3.411   7.645  0.1481  0.4891  0.4567
 6142SOL    HW130059   3.723   3.394   7.739 -0.5558  0.2150  0.3679
 6142SOL    HW230060   3.650   3.465   7.642 -0.3083 -0.2476 -0.6669
 6143SOL     OW30061   0.480   2.160   7.825  0.1026 -0.2065 -0.6325
 6143SOL    HW130062   0.477   2.120   7.738 -1.1602 -0.6591 -0.3800
 6143SOL    HW230063   0.574   2.172   7.839 -0.1667 -2.6922  3.2427
 6144SOL     OW30064   4.019   4.619   2.866 -0.1724 -0.8737  0.2487
 6144SOL    HW130065   3.999   4.669   2.787 -0.8855 -0.9356  0.3882
 6144SOL    HW230066   4.025   4.534   2.823 -1.1503 -0.1629 -1.2794
 6145SOL     OW30067   1.359   1.479   5.230 -0.5586 -0.1707 -0.4134
 6145SOL    HW130068   1.282   1.503   5.178 -1.1597 -0.5555  0.2935
 6145SOL    HW230069   1.312   1.480   5.313  1.8683 -2.5961  0.9877
 6146SOL     OW30070   0.229   0.365   9.075 -0.2361 -0.4294  0.2467
 6146SOL    HW130071   0.210   0.292   9.016 -0.8390 -0.0633 -0.0184
 6146SOL    HW230072   0.150   0.369   9.129 -0.0561  0.2520  0.4660
 6147SOL     OW30073   3.812   1.639  13.363  0.0944 -0.0075  0.1138
 6147SOL    HW130074   3.804   1.562  13.306  1.5954 -0.7365  0.8678
 6147SOL    HW230075   3.738   1.634  13.422 -0.3540 -1.2039 -0.5361
 6148SOL     OW30076   4.470   4.001   9.213  0.1084 -0.1617  0.2746
 6148SOL    HW130077   4.505   4.075   9.264  0.9492 -0.2657 -0.1512
 6148SOL    HW230078   4.534   3.994   9.142 -0.9769  0.6711 -0.7832
 6149SOL     OW30079   1.555   1.982  15.805 -0.4007 -0.2839  0.4628
 6149SOL    HW130080   1.507   2.034  15.740 -1.3026  0.0918  1.4375
 6149SOL    HW230081   1.643   1.972  15.768  0.0329  1.0929  1.1029
 6150SOL     OW30082   3.873   2.697   5.165 -0.1579  0.3474 -0.6308
 6150SOL    HW130083   3.858   2.786   5.198 -0.3965  0.5077 -1.1751
 6150SOL    HW230084   3.968   2.689   5.158 -0.3156 -2.2463  0.0036
 6151SOL     OW30085   0.356   0.277   9.647  0.2577 -0.1316  0.1083
 6151SOL    HW130086   0.270   0.309   9.620  0.4406 -0.5902 -1.0273
 6151SOL    HW230087   0.352   0.253   9.739  1.8428 -0.1681  0.1742
 6152SOL     OW30088   1.506   4.104   9.723 -0.2653  0.2321  0.2278
 6152SOL    HW130089   1.473   4.071   9.806 -0.0526  0.4145  0.3868
 6152SOL    HW230090   1.598   4.077   9.719  0.0253  1.2361 -0.0673
 6153SOL     OW30091   2.736   3.563   4.711 -0.1661 -0.0878 -0.6462
 6153SOL    HW130092   2.685   3.622   4.768  0.9525  0.5668 -0.3274
 6153SOL    HW230093   2.665   3.533   4.654  1.0127 -0.5467 -1.8461
 6154SOL     OW30094   3.705   2.912  11.732 -0.1575  0.2967  0.0007
 6154SOL    HW130095   3.705   3.007  11.726 -0.3170  0.1313 -2.5085
 6154SOL    HW230096   3.685   2.890  11.641  1.6632  0.2581 -0.3893
 6155SOL     OW30097   0.118   0.891  11.583 -0.4292  0.4926 -0.2516
 6155SOL    HW130098   0.142   0.888  11.676 -0.1660 -0.7619 -0.3608
 6155SOL    HW230099   0.057   0.964  11.577 -0.5188  0.3380 -1.2125
 6156SOL     OW30100   0.731   2.363   7.834  0.1514 -0.1474  0.4567
 6156SOL    HW130101   0.823   2.367   7.807  0.2305 -0.4140  0.6923
 6156SOL    HW230102   0.750   2.336   7.923  0.1671  0.0880  0.5241
 6157SOL     OW30103   4.388   1.043   4.989 -0.5647 -0.3392 -0.1358
 6157SOL    HW130104   4.311   1.063   4.936 -2.3165 -2.7850  1.5017
 6157SOL    HW230105   4.414   0.953   4.971  1.3772 -0.0515  1.1091
 6158SOL     OW30106   0.831   2.511  10.959  0.6972  0.4126  1.1018
 6158SOL    HW130107   0.874   2.436  10.916 -1.1933 -0.5246  0.8455
 6158SOL    HW230108   0.892   2.575  10.921 -0.4997 -0.2459 -1.9880
 6159SOL     OW30109   3.465   0.877  13.711  0.4900 -0.3971  0.0025
 6159SOL    HW130110   3.418   0.794  13.721 -1.1145  0.6286  1.0066
 6159SOL    HW230111   3.399   0.944  13.730  1.3327 -0.1683  2.0609
 6160SOL     OW30112   0.429   0.922   6.931  0.2527 -0.0091  0.4854
 6160SOL    HW130113   0.362   0.933   6.863 -1.6757  3.2468  2.9168
 6160SOL    HW230114   0.379   0.935   7.012 -2.0038 -0.6630 -0.7860
 6161SOL     OW30115   0.709   0.212   3.824 -0.1526  0.2302 -0.2319
 6161SOL    HW130116   0.675   0.253   3.903 -0.8127 -0.8820  0.0683
 6161SOL    HW230117   0.628   0.192   3.776  0.5854  1.3685 -1.9676
 6162SOL     OW30118   3.318   4.616  14.457 -0.2687 -0.4679 -0.0090
 6162SOL    HW130119   3.231   4.613  14.498 -0.2102  1.4100  0.2455
 6162SOL    HW230120   3.370   4.649  14.529  0.5809 -1.6742 -0.0658
 6163SOL     OW30121   3.166   0.316   4.318 -0.0177 -0.5446 -0.2187
 6163SOL    HW130122   3.109   0.273   4.383 -0.4573 -1.4558 -1.2136
 6163SOL    HW230123   3.248   0.311   4.367  0.0421  0.8627 -0.1700
 6164SOL     OW30124   3.095   0.240   1.517 -0.2083 -0.1434 -0.3723
 6164SOL    HW130125   3.183   0.272   1.498 -1.0422  2.3042 -0.1024
 6164SOL    HW230126   3.042   0.299   1.465  0.5970  0.0301 -1.0017
 6165SOL     OW30127   2.174   2.479  15.108 -0.3315  0.4718 -0.0022
 6165SOL    HW130128   2.152   2.515  15.194 -1.1091 -0.0531  0.0237
 6165SOL    HW230129   2.113   2.528  15.053 -0.2342  0.5072 -0.0780
 6166SOL     OW30130   1.251   3.781   6.654 -0.2039 -0.4183  0.6095
 6166SOL    HW130131   1.264   3.868   6.617  1.2747 -0.4936  0.9705
 6166SOL    HW230132   1.246   3.820   6.741  1.5867  0.2796  0.4005
 6167SOL     OW30133   3.691   1.862   3.696  0.2745 -0.3412 -0.1210
 6167SOL    HW130134   3.674   1.775   3.660 -2.5069  0.1002  0.1348
 6167SOL    HW230135   3.605   1.904   3.688  0.9412  1.1600  0.6750
 6168SOL     OW30136   3.130   2.481   8.354 -0.1337 -0.4275 -0.0032
 6168SOL    HW130137   3.134   2.488   8.259 -0.8668 -1.3808 -0.1061
 6168SOL    HW230138   3.048   2.435   8.372  1.0904 -2.5585  0.1403
 6169SOL     OW30139   3.590   4.310  11.927 -0.1563  0.2766 -0.9144
 6169SOL    HW130140   3.558   4.394  11.961 -2.2660  0.2201 -2.7729
 6169SOL    HW230141   3.635   4.268  12.000  0.6178 -0.9708 -2.1330
 6170SOL     OW30142   1.225   3.431   5.084 -0.4784  0.0380  0.0841
 6170SOL    HW130143   1.140   3.450   5.123 -0.1414 -0.6006  1.1168
 6170SOL    HW230144   1.202   3.409   4.993  1.1187 -1.6546  0.0967
 6171SOL     OW30145   1.509   2.453  11.510 -0.1663  0.1104  0.3229
 6171SOL    HW130146   1.467   2.508  11.444 -2.4789  1.9616  3.3119
 6171SOL    HW230147   1.431   2.400  11.528 -0.4439  1.4206  3.0442
 6172SOL     OW30148   3.961   0.616   8.259 -0.4140 -0.3235  0.2946
 6172SOL    HW130149   3.955   0.543   8.196 -2.0347 -0.0717  0.1557
 6172SOL    HW230150   3.867   0.631   8.266 -0.1893  0.9554  0.6270
 6173SOL     OW30151   2.419   0.341   2.643 -0.4295 -0.0064 -1.1597
 6173SOL    HW130152   2.382   0.380   2.723 -1.7312  1.0191 -2.2647
 6173SOL    HW230153   2.485   0.279   2.672 -2.0073 -1.1988 -0.0831
 6174SOL     OW30154   3.591   4.725   3.294 -0.6011  0.4187 -0.2204
 6174SOL    HW130155   3.556   4.636   3.302  0.3830 -0.0456 -1.0301
 6174SOL    HW230156   3.584   0.004   3.200 -0.9376 -1.0683 -0.4368
 6175SOL     OW30157   2.930   3.201   4.419 -0.3403  0.5494  0.2901
 6175SOL    HW130158   3.003   3.179   4.361 -1.7859 -1.1724 -0.8723
 6175SOL    HW230159   2.903   3.116   4.453  0.2638 -0.7413 -2.4439
 6176SOL     OW30160   3.724   1.525   3.847  0.9882 -0.3054 -0.1259
 6176SOL    HW130161   3.710   1.485   3.761  1.3443 -1.8450  0.5388
 6176SOL    HW230162   3.634   1.546   3.873  1.1389 -0.3513  0.4213
 6177SOL     OW30163   0.718   2.548   6.874 -0.1748  0.3636  0.2572
 6177SOL    HW130164   0.650   2.587   6.820 -0.1838  0.1098  0.0889
 6177SOL    HW230165   0.669   2.518   6.950  2.1557 -2.7011  0.5500
 6178SOL     OW30166   4.511   1.572   8.279  0.2136 -0.2264  0.1775
 6178SOL    HW130167   4.449   1.532   8.341 -0.6258  1.1015  0.1939
 6178SOL    HW230168   4.563   1.630   8.334  0.6297  1.1749 -1.7070
 6179SOL     OW30169   2.185   3.619  15.022  0.0184  0.3782 -0.1666
 6179SOL    HW130170   2.134   3.574  14.955 -0.0245  0.7118 -0.3548
 6179SOL    HW230171   2.199   3.710  14.994  0.0304  0.5080  0.2580
 6180SOL     OW30172   1.124   1.262   8.083  0.5380 -0.4694 -0.0689
 6180SOL    HW130173   1.107   1.350   8.118  0.1824 -0.4669 -0.2478
 6180SOL    HW230174   1.220   1.264   8.078  0.5521 -1.7481 -0.1380
 6181SOL     OW30175   1.003   3.909   7.319  0.1096 -0.3717 -0.2723
 6181SOL    HW130176   0.923   3.887   7.271 -0.0158 -0.4831 -0.0119
 6181SOL    HW230177   1.065   3.868   7.258 -0.5241 -1.2532 -0.3223
 6182SOL     OW30178   3.736   2.790   3.580  0.1199  0.2663  0.0849
 6182SOL    HW130179   3.795   2.719   3.555 -0.3902  0.7375 -2.4328
 6182SOL    HW230180   3.664   2.741   3.620  0.1249  1.7294  1.9219
 6183SOL     OW30181   0.040   0.025   8.671  0.0941  0.2960  0.2797
 6183SOL    HW130182   0.052   0.070   8.587 -1.4163  2.3961  1.1619
 6183SOL    HW230183   0.015   4.676   8.639 -0.4363 -0.4086  2.5510
 6184SOL     OW30184   1.570   0.281   7.251 -0.6412 -0.5290 -0.4356
 6184SOL    HW130185   1.530   0.295   7.337  0.3122 -1.3015  0.1416
 6184SOL    HW230186   1.527   0.198   7.234 -0.8432  0.0363 -2.6526
 6185SOL     OW30187   3.857   4.067   4.764  0.1186  0.3466  0.5847
 6185SOL    HW130188   3.809   4.058   4.682  1.1710 -1.7070  0.1837
 6185SOL    HW230189   3.857   4.161   4.782 -1.5550  0.0247  2.2746
 6186SOL     OW30190   2.290   0.204   1.489 -0.2451 -0.5752  0.7048
 6186SOL    HW130191   2.203   0.230   1.457  0.7814 -0.1122 -1.7510
 6186SOL    HW230192   2.331   0.189   1.404 -1.2984 -0.3989  0.1571
 6187SOL     OW30193   0.723   1.060   5.547  0.0091  0.2952  0.3070
 6187SOL    HW130194   0.750   1.088   5.635 -0.7634 -0.5926  0.8306
 6187SOL    HW230195   0.632   1.087   5.537  0.5844  1.0953 -2.5668
 6188SOL     OW30196   0.089   2.982   6.586  0.0755 -0.2195 -0.2580
 6188SOL    HW130197   0.084   2.904   6.530 -1.3325  0.7511 -1.4587
 6188SOL    HW230198   0.090   2.931   6.667 -1.0598 -0.1491 -0.2043
 6189SOL     OW30199   3.770   2.641   9.181 -0.0030  0.0016  0.6282
 6189SOL    HW130200   3.857   2.673   9.204 -0.7461  2.5281 -0.0461
 6189SOL    HW230201   3.774   2.556   9.224  1.7582 -0.5681 -0.6940
 6190SOL     OW30202   3.319   1.170   6.534  0.1585 -0.3032 -0.8795
 6190SOL    HW130203   3.315   1.074   6.530  0.3720 -0.2894 -1.5188
 6190SOL    HW230204   3.400   1.192   6.580 -1.5833  3.0207  0.5945
 6191SOL     OW30205   4.108   0.467   3.643 -0.4753 -0.2573 -0.2622
 6191SOL    HW130206   4.145   0.447   3.730 -0.5633 -0.2335 -0.2194
 6191SOL    HW230207   4.128   0.387   3.595 -1.4526 -1.0564  0.6712
 6192SOL     OW30208   1.771   2.969   7.892  0.0333 -0.0815 -0.4817
 6192SOL    HW130209   1.737   3.001   7.975  0.3874 -0.7069 -0.0908
 6192SOL    HW230210   1.817   2.891   7.924  1.7524  1.7666  1.5699
 6193SOL     OW30211   0.422   1.553   2.288 -0.2829 -0.3244  0.5751
 6193SOL    HW130212   0.505   1.578   2.328 -0.8404 -0.6038  1.8956
 6193SOL    HW230213   0.408   1.632   2.236  0.4690 -0.5657  0.0004
 6194SOL     OW30214   0.240   1.878   3.766  0.4344  0.2328  0.2742
 6194SOL    HW130215   0.275   1.960   3.733  0.3945 -0.2922 -1.0675
 6194SOL    HW230216   0.197   1.843   3.688  1.1194  0.4389 -0.1919
 6195SOL     OW30217   3.362   0.157   8.949  0.0153 -0.7701 -0.1789
 6195SOL    HW130218   3.450   0.193   8.965 -0.6475 -0.7176  3.2641
 6195SOL    HW230219   3.311   0.215   9.005 -0.8810 -2.9080  1.2158
 6196SOL     OW30220   1.521   2.666   6.538  0.5775 -0.4571 -0.1211
 6196SOL    HW130221   1.456   2.736   6.539 -0.9303 -1.9156  2.0552
 6196SOL    HW230222   1.603   2.711   6.558 -1.0026  2.5941 -0.5073
 6197SOL     OW30223   0.567   3.656   7.811 -1.0332 -0.7171 -0.2934
 6197SOL    HW130224   0.660   3.636   7.809 -1.0307 -0.6313 -0.9652
 6197SOL    HW230225   0.557   3.714   7.887  0.1986 -0.5984 -0.2304
 6198SOL     OW30226   4.423   2.214   3.604 -0.8406  0.2616 -0.1854
 6198SOL    HW130227   4.410   2.120   3.590  1.6302 -0.0367 -0.5159
 6198SOL    HW230228   4.390   2.241   3.518  0.5713 -0.8749 -1.0780
 6199SOL     OW30229   3.992   1.853  10.236  0.6997  0.4004 -0.2631
 6199SOL    HW130230   3.926   1.858  10.305  1.6994  1.0539  0.6471
 6199SOL    HW230231   4.046   1.785  10.275 -2.0222 -0.7131  1.5161
 6200SOL     OW30232   2.876   3.148   0.775 -0.0327 -0.0259 -0.0946
 6200SOL    HW130233   2.892   3.235   0.739 -0.9263 -0.9470 -2.7078
 6200SOL    HW230234   2.967   3.141   0.804 -0.1133  0.1118  0.1926
 6201SOL     OW30235   0.388   1.076  10.601 -0.4001  0.4001 -0.3334
 6201SOL    HW130236   0.306   1.086  10.649 -0.3040 -3.1817  0.6105
 6201SOL    HW230237   0.446   1.064  10.677  1.4347  1.4825 -1.5681
 6202SOL     OW30238   3.458   3.612   5.127 -0.2229 -0.2482 -0.5189
 6202SOL    HW130239   3.462   3.706   5.109 -0.6329  0.1881  1.5624
 6202SOL    HW230240   3.504   3.609   5.211 -0.3471  1.4990 -0.3778
 6203SOL     OW30241   2.876   0.590  14.564  0.4435  0.5440  0.0522
 6203SOL    HW130242   2.950   0.649  14.564 -0.3753  1.5761 -1.0389
 6203SOL    HW230243   2.824   0.636  14.630  0.9664  2.0520 -0.5940
 6204SOL     OW30244   1.513   4.286  13.620  0.5069  0.4844  0.1497
 6204SOL    HW130245   1.491   4.261  13.530  0.7483 -2.5792  0.9531
 6204SOL    HW230246   1.598   4.244  13.632 -0.1181 -0.3742  1.6342
 6205SOL     OW30247   0.372   2.432   3.314 -0.0187  0.3681 -0.0584
 6205SOL    HW130248   0.367   2.353   3.259  1.4045 -0.7709  1.4508
 6205SOL    HW230249   0.331   2.498   3.257  0.3129  2.4358  2.0977
 6206SOL     OW30250   3.979   1.049   6.979  0.7053  0.0885  0.7903
 6206SOL    HW130251   3.919   0.974   6.981  0.0315  0.6142  0.1231
 6206SOL    HW230252   3.988   1.070   7.072  2.2268  0.5880  0.5377
 6207SOL     OW30253   1.484   3.329   0.475 -0.2666 -0.4419  0.3893
 6207SOL    HW130254   1.530   3.266   0.530 -1.2565 -0.7501  0.8721
 6207SOL    HW230255   1.544   3.401   0.494 -0.3616 -0.0759 -0.7170
 6208SOL     OW30256   1.302   0.792   4.175  0.0864  0.7698  0.2074
 6208SOL    HW130257   1.338   0.851   4.109  0.9107  1.5264  1.3440
 6208SOL    HW230258   1.210   0.790   4.148  0.3917 -4.0709 -0.4902
 6209SOL     OW30259   4.504   4.104   8.626  0.4408  0.7422  0.2001
 6209SOL    HW130260   4.521   4.018   8.588 -0.0211  0.0525  1.5574
 6209SOL    HW230261   4.589   4.146   8.608 -0.3982  2.6862  0.7906
 6210SOL     OW30262   0.177   3.114   5.235  0.0487  0.7720  0.1117
 6210SOL    HW130263   0.219   3.199   5.224  1.8599 -0.2956 -1.2296
 6210SOL    HW230264   0.095   3.136   5.190 -1.1914 -0.3068  1.8376
 6211SOL     OW30265   0.985   4.676  16.572  0.2882  0.2547 -0.1609
 6211SOL    HW130266   0.992   4.667  16.477  0.2956  1.4914 -0.2762
 6211SOL    HW230267   1.054   0.005  16.586  0.7351 -0.1703 -0.3609
 6212SOL     OW30268   2.675   0.337   5.808  0.2357  0.4354  0.2802
 6212SOL    HW130269   2.753   0.285   5.827 -0.2162 -0.5667 -0.6253
 6212SOL    HW230270   2.705   0.390   5.734  0.1747  2.3633  1.6381
 6213SOL     OW30271   0.943   2.994   4.112 -0.0326  0.1913  0.6679
 6213SOL    HW130272   1.004   2.941   4.061 -0.1408 -0.0738  0.8130
 6213SOL    HW230273   0.968   2.970   4.201  2.1667 -0.6009 -0.1560
 6214SOL     OW30274   1.604   0.249   4.759 -0.2478 -0.1483 -0.2628
 6214SOL    HW130275   1.673   0.182   4.757 -0.3603 -0.2031 -2.0296
 6214SOL    HW230276   1.525   0.203   4.732 -1.4323  1.6955  0.0854
 6215SOL     OW30277   0.431   2.363   3.589  0.3312 -0.3699  0.9938
 6215SOL    HW130278   0.452   2.376   3.497 -0.0185  0.3762  1.0231
 6215SOL    HW230279   0.371   2.433   3.615 -0.4211 -1.3424  1.9041
 6216SOL     OW30280   2.436   2.571   7.829 -0.7140  0.1527 -0.4582
 6216SOL    HW130281   2.351   2.555   7.869 -0.2809  2.7092  1.4809
 6216SOL    HW230282   2.412   2.582   7.737 -1.4735 -3.3993 -0.6724
 6217SOL     OW30283   0.791   0.611  14.577  0.4576 -0.2863  0.6510
 6217SOL    HW130284   0.764   0.609  14.485 -0.0089  0.6702  0.7631
 6217SOL    HW230285   0.775   0.703  14.596 -0.9528 -0.2975 -0.4196
 6218SOL     OW30286   0.863   0.842   8.324 -0.6813 -0.3727  0.6729
 6218SOL    HW130287   0.825   0.786   8.393 -0.9182  0.6507  1.3731
 6218SOL    HW230288   0.831   0.929   8.347 -2.9896 -0.4959 -2.1243
 6219SOL     OW30289   0.444   3.398   3.188 -0.5367  0.1418  1.2474
 6219SOL    HW130290   0.456   3.304   3.206  1.5544  0.0752 -0.5890
 6219SOL    HW230291   0.528   3.429   3.220 -0.6565  0.3642  1.3441
 6220SOL     OW30292   0.076   2.666  17.117 -0.1570 -0.1852 -0.5106
 6220SOL    HW130293   0.069   2.721  17.195 -1.8875 -0.4233 -0.5037
 6220SOL    HW230294   0.018   2.594  17.143 -2.7833  1.6082 -1.4528
 6221SOL     OW30295   0.984   0.866   6.811  1.0012  0.0777 -0.0828
 6221SOL    HW130296   0.978   0.852   6.905  0.3005 -1.2436 -0.3153
 6221SOL    HW230297   0.890   0.879   6.796  0.6306 -1.7079  0.6784
 6222SOL     OW30298   1.173   0.174   5.304  0.0524  0.1617 -0.0031
 6222SOL    HW130299   1.147   0.202   5.391 -0.4442 -0.8864  0.1810
 6222SOL    HW230300   1.094   0.190   5.252 -0.6272  1.1668  1.3637
 6223SOL     OW30301   3.192   2.930   5.774  0.0841  0.3126 -0.2411
 6223SOL    HW130302   3.102   2.905   5.798 -1.0949  2.5779 -2.2649
 6223SOL    HW230303   3.195   2.887   5.688 -0.5450  3.4632 -1.8483
 6224SOL     OW30304   0.542   2.195   8.657  0.7031 -0.2718 -0.7587
 6224SOL    HW130305   0.458   2.154   8.675 -0.6061  2.4880 -0.6149
 6224SOL    HW230306   0.511   2.285   8.644 -0.2207 -0.5244 -0.2914
 6225SOL     OW30307   4.720   2.986   0.010 -0.1398  0.7857  0.3143
 6225SOL    HW130308   4.652   2.976  17.689  1.1808 -0.1554 -0.8773
 6225SOL    HW230309   4.673   2.930   0.072 -0.6989 -0.5828 -1.3360
 6226SOL     OW30310   3.621   0.439  12.059 -0.1837  0.5890  0.4442
 6226SOL    HW130311   3.563   0.368  12.033  1.1072 -1.1074  2.1731
 6226SOL    HW230312   3.698   0.419  12.006 -1.7506  0.2041 -1.6631
 6227SOL     OW30313   1.589   0.992   9.499  0.3259  0.4049  0.3848
 6227SOL    HW130314   1.645   1.014   9.424  1.2792 -0.8913  0.7051
 6227SOL    HW230315   1.618   1.063   9.556  1.9529 -0.5170  0.7124
 6228SOL     OW30316   2.267   1.023  16.726 -0.4876  0.1761  0.0606
 6228SOL    HW130317   2.268   1.101  16.782 -0.2175  0.2349 -0.0279
 6228SOL    HW230318   2.359   0.998  16.714 -0.1077  1.0873  1.1389
 6229SOL     OW30319   4.451   4.223   3.490 -0.3310  0.4187 -0.2471
 6229SOL    HW130320   4.452   4.264   3.403  1.5495  0.3463 -0.2610
 6229SOL    HW230321   4.533   4.259   3.524 -0.2526  0.7364 -0.7590
 6230SOL     OW30322   0.515   2.827  13.629 -0.1400  0.2682 -0.3618
 6230SOL    HW130323   0.529   2.838  13.723  2.0228  0.2952 -0.6852
 6230SOL    HW230324   0.597   2.834  13.579  1.0472 -1.0654  1.3627
 6231SOL     OW30325   4.066   1.089   4.055  0.2635 -0.5833 -0.4234
 6231SOL    HW130326   4.004   1.057   4.120 -0.1584  0.8358 -0.1238
 6231SOL    HW230327   4.001   1.130   3.998  0.2990 -2.4237 -1.7954
 6232SOL     OW30328   3.941   0.683   2.392 -0.0825 -0.2618 -0.1375
 6232SOL    HW130329   3.942   0.768   2.437 -1.7780 -0.7069  0.7230
 6232SOL    HW230330   4.022   0.653   2.434  1.1696  1.7010 -1.1458
 6233SOL     OW30331   0.476   4.348   5.381  0.2208 -0.0363  0.0706
 6233SOL    HW130332   0.560   4.369   5.423  1.0380  0.2977 -1.7311
 6233SOL    HW230333   0.502   4.311   5.297 -1.8338 -0.1779 -0.4945
 6234SOL     OW30334   2.756   4.602  12.263  0.7357  0.2662  0.6769
 6234SOL    HW130335   2.804   4.681  12.239 -0.0145  0.0656 -1.4662
 6234SOL    HW230336   2.811   4.529  12.236  1.2600  0.0280  2.3841
 6235SOL     OW30337   4.022   0.611   3.973  0.5155  0.1545 -0.9104
 6235SOL    HW130338   4.062   0.524   3.968  0.6074  0.0997  1.1307
 6235SOL    HW230339   4.073   0.652   3.903  1.8051  1.1207  0.6064
 6236SOL     OW30340   3.401   4.636   3.738 -0.5624 -0.7925  0.3529
 6236SOL    HW130341   3.481   4.585   3.726 -0.0927  0.1528 -0.4501
 6236SOL    HW230342   3.409   4.652   3.832 -1.6501  0.0490  0.2993
 6237SOL     OW30343   1.185   2.303   4.923 -0.3552 -0.9103 -1.0274
 6237SOL    HW130344   1.192   2.311   4.828  0.7622 -0.7490 -0.9252
 6237SOL    HW230345   1.093   2.330   4.928 -0.5214 -1.7841  0.5739
 6238SOL     OW30346   3.323   1.499   4.309  0.2908 -0.5376  0.0695
 6238SOL    HW130347   3.391   1.533   4.251  0.8548  1.3444  1.8266
 6238SOL    HW230348   3.245   1.519   4.259  0.0471  0.8089  0.9762
 6239SOL     OW30349   2.532   4.612   5.108 -0.4101  0.6852 -0.1416
 6239SOL    HW130350   2.450   4.650   5.075  0.1559  0.9049 -1.3161
 6239SOL    HW230351   2.593   4.647   5.044  0.7611 -0.9353  0.0865
 6240SOL     OW30352   1.106   2.461  17.619 -0.2124 -0.2299  0.0036
 6240SOL    HW130353   1.178   2.397  17.618  0.9838  1.1019  0.3069
 6240SOL    HW230354   1.102   2.490  17.710  1.9875 -0.7580  0.2866
 6241SOL     OW30355   4.682   1.024   5.717  0.0530 -0.5253  0.8719
 6241SOL    HW130356   4.615   0.965   5.683 -0.2291 -0.0808  0.6533
 6241SOL    HW230357   0.011   1.003   5.652 -0.2275  0.8019  0.1466
 6242SOL     OW30358   1.873   2.219   7.728 -0.0654  0.1921 -0.4711
 6242SOL    HW130359   1.860   2.299   7.677 -0.6470  0.6374  0.3752
 6242SOL    HW230360   1.850   2.156   7.660 -0.3842  0.5845 -0.7258
 6243SOL     OW30361   4.293   0.687   0.236  0.0736 -0.0219 -0.0235
 6243SOL    HW130362   4.339   0.755   0.285 -0.7789  0.3002  0.3262
 6243SOL    HW230363   4.203   0.718   0.237 -0.4568 -1.5204 -1.9122
 6244SOL     OW30364   1.783   2.176   8.328 -0.2146  0.1716 -0.5322
 6244SOL    HW130365   1.765   2.121   8.404 -1.2115  0.6067 -0.4456
 6244SOL    HW230366   1.831   2.115   8.272 -0.5410  0.9673 -1.6793
 6245SOL     OW30367   0.229   2.633  16.049  0.2223 -0.2350  0.4512
 6245SOL    HW130368   0.270   2.710  16.010  2.7299 -0.3989  2.7963
 6245SOL    HW230369   0.228   2.644  16.144 -1.3690 -0.9069  0.5221
 6246SOL     OW30370   2.861   3.948   9.783  0.1328  0.8419  0.0765
 6246SOL    HW130371   2.853   3.915   9.693 -1.6953  0.2937  0.4477
 6246SOL    HW230372   2.885   3.870   9.832  0.1054  0.7757 -0.0152
 6247SOL     OW30373   0.295   1.986  16.075  0.2737 -0.4002  0.0939
 6247SOL    HW130374   0.299   1.894  16.049 -1.1476 -0.6671  0.8719
 6247SOL    HW230375   0.256   2.026  15.997  2.5423 -2.3454 -2.0321
 6248SOL     OW30376   1.314   1.969   1.391 -0.1341 -0.4323 -0.3857
 6248SOL    HW130377   1.315   2.046   1.334 -1.7867  0.6729  1.0808
 6248SOL    HW230378   1.406   1.946   1.381 -0.6299 -1.7498 -1.8275
 6249SOL     OW30379   4.545   0.509   2.823 -0.3071 -0.1896 -0.3914
 6249SOL    HW130380   4.536   0.580   2.760  0.5937  0.5775  0.3447
 6249SOL    HW230381   4.532   0.436   2.763  2.9876 -0.6519 -0.5268
 6250SOL     OW30382   3.387   3.245   6.933 -0.0407  0.2350 -0.6240
 6250SOL    HW130383   3.368   3.274   6.844  1.6418 -1.9701 -1.7197
 6250SOL    HW230384   3.480   3.229   6.914 -0.6254 -2.1265 -1.5017
 6251SOL     OW30385   2.789   3.036  13.782 -0.3086 -0.2229 -0.2676
 6251SOL    HW130386   2.835   3.102  13.834  2.2113 -3.0746  1.1586
 6251SOL    HW230387   2.705   3.080  13.771 -0.6497 -1.4738 -2.6426
 6252SOL     OW30388   0.595   1.618   9.463 -0.6343 -0.2190 -0.0999
 6252SOL    HW130389   0.601   1.615   9.367  0.4257  2.7994 -0.1075
 6252SOL    HW230390   0.505   1.642   9.484 -0.4912 -0.4129  0.7117
 6253SOL     OW30391   4.453   0.953   1.419  0.5530 -0.4744  0.2212
 6253SOL    HW130392   4.474   1.021   1.355 -0.3690 -0.9281 -0.5656
 6253SOL    HW230393   4.542   0.918   1.412  0.6136  0.1154 -1.8182
 6254SOL     OW30394   3.834   2.207   7.857  0.4226  0.6023  0.1231
 6254SOL    HW130395   3.911   2.156   7.881  0.0887  0.9515  1.9072
 6254SOL    HW230396   3.797   2.230   7.942  0.8711  1.8344 -0.0231
 6255SOL     OW30397   1.924   3.815  14.949  0.6275 -0.2337  0.0669
 6255SOL    HW130398   1.983   3.770  14.889 -0.3946 -0.1754 -0.9818
 6255SOL    HW230399   1.847   3.829  14.893  1.9738 -0.0786 -1.7435
 6256SOL     OW30400   2.257   0.503   6.733  0.2264  0.0224 -0.1518
 6256SOL    HW130401   2.303   0.571   6.683  0.3308  0.5938  0.7087
 6256SOL    HW230402   2.180   0.492   6.678  0.1136 -0.9033  0.1878
 6257SOL     OW30403   3.242   1.525   6.494 -0.7375  0.2123 -0.2915
 6257SOL    HW130404   3.225   1.604   6.545  1.4645 -0.0648  0.8535
 6257SOL    HW230405   3.195   1.460   6.547 -1.3745  1.1266  0.2660
 6258SOL     OW30406   1.666   4.275   9.965  0.4182 -0.2715 -0.4846
 6258SOL    HW130407   1.749   4.248   9.927  0.6422 -2.4345  1.5185
 6258SOL    HW230408   1.694   4.338  10.032  2.0680  0.4999 -1.8942
 6259SOL     OW30409   2.835   3.330   7.887 -0.4357  0.2203  0.7280
 6259SOL    HW130410   2.922   3.348   7.922 -1.0020  2.7617  0.7960
 6259SOL    HW230411   2.837   3.347   7.793  0.8854  3.6520  1.3777
 6260SOL     OW30412   1.565   0.004  14.837  0.1442  0.1611 -0.2755
 6260SOL    HW130413   1.629   4.684  14.793 -0.5492 -0.0547 -0.9903
 6260SOL    HW230414   1.491   4.686  14.864  0.2766 -0.3171 -0.8993
 6261SOL     OW30415   4.259   1.255   3.205 -0.0389  0.1678 -0.2216
 6261SOL    HW130416   4.185   1.311   3.179 -0.5142  0.6265  2.1060
 6261SOL    HW230417   4.315   1.251   3.127 -0.9653  4.3069 -1.0945
 6262SOL     OW30418   2.308   2.713   6.737  0.0706 -0.0712 -0.5438
 6262SOL    HW130419   2.359   2.674   6.666 -1.0171 -1.5893 -0.4831
 6262SOL    HW230420   2.221   2.673   6.735 -0.6338  1.4814 -1.5683
 6263SOL     OW30421   1.323   1.952   5.196  0.3988 -0.2089 -0.5504
 6263SOL    HW130422   1.331   1.892   5.270  0.7080  0.9951  0.3885
 6263SOL    HW230423   1.265   1.902   5.139 -0.5074  1.3463 -1.0110
 6264SOL     OW30424   4.598   3.812   3.087  0.0210 -0.4795 -0.1760
 6264SOL    HW130425   4.556   3.878   3.141  0.6862  3.7810 -4.9437
 6264SOL    HW230426   4.677   3.849   3.048 -1.0378  1.2353 -0.6830
 6265SOL     OW30427   0.612   3.209   6.171 -0.2198 -0.5124  0.2808
 6265SOL    HW130428   0.572   3.238   6.089 -1.3871 -1.6107  0.4537
 6265SOL    HW230429   0.660   3.285   6.203 -0.4633  0.1306 -0.8956
 6266SOL     OW30430   0.246   4.240  16.184  0.2100  0.0512  0.2827
 6266SOL    HW130431   0.314   4.204  16.128 -0.5358 -1.3913  0.3073
 6266SOL    HW230432   0.240   4.334  16.167  1.3029 -0.2829 -1.9203
 6267SOL     OW30433   0.703   3.745  13.670 -0.3834  0.2326 -0.0599
 6267SOL    HW130434   0.659   3.698  13.599 -1.8556 -0.2216  1.1382
 6267SOL    HW230435   0.722   3.665  13.719  1.2004 -0.3151 -1.5682
 6268SOL     OW30436   2.459   2.015   9.091  0.2700 -0.0418 -0.1994
 6268SOL    HW130437   2.511   2.013   9.011 -2.9469 -1.6919 -2.2439
 6268SOL    HW230438   2.372   1.990   9.061  0.7019 -2.0772  0.2529
 6269SOL     OW30439   3.026   0.087   7.814  0.3960 -0.3456  0.0816
 6269SOL    HW130440   2.994   0.004   7.779 -0.0601  0.6816 -1.9006
 6269SOL    HW230441   3.094   0.052   7.872  0.2582 -1.3543 -0.3796
 6270SOL     OW30442   3.127   4.420   5.238  0.1820  0.2075 -0.0258
 6270SOL    HW130443   3.189   4.347   5.246  2.4184  2.2941  1.5384
 6270SOL    HW230444   3.054   4.390   5.292  1.1095  0.1772  1.1966
 6271SOL     OW30445   3.216   1.174   6.982  0.6340  0.4088  0.2734
 6271SOL    HW130446   3.168   1.139   6.906  1.1222  1.1162 -0.3619
 6271SOL    HW230447   3.213   1.093   7.032  0.4815 -0.0037 -0.4003
 6272SOL     OW30448   3.088   2.077   3.919  0.1400 -0.0623 -0.7757
 6272SOL    HW130449   3.061   2.009   3.857 -0.8629 -1.8841  1.6828
 6272SOL    HW230450   3.005   2.122   3.933 -0.9523 -1.9595 -1.1719
 6273SOL     OW30451   0.626   0.950   1.859 -0.7499  0.3026 -0.3584
 6273SOL    HW130452   0.592   0.878   1.806 -1.5960 -0.7271  1.5798
 6273SOL    HW230453   0.628   1.010   1.785 -1.4738 -1.7463 -2.0290
 6274SOL     OW30454   1.613   0.029   8.947  0.3964 -0.1422 -0.5845
 6274SOL    HW130455   1.613   0.055   9.039 -1.6567 -0.8918 -0.3720
 6274SOL    HW230456   1.532   0.068   8.912 -0.1538  0.2434  1.1280
 6275SOL     OW30457   0.170   3.311   1.634 -0.3303 -0.0770 -0.2667
 6275SOL    HW130458   0.087   3.316   1.681  0.1608  0.7482  0.5084
 6275SOL    HW230459   0.238   3.348   1.691  0.2966 -0.5988 -0.6675
 6276SOL     OW30460   0.074   1.973   7.737 -0.0118  0.1205  0.0269
 6276SOL    HW130461   0.143   1.939   7.680 -0.0496  2.2553 -1.3028
 6276SOL    HW230462   0.029   1.889   7.749  2.0986 -1.1497 -0.9561
 6277SOL     OW30463   1.552   3.258   8.899 -0.3686  0.0289  0.3062
 6277SOL    HW130464   1.596   3.246   8.815 -0.1657 -2.7503  0.8219
 6277SOL    HW230465   1.622   3.238   8.961 -0.4920 -1.7696 -0.1308
 6278SOL     OW30466   4.433   2.217   6.816 -0.7654 -0.0943 -0.0680
 6278SOL    HW130467   4.479   2.135   6.833 -2.5684 -0.8627  1.1937
 6278SOL    HW230468   4.375   2.198   6.742  0.7510 -0.6617 -1.1066
 6279SOL     OW30469   4.184   3.106  12.275 -0.6737  0.1210 -0.2026
 6279SOL    HW130470   4.110   3.139  12.225 -1.3457 -0.1238  0.6319
 6279SOL    HW230471   4.244   3.180  12.285 -0.6017 -0.2595  2.2841
 6280SOL     OW30472   1.470   2.575  12.838 -0.0934  0.2331  0.3403
 6280SOL    HW130473   1.381   2.592  12.809  0.2573 -2.2258 -2.1356
 6280SOL    HW230474   1.508   2.607  12.757 -2.1193  1.0310 -0.2962
 6281SOL     OW30475   2.931   0.922   8.814 -0.0599  0.1837 -0.5839
 6281SOL    HW130476   2.928   1.017   8.805 -1.4375  0.3179  1.1386
 6281SOL    HW230477   2.840   0.901   8.838 -0.3902  1.0315 -1.1247
 6282SOL     OW30478   4.057   4.482   3.109  0.0897  0.4561  0.2300
 6282SOL    HW130479   4.151   4.472   3.124 -0.2325 -0.7541  1.4677
 6282SOL    HW230480   4.057   4.504   3.015  0.5934  0.1823  0.1666
 6283SOL     OW30481   1.289   3.803   6.933 -0.2284  0.5213  0.8675
 6283SOL    HW130482   1.360   3.822   6.994  0.7066 -1.2932  0.3527
 6283SOL    HW230483   1.225   3.757   6.986 -0.4784  0.3620  0.4270
 6284SOL     OW30484   3.316   0.658  12.163  0.3607  0.1325  0.1844
 6284SOL    HW130485   3.261   0.589  12.127  0.7968 -0.2883  0.3154
 6284SOL    HW230486   3.350   0.692  12.080  0.3528 -1.7800 -0.6064
 6285SOL     OW30487   4.517   2.744  11.341 -0.0420  0.0539 -0.5598
 6285SOL    HW130488   4.558   2.723  11.257  1.3372  0.1363  0.0953
 6285SOL    HW230489   4.456   2.809  11.305  1.5183  1.8896  0.1217
 6286SOL     OW30490   3.007   1.885  15.835  0.5122 -0.2276 -0.4176
 6286SOL    HW130491   3.033   1.951  15.899  2.1441  2.0178 -3.4179
 6286SOL    HW230492   2.944   1.845  15.895 -0.0525  0.5921 -0.4617
 6287SOL     OW30493   3.301   1.215   5.445 -0.7115 -0.2102  0.2536
 6287SOL    HW130494   3.363   1.288   5.447 -1.1170  0.0909  1.6360
 6287SOL    HW230495   3.317   1.176   5.359  1.0378 -0.8380  0.8768
 6288SOL     OW30496   0.121   0.724   6.372 -0.5292  0.7066  0.4077
 6288SOL    HW130497   0.077   0.709   6.289  0.9511 -3.5160  0.3812
 6288SOL    HW230498   0.057   0.709   6.442  1.1969 -0.1133  1.8302
 6289SOL     OW30499   1.577   0.986   3.470 -0.0635 -0.1837  0.1798
 6289SOL    HW130500   1.503   0.946   3.424  0.0664 -0.0065 -0.1810
 6289SOL    HW230501   1.566   1.081   3.465 -0.7450 -0.2006  1.3281
 6290SOL     OW30502   2.479   1.575   3.264  0.0480 -0.3207 -0.0167
 6290SOL    HW130503   2.527   1.638   3.210  0.0567 -0.5140 -0.2357
 6290SOL    HW230504   2.525   1.586   3.348  1.4283  0.5302 -0.8839
 6291SOL     OW30505   0.644   3.238   2.140  1.0219  0.1487  0.1682
 6291SOL    HW130506   0.562   3.266   2.181  1.1656  2.6403 -1.2461
 6291SOL    HW230507   0.685   3.320   2.113 -0.4057  1.0275  0.6724
 6292SOL     OW30508   3.256   1.708   3.989 -0.0329 -0.4496 -0.6969
 6292SOL    HW130509   3.296   1.784   4.032 -1.8167 -0.3744  0.8068
 6292SOL    HW230510   3.182   1.681   4.042 -1.3519  2.2270 -1.1407
 6293SOL     OW30511   2.903   2.565   6.546  0.0842 -0.0147  0.4610
 6293SOL    HW130512   2.910   2.528   6.634  1.6624  2.0709  1.2136
 6293SOL    HW230513   2.908   2.484   6.495 -2.5830  0.2873 -0.2691
 6294SOL     OW30514   1.575   3.753   8.335  0.5073  0.5000 -0.6068
 6294SOL    HW130515   1.494   3.725   8.379 -0.1521  1.1052 -1.4379
 6294SOL    HW230516   1.627   3.759   8.415 -1.6318 -0.8058  0.8866
 6295SOL     OW30517   3.297   2.054   0.667  0.8403  0.1301 -0.7453
 6295SOL    HW130518   3.354   2.129   0.685 -0.0784  0.5171  0.6003
 6295SOL    HW230519   3.218   2.101   0.639 -0.8453 -2.9422 -1.2242
 6296SOL     OW30520   3.996   1.290   2.083  0.3140 -0.5311  0.0094
 6296SOL    HW130521   3.950   1.206   2.082  0.2029 -0.4756  0.2404
 6296SOL    HW230522   4.058   1.277   2.012 -1.0758 -1.0172 -1.1086
 6297SOL     OW30523   0.564   1.371   3.510  0.0047  0.2032 -0.3282
 6297SOL    HW130524   0.578   1.356   3.604 -1.1983  1.8377  0.1199
 6297SOL    HW230525   0.618   1.446   3.486 -1.2746  1.2353 -0.0260
 6298SOL     OW30526   0.001   3.880   1.159  0.1298  0.6237  1.0407
 6298SOL    HW130527   4.656   3.844   1.126  0.5141  0.5380  0.1963
 6298SOL    HW230528   4.718   3.887   1.253 -1.1583  0.4384  0.7694
 6299SOL     OW30529   0.498   2.878   2.184  0.1326  0.5936  0.8214
 6299SOL    HW130530   0.557   2.870   2.110 -0.7296  0.9175  0.1007
 6299SOL    HW230531   0.422   2.829   2.152  0.5042 -1.5909  3.2689
 6300SOL     OW30532   0.968   1.071   3.777  0.9457  0.4503  0.3183
 6300SOL    HW130533   0.895   1.020   3.741  1.8816  0.1756 -1.1811
 6300SOL    HW230534   0.922   1.142   3.822  0.0849 -0.8762  1.5356
 6301SOL     OW30535   1.335   3.665   4.970 -0.5403 -0.4607  0.4969
 6301SOL    HW130536   1.293   3.582   4.996 -1.5494 -0.6503 -1.7390
 6301SOL    HW230537   1.359   3.653   4.878 -0.6119 -0.6530  0.5017
 6302SOL     OW30538   4.192   1.276   1.893  0.3948 -0.2078  0.8422
 6302SOL    HW130539   4.269   1.221   1.913 -0.8454 -1.7722  1.3016
 6302SOL    HW230540   4.153   1.231   1.818 -1.4110  0.4018  1.4351
 6303SOL     OW30541   4.737   2.545   4.600 -0.6768 -0.4058  0.0973
 6303SOL    HW130542   4.730   2.458   4.561 -0.7808 -0.1238 -0.4995
 6303SOL    HW230543   4.645   2.564   4.581 -0.3939  2.2718  1.4805
 6304SOL     OW30544   2.345   4.134   0.436 -0.1017  0.2785  0.1801
 6304SOL    HW130545   2.289   4.063   0.466 -0.1786 -0.9967 -2.9361
 6304SOL    HW230546   2.298   4.156   0.356 -0.5493  1.9563  0.8996
 6305SOL     OW30547   4.499   4.436   2.531  0.6564 -0.5062  0.2600
 6305SOL    HW130548   4.483   4.362   2.473  0.5078 -1.3219  1.3642
 6305SOL    HW230549   4.408   4.441   2.559  0.5178 -1.0966 -0.0861
 6306SOL     OW30550   4.190   2.752   5.509  0.7704  0.6874 -0.2542
 6306SOL    HW130551   4.246   2.789   5.441  2.4612 -1.8099 -0.2136
 6306SOL    HW230552   4.257   2.690   5.539 -1.4081 -1.2254  0.6925
 6307SOL     OW30553   3.356   3.161   6.200  0.1220 -0.5541 -0.5356
 6307SOL    HW130554   3.325   3.251   6.194  0.3541 -0.5424 -1.4450
 6307SOL    HW230555   3.372   3.140   6.108  0.4298 -0.2194 -0.5586
 6308SOL     OW30556   3.766   3.534   7.197 -0.2838 -1.0105  0.0541
 6308SOL    HW130557   3.765   3.630   7.203  0.9155 -1.0097  0.1128
 6308SOL    HW230558   3.676   3.524   7.166 -0.0208 -2.0370 -0.3847
 6309SOL     OW30559   0.387   4.717   5.774  0.0547  0.1590  0.4260
 6309SOL    HW130560   0.472   4.684   5.804  1.1690  0.7487 -2.0514
 6309SOL    HW230561   0.360   0.030   5.851 -1.3991 -2.5318  1.6368
 6310SOL     OW30562   0.236   2.004   8.571 -0.5539 -0.0992  0.4679
 6310SOL    HW130563   0.155   2.053   8.581 -0.5852 -0.4047  1.7826
 6310SOL    HW230564   0.271   2.043   8.491 -1.0144  0.1931  0.4140
 6311SOL     OW30565   1.284   0.691  12.611 -0.3205 -0.3255  0.1135
 6311SOL    HW130566   1.209   0.719  12.559  0.6639 -0.0293 -1.1245
 6311SOL    HW230567   1.249   0.686  12.701 -0.1531 -1.0214  0.1419
 6312SOL     OW30568   0.084   0.952   3.894  0.5354  0.3504  0.0390
 6312SOL    HW130569   0.017   0.965   3.827  0.2100 -0.0466  0.2855
 6312SOL    HW230570   0.137   1.028   3.874 -1.0685  1.1411 -1.1976
 6313SOL     OW30571   3.252   1.966   6.026 -0.4793  0.0203  0.3458
 6313SOL    HW130572   3.302   2.024   5.968  0.0986 -0.1038  0.7090
 6313SOL    HW230573   3.161   1.967   5.998 -0.1022 -1.7837 -0.9947
 6314SOL     OW30574   3.921   0.254   4.162 -0.8751 -0.3554  0.3714
 6314SOL    HW130575   3.971   0.236   4.241  2.0170  1.6627 -0.9822
 6314SOL    HW230576   3.833   0.221   4.182 -0.7097 -0.2240  1.2974
 6315SOL     OW30577   3.607   2.259   3.334  0.6601  0.6253 -0.5423
 6315SOL    HW130578   3.554   2.205   3.274  0.8656  1.0198 -1.0754
 6315SOL    HW230579   3.623   2.198   3.406  1.5859  1.8536  0.2804
 6316SOL     OW30580   2.011   0.283  15.811 -0.5016  0.1214 -0.1356
 6316SOL    HW130581   2.057   0.318  15.735 -0.3625 -1.6721 -0.8801
 6316SOL    HW230582   2.010   0.187  15.802  1.5366 -0.0328  1.2426
 6317SOL     OW30583   4.723   0.802   1.118  0.0338  0.2686  0.3776
 6317SOL    HW130584   4.712   0.891   1.153 -0.3275  1.3201 -2.4271
 6317SOL    HW230585   4.632   0.774   1.123  0.3375 -0.7129  0.3934
 6318SOL     OW30586   0.233   1.807   5.625  0.2589  0.8211 -0.2106
 6318SOL    HW130587   0.206   1.899   5.635 -0.2205  0.5188  1.3213
 6318SOL    HW230588   0.168   1.789   5.556  1.4882 -2.4181 -0.5176
 6319SOL     OW30589   3.998   4.327   8.544 -0.1766  0.1782  0.2070
 6319SOL    HW130590   3.950   4.293   8.619 -0.5625 -0.9532 -0.5381
 6319SOL    HW230591   4.014   4.246   8.494 -2.7433 -1.2586  1.7156
 6320SOL     OW30592   4.294   3.200   1.024 -0.0255  0.5805  0.0582
 6320SOL    HW130593   4.352   3.231   0.956  1.0402  0.9145  1.1232
 6320SOL    HW230594   4.352   3.148   1.080  0.4819  1.6303  0.5086
 6321SOL     OW30595   4.155   0.533   9.901 -0.2691  0.4026 -0.3342
 6321SOL    HW130596   4.074   0.569   9.864 -1.4980  0.2316  2.1646
 6321SOL    HW230597   4.129   0.441   9.909  0.7972  0.3013  2.0287
 6322SOL     OW30598   3.447   3.645   7.331 -0.5100 -0.0210 -0.2793
 6322SOL    HW130599   3.367   3.597   7.310 -0.0186 -1.3471  0.9100
 6322SOL    HW230600   3.502   3.602   7.265 -2.0084 -1.5691 -0.4987
 6323SOL     OW30601   4.099   3.315  15.211  0.3737 -0.3496 -0.3295
 6323SOL    HW130602   4.193   3.311  15.230  0.4117  2.6019  0.1710
 6323SOL    HW230603   4.083   3.228  15.174 -0.6155 -1.0696  1.8290
 6324SOL     OW30604   0.641   3.055  16.211  0.1231 -0.1985 -0.2355
 6324SOL    HW130605   0.695   3.060  16.133 -0.4038  0.8779 -0.5351
 6324SOL    HW230606   0.562   3.106  16.190  0.6359  1.4470  1.8048
 6325SOL     OW30607   4.219   1.442   5.497 -0.0939 -0.1776 -0.0280
 6325SOL    HW130608   4.132   1.404   5.509 -0.7085  0.6365 -1.9597
 6325SOL    HW230609   4.205   1.521   5.549 -1.6920 -0.0124 -0.7114
 6326SOL     OW30610   2.907   4.602   6.155  0.1708  0.2286 -0.2043
 6326SOL    HW130611   2.840   4.670   6.153 -0.9763 -0.8014  3.1359
 6326SOL    HW230612   2.979   4.654   6.190  0.2687 -0.0404 -0.0049
 6327SOL     OW30613   3.707   3.950   2.719  0.3216  0.5175  0.9950
 6327SOL    HW130614   3.627   3.963   2.770  0.5536 -1.6524  1.9118
 6327SOL    HW230615   3.779   3.958   2.781  1.9487  0.5438 -0.8885
 6328SOL     OW30616   1.328   2.060   0.579 -0.0445 -0.5034 -0.2724
 6328SOL    HW130617   1.321   2.077   0.486 -0.6802 -1.3872 -0.3857
 6328SOL    HW230618   1.364   1.971   0.575  2.8120  0.6007  0.3625
 6329SOL     OW30619   0.082   2.041   2.524 -0.0726  0.4006 -0.1694
 6329SOL    HW130620   0.000   2.056   2.477 -0.8436  0.4980  1.1978
 6329SOL    HW230621   0.126   1.979   2.465 -0.2531 -2.6563  2.9002
 6330SOL     OW30622   0.543   3.222   5.146  0.5598 -0.4444 -0.4577
 6330SOL    HW130623   0.637   3.204   5.144  0.6894  0.1484  0.1153
 6330SOL    HW230624   0.515   3.142   5.102 -0.0079 -0.2397 -0.4624
 6331SOL     OW30625   3.632   0.482   8.028  1.1285  0.5070 -0.4472
 6331SOL    HW130626   3.684   0.560   8.048 -0.7052  2.0137 -1.6492
 6331SOL    HW230627   3.683   0.415   8.074 -0.0124 -0.1101 -0.0982
 6332SOL     OW30628   0.847   3.929  12.820  0.0769 -0.0204 -0.0753
 6332SOL    HW130629   0.888   3.843  12.832  0.3854 -0.3947 -3.7770
 6332SOL    HW230630   0.840   3.933  12.725 -2.2581  0.2678  0.1106
 6333SOL     OW30631   2.205   1.676  12.456  0.0473  0.1583 -0.4509
 6333SOL    HW130632   2.151   1.620  12.511  1.2132 -1.8067 -1.2796
 6333SOL    HW230633   2.269   1.711  12.518 -1.2453  1.7487 -0.0303
 6334SOL     OW30634   1.347   4.077   2.837 -0.0853 -0.3046  0.1462
 6334SOL    HW130635   1.427   4.119   2.868  0.7882 -2.0564  0.2501
 6334SOL    HW230636   1.329   4.121   2.754  1.8736 -1.2314 -0.7598
 6335SOL     OW30637   2.180   2.733   7.233 -0.2116 -0.1161  0.2513
 6335SOL    HW130638   2.249   2.679   7.271  0.3082 -0.1096 -0.6830
 6335SOL    HW230639   2.120   2.682   7.179  0.0657  0.3305 -0.4878
 6336SOL     OW30640   2.113   0.711   7.997  0.0084 -0.1621 -0.0941
 6336SOL    HW130641   2.072   0.712   7.911  1.5316  1.7984 -0.7794
 6336SOL    HW230642   2.121   0.806   8.007 -1.8994  0.3730 -3.8427
 6337SOL     OW30643   0.878   0.260   5.295  0.3303  0.2602 -0.1457
 6337SOL    HW130644   0.811   0.193   5.282  0.3443  0.6011 -1.9611
 6337SOL    HW230645   0.837   0.338   5.257  2.9764  1.3593 -0.7958
 6338SOL     OW30646   4.295   1.769   9.674 -0.1825  0.0211 -0.6049
 6338SOL    HW130647   4.235   1.811   9.735 -0.2276 -0.1465 -0.5334
 6338SOL    HW230648   4.304   1.681   9.710  0.5318  0.8234  1.1686
 6339SOL     OW30649   2.061   0.722   4.146  0.3837 -0.2484 -0.2559
 6339SOL    HW130650   2.104   0.704   4.062  1.7061  2.5061 -0.1484
 6339SOL    HW230651   2.123   0.676   4.202  1.6034  2.0024  0.2229
 6340SOL     OW30652   2.328   1.957   7.353 -0.9500  0.1592 -0.1845
 6340SOL    HW130653   2.253   1.898   7.359 -1.5639  0.8714 -0.9064
 6340SOL    HW230654   2.356   1.933   7.265  0.2779  1.1208 -0.0563
 6341SOL     OW30655   3.785   0.868   1.244  0.0970 -0.3926  0.2817
 6341SOL    HW130656   3.710   0.813   1.264  1.2189 -2.5675 -1.6103
 6341SOL    HW230657   3.788   0.915   1.328  0.4520 -2.5238  1.4611
 6342SOL     OW30658   1.816   2.124   3.094  0.0868  0.2955 -0.6034
 6342SOL    HW130659   1.872   2.050   3.117  0.5925 -0.0414 -2.8841
 6342SOL    HW230660   1.869   2.187   3.045  0.0934  0.4165 -0.4389
 6343SOL     OW30661   3.262   3.913  15.317  0.1764 -0.3177  0.1607
 6343SOL    HW130662   3.338   3.878  15.363 -0.0062  0.2658  0.8986
 6343SOL    HW230663   3.289   3.887  15.229 -1.2211 -0.4967 -0.2199
 6344SOL     OW30664   1.224   2.625  14.315  0.0238 -0.0279  0.0370
 6344SOL    HW130665   1.181   2.671  14.243 -1.7635 -0.4514  0.8087
 6344SOL    HW230666   1.248   2.535  14.291  1.5375  0.7977 -1.5043
 6345SOL     OW30667   1.304   2.915   6.767 -0.1228 -0.0188  0.1925
 6345SOL    HW130668   1.307   2.894   6.674  0.6388 -1.7415  0.6050
 6345SOL    HW230669   1.307   3.011   6.759  2.6817 -0.1999 -0.9246
 6346SOL     OW30670   2.716   3.799   7.523  0.7341  0.4361 -0.6638
 6346SOL    HW130671   2.694   3.819   7.432 -2.1691  1.1804  0.2085
 6346SOL    HW230672   2.705   3.704   7.520  0.6947  0.3402  2.9102
 6347SOL     OW30673   1.961   3.665   6.534 -0.2063 -0.4808  0.1839
 6347SOL    HW130674   2.034   3.616   6.497 -0.2405 -0.8328  0.5700
 6347SOL    HW230675   1.998   3.753   6.529  1.4602 -1.1932  0.0138
 6348SOL     OW30676   2.060   3.959   6.252  0.6175  0.5114 -0.1764
 6348SOL    HW130677   2.096   4.018   6.187 -1.2674  0.7086 -1.0466
 6348SOL    HW230678   2.039   3.883   6.197  1.6996  1.3381 -1.7247
 6349SOL     OW30679   2.956   3.733   6.460 -0.5013  0.2633 -0.3122
 6349SOL    HW130680   2.939   3.759   6.369  0.6846  1.0244 -0.3139
 6349SOL    HW230681   2.936   3.640   6.458 -0.2072  0.1908  0.2765
 6350SOL     OW30682   0.036   0.270   6.855 -0.1091 -0.3527 -0.0526
 6350SOL    HW130683   0.056   0.199   6.916 -1.3240  0.3474  1.1762
 6350SOL    HW230684   4.678   0.263   6.840  0.1095 -2.7570 -0.2560
 6351SOL     OW30685   1.378   4.598   8.318  0.2438 -0.2734  0.3434
 6351SOL    HW130686   1.288   4.587   8.290 -0.3003  0.6497  1.7052
 6351SOL    HW230687   1.382   4.691   8.343  1.7489 -0.1982 -0.1751
 6352SOL     OW30688   2.421   1.891   4.001  0.2945 -0.6428 -0.4241
 6352SOL    HW130689   2.381   1.816   3.958  2.6658 -1.6756 -0.8425
 6352SOL    HW230690   2.508   1.897   3.961  0.9769  3.2543  1.6498
 6353SOL     OW30691   0.101   1.754  13.927  0.1135  0.4189  0.2156
 6353SOL    HW130692   0.105   1.782  13.836 -1.7940 -1.5239 -0.4735
 6353SOL    HW230693   0.169   1.808  13.966  0.4698  0.0466  0.1202
 6354SOL     OW30694   2.522   1.980   3.622 -0.0869 -0.1562 -0.2441
 6354SOL    HW130695   2.432   1.999   3.595 -0.4120 -1.0753  0.2183
 6354SOL    HW230696   2.510   2.043   3.693  1.8776 -1.3034  1.1280
 6355SOL     OW30697   0.925   1.709  11.059  0.1310  0.5054  0.3156
 6355SOL    HW130698   0.932   1.781  11.122  3.6865  0.9265 -0.5440
 6355SOL    HW230699   0.860   1.736  10.994  0.7546 -0.1127 -0.5649
 6356SOL     OW30700   3.524   3.868   2.540 -0.2136  0.0654 -0.2000
 6356SOL    HW130701   3.582   3.884   2.615 -0.8378  3.0991 -0.3697
 6356SOL    HW230702   3.471   3.948   2.539 -0.1601  0.2003  4.0227
 6357SOL     OW30703   0.591   2.492  16.559  0.2672 -0.4564 -0.0210
 6357SOL    HW130704   0.659   2.466  16.621  1.0621  1.3488 -0.1501
 6357SOL    HW230705   0.561   2.415  16.510 -2.9655  0.0151  1.2174
 6358SOL     OW30706   1.156   2.361   4.640  0.1614  0.2263 -0.9061
 6358SOL    HW130707   1.062   2.343   4.634 -0.1084  1.7675 -1.3313
 6358SOL    HW230708   1.151   2.455   4.656  1.8711  0.3764 -1.2690
 6359SOL     OW30709   4.672   1.828  12.057  0.0783 -0.3997 -0.4153
 6359SOL    HW130710   0.003   1.774  12.097  0.6312 -0.3366 -1.2742
 6359SOL    HW230711   4.649   1.871  12.140  1.2491  0.8087 -0.7054
 6360SOL     OW30712   3.302   3.635   2.997  0.9088  0.1234  0.1914
 6360SOL    HW130713   3.233   3.702   3.003  2.7241  1.9536  0.4492
 6360SOL    HW230714   3.382   3.681   3.020  0.4901  0.9928 -0.1109
 6361SOL     OW30715   4.694   3.203   3.552  0.1884 -0.5330 -0.8335
 6361SOL    HW130716   0.001   3.249   3.481 -0.7258  2.8026  0.7747
 6361SOL    HW230717   4.665   3.121   3.511 -0.6418 -0.5851 -0.1360
 6362SOL     OW30718   0.658   0.276   2.470 -0.0535  0.2121 -0.1232
 6362SOL    HW130719   0.728   0.268   2.534 -2.0140  0.0554  2.0305
 6362SOL    HW230720   0.700   0.311   2.392 -2.9539  1.3074 -1.2050
 6363SOL     OW30721   1.535   1.298  13.464 -0.3151  0.2327  0.1100
 6363SOL    HW130722   1.495   1.243  13.396  1.0963 -1.4367  0.6115
 6363SOL    HW230723   1.626   1.302  13.435  0.4921  0.4372  2.7013
 6364SOL     OW30724   0.137   3.572   5.421 -0.1021  0.1544 -0.2256
 6364SOL    HW130725   0.159   3.483   5.450  1.8655  0.8343  0.3704
 6364SOL    HW230726   0.059   3.603   5.465  0.1438  1.9384 -1.0634
 6365SOL     OW30727   0.172   3.769   1.737 -0.5030  0.3367 -0.5501
 6365SOL    HW130728   0.261   3.800   1.753 -1.0281  0.8812  1.3208
 6365SOL    HW230729   0.126   3.852   1.727 -0.7626  0.3111  0.3981
 6366SOL     OW30730   2.590   3.368   1.366 -0.1227  0.1639  0.2859
 6366SOL    HW130731   2.540   3.286   1.361  1.5845 -0.9366  1.2259
 6366SOL    HW230732   2.522   3.419   1.323  0.3729  0.5118 -0.0959
 6367SOL     OW30733   3.524   1.214   0.588  0.0045 -0.2700  0.3017
 6367SOL    HW130734   3.548   1.212   0.495 -2.1212  0.1588 -0.2507
 6367SOL    HW230735   3.454   1.279   0.583  0.3125  0.2764  3.3434
 6368SOL     OW30736   2.667   3.811  17.145  0.8413  0.3999 -0.7101
 6368SOL    HW130737   2.731   3.876  17.176 -0.1527  1.8274 -1.6230
 6368SOL    HW230738   2.711   3.735  17.183  0.5424 -0.0374 -1.2428
 6369SOL     OW30739   1.260   3.388   8.067  0.2137  0.5596 -0.2476
 6369SOL    HW130740   1.310   3.403   8.148  0.7674 -1.3773 -0.2421
 6369SOL    HW230741   1.325   3.336   8.019 -0.7655 -1.2286  0.4043
 6370SOL     OW30742   0.480   4.107  11.948  0.1511 -0.0781  0.0483
 6370SOL    HW130743   0.556   4.092  11.892 -1.3319 -1.1341 -1.6959
 6370SOL    HW230744   0.420   4.043  11.911  1.5107 -0.4989 -1.4497
 6371SOL     OW30745   4.499   2.050  11.207  0.4124  0.4427  0.9474
 6371SOL    HW130746   4.489   1.974  11.263 -2.3574  1.4805  1.8742
 6371SOL    HW230747   4.482   2.125  11.265  1.0906  1.7929 -0.5874
 6372SOL     OW30748   3.194   0.723   5.477 -0.4154 -0.2834 -0.1569
 6372SOL    HW130749   3.272   0.675   5.508  0.9471  0.6150 -2.1811
 6372SOL    HW230750   3.147   0.644   5.450 -0.8038 -0.4425  0.9886
 6373SOL     OW30751   4.734   3.422   8.047 -0.0441  0.1995 -0.5635
 6373SOL    HW130752   4.713   3.502   7.998 -0.7333  0.2147 -0.2354
 6373SOL    HW230753   4.710   3.353   7.985 -1.9471 -0.4951  0.9481
 6374SOL     OW30754   2.998   1.118   2.604 -0.2828 -0.2107 -0.1703
 6374SOL    HW130755   2.993   1.119   2.699  1.3840 -2.2387 -0.0460
 6374SOL    HW230756   2.921   1.161   2.568  0.1873  1.9104  1.3557
 6375SOL     OW30757   4.436   4.361   4.718 -0.3071  0.0364  0.2880
 6375SOL    HW130758   4.521   4.371   4.675  0.2293  0.1544  1.3676
 6375SOL    HW230759   4.451   4.280   4.767 -1.0945 -0.0262  0.4279
 6376SOL     OW30760   1.090   4.714  17.429 -0.1111 -0.1002  0.2164
 6376SOL    HW130761   1.060   4.625  17.451  0.2668 -0.2614  0.0831
 6376SOL    HW230762   1.054   4.721  17.341 -0.4764 -0.0589  0.3707
 6377SOL     OW30763   2.183   0.211   5.026 -0.0940  0.3950  0.0873
 6377SOL    HW130764   2.227   0.284   4.982  0.8327 -0.6588 -0.7327
 6377SOL    HW230765   2.130   0.179   4.953  3.0337 -2.0674 -1.0987
 6378SOL     OW30766   0.838   2.965   7.977  0.0549 -0.0178  0.2335
 6378SOL    HW130767   0.927   2.998   7.960 -0.0951  1.4000  2.2354
 6378SOL    HW230768   0.780   3.041   7.973 -2.0440 -1.6710 -0.3549
 6379SOL     OW30769   4.605   0.838   4.036 -0.1883  0.0320 -0.0397
 6379SOL    HW130770   4.576   0.929   4.026  0.7362  0.3749  0.4483
 6379SOL    HW230771   4.590   0.807   3.946  1.7462 -0.6730 -0.1138
 6380SOL     OW30772   2.124   4.336   3.130 -0.5636 -0.0394  0.2485
 6380SOL    HW130773   2.044   4.292   3.157 -2.7737  4.8476  1.6790
 6380SOL    HW230774   2.154   4.287   3.053  0.9488 -1.0465  1.4826
 6381SOL     OW30775   4.147   0.732   7.677 -0.5228  0.1507 -0.1673
 6381SOL    HW130776   4.217   0.797   7.673 -0.4446  0.0459 -0.4461
 6381SOL    HW230777   4.090   0.763   7.607 -0.4741  0.4116 -0.0894
 6382SOL     OW30778   2.916   1.744   5.476 -0.4726  0.6088 -0.5001
 6382SOL    HW130779   2.971   1.793   5.415  0.1826  0.9719  0.3851
 6382SOL    HW230780   2.834   1.787   5.456 -1.0400  0.7549  2.0983
 6383SOL     OW30781   1.820   0.685   5.450 -0.4130  0.1297  0.4100
 6383SOL    HW130782   1.753   0.722   5.507 -0.4251  1.5618 -0.5538
 6383SOL    HW230783   1.863   0.762   5.412 -3.2208  2.4283  1.8983
 6384SOL     OW30784   3.835   3.647   9.371 -0.3095 -0.8782 -0.2160
 6384SOL    HW130785   3.927   3.628   9.393  0.2364  0.9339 -0.9177
 6384SOL    HW230786   3.796   3.570   9.412 -0.3827 -1.3474 -1.1818
 6385SOL     OW30787   1.912   3.862   6.811  0.4354  0.0838  0.0344
 6385SOL    HW130788   1.914   3.825   6.899 -0.8280  3.3855  1.4392
 6385SOL    HW230789   1.995   3.828   6.775  0.1627 -1.2442  0.6613
 6386SOL     OW30790   0.068   2.116   1.602 -0.4696 -0.8127 -0.6450
 6386SOL    HW130791   0.148   2.108   1.550  1.3160 -0.0854  2.0149
 6386SOL    HW230792   0.013   2.047   1.565 -1.8016 -0.8506  1.3835
 6387SOL     OW30793   2.703   2.638   5.843 -0.1920  0.4410 -0.6498
 6387SOL    HW130794   2.717   2.688   5.923  0.4934 -0.4374 -0.2183
 6387SOL    HW230795   2.784   2.587   5.845 -0.1033  0.7279  4.2736
 6388SOL     OW30796   3.973   2.185   3.775  0.0971  0.2189  0.0400
 6388SOL    HW130797   3.884   2.220   3.770 -0.2609 -0.7763 -0.7557
 6388SOL    HW230798   3.975   2.174   3.870  1.5457 -0.5320 -0.0681
 6389SOL     OW30799   1.728   2.003   8.512 -0.2511  0.0290 -0.7384
 6389SOL    HW130800   1.640   2.023   8.544  0.4919  0.2566  1.1940
 6389SOL    HW230801   1.763   1.944   8.580  0.3556  1.3309  0.0730
 6390SOL     OW30802   2.813   2.724  17.200 -0.5101 -0.1420 -0.2608
 6390SOL    HW130803   2.779   2.809  17.175 -1.0945  0.5248  2.8742
 6390SOL    HW230804   2.744   2.700  17.262  2.7385 -0.6180  3.1455
 6391SOL     OW30805   3.352   3.142   2.018 -0.1634 -0.2971 -0.1535
 6391SOL    HW130806   3.307   3.113   2.097 -2.4057  3.6341 -0.0245
 6391SOL    HW230807   3.391   3.057   1.997 -1.7898 -0.7757 -1.2867
 6392SOL     OW30808   4.529   4.357  13.992  0.3288  1.2074 -0.0367
 6392SOL    HW130809   4.610   4.399  13.963  2.0459 -0.7701  1.8077
 6392SOL    HW230810   4.547   4.282  13.935  0.8045 -0.1463  1.8484
 6393SOL     OW30811   1.300   1.849  16.953  0.1950  0.3652  1.0170
 6393SOL    HW130812   1.274   1.901  16.876 -1.3903 -2.2822 -0.2407
 6393SOL    HW230813   1.387   1.816  16.929  0.4132 -0.0262  2.3435
 6394SOL     OW30814   3.453   2.640   2.595  0.1343 -0.4994 -0.2242
 6394SOL    HW130815   3.439   2.707   2.662  0.1163 -1.2642  0.5394
 6394SOL    HW230816   3.410   2.676   2.518 -2.2321 -2.6522  0.1223
 6395SOL     OW30817   0.878   1.792   9.357  0.5976  0.6390  0.3316
 6395SOL    HW130818   0.944   1.723   9.359 -0.6063 -0.4531  1.9736
 6395SOL    HW230819   0.846   1.787   9.267  0.1015 -1.4607  0.6485
 6396SOL     OW30820   3.122   0.734   2.001  0.2691  0.2586  0.4095
 6396SOL    HW130821   3.043   0.688   2.028  0.6685  0.1951  1.4926
 6396SOL    HW230822   3.191   0.667   2.001 -0.2108 -0.2372  0.2773
 6397SOL     OW30823   3.225   0.041  16.034 -0.6439 -0.0922 -0.9409
 6397SOL    HW130824   3.215   0.046  16.129  2.6503 -2.2558 -0.5062
 6397SOL    HW230825   3.291   4.710  16.025 -3.0036 -2.3311 -1.5414
 6398SOL     OW30826   3.237   2.772   9.043 -0.1689 -0.3222 -0.2787
 6398SOL    HW130827   3.218   2.757   9.135  1.7095  1.6097  0.4199
 6398SOL    HW230828   3.225   2.682   9.012  1.3020 -0.6593  0.0981
 6399SOL     OW30829   1.135   2.620   2.104  0.2230  0.1442 -0.3742
 6399SOL    HW130830   1.211   2.580   2.147  0.4759  3.4450  2.2246
 6399SOL    HW230831   1.092   2.537   2.084 -2.1889  0.9660  1.4356
 6400SOL     OW30832   4.654   2.087   4.330  0.4799  0.2647  0.3575
 6400SOL    HW130833   4.560   2.071   4.331  1.0780 -3.4043  0.1341
 6400SOL    HW230834   4.665   2.052   4.242 -0.3147  1.4909 -0.2131
 6401SOL     OW30835   3.885   4.691   7.652 -0.0644 -0.1716  0.2286
 6401SOL    HW130836   3.833   4.648   7.719  0.7530 -0.3401  0.7591
 6401SOL    HW230837   3.820   4.688   7.582  1.8027  0.1508 -1.5143
 6402SOL     OW30838   3.410   1.984   8.675 -0.4967 -0.1453  0.1450
 6402SOL    HW130839   3.430   1.962   8.766  1.4524  3.8665  0.7099
 6402SOL    HW230840   3.389   1.900   8.635  0.7500 -0.0006 -0.7993
 6403SOL     OW30841   3.923   1.319   2.468  0.6822 -0.1317 -1.5867
 6403SOL    HW130842   3.890   1.360   2.548 -2.0650 -1.5978 -1.9641
 6403SOL    HW230843   3.938   1.398   2.417  3.3407  0.7087  0.4850
 6404SOL     OW30844   0.889   3.073   8.389  0.1237  0.3231 -0.3857
 6404SOL    HW130845   0.939   2.993   8.374 -1.2444 -0.6953  0.5843
 6404SOL    HW230846   0.950   3.125   8.337  0.9441 -0.4279 -0.1866
 6405SOL     OW30847   1.227   4.280  11.192 -0.2128 -0.1215  0.3003
 6405SOL    HW130848   1.184   4.353  11.237  0.6491  0.5853 -0.0295
 6405SOL    HW230849   1.257   4.325  11.113 -0.0646  1.7661  1.4264
 6406SOL     OW30850   0.942   3.401   5.796  1.0273 -0.0786 -0.1613
 6406SOL    HW130851   1.037   3.395   5.790  0.8176 -2.4922 -1.0345
 6406SOL    HW230852   0.930   3.479   5.850 -0.7090 -0.5504  0.1525
 6407SOL     OW30853   3.260   0.692   8.126  0.0516 -0.1539 -0.0576
 6407SOL    HW130854   3.233   0.668   8.215 -0.3087 -0.4187 -0.2401
 6407SOL    HW230855   3.208   0.772   8.113 -1.7262 -1.3572 -0.2902
 6408SOL     OW30856   3.436   1.922   4.933  0.9632 -0.6866  0.2011
 6408SOL    HW130857   3.432   2.017   4.947 -0.4123 -0.8079  0.6190
 6408SOL    HW230858   3.418   1.922   4.839  1.2505 -1.8404  0.1413
 6409SOL     OW30859   0.512   3.140   4.400  0.1086  0.7146  0.6133
 6409SOL    HW130860   0.438   3.200   4.399  0.2229  0.8715  1.1709
 6409SOL    HW230861   0.549   3.132   4.313 -0.5036 -2.3097  0.6049
 6410SOL     OW30862   2.323   0.141   4.779  0.4581 -0.4514  0.2696
 6410SOL    HW130863   2.232   0.166   4.759  0.4816 -0.0954  0.6299
 6410SOL    HW230864   2.373   0.202   4.726 -1.3159 -0.3877 -1.3537
 6411SOL     OW30865   0.162   1.131   3.104 -0.1885  0.0535  0.3118
 6411SOL    HW130866   0.133   1.089   3.185 -0.0191 -1.2734 -0.3170
 6411SOL    HW230867   0.106   1.091   3.038  0.5412 -0.2506 -0.1275
 6412SOL     OW30868   0.819   2.078   6.782 -0.5722  0.1403 -0.0698
 6412SOL    HW130869   0.781   2.162   6.759  0.5773  0.7255  0.1719
 6412SOL    HW230870   0.875   2.059   6.707  0.2820  1.2837  0.2747
 6413SOL     OW30871   4.458   3.801   9.918 -0.2994  0.2447  0.5392
 6413SOL    HW130872   4.490   3.890   9.901 -1.0404  0.2306 -0.8923
 6413SOL    HW230873   4.511   3.752   9.856 -1.3924  2.0201 -1.8132
 6414SOL     OW30874   4.649   2.186  14.506  0.3744  0.1235 -0.5689
 6414SOL    HW130875   4.554   2.197  14.512  0.0703 -1.5418 -2.2776
 6414SOL    HW230876   4.654   2.095  14.475 -0.2927 -0.9400  2.4623
 6415SOL     OW30877   0.965   0.352   2.155 -0.1531  0.0847  0.1845
 6415SOL    HW130878   0.905   0.412   2.111  2.7486  1.5664 -1.8229
 6415SOL    HW230879   0.943   0.377   2.245 -2.4609  2.6959 -1.1040
 6416SOL     OW30880   4.446   3.233   6.198 -0.2351  0.2862  0.1085
 6416SOL    HW130881   4.519   3.260   6.255 -0.2182  0.3409  0.0616
 6416SOL    HW230882   4.500   3.203   6.125 -0.7160 -0.7176  0.1754
 6417SOL     OW30883   2.418   2.121   6.750 -0.6031  0.0855  0.0586
 6417SOL    HW130884   2.414   2.065   6.827 -1.9396 -0.3927 -0.3609
 6417SOL    HW230885   2.499   2.091   6.707 -0.9198 -0.3334 -0.2488
 6418SOL     OW30886   3.821   3.217   2.849  0.0441 -0.1527 -0.2128
 6418SOL    HW130887   3.854   3.150   2.788  1.3924  0.3053  0.0094
 6418SOL    HW230888   3.818   3.294   2.792 -5.1968 -1.0899 -1.1476
 6419SOL     OW30889   1.139   2.323  17.348  0.7377 -0.0759  0.0261
 6419SOL    HW130890   1.185   2.267  17.286 -0.4171 -0.9787 -0.0067
 6419SOL    HW230891   1.054   2.336  17.306  1.2134 -1.6389 -1.4454
 6420SOL     OW30892   1.149   3.406   4.840 -0.7028 -0.0245 -0.2955
 6420SOL    HW130893   1.204   3.342   4.794  0.7836 -0.0609  1.5363
 6420SOL    HW230894   1.068   3.405   4.790 -0.7753  2.7801 -0.2716
 6421SOL     OW30895   2.209   2.567  17.108  0.0980 -0.0760 -0.2777
 6421SOL    HW130896   2.202   2.537  17.198  0.5358 -0.8547 -0.5009
 6421SOL    HW230897   2.155   2.645  17.114  0.4825  0.0646  1.3157
 6422SOL     OW30898   0.506   1.296   3.088  0.1559  0.3189 -0.0982
 6422SOL    HW130899   0.511   1.237   3.013 -0.3058  1.1822 -0.7941
 6422SOL    HW230900   0.583   1.352   3.080 -0.6830  1.5476  0.4111
 6423SOL     OW30901   3.555   3.935   9.569  0.0396 -0.1362 -0.3603
 6423SOL    HW130902   3.538   3.981   9.652  0.2508 -1.0132  0.1617
 6423SOL    HW230903   3.489   3.865   9.570 -1.2557  1.0795 -0.1499
 6424SOL     OW30904   2.749   1.063  12.386  0.6506 -0.0334 -0.1875
 6424SOL    HW130905   2.742   1.139  12.329  2.7824  0.0113 -0.4004
 6424SOL    HW230906   2.843   1.061  12.405  0.5013 -0.7677  0.4588
 6425SOL     OW30907   3.555   0.564  11.427 -0.3225 -0.2353 -0.0821
 6425SOL    HW130908   3.637   0.524  11.455 -1.7643 -1.1579  2.8365
 6425SOL    HW230909   3.572   0.569  11.333  1.8565  1.8596  0.4459
 6426SOL     OW30910   3.962   3.258   1.549  0.3701  0.5429 -0.3521
 6426SOL    HW130911   3.953   3.222   1.460  0.3845  2.7958 -1.2583
 6426SOL    HW230912   3.910   3.338   1.543  1.1892  1.0706 -0.4546
 6427SOL     OW30913   4.334   2.865   4.186  0.3053 -0.1264 -0.4113
 6427SOL    HW130914   4.340   2.821   4.101 -1.5241 -3.1076  1.0153
 6427SOL    HW230915   4.241   2.881   4.199  0.3175 -0.4746  0.1519
 6428SOL     OW30916   3.719   4.053   3.581  0.3918  0.1965 -0.6016
 6428SOL    HW130917   3.652   4.082   3.643 -1.2835 -3.3385 -0.7297
 6428SOL    HW230918   3.801   4.083   3.618  0.2315 -2.3179  1.8445
 6429SOL     OW30919   4.719   1.593  13.548  0.6179  0.1117  0.3895
 6429SOL    HW130920   4.625   1.600  13.562  0.5391 -1.8561  0.8871
 6429SOL    HW230921   0.008   1.542  13.625  1.2414  1.4550  1.0613
 6430SOL     OW30922   3.994   0.588   5.842 -0.1612  0.5320  0.7008
 6430SOL    HW130923   3.958   0.626   5.923  2.3937  0.0868  2.0598
 6430SOL    HW230924   4.087   0.609   5.836  0.2475 -0.9865  1.9102
 6431SOL     OW30925   0.240   4.205   1.834 -0.3597  0.3154 -0.2246
 6431SOL    HW130926   0.247   4.239   1.745  0.2533 -0.4585 -0.4800
 6431SOL    HW230927   0.180   4.134   1.812  1.1522 -1.6817  2.0741
 6432SOL     OW30928   2.651   4.064   2.987 -0.4841 -0.3077  0.0072
 6432SOL    HW130929   2.582   4.086   3.051 -0.9685 -2.0374  0.0889
 6432SOL    HW230930   2.600   4.069   2.906  0.6954  1.5622 -0.6150
 6433SOL     OW30931   1.925   4.467   6.664 -0.0250  0.4381  0.3202
 6433SOL    HW130932   1.942   4.457   6.758  0.5133  0.4243  0.2247
 6433SOL    HW230933   1.845   4.417   6.650 -1.9892  3.7875 -0.3287
 6434SOL     OW30934   1.154   2.841   2.943 -0.2923 -0.0096  0.4923
 6434SOL    HW130935   1.088   2.797   2.997  0.3464 -1.9212 -0.2565
 6434SOL    HW230936   1.133   2.814   2.853  0.7247  0.1367  0.2145
 6435SOL     OW30937   2.961   3.210  15.528  0.4191  0.5408 -0.2540
 6435SOL    HW130938   2.920   3.293  15.501  0.5332  0.9095  0.7233
 6435SOL    HW230939   2.887   3.149  15.534  0.4331  0.4991 -0.4861
 6436SOL     OW30940   1.702   0.683   6.850  0.7193  0.0834 -0.0472
 6436SOL    HW130941   1.612   0.666   6.823  0.4860 -0.7753  1.2641
 6436SOL    HW230942   1.716   0.775   6.827  0.9253 -0.4962 -2.2417
 6437SOL     OW30943   0.010   0.726  14.836  0.0160 -0.4179 -0.1694
 6437SOL    HW130944   0.066   0.762  14.905  0.2766 -3.7717  1.3817
 6437SOL    HW230945   4.703   0.651  14.877 -1.1260  0.6531  0.5776
 6438SOL     OW30946   0.383   1.884   6.526  0.3925 -0.4450 -0.2645
 6438SOL    HW130947   0.293   1.877   6.496 -0.4361 -0.1362  2.1111
 6438SOL    HW230948   0.413   1.970   6.496 -0.9248  0.4123  0.8571
 6439SOL     OW30949   0.010   2.778   2.630 -0.2173 -0.1129  0.1708
 6439SOL    HW130950   4.669   2.779   2.684  0.6894  2.4982  1.3991
 6439SOL    HW230951   0.054   2.856   2.664 -0.9453  0.3527  0.0378
 6440SOL     OW30952   3.071   1.008   7.491 -0.4863  0.0956  0.0721
 6440SOL    HW130953   3.160   0.975   7.480 -1.3615 -1.5069 -2.0380
 6440SOL    HW230954   3.020   0.931   7.467  0.1883 -0.9902  2.0597
 6441SOL     OW30955   1.664   2.034   7.494 -0.1534  0.2941 -0.0750
 6441SOL    HW130956   1.606   2.052   7.568 -1.4427 -2.5982 -0.3912
 6441SOL    HW230957   1.726   1.973   7.534  0.8792  0.7567 -0.9868
 6442SOL     OW30958   0.719   1.903   2.592 -0.4968  0.0268 -0.0506
 6442SOL    HW130959   0.633   1.901   2.634 -1.4142 -0.7770 -2.0183
 6442SOL    HW230960   0.770   1.852   2.655 -0.6868 -0.4427 -0.2855
 6443SOL     OW30961   2.246   1.434   3.632  0.3441 -0.1810 -0.6386
 6443SOL    HW130962   2.282   1.522   3.620  0.8683 -0.4450 -1.0161
 6443SOL    HW230963   2.222   1.429   3.725  0.7495 -0.9649 -0.5788
 6444SOL     OW30964   4.347   0.126   7.579  0.8570  0.0175  0.5778
 6444SOL    HW130965   4.305   0.061   7.523  0.7731  0.9316 -0.4054
 6444SOL    HW230966   4.283   0.161   7.641  1.1479 -0.3660  1.0933
 6445SOL     OW30967   2.586   0.747   9.541 -0.0579 -0.2102  0.0640
 6445SOL    HW130968   2.567   0.688   9.614 -0.6608 -0.2711 -0.1436
 6445SOL    HW230969   2.498   0.755   9.503 -1.5372 -0.3994  3.4087
 6446SOL     OW30970   1.927   2.214   3.847  0.1510 -0.3798  0.1159
 6446SOL    HW130971   1.855   2.188   3.903  0.5197  0.4167  0.9639
 6446SOL    HW230972   1.941   2.307   3.864 -1.6055 -0.4296  1.7406
 6447SOL     OW30973   0.657   2.632   8.240  0.2073  0.2831  0.0146
 6447SOL    HW130974   0.696   2.562   8.292  0.0791 -0.8049 -1.3334
 6447SOL    HW230975   0.565   2.623   8.265 -0.0026 -0.9444 -1.1838
 6448SOL     OW30976   4.366   2.644   4.385  0.1897 -0.2418  0.1144
 6448SOL    HW130977   4.286   2.682   4.421  0.2557  0.9748 -1.0540
 6448SOL    HW230978   4.392   2.707   4.319 -2.7353  0.7993 -0.0619
 6449SOL     OW30979   4.163   1.664  13.752 -0.6348 -0.5263  0.0010
 6449SOL    HW130980   4.144   1.711  13.833 -1.9037 -0.1444 -0.5175
 6449SOL    HW230981   4.165   1.738  13.691 -0.0157  0.8995  1.7782
 6450SOL     OW30982   1.909   0.056   3.906 -0.2024  0.6895 -0.0870
 6450SOL    HW130983   1.986   0.025   3.953 -0.1955  1.5004  0.4279
 6450SOL    HW230984   1.841   0.042   3.973 -0.0558 -0.7659 -0.2421
 6451SOL     OW30985   4.183   4.368   4.592 -0.1654  0.3303 -0.2469
 6451SOL    HW130986   4.171   4.276   4.618 -1.6389  1.5078  3.2726
 6451SOL    HW230987   4.251   4.394   4.654  0.1416  0.9888 -0.8709
 6452SOL     OW30988   0.252   2.570   3.698 -0.4359  0.0939  0.4201
 6452SOL    HW130989   0.180   2.604   3.645  0.6029 -2.7171 -2.8294
 6452SOL    HW230990   0.208   2.520   3.766  0.1212 -0.6049  0.2678
 6453SOL     OW30991   1.419   1.325   8.761 -0.0668 -0.0196  0.1606
 6453SOL    HW130992   1.492   1.332   8.823 -0.9986  0.1548  1.2313
 6453SOL    HW230993   1.383   1.239   8.784 -2.2039  1.6355  3.0895
 6454SOL     OW30994   0.731   2.258  13.471  0.4797  0.3701  0.2846
 6454SOL    HW130995   0.730   2.348  13.505  0.0251 -0.0415  1.3511
 6454SOL    HW230996   0.794   2.271  13.400 -0.6450 -0.5278 -0.8824
 6455SOL     OW30997   2.237   0.410   2.431  0.6720  0.2464 -0.0338
 6455SOL    HW130998   2.318   0.393   2.480  1.0141 -3.3883 -1.9119
 6455SOL    HW230999   2.186   0.330   2.437  0.4735  0.4172  0.6195
 6456SOL     OW31000   0.782   1.198   6.229  0.4473  0.4372  0.6415
 6456SOL    HW131001   0.723   1.274   6.235 -0.5054 -0.2708  0.1525
 6456SOL    HW231002   0.830   1.198   6.312 -0.4185  2.3464  1.1528
 6457SOL     OW31003   3.652   4.358   9.826  0.4323 -0.1835  0.2729
 6457SOL    HW131004   3.626   4.442   9.863 -1.4098 -0.9302  0.7026
 6457SOL    HW231005   3.665   4.375   9.733  1.8242 -1.0610  0.3114
 6458SOL     OW31006   2.520   2.322   2.678 -0.8156  0.0001 -0.3403
 6458SOL    HW131007   2.585   2.380   2.717 -1.3111 -0.1392  0.6916
 6458SOL    HW231008   2.462   2.382   2.631 -0.9755  0.0671 -0.0581
 6459SOL     OW31009   3.488   0.870   5.450  0.0821  0.1616 -0.1371
 6459SOL    HW131010   3.448   0.847   5.533  0.1496 -1.9459 -0.6868
 6459SOL    HW231011   3.571   0.824   5.461 -1.1344 -2.6196 -2.3849
 6460SOL     OW31012   1.588   3.247   5.535 -0.5921 -0.4536  0.5238
 6460SOL    HW131013   1.670   3.287   5.563  0.7389 -0.8303 -2.7483
 6460SOL    HW231014   1.592   3.227   5.441 -0.6307  0.3834  0.3435
 6461SOL     OW31015   1.276   2.828  12.345 -0.4646  0.3006  0.1062
 6461SOL    HW131016   1.261   2.900  12.406  1.0940  1.3958 -0.8098
 6461SOL    HW231017   1.310   2.764  12.408 -1.9152 -3.1146 -2.5492
 6462SOL     OW31018   3.997   0.773   8.913 -0.6732  0.2974 -0.4943
 6462SOL    HW131019   4.077   0.756   8.863  0.1063  1.2152  0.4311
 6462SOL    HW231020   4.035   0.784   9.000 -0.0996 -4.7184 -0.1004
 6463SOL     OW31021   1.841   1.810   2.435 -0.1439 -0.2960  0.0042
 6463SOL    HW131022   1.808   1.782   2.350  2.5504 -0.3833 -1.0110
 6463SOL    HW231023   1.894   1.887   2.413 -0.6029 -0.2841 -1.0436
 6464SOL     OW31024   4.158   4.678  11.692 -0.0227 -0.1523  0.2039
 6464SOL    HW131025   4.099   0.015  11.705  1.0778  0.9853 -1.2205
 6464SOL    HW231026   4.103   4.608  11.657 -1.5085  2.5958 -2.9927
 6465SOL     OW31027   2.854   0.225  17.736  0.7875  0.4218 -0.1309
 6465SOL    HW131028   2.900   0.184  17.662  0.8774 -1.0113  0.7069
 6465SOL    HW231029   2.900   0.308   0.002 -1.8499  1.6918  1.1096
 6466SOL     OW31030   1.219   1.904   1.003 -0.1685  0.0616  0.7615
 6466SOL    HW131031   1.309   1.928   1.023 -0.6957  2.0660  0.7324
 6466SOL    HW231032   1.183   1.985   0.966  3.6696  0.9839 -0.9293
 6467SOL     OW31033   4.678   4.676   4.421  0.1199  0.3773 -0.5487
 6467SOL    HW131034   4.598   4.675   4.368 -0.8057  0.4728  0.8592
 6467SOL    HW231035   4.690   4.587   4.388  0.1291  0.0783  0.2639
 6468SOL     OW31036   2.491   1.290   8.355  0.4124 -0.4226 -0.7513
 6468SOL    HW131037   2.427   1.281   8.284  0.7345  1.7671 -1.3254
 6468SOL    HW231038   2.575   1.267   8.315  1.0942  0.0005  0.4455
 6469SOL     OW31039   4.028   3.418   7.849 -0.5812 -0.2680  0.5970
 6469SOL    HW131040   4.000   3.332   7.881  4.7715 -0.5708  4.4749
 6469SOL    HW231041   4.016   3.476   7.925  0.9067  1.3146 -0.3665
 6470SOL     OW31042   4.341   3.989   0.080 -0.2371  0.8416  0.2633
 6470SOL    HW131043   4.372   3.983  17.736 -1.2840  0.5857 -0.0709
 6470SOL    HW231044   4.263   4.044   0.072 -0.5084  0.3159 -0.6083
 6471SOL     OW31045   3.249   4.018   3.043  0.3698  0.3906  0.2560
 6471SOL    HW131046   3.185   3.951   3.067 -0.6435  1.2583 -0.0945
 6471SOL    HW231047   3.317   4.003   3.110 -1.0650  1.4426  1.9243
 6472SOL     OW31048   2.073   1.564  12.683  0.0947  0.4929 -0.1965
 6472SOL    HW131049   2.146   1.550  12.743 -0.7333  0.7218  0.8591
 6472SOL    HW231050   2.069   1.484  12.630  0.9001  1.3520 -1.5692
 6473SOL     OW31051   0.196   0.602  13.174 -0.3655  0.2266 -0.3601
 6473SOL    HW131052   0.154   0.663  13.235  0.3475  0.1655  0.1870
 6473SOL    HW231053   0.214   0.529  13.233 -0.1699 -0.0636 -0.7775
 6474SOL     OW31054   4.072   2.473   3.355 -0.5689 -0.2626  0.5091
 6474SOL    HW131055   4.054   2.387   3.393 -0.6907  0.2509  1.6003
 6474SOL    HW231056   4.015   2.467   3.278  1.9393 -3.7792 -1.0886
 6475SOL     OW31057   0.349   0.945  17.429  0.5638 -0.2196  0.5159
 6475SOL    HW131058   0.305   1.014  17.478  0.3132  0.7099 -0.9880
 6475SOL    HW231059   0.296   0.867  17.444  0.5967 -0.0926  1.2684
 6476SOL     OW31060   1.546   3.037   6.077 -0.0684  0.1358  0.6229
 6476SOL    HW131061   1.523   2.978   6.148  0.5474  0.2616  0.9214
 6476SOL    HW231062   1.631   3.006   6.047 -0.8636 -0.6562 -0.8202
 6477SOL     OW31063   1.841   3.517   8.723  0.2396 -0.1996  0.0356
 6477SOL    HW131064   1.874   3.430   8.745  0.1795 -0.3381 -0.4222
 6477SOL    HW231065   1.885   3.576   8.783 -0.9541 -0.0682  0.7873
 6478SOL     OW31066   3.857   0.429   3.437 -0.0897  0.3086 -0.5257
 6478SOL    HW131067   3.846   0.339   3.468 -0.2790  0.3361 -0.5118
 6478SOL    HW231068   3.768   0.457   3.455 -1.2608 -3.8339  0.1253
 6479SOL     OW31069   4.193   3.015   7.168  0.4495  0.5625 -0.4617
 6479SOL    HW131070   4.217   3.043   7.256 -0.3148  0.5645 -0.2551
 6479SOL    HW231071   4.218   2.923   7.174  2.0075  1.0281  0.0041
 6480SOL     OW31072   3.645   2.806  14.615 -0.3971 -0.0118 -0.1929
 6480SOL    HW131073   3.652   2.901  14.616  2.7029 -0.2111 -2.0333
 6480SOL    HW231074   3.726   2.773  14.577 -0.2353  0.2774 -0.0912
 6481SOL     OW31075   3.072   4.570   2.592  0.4357 -0.1067 -0.0938
 6481SOL    HW131076   3.019   4.635   2.638 -0.7616 -2.5308  1.9267
 6481SOL    HW231077   3.016   4.499   2.561 -1.0952  1.6935 -1.4425
 6482SOL     OW31078   1.532   3.130   7.514  0.4499  0.7466 -0.0743
 6482SOL    HW131079   1.467   3.065   7.542  0.2297  0.9977  0.0019
 6482SOL    HW231080   1.602   3.071   7.487 -1.1780 -0.6298 -1.2046
 6483SOL     OW31081   0.325   1.812   1.786 -0.4763 -0.2168 -0.1910
 6483SOL    HW131082   0.344   1.905   1.773  0.2582 -0.4770 -0.9808
 6483SOL    HW231083   0.340   1.793   1.878 -0.8068 -2.4647 -0.5944
 6484SOL     OW31084   1.568   1.310   5.087  0.7022 -0.7457  0.3342
 6484SOL    HW131085   1.589   1.398   5.057 -0.3066 -0.3357  0.8199
 6484SOL    HW231086   1.473   1.314   5.076  0.7504  2.0546  0.9765
 6485SOL     OW31087   0.454   3.429   3.630 -0.3102  0.3845  0.5968
 6485SOL    HW131088   0.443   3.353   3.573  0.5080  0.4934  0.2865
 6485SOL    HW231089   0.375   3.425   3.683 -0.9597 -0.0881 -0.4233
 6486SOL     OW31090   1.493   4.586   1.444 -0.3906 -0.5887 -0.1905
 6486SOL    HW131091   1.417   4.629   1.484 -0.6235 -1.5296  0.3629
 6486SOL    HW231092   1.479   4.588   1.349 -0.1142  0.8192 -0.2044
 6487SOL     OW31093   1.084   2.245  13.815  0.2343 -0.9377  0.2922
 6487SOL    HW131094   1.004   2.220  13.861  0.1642  0.7689  1.0979
 6487SOL    HW231095   1.073   2.227  13.721 -3.5697 -1.2225  0.8003
 6488SOL     OW31096   3.013   3.784   5.678 -0.0470 -0.6900  0.3442
 6488SOL    HW131097   2.996   3.690   5.673 -1.0795 -0.5610  1.3923
 6488SOL    HW231098   2.936   3.819   5.631  1.9103  2.6528 -0.3787
 6489SOL     OW31099   4.393   0.964  15.918  0.0914  0.0168 -0.0564
 6489SOL    HW131100   4.336   0.950  15.842 -0.4452 -1.0335  0.5286
 6489SOL    HW231101   4.352   1.034  15.969 -1.0726  0.2639 -1.3303
 6490SOL     OW31102   4.204   2.528   9.937 -0.4102 -0.0392 -0.2482
 6490SOL    HW131103   4.172   2.602   9.989  2.3732  0.8017  0.2329
 6490SOL    HW231104   4.223   2.457   9.999 -1.1270 -1.4261 -1.6084
 6491SOL     OW31105   3.070   1.498   8.738  0.1686  0.3783 -0.3032
 6491SOL    HW131106   3.044   1.550   8.662 -1.6838  0.7396  0.5634
 6491SOL    HW231107   3.163   1.519   8.734 -0.6034  3.3905 -2.6940
 6492SOL     OW31108   4.552   0.938   9.413 -0.1112  0.6270 -0.5619
 6492SOL    HW131109   4.536   0.905   9.502  1.9286  3.6954  0.9405
 6492SOL    HW231110   4.648   0.943   9.405 -0.2165  1.2539 -1.4390
 6493SOL     OW31111   4.449   2.583  17.193 -0.0239  0.3372  0.1439
 6493SOL    HW131112   4.465   2.606  17.102  1.9732  1.0505  0.6774
 6493SOL    HW231113   4.497   2.500  17.194 -2.0547 -0.8413 -1.3305
 6494SOL     OW31114   1.521   4.119   4.950  0.1658 -0.0327 -0.3216
 6494SOL    HW131115   1.496   4.034   4.984 -0.7141  0.3092 -0.1086
 6494SOL    HW231116   1.437   4.147   4.913 -0.2616 -2.3977 -1.1333
 6495SOL     OW31117   0.483   4.483  17.292 -0.0194  0.1567 -0.0893
 6495SOL    HW131118   0.488   4.420  17.220 -0.5088 -1.1676  1.0281
 6495SOL    HW231119   0.410   4.439  17.336  1.2496 -0.0947  1.7738
 6496SOL     OW31120   1.797   0.713   6.516  0.2316 -0.0253 -0.1930
 6496SOL    HW131121   1.777   0.620   6.528  0.9238 -0.3565 -1.5537
 6496SOL    HW231122   1.848   0.731   6.437 -0.9576  1.5597 -0.6072
 6497SOL     OW31123   1.112   4.410   2.539 -0.2632  0.1923 -0.2376
 6497SOL    HW131124   1.067   4.378   2.460 -1.3528  0.9611  0.0728
 6497SOL    HW231125   1.084   4.500   2.524 -2.3283 -0.4560 -0.3411
 6498SOL     OW31126   3.704   3.637  15.180  0.1905 -0.8818 -0.1051
 6498SOL    HW131127   3.791   3.600  15.167  0.3990  0.6695 -3.1377
 6498SOL    HW231128   3.689   3.616  15.272 -1.2688  2.2424  0.3940
 6499SOL     OW31129   2.024   1.463   6.966 -0.2621 -0.4164  0.1917
 6499SOL    HW131130   2.063   1.448   7.052 -0.0824 -2.1292 -0.1850
 6499SOL    HW231131   2.093   1.443   6.902 -0.5949 -1.2427  0.0936
 6500SOL     OW31132   0.911   1.014   1.887  0.1865 -0.1421  0.1348
 6500SOL    HW131133   0.827   0.972   1.870  0.2195  0.0882 -0.6059
 6500SOL    HW231134   0.906   1.053   1.974 -2.5044  1.1452 -0.6096
 6501SOL     OW31135   3.927   0.992   4.609 -0.3033 -0.1194  0.1557
 6501SOL    HW131136   3.859   1.047   4.572  1.9877  0.2651 -3.5119
 6501SOL    HW231137   3.988   1.000   4.536  1.3533  0.8197  1.6471
 6502SOL     OW31138   0.413   2.096   1.753 -0.5199 -0.6760 -0.7013
 6502SOL    HW131139   0.417   2.136   1.840  1.2304 -0.5115 -0.8419
 6502SOL    HW231140   0.453   2.165   1.699 -0.2392 -0.6746 -0.4913
 6503SOL     OW31141   0.416   3.357   7.942  0.3470  0.4294 -0.3438
 6503SOL    HW131142   0.438   3.416   7.870  0.8171  2.4824  1.4959
 6503SOL    HW231143   0.373   3.279   7.907 -1.7264  1.3172  0.2608
 6504SOL     OW31144   0.253   3.127   6.736 -0.3785 -0.1059  0.0456
 6504SOL    HW131145   0.333   3.075   6.731 -0.7645 -0.8108  1.3802
 6504SOL    HW231146   0.214   3.065   6.674  0.3346 -1.2140  0.7061
 6505SOL     OW31147   2.597   1.064   6.219  0.0465  0.2031 -0.0375
 6505SOL    HW131148   2.690   1.045   6.230  0.5875  1.7318 -2.0790
 6505SOL    HW231149   2.586   0.997   6.152 -1.4230 -2.1568  2.5293
 6506SOL     OW31150   2.306   3.894   9.789  0.0225  0.2188  0.1493
 6506SOL    HW131151   2.357   3.961   9.834  0.8681 -0.6603  0.4825
 6506SOL    HW231152   2.369   3.823   9.790 -0.3058 -0.0989 -1.8787
 6507SOL     OW31153   3.344   1.557   8.717 -0.5414  0.1212 -0.3387
 6507SOL    HW131154   3.410   1.533   8.652 -1.3080 -1.6306 -0.4747
 6507SOL    HW231155   3.377   1.508   8.792 -1.2836  0.5322  0.2594
 6508SOL     OW31156   4.317   1.171  12.521  0.3037  0.2403  0.1557
 6508SOL    HW131157   4.303   1.207  12.608 -0.6800  1.3684 -0.4823
 6508SOL    HW231158   4.236   1.181  12.471  0.9509  0.5722 -0.8236
 6509SOL     OW31159   0.823   2.630  13.930  0.0124 -0.2876 -0.0541
 6509SOL    HW131160   0.859   2.583  13.856  1.5739 -1.0395  1.1953
 6509SOL    HW231161   0.798   2.694  13.863 -0.6428  0.9847  1.3914
 6510SOL     OW31162   1.492   1.141  16.962  0.3427  0.0542  0.3841
 6510SOL    HW131163   1.565   1.198  16.937 -1.0158  2.4121  1.8071
 6510SOL    HW231164   1.436   1.161  16.887 -1.5326 -1.7454  1.2999
 6511SOL     OW31165   3.995   2.045  11.760  0.3773 -0.4264 -0.1454
 6511SOL    HW131166   3.918   1.992  11.738 -0.3013  0.6489 -0.3361
 6511SOL    HW231167   3.973   2.070  11.849  0.8812  0.9674 -0.4071
 6512SOL     OW31168   2.865   2.378  12.878  0.2044  0.3606  0.2660
 6512SOL    HW131169   2.815   2.326  12.815  0.0275  0.3346  0.4276
 6512SOL    HW231170   2.879   2.456  12.824  1.2461 -0.3611 -0.5131
 6513SOL     OW31171   1.098   1.873  17.606  0.2771  0.6360 -0.6968
 6513SOL    HW131172   1.130   1.944  17.551  1.1568  0.4932 -0.3688
 6513SOL    HW231173   1.121   1.803  17.544  2.0631  0.3611  0.2591
 6514SOL     OW31174   1.167   2.808  13.831  0.0127  0.6033  0.3840
 6514SOL    HW131175   1.196   2.892  13.797  0.7772 -0.2967 -1.1790
 6514SOL    HW231176   1.103   2.764  13.775 -0.3480 -0.8579  1.9189
 6515SOL     OW31177   4.350   4.333   0.973 -0.5997 -0.2781  0.1384
 6515SOL    HW131178   4.315   4.250   1.004  1.2046 -0.6226  1.2079
 6515SOL    HW231179   4.351   4.328   0.877 -2.5947  1.3047  0.0318
 6516SOL     OW31180   2.341   3.317   5.598  0.4095  0.4666  0.6000
 6516SOL    HW131181   2.378   3.232   5.621 -0.8032 -0.4529 -0.8602
 6516SOL    HW231182   2.265   3.285   5.549  0.0641 -0.0494  1.4888
 6517SOL     OW31183   4.683   3.247  13.521  0.0823  0.4126  0.1207
 6517SOL    HW131184   4.588   3.253  13.527 -0.1107 -1.3090 -1.2937
 6517SOL    HW231185   4.691   3.165  13.472  1.3837  1.9185 -2.1260
 6518SOL     OW31186   0.674   2.206  10.869 -0.0310 -0.2084 -0.0436
 6518SOL    HW131187   0.758   2.180  10.831 -0.0981 -0.8505  0.2483
 6518SOL    HW231188   0.647   2.275  10.809  0.7323 -2.6895 -3.2742
 6519SOL     OW31189   4.146   1.960   5.212  0.3861  0.3580  0.0841
 6519SOL    HW131190   4.076   1.936   5.271 -1.6461  2.0224 -1.6479
 6519SOL    HW231191   4.218   1.959   5.275  2.1619  1.6505 -1.9158
 6520SOL     OW31192   4.123   3.893   6.854 -0.4812  0.1691  0.0601
 6520SOL    HW131193   4.031   3.868   6.866 -0.3591 -0.7550 -0.9075
 6520SOL    HW231194   4.125   3.924   6.764  1.8470 -0.0428  0.0504
 6521SOL     OW31195   1.512   0.546  12.558  0.1623  0.3407  0.2972
 6521SOL    HW131196   1.449   0.613  12.585 -0.4215 -0.4653  0.9642
 6521SOL    HW231197   1.595   0.580  12.592  0.2811 -1.8601  2.2490
 6522SOL     OW31198   0.364   0.898   1.970 -0.2262  0.5244  0.0370
 6522SOL    HW131199   0.430   0.838   2.004 -0.3995  0.8032  0.8623
 6522SOL    HW231200   0.419   0.967   1.932  1.5303 -0.4315  0.8548
 6523SOL     OW31201   2.647   2.699   4.102  0.0775  0.4926  0.1695
 6523SOL    HW131202   2.553   2.710   4.086  0.3587  0.1893 -1.6898
 6523SOL    HW231203   2.679   2.711   4.013 -1.2290 -0.1419 -0.3922
 6524SOL     OW31204   3.337   3.670   1.971  0.3203 -0.4696  0.0220
 6524SOL    HW131205   3.282   3.682   1.894 -1.5344 -0.3764  1.3725
 6524SOL    HW231206   3.362   3.577   1.968  1.1844 -0.2624  0.7843
 6525SOL     OW31207   3.850   3.927   9.365  0.1550  0.1787  0.6401
 6525SOL    HW131208   3.944   3.941   9.367  0.2718 -0.6460  1.0051
 6525SOL    HW231209   3.850   3.837   9.399  0.7094  0.2047  0.7112
 6526SOL     OW31210   3.914   2.132   5.592  0.0545 -0.1236 -0.1955
 6526SOL    HW131211   3.922   2.040   5.619  0.6044 -0.3813 -1.2243
 6526SOL    HW231212   3.906   2.178   5.676 -1.2142 -0.2508 -0.2514
 6527SOL     OW31213   3.918   0.257   6.572 -0.2959 -0.5992 -0.1877
 6527SOL    HW131214   3.851   0.192   6.593 -1.4765  0.4523 -0.7235
 6527SOL    HW231215   3.880   0.302   6.496 -0.3035 -0.2699  0.0134
 6528SOL     OW31216   2.377   3.776   7.368  0.9202 -0.2617 -0.2309
 6528SOL    HW131217   2.372   3.708   7.435  1.5920 -0.3412 -0.2595
 6528SOL    HW231218   2.449   3.740   7.315 -0.5257 -0.3447 -2.1615
 6529SOL     OW31219   0.029   3.969   6.806 -0.0664  0.5610 -0.3255
 6529SOL    HW131220   4.687   3.958   6.860 -0.3367 -3.6232 -1.6037
 6529SOL    HW231221   0.081   4.008   6.876  1.2093  0.3550 -1.1708
 6530SOL     OW31222   4.173   2.303   5.635  0.3379 -0.3707  0.1088
 6530SOL    HW131223   4.103   2.291   5.572 -0.5704  2.9865  0.5116
 6530SOL    HW231224   4.132   2.352   5.706 -2.3292 -2.2058 -0.1675
 6531SOL     OW31225   0.083   2.564   6.845 -0.0585  0.3321  0.2587
 6531SOL    HW131226   0.001   2.517   6.830 -1.6344  3.2732 -0.3932
 6531SOL    HW231227   0.085   2.541   6.938 -1.6898  1.7629  0.6543
 6532SOL     OW31228   2.592   1.289   0.253 -0.1402 -0.2156  0.8248
 6532SOL    HW131229   2.506   1.297   0.213 -0.6743  3.0013  2.5996
 6532SOL    HW231230   2.581   1.241   0.336  1.8825  0.1180  1.2805
 6533SOL     OW31231   4.443   3.276  12.587  0.1484  0.1901 -0.5686
 6533SOL    HW131232   4.450   3.183  12.565 -1.3894  0.6910 -3.1050
 6533SOL    HW231233   4.406   3.312  12.507 -0.6332 -0.5281 -0.5179
 6534SOL     OW31234   0.437   0.828   4.104  1.0412 -0.0253 -0.3845
 6534SOL    HW131235   0.436   0.852   4.012 -2.0126 -0.2038 -0.4207
 6534SOL    HW231236   0.365   0.878   4.143  1.4640  1.2735 -1.2833
 6535SOL     OW31237   1.558   4.546   8.107  0.1701 -0.1352  0.2550
 6535SOL    HW131238   1.493   4.609   8.138 -0.0592  0.0701 -0.6366
 6535SOL    HW231239   1.625   4.559   8.174 -1.4257  3.2437  1.2354
 6536SOL     OW31240   0.171   3.927   2.993  0.5806 -0.0558 -0.2520
 6536SOL    HW131241   0.221   3.995   3.038  0.2607 -0.8643  1.3074
 6536SOL    HW231242   0.092   3.982   2.983  0.9270  0.6407  0.9248
 6537SOL     OW31243   1.695   0.258  16.367  0.4467  0.4027  0.3486
 6537SOL    HW131244   1.747   0.268  16.287  1.7887 -0.8384  1.0532
 6537SOL    HW231245   1.620   0.312  16.345 -0.2297 -0.4162  0.6296
 6538SOL     OW31246   3.601   0.200   9.585  0.3325  0.1384 -0.0443
 6538SOL    HW131247   3.694   0.221   9.574  0.4724 -0.4564 -0.0163
 6538SOL    HW231248   3.585   0.228   9.675  0.3215  0.2690 -0.0868
 6539SOL     OW31249   4.502   2.203   4.956 -0.4010  0.1556 -0.7848
 6539SOL    HW131250   4.431   2.146   4.983 -3.0601  2.8732 -2.0658
 6539SOL    HW231251   4.454   2.259   4.895  0.1229  1.3600 -0.0927
 6540SOL     OW31252   2.028   3.830   3.355  0.2824 -0.0415 -0.3778
 6540SOL    HW131253   2.071   3.872   3.280  0.0400  1.2380  0.2070
 6540SOL    HW231254   2.011   3.906   3.411 -0.9655 -2.0496  1.9280
 6541SOL     OW31255   1.751   1.719   0.787  0.3705 -0.5083  0.3770
 6541SOL    HW131256   1.697   1.762   0.721 -2.1543 -0.7906  2.2465
 6541SOL    HW231257   1.690   1.746   0.856  1.3405  1.4715  0.4586
 6542SOL     OW31258   4.139   0.136   7.089  0.1026 -0.0094  0.0488
 6542SOL    HW131259   4.197   0.078   7.139  1.0731  0.3205 -0.6884
 6542SOL    HW231260   4.074   0.172   7.148 -0.0648 -3.5443  2.0316
 6543SOL     OW31261   0.832   3.156   0.431  0.1057  0.2456 -0.2483
 6543SOL    HW131262   0.751   3.181   0.477  0.0969  1.5020 -0.9405
 6543SOL    HW231263   0.847   3.070   0.470 -1.8163 -0.8133 -1.8269
 6544SOL     OW31264   3.702   2.526   7.076  0.6419 -0.1755  0.4659
 6544SOL    HW131265   3.730   2.530   7.167  0.6167 -1.3615  0.5277
 6544SOL    HW231266   3.613   2.492   7.085 -0.3360  2.5250  0.9845
 6545SOL     OW31267   0.611   0.538  12.820  0.0536  0.3015 -0.6401
 6545SOL    HW131268   0.636   0.591  12.896  0.2794 -1.1504  0.2924
 6545SOL    HW231269   0.540   0.488  12.860  0.4136  0.6708  0.4639
 6546SOL     OW31270   0.695   1.934   7.726 -0.0835  0.4401 -0.2193
 6546SOL    HW131271   0.717   1.841   7.723 -1.5000  0.2047 -3.8552
 6546SOL    HW231272   0.712   1.956   7.635  0.7456  0.2548 -0.1092
 6547SOL     OW31273   2.774   4.052   7.605  0.1745 -0.0528  0.4145
 6547SOL    HW131274   2.745   4.113   7.536  0.6459 -0.4829 -0.1656
 6547SOL    HW231275   2.738   3.965   7.584  2.9801 -0.9986 -0.4802
 6548SOL     OW31276   0.947   4.605   4.832  0.1088 -0.1169  0.6774
 6548SOL    HW131277   1.032   4.640   4.802  0.2005  0.4748  1.6263
 6548SOL    HW231278   0.884   4.641   4.769  0.3911  1.8905  1.5297
 6549SOL     OW31279   1.285   1.951   4.339  0.4708 -0.0115 -0.0668
 6549SOL    HW131280   1.208   1.963   4.284  1.0072 -0.1273 -0.8560
 6549SOL    HW231281   1.274   2.032   4.388 -0.6234 -0.8282  1.0158
 6550SOL     OW31282   3.385   0.287   3.018 -0.2739 -0.3483 -0.6183
 6550SOL    HW131283   3.343   0.373   3.009 -2.1943 -1.0347  2.1735
 6550SOL    HW231284   3.311   0.227   3.019  0.1149 -0.8804 -2.6995
 6551SOL     OW31285   0.273   1.815  11.969 -0.0306  0.4839  0.7024
 6551SOL    HW131286   0.253   1.741  12.027  3.0161  1.3023  2.7694
 6551SOL    HW231287   0.189   1.848  11.936  0.1557 -1.1692 -1.4234
 6552SOL     OW31288   3.186   3.499   0.724  0.5295 -0.2574 -0.1319
 6552SOL    HW131289   3.268   3.486   0.674  0.7041 -0.8542  0.3088
 6552SOL    HW231290   3.214   3.519   0.813  0.3108 -3.0120  0.5511
 6553SOL     OW31291   1.314   1.294   3.688 -0.5737  0.7816 -0.0492
 6553SOL    HW131292   1.277   1.316   3.774 -0.5471  0.1374  0.1268
 6553SOL    HW231293   1.296   1.374   3.638  0.9924  1.3025  0.2208
 6554SOL     OW31294   1.050   2.290   8.622  0.5557  0.0098  0.2397
 6554SOL    HW131295   0.964   2.276   8.662  0.8141  2.6688  1.7669
 6554SOL    HW231296   1.105   2.309   8.698  0.0606  0.6131  0.4510
 6555SOL     OW31297   3.677   4.735   8.733 -0.1814  0.2609 -0.3054
 6555SOL    HW131298   3.664   0.081   8.687 -1.4177 -0.5390 -1.3963
 6555SOL    HW231299   3.749   0.016   8.794 -1.0663 -2.1575  1.4381
 6556SOL     OW31300   0.892   2.664   8.533 -0.0077  0.0203  0.1515
 6556SOL    HW131301   0.954   2.668   8.606  1.4691  2.3183 -1.2366
 6556SOL    HW231302   0.950   2.702   8.467 -1.4130  1.9654  0.0286
 6557SOL     OW31303   1.701   1.786  15.557 -0.1107 -0.2319  0.5131
 6557SOL    HW131304   1.675   1.878  15.566 -0.9914 -0.3512 -0.8342
 6557SOL    HW231305   1.748   1.774  15.640  0.0725 -0.3988  0.3875
 6558SOL     OW31306   0.839   3.939  12.549  0.1001 -0.3741 -0.2078
 6558SOL    HW131307   0.858   3.862  12.496 -0.3814 -0.7100  0.1051
 6558SOL    HW231308   0.820   4.003  12.481 -0.4493 -0.7414 -0.3964
 6559SOL     OW31309   2.166   0.626   2.263  0.2412  0.3565 -0.7970
 6559SOL    HW131310   2.164   0.564   2.190 -1.2747 -1.0259  0.3965
 6559SOL    HW231311   2.198   0.560   2.325 -1.6809 -1.2760 -1.5455
 6560SOL     OW31312   1.438   1.711   2.424  0.6254 -0.1710  0.8625
 6560SOL    HW131313   1.431   1.752   2.338  0.2239  1.5233  1.7138
 6560SOL    HW231314   1.453   1.621   2.394  2.2404  0.0014  1.1536
 6561SOL     OW31315   3.799   1.171   1.817  0.0654  0.1433  0.8370
 6561SOL    HW131316   3.713   1.136   1.840 -0.0517 -0.8188 -1.0976
 6561SOL    HW231317   3.863   1.122   1.870  1.3853 -1.7838 -2.5284
 6562SOL     OW31318   3.954   3.034  11.486  0.0046 -0.9059  0.0322
 6562SOL    HW131319   3.970   3.129  11.481 -1.9751 -0.6617 -1.5404
 6562SOL    HW231320   3.859   3.029  11.477 -0.0032 -0.2038 -0.3183
 6563SOL     OW31321   4.727   2.339   5.052  0.0085 -0.0135  0.1445
 6563SOL    HW131322   4.658   2.297   5.000  1.1386  0.2405 -1.5552
 6563SOL    HW231323   4.693   2.330   5.141 -1.5385 -2.7662 -0.7335
 6564SOL     OW31324   2.079   2.398   4.034 -0.0327  0.0796 -0.0372
 6564SOL    HW131325   2.143   2.421   4.102  1.9847 -3.0895 -0.8239
 6564SOL    HW231326   2.035   2.480   4.013 -0.9263 -0.4043 -0.0411
 6565SOL     OW31327   1.835   0.198   8.836  0.1757 -0.1296  0.2649
 6565SOL    HW131328   1.815   0.213   8.928  0.3968 -0.6561  0.4003
 6565SOL    HW231329   1.822   0.103   8.831  0.5520 -0.0218 -3.0860
 6566SOL     OW31330   4.271   3.661   7.850  0.1947  0.8307  0.3385
 6566SOL    HW131331   4.217   3.692   7.922 -0.7804  0.2128 -0.1272
 6566SOL    HW231332   4.267   3.737   7.791 -2.8226 -0.2523 -0.8534
 6567SOL     OW31333   2.810   1.791  16.045 -0.3348  0.2627  0.2902
 6567SOL    HW131334   2.778   1.710  16.008 -2.8291  0.6738  1.5726
 6567SOL    HW231335   2.748   1.811  16.115 -0.5952 -0.1398  0.1710
 6568SOL     OW31336   1.305   0.041   9.677 -0.1254 -0.2261 -0.2235
 6568SOL    HW131337   1.302   0.075   9.587 -2.0177 -0.2201 -0.1548
 6568SOL    HW231338   1.366   4.709   9.650  2.6230  1.7771  0.9513
 6569SOL     OW31339   0.799   3.165   8.869 -0.6327 -0.0094 -0.3882
 6569SOL    HW131340   0.843   3.082   8.851  2.2847  1.5234 -0.4558
 6569SOL    HW231341   0.708   3.138   8.870 -0.5565 -0.2481  1.0046
 6570SOL     OW31342   2.870   2.521   5.173  0.0805 -0.1884  0.6711
 6570SOL    HW131343   2.883   2.600   5.121  2.8469 -1.8676 -1.1622
 6570SOL    HW231344   2.872   2.550   5.264  0.1804 -1.4351  1.0735
 6571SOL     OW31345   0.599   4.297  12.104  0.3899 -0.3483 -0.3223
 6571SOL    HW131346   0.519   4.350  12.107  1.0417  0.4591  2.8762
 6571SOL    HW231347   0.568   4.221  12.055 -0.0867 -0.7956  0.6782
 6572SOL     OW31348   3.470   1.072   3.224 -0.4304 -0.6179 -0.3736
 6572SOL    HW131349   3.513   1.063   3.139  1.5772  1.3353  0.4555
 6572SOL    HW231350   3.380   1.091   3.199 -0.4117 -0.2021 -0.1254
 6573SOL     OW31351   1.794   3.224   4.891  0.0237  0.3271  0.2330
 6573SOL    HW131352   1.762   3.235   4.802  1.4488 -1.2196 -0.4673
 6573SOL    HW231353   1.875   3.176   4.872 -1.2516 -2.0206  0.7225
 6574SOL     OW31354   1.504   2.603   1.004 -0.1124 -0.1875 -0.6822
 6574SOL    HW131355   1.431   2.641   1.053  1.1514  1.8345 -0.3527
 6574SOL    HW231356   1.484   2.625   0.913  1.7134  0.1578 -1.0130
 6575SOL     OW31357   1.999   4.702   5.003 -0.3214  0.5331 -0.5649
 6575SOL    HW131358   1.940   0.034   5.031 -0.8646  0.1605 -0.7960
 6575SOL    HW231359   2.077   4.725   5.054  0.4515  0.2268 -1.5966
 6576SOL     OW31360   0.010   2.027  11.005  0.1765 -0.5213  0.3843
 6576SOL    HW131361   0.006   1.933  10.988 -0.6652  0.0585 -2.6260
 6576SOL    HW231362   4.694   2.032  11.085 -1.5714  1.3760 -0.8870
 6577SOL     OW31363   0.967   1.428  15.720  0.2697 -0.1579  0.0713
 6577SOL    HW131364   1.018   1.347  15.713 -0.0796 -0.4288  0.6575
 6577SOL    HW231365   0.922   1.432  15.636  1.4874  0.4487 -0.5485
 6578SOL     OW31366   3.866   3.668   3.594 -0.2989 -0.5865  0.1203
 6578SOL    HW131367   3.781   3.676   3.637  0.5497  2.0262  1.3586
 6578SOL    HW231368   3.838   3.660   3.503  1.0354  2.8193 -0.5840
 6579SOL     OW31369   1.701   1.839  12.446  0.7857  0.5130 -0.2814
 6579SOL    HW131370   1.646   1.833  12.368 -1.0141 -1.9101  1.1766
 6579SOL    HW231371   1.717   1.932  12.433  2.8103 -0.0710 -1.9836
 6580SOL     OW31372   0.488   1.060   5.347  0.0583 -0.0056 -0.5151
 6580SOL    HW131373   0.455   1.030   5.432 -1.2021  0.3358 -0.8877
 6580SOL    HW231374   0.422   1.024   5.289  0.1561  1.8206 -1.7589
 6581SOL     OW31375   4.401   4.602   4.830  0.2946  0.5596  0.2493
 6581SOL    HW131376   4.483   4.633   4.791  0.0452 -1.2036 -1.7090
 6581SOL    HW231377   4.407   4.510   4.804  0.5313  1.3573 -2.4767
 6582SOL     OW31378   3.812   3.273   3.542  0.0560 -0.0315  0.0191
 6582SOL    HW131379   3.853   3.325   3.473  0.9043 -1.1361 -0.3239
 6582SOL    HW231380   3.801   3.183   3.510 -1.0199 -0.2399  0.9888
 6583SOL     OW31381   2.266   4.306   1.899 -0.4639 -0.2285 -0.0502
 6583SOL    HW131382   2.330   4.238   1.921 -0.4965 -0.5483 -0.9413
 6583SOL    HW231383   2.223   4.320   1.983  0.2640 -2.4586  0.6982
 6584SOL     OW31384   0.610   1.406   6.235 -0.0672 -0.3269 -0.0709
 6584SOL    HW131385   0.541   1.411   6.169 -0.0605  1.9248  0.0921
 6584SOL    HW231386   0.625   1.498   6.256  1.6258 -0.4673 -0.6638
 6585SOL     OW31387   1.460   3.819   4.261 -0.0368 -0.2441  0.3554
 6585SOL    HW131388   1.539   3.770   4.284  0.6208 -0.5377 -2.6059
 6585SOL    HW231389   1.477   3.867   4.180 -1.4422  0.7476  0.6552
 6586SOL     OW31390   1.616   2.262   1.798 -0.0196  0.2721 -0.1907
 6586SOL    HW131391   1.560   2.272   1.721 -0.5605  1.5587  0.3736
 6586SOL    HW231392   1.557   2.231   1.866  0.7508  0.2324  0.4580
 6587SOL     OW31393   1.613   3.136   0.610 -0.1599 -0.5109  0.0740
 6587SOL    HW131394   1.704   3.160   0.593  0.0678 -0.4341  1.4568
 6587SOL    HW231395   1.610   3.128   0.705  2.2011 -0.7590  0.1164
 6588SOL     OW31396   4.208   4.673   1.587  0.6224  0.8642 -0.2836
 6588SOL    HW131397   4.129   4.620   1.577  2.2799 -1.4759 -0.9341
 6588SOL    HW231398   4.254   4.631   1.659  0.4901 -0.8589 -1.1869
 6589SOL     OW31399   4.036   4.149   7.697  0.0876  0.9496  0.4390
 6589SOL    HW131400   3.976   4.149   7.622  2.1118 -3.6733 -1.1717
 6589SOL    HW231401   3.978   4.150   7.773  1.0832  0.2417  1.1899
 6590SOL     OW31402   1.015   1.854   4.623  0.4000 -0.3724  0.2046
 6590SOL    HW131403   1.077   1.781   4.630  0.8485 -0.0827 -0.7727
 6590SOL    HW231404   0.936   1.803   4.637 -0.9183  0.8650 -2.7814
 6591SOL     OW31405   4.527   3.046   2.683 -0.3818  0.1185 -0.2590
 6591SOL    HW131406   4.621   3.027   2.684 -0.5291 -0.6285 -0.6389
 6591SOL    HW231407   4.486   2.966   2.651 -1.6774  1.4476 -1.8820
 6592SOL     OW31408   0.597   2.467   6.012 -0.2172 -0.0847  0.5132
 6592SOL    HW131409   0.545   2.390   6.031 -0.1507 -0.0990  0.6382
 6592SOL    HW231410   0.540   2.525   5.962  1.6520 -0.6651 -2.2839
 6593SOL     OW31411   2.765   2.341   4.941  0.4956 -0.1409  0.0493
 6593SOL    HW131412   2.708   2.417   4.948  0.4929 -0.2107  0.7873
 6593SOL    HW231413   2.740   2.302   5.025  3.6589 -0.4453  0.8508
 6594SOL     OW31414   4.712   2.158   1.073  0.0733 -0.1396 -0.3383
 6594SOL    HW131415   4.729   2.078   1.025 -1.0712 -0.9101  0.5539
 6594SOL    HW231416   4.733   2.222   1.005  1.6714 -1.2046 -0.8620
 6595SOL     OW31417   3.803   1.411   5.584 -0.3976  0.5656 -0.4240
 6595SOL    HW131418   3.739   1.437   5.649 -1.6577  1.3413 -1.9586
 6595SOL    HW231419   3.879   1.390   5.638  0.2762 -1.2541 -2.0724
 6596SOL     OW31420   1.479   1.023   0.997  0.4205  0.0664  0.7628
 6596SOL    HW131421   1.525   0.940   1.004 -1.4905 -0.9805  1.0738
 6596SOL    HW231422   1.515   1.066   0.920  1.7491 -0.2084  1.2438
 6597SOL     OW31423   3.824   2.956   5.241  0.0899  0.4545 -0.1636
 6597SOL    HW131424   3.889   3.025   5.246  2.4072 -1.7734  0.2378
 6597SOL    HW231425   3.769   2.975   5.317 -1.3859  0.0099 -1.1183
 6598SOL     OW31426   0.442   1.581   0.968 -0.4592 -0.0721  0.1059
 6598SOL    HW131427   0.383   1.627   1.027  1.4611  1.9566  0.4308
 6598SOL    HW231428   0.519   1.636   0.955  1.2829 -3.0780 -2.3573
 6599SOL     OW31429   1.664   0.000   4.415 -0.4868 -0.5975  0.1237
 6599SOL    HW131430   1.679   4.699   4.329  2.0652 -0.8465  0.6683
 6599SOL    HW231431   1.571   0.022   4.413 -0.7583 -1.6285  1.2901
 6600SOL     OW31432   1.536   4.404  16.637  0.3713  0.3616 -0.6921
 6600SOL    HW131433   1.503   4.494  16.635  2.4355  1.1475  0.2914
 6600SOL    HW231434   1.456   4.353  16.646 -0.1004  0.9923 -1.3650
 6601SOL     OW31435   2.565   3.635   6.284  0.1060 -0.0145  0.2482
 6601SOL    HW131436   2.528   3.643   6.196  3.8946 -0.1188 -1.3582
 6601SOL    HW231437   2.635   3.571   6.269  0.3602  0.0779  1.0503
 6602SOL     OW31438   0.838   1.992  13.670  0.1350 -0.0992 -0.0652
 6602SOL    HW131439   0.911   1.961  13.723  0.5019  0.5568 -0.1779
 6602SOL    HW231440   0.881   2.062  13.622 -0.5701  0.1829 -0.2938
 6603SOL     OW31441   0.248   2.289  17.489  0.1255  0.3690  0.3267
 6603SOL    HW131442   0.224   2.198  17.505  2.4815 -0.5337 -1.3296
 6603SOL    HW231443   0.204   2.294  17.404  1.6225 -2.9531 -0.6451
 6604SOL     OW31444   0.606   2.073  13.767  0.3839  0.0137  0.3260
 6604SOL    HW131445   0.692   2.102  13.737  1.0202 -2.4604 -0.2164
 6604SOL    HW231446   0.579   2.048  13.679  2.0236 -1.0058  0.1087
 6605SOL     OW31447   1.706   3.975  12.138  0.2012 -0.5026 -0.1204
 6605SOL    HW131448   1.653   3.962  12.217  0.8178  0.2913  0.4278
 6605SOL    HW231449   1.793   3.962  12.176  0.4761 -0.1997 -0.6373
 6606SOL     OW31450   2.452   3.071   5.159  0.5437  0.2190  0.2979
 6606SOL    HW131451   2.496   3.154   5.143  0.7251  0.2528  0.9822
 6606SOL    HW231452   2.364   3.100   5.137 -0.6773 -2.2548  1.9167
 6607SOL     OW31453   2.094   0.387   3.192 -0.2132 -0.2191 -0.0671
 6607SOL    HW131454   2.113   0.356   3.280  0.7788 -1.9603 -0.8923
 6607SOL    HW231455   2.147   0.329   3.137 -2.8061 -2.3602 -0.2954
 6608SOL     OW31456   2.753   2.942  16.389 -0.1401  0.4944  0.1852
 6608SOL    HW131457   2.839   2.967  16.424 -0.5759 -1.1419  2.4155
 6608SOL    HW231458   2.726   3.034  16.385  0.8631  0.8382  1.6181
 6609SOL     OW31459   1.378   2.623   4.003  0.0872 -0.0424 -0.8254
 6609SOL    HW131460   1.403   2.549   3.947  2.1043  1.8305 -2.4304
 6609SOL    HW231461   1.468   2.656   4.000  0.6736 -1.6415 -1.3905
 6610SOL     OW31462   0.741   3.243  15.941 -0.8278 -0.6380 -0.1906
 6610SOL    HW131463   0.748   3.333  15.911  1.6423 -0.3359  1.2997
 6610SOL    HW231464   0.647   3.221  15.941 -0.8279 -0.6238  1.2032
 6611SOL     OW31465   3.007   0.885  11.287 -0.0446  0.6035  0.0953
 6611SOL    HW131466   2.988   0.889  11.380  1.5992 -0.1325  0.4689
 6611SOL    HW231467   2.938   0.932  11.241 -0.1297  1.8542  1.5110
 6612SOL     OW31468   4.230   3.300   6.758 -0.3119 -0.6961  0.1128
 6612SOL    HW131469   4.136   3.320   6.761  0.2408  1.5731  1.8576
 6612SOL    HW231470   4.231   3.226   6.818  3.0823 -2.3161 -1.9561
 6613SOL     OW31471   1.178   0.954   4.744  0.0654  0.3293  0.4329
 6613SOL    HW131472   1.186   1.044   4.710 -1.4312  0.0734 -0.5669
 6613SOL    HW231473   1.248   0.906   4.700 -0.9781 -0.8001  0.0060
 6614SOL     OW31474   0.309   2.549   3.070  0.3728 -0.1100  0.1838
 6614SOL    HW131475   0.326   2.607   2.995 -2.0224  0.8298  0.3820
 6614SOL    HW231476   0.233   2.502   3.036 -0.0340  0.7975 -0.1743
 6615SOL     OW31477   4.587   4.654   8.925 -0.4906 -0.0327 -0.2144
 6615SOL    HW131478   4.607   0.011   8.932 -1.7182  0.1474  0.7741
 6615SOL    HW231479   4.659   4.622   8.871 -1.8646 -0.1511 -1.9849
 6616SOL     OW31480   2.737   1.389   4.628 -0.3294  0.0454 -0.2506
 6616SOL    HW131481   2.829   1.365   4.624 -0.1135  0.8799 -0.2606
 6616SOL    HW231482   2.700   1.343   4.552 -0.3639 -0.4821  0.0782
 6617SOL     OW31483   4.103   4.331   9.147 -0.2656  0.5512  0.6528
 6617SOL    HW131484   4.179   4.369   9.192  0.6215  0.1876 -0.5471
 6617SOL    HW231485   4.132   4.242   9.165  0.7112  0.7228 -0.0656
 6618SOL     OW31486   2.910   3.652  10.532  0.1025 -0.0845  0.3361
 6618SOL    HW131487   2.858   3.619  10.458  0.1137 -0.7269  0.6201
 6618SOL    HW231488   2.969   3.704  10.478  0.1787  0.5937  1.0847
 6619SOL     OW31489   2.303   1.288   3.404  0.3117 -0.1603 -0.3680
 6619SOL    HW131490   2.296   1.327   3.317 -0.4883  0.3739 -0.0674
 6619SOL    HW231491   2.279   1.353   3.471  1.5075 -0.5896  0.4901
 6620SOL     OW31492   3.497   0.703  11.155  0.3056  0.7491 -0.2445
 6620SOL    HW131493   3.488   0.620  11.108 -0.7191  1.4281 -1.2161
 6620SOL    HW231494   3.413   0.712  11.200 -0.2060 -1.3441 -0.7830
 6621SOL     OW31495   3.989   1.047  15.762 -0.1347 -0.0140 -0.1817
 6621SOL    HW131496   3.992   1.047  15.666  0.5649 -3.6270 -0.1479
 6621SOL    HW231497   4.036   0.964  15.769  0.1926  0.2039  0.1888
 6622SOL     OW31498   2.653   1.025   7.313 -0.3648  0.1377 -0.3626
 6622SOL    HW131499   2.637   0.943   7.266  0.4899 -0.0589 -0.2971
 6622SOL    HW231500   2.566   1.065   7.306 -1.2398 -1.7263 -0.2186
 6623SOL     OW31501   1.589   1.785  15.292 -0.0176  0.0659 -0.2848
 6623SOL    HW131502   1.632   1.855  15.244 -1.1987 -0.1851 -1.7326
 6623SOL    HW231503   1.581   1.811  15.383  2.6455 -0.7580  0.1689
 6624SOL     OW31504   2.606   0.035   7.225 -0.3939 -0.5307  0.1415
 6624SOL    HW131505   2.644   0.100   7.166 -2.7641  0.4002 -0.3686
 6624SOL    HW231506   2.518   0.070   7.240  0.9173  1.9237  2.0572
 6625SOL     OW31507   0.917   4.702  17.209 -0.1091 -0.3621  0.0355
 6625SOL    HW131508   0.889   4.675  17.121 -0.0172 -0.2873 -0.0157
 6625SOL    HW231509   0.837   4.687  17.261  0.4743  1.7998  1.5739
 6626SOL     OW31510   2.289   1.585  10.953 -0.2613  0.3124  0.2091
 6626SOL    HW131511   2.378   1.594  10.988 -0.7390 -0.7493  1.6612
 6626SOL    HW231512   2.301   1.612  10.862  1.8356 -1.2224  0.0412
 6627SOL     OW31513   2.352   4.123   9.476 -0.0314 -0.3533 -0.4937
 6627SOL    HW131514   2.265   4.106   9.511 -0.4334  0.1193 -1.2585
 6627SOL    HW231515   2.328   4.197   9.420  0.6916  0.7068  0.6115
 6628SOL     OW31516   2.360   2.963   9.427  0.2310 -0.5992 -0.3476
 6628SOL    HW131517   2.324   2.994   9.510 -0.9981 -1.5571 -0.5200
 6628SOL    HW231518   2.374   2.871   9.451 -0.1736 -0.6166 -0.1779
 6629SOL     OW31519   2.212   1.529   5.714  0.3685  0.0545 -0.1030
 6629SOL    HW131520   2.124   1.559   5.690  0.3895 -2.3407 -3.0596
 6629SOL    HW231521   2.228   1.599   5.777 -1.3018  0.9246 -0.6399
 6630SOL     OW31522   0.043   2.736   7.950 -0.0098 -0.1465  0.6244
 6630SOL    HW131523   0.018   2.682   7.875 -0.4617 -0.4247  0.9766
 6630SOL    HW231524   0.095   2.676   8.005  1.3243 -0.1576 -0.6571
 6631SOL     OW31525   4.308   2.022   4.977  0.1935 -0.1321  0.3129
 6631SOL    HW131526   4.267   2.004   4.892 -3.2581  2.6489  1.3448
 6631SOL    HW231527   4.230   2.009   5.031 -0.1512 -0.5998 -0.3097
 6632SOL     OW31528   1.993   0.457  11.154  0.5478 -0.2284  0.6090
 6632SOL    HW131529   1.979   0.364  11.133 -1.0377  0.3162 -0.7010
 6632SOL    HW231530   2.043   0.478  11.076  0.2513 -2.4417 -0.1708
 6633SOL     OW31531   0.221   2.271   2.130 -0.3889  0.0708 -0.1656
 6633SOL    HW131532   0.307   2.305   2.106  0.6827 -1.6028  1.2258
 6633SOL    HW231533   0.197   2.330   2.202 -1.2639  0.5327 -0.8331
 6634SOL     OW31534   2.874   3.868  14.680 -0.5630 -0.0158  0.1087
 6634SOL    HW131535   2.893   3.788  14.729 -1.3000 -0.3891 -0.2008
 6634SOL    HW231536   2.958   3.898  14.645 -0.9704  1.1919  0.1723
 6635SOL     OW31537   2.389   1.318  11.149 -0.1560  0.1354  0.1433
 6635SOL    HW131538   2.351   1.310  11.062 -0.2769  1.2276  0.0958
 6635SOL    HW231539   2.467   1.265  11.138 -2.0040 -2.3900 -0.7221
 6636SOL     OW31540   3.136   3.494  15.976  0.8596  0.2141  0.4183
 6636SOL    HW131541   3.103   3.441  16.048  2.3851  1.6653  2.1810
 6636SOL    HW231542   3.065   3.475  15.914  0.9284 -0.3656  0.5241
 6637SOL     OW31543   1.710   4.367   6.096  0.2432  0.2081  0.0248
 6637SOL    HW131544   1.763   4.364   6.017 -0.0892  1.1372 -0.2366
 6637SOL    HW231545   1.754   4.316   6.164 -0.9805 -2.7536 -1.4013
 6638SOL     OW31546   2.663   3.573   6.737  0.1705  0.3537 -0.3476
 6638SOL    HW131547   2.613   3.653   6.725  0.3786  0.4221 -0.7584
 6638SOL    HW231548   2.641   3.523   6.659 -0.2626  0.7963 -0.5071
 6639SOL     OW31549   3.540   0.366   0.524  0.8526 -0.0655  0.2531
 6639SOL    HW131550   3.507   0.277   0.541  2.3543 -0.0444  3.2487
 6639SOL    HW231551   3.523   0.381   0.431  1.9096  0.7556  0.2043
 6640SOL     OW31552   3.114   0.896   5.677 -0.1479 -0.2900 -0.5699
 6640SOL    HW131553   3.073   0.958   5.616 -1.7963  0.1328  0.9746
 6640SOL    HW231554   3.160   0.838   5.616 -0.2523 -0.7317 -0.2251
 6641SOL     OW31555   4.600   1.530  10.765 -0.0999 -0.4125  0.0443
 6641SOL    HW131556   4.631   1.581  10.690  0.6225 -0.0417  0.5994
 6641SOL    HW231557   4.563   1.591  10.829  1.0470 -0.0198  0.3412
 6642SOL     OW31558   1.496   1.456  15.142 -0.0041  0.1486  0.8737
 6642SOL    HW131559   1.570   1.407  15.107 -0.5003 -1.0742  1.5173
 6642SOL    HW231560   1.520   1.543  15.110 -0.8102 -0.0939 -0.4121
 6643SOL     OW31561   0.254   2.017   0.431  0.3422 -0.3973 -0.2601
 6643SOL    HW131562   0.260   2.079   0.358  1.2003  1.4424  1.3957
 6643SOL    HW231563   0.348   2.001   0.439 -0.3131 -3.3045  1.3741
 6644SOL     OW31564   0.506   0.698   5.387  0.3419  0.0298 -0.5775
 6644SOL    HW131565   0.573   0.727   5.325  0.6939 -0.0433 -0.2334
 6644SOL    HW231566   0.564   0.671   5.458 -0.6338  0.8923  0.5570
 6645SOL     OW31567   0.581   0.556   2.525 -0.1900 -0.6276 -0.1046
 6645SOL    HW131568   0.500   0.514   2.555 -0.4807 -2.8853 -4.1488
 6645SOL    HW231569   0.625   0.474   2.502 -2.3964 -1.6444 -0.7701
 6646SOL     OW31570   1.871   0.111   6.585 -0.1939 -0.2685 -0.6695
 6646SOL    HW131571   1.942   0.127   6.647 -1.6237  1.5400  0.4927
 6646SOL    HW231572   1.791   0.140   6.629  0.7013 -0.0503  0.7968
 6647SOL     OW31573   4.083   4.583  10.408  0.3553  0.3053 -0.4475
 6647SOL    HW131574   4.158   4.537  10.371 -1.4254 -2.6122 -0.4574
 6647SOL    HW231575   4.014   4.519  10.389  0.6705 -0.3742  0.7089
 6648SOL     OW31576   0.516   1.229   0.207 -0.1787 -0.4092 -0.7741
 6648SOL    HW131577   0.519   1.141   0.244  0.7896  0.1265  0.4554
 6648SOL    HW231578   0.606   1.261   0.215 -0.5531  0.9527 -2.0418
 6649SOL     OW31579   3.377   2.021   7.625 -0.4963  0.4134 -0.8080
 6649SOL    HW131580   3.348   2.108   7.600 -1.8443  0.7164  1.9363
 6649SOL    HW231581   3.471   2.036   7.639 -0.1322 -1.0589 -1.6166
 6650SOL     OW31582   4.224   3.600   2.551 -0.1237 -0.5010  0.0155
 6650SOL    HW131583   4.292   3.551   2.504 -0.1333  0.2689 -0.8071
 6650SOL    HW231584   4.205   3.656   2.475  1.3870  0.4173  0.3131
 6651SOL     OW31585   0.183   2.405   1.485  0.4072  0.1566 -0.2427
 6651SOL    HW131586   0.104   2.404   1.539  1.0996  1.5545  0.7917
 6651SOL    HW231587   0.153   2.415   1.394 -0.4031 -3.9411 -0.4157
 6652SOL     OW31588   2.432   0.903   5.808 -0.6445  0.5601 -0.1487
 6652SOL    HW131589   2.342   0.935   5.800 -1.1074 -0.4203  1.1652
 6652SOL    HW231590   2.426   0.830   5.747 -3.0226  0.9414 -0.3644
 6653SOL     OW31591   0.770   2.415  15.477  0.2372 -0.0385  0.4601
 6653SOL    HW131592   0.732   2.334  15.510  2.7213 -2.0205 -1.5459
 6653SOL    HW231593   0.711   2.486  15.502  0.6041  0.4070  0.0638
 6654SOL     OW31594   0.064   3.495   8.386  0.2017 -0.3306  0.0074
 6654SOL    HW131595   0.096   3.409   8.358 -0.4050 -1.1477  1.8158
 6654SOL    HW231596   0.143   3.549   8.386 -1.0303  1.4595 -0.5568
 6655SOL     OW31597   3.739   1.379  16.766  0.4075  0.5238 -0.0560
 6655SOL    HW131598   3.828   1.352  16.790  0.2009  0.2619  0.4186
 6655SOL    HW231599   3.702   1.292  16.754 -2.1209  1.5018  0.7126
 6656SOL     OW31600   3.220   2.214   4.853 -0.6077  0.1339 -0.1223
 6656SOL    HW131601   3.155   2.151   4.821 -0.4719 -0.0666 -0.0030
 6656SOL    HW231602   3.164   2.280   4.894 -1.3471 -1.6428  1.7322
 6657SOL     OW31603   2.120   3.352   4.703 -0.6042  0.2778 -0.2785
 6657SOL    HW131604   2.133   3.271   4.752  2.0334 -0.4833 -2.2349
 6657SOL    HW231605   2.028   3.351   4.677 -1.4582 -1.6693  2.8535
 6658SOL     OW31606   0.854   2.639   4.228  0.1760  0.4412 -0.3138
 6658SOL    HW131607   0.933   2.655   4.279  0.4940  0.2607 -0.7483
 6658SOL    HW231608   0.880   2.636   4.136  1.0063  2.0983 -0.1211
 6659SOL     OW31609   1.019   4.678   4.266  0.4313  0.1868 -0.3930
 6659SOL    HW131610   0.966   4.601   4.290 -0.4880  0.9667  0.0612
 6659SOL    HW231611   1.029   4.718   4.352  0.9164 -0.9703  0.0893
 6660SOL     OW31612   3.813   4.044   3.301 -0.1515 -0.3579  0.1613
 6660SOL    HW131613   3.827   3.951   3.288  0.0169  0.1242 -2.9061
 6660SOL    HW231614   3.783   4.053   3.392 -0.6378  3.0384 -0.3307
 6661SOL     OW31615   2.034   3.385  10.243 -0.3597 -0.3871  0.5714
 6661SOL    HW131616   2.037   3.422  10.155  0.9033  2.3052  1.7327
 6661SOL    HW231617   2.020   3.464  10.295 -2.8210  0.1986 -0.9812
 6662SOL     OW31618   3.192   3.352   2.904  0.2989  0.9568  0.8084
 6662SOL    HW131619   3.203   3.445   2.927 -0.0173  1.5345 -1.3642
 6662SOL    HW231620   3.097   3.356   2.898  0.4270 -1.4404 -2.6323
 6663SOL     OW31621   3.385   3.464   5.397 -0.0105 -0.0267 -0.6798
 6663SOL    HW131622   3.333   3.465   5.317 -1.1595  3.9766  0.1118
 6663SOL    HW231623   3.429   3.380   5.388  1.6855  0.5694  2.0623
 6664SOL     OW31624   3.176   3.656   6.653 -0.0502 -0.5569  0.2954
 6664SOL    HW131625   3.104   3.674   6.592  1.4669  1.4239 -0.9112
 6664SOL    HW231626   3.134   3.669   6.737 -0.4484  0.4306 -0.0536
 6665SOL     OW31627   2.621   2.837   3.507 -0.1580  0.3002  0.8485
 6665SOL    HW131628   2.561   2.912   3.515  0.2609  0.7452 -0.1150
 6665SOL    HW231629   2.659   2.855   3.421 -0.8477 -0.0633  0.4648
 6666SOL     OW31630   1.760   2.027  14.743  0.2369  0.7988  0.5173
 6666SOL    HW131631   1.708   2.095  14.699  1.3928  2.1101  1.1485
 6666SOL    HW231632   1.849   2.056  14.724  0.4901 -1.0608 -1.0351
 6667SOL     OW31633   3.383   2.944   8.916 -0.0076 -0.0938 -0.6216
 6667SOL    HW131634   3.460   2.887   8.918  0.8293  1.0351 -0.3478
 6667SOL    HW231635   3.322   2.890   8.966  0.4761  0.8143  0.9523
 6668SOL     OW31636   0.245   3.585   6.029 -0.6939 -0.0213  0.0274
 6668SOL    HW131637   0.202   3.523   6.088 -0.5044 -0.8602 -0.7201
 6668SOL    HW231638   0.173   3.599   5.969  0.6442 -0.7153 -1.7256
 6669SOL     OW31639   4.649   0.648  11.680 -0.8636  0.2605  0.0650
 6669SOL    HW131640   4.633   0.742  11.690  0.3707  1.0368 -4.8960
 6669SOL    HW231641   4.711   0.627  11.749  0.6664 -0.7781 -1.6452
 6670SOL     OW31642   2.447   1.607   7.405  0.4151  0.0253 -0.2292
 6670SOL    HW131643   2.445   1.665   7.329 -0.3321 -0.9446 -0.9407
 6670SOL    HW231644   2.389   1.538   7.373  1.9438  0.2082 -3.3719
 6671SOL     OW31645   3.835   2.976   2.224 -0.8160  0.1637  0.2344
 6671SOL    HW131646   3.759   2.941   2.270 -0.3086 -1.6526 -0.3080
 6671SOL    HW231647   3.846   3.061   2.268 -0.6409 -1.1252  2.6413
 6672SOL     OW31648   1.689   0.928   7.858 -0.4055 -0.3702  0.2334
 6672SOL    HW131649   1.686   0.850   7.914 -0.6713 -2.2033 -2.3140
 6672SOL    HW231650   1.608   0.930   7.808 -0.7711 -0.8318  0.8063
 6673SOL     OW31651   4.336   2.537   4.897  0.3040 -0.5770 -0.5481
 6673SOL    HW131652   4.270   2.487   4.946 -2.0951  0.2901 -2.8948
 6673SOL    HW231653   4.316   2.629   4.915 -1.0219 -0.1111 -4.2808
 6674SOL     OW31654   4.237   0.928   3.867 -0.1206  0.6488  0.4638
 6674SOL    HW131655   4.191   0.879   3.799 -0.1699  1.2398  0.0729
 6674SOL    HW231656   4.169   0.966   3.923 -1.6839 -0.6841 -0.5124
 6675SOL     OW31657   0.649   2.177  16.566  0.0724 -0.0159  0.0233
 6675SOL    HW131658   0.727   2.124  16.584  1.4884  1.9036 -0.4920
 6675SOL    HW231659   0.584   2.115  16.598 -0.3007  0.8095  0.8500
 6676SOL     OW31660   1.995   2.619   9.082 -0.2218  0.5177 -0.2604
 6676SOL    HW131661   2.073   2.597   9.030 -0.0730 -1.7598  0.9532
 6676SOL    HW231662   1.927   2.620   9.014  0.8455  1.7918 -1.3231
 6677SOL     OW31663   0.941   0.677   5.454  0.2065  0.3205 -0.5481
 6677SOL    HW131664   0.931   0.634   5.369 -0.4368  0.3154 -0.4671
 6677SOL    HW231665   0.900   0.761   5.433 -1.9456 -1.5781 -3.8935
 6678SOL     OW31666   2.352   0.896   1.285 -0.4323 -0.5978  0.0480
 6678SOL    HW131667   2.308   0.977   1.312 -0.7618 -0.3507 -1.2228
 6678SOL    HW231668   2.394   0.865   1.365 -1.3950 -0.8957  0.4354
 6679SOL     OW31669   3.520   0.126   8.059 -0.0155  0.7167  0.0533
 6679SOL    HW131670   3.455   0.083   8.114  0.0254  0.6312  0.0359
 6679SOL    HW231671   3.465   0.164   7.991  0.9698 -0.4660 -1.3966
 6680SOL     OW31672   4.065   3.704  12.178  0.3958  0.6948  0.2896
 6680SOL    HW131673   4.005   3.696  12.252  1.7761  0.8902  1.4338
 6680SOL    HW231674   4.064   3.799  12.171  0.5829  0.5173 -2.2053
 6681SOL     OW31675   3.734   2.260  11.555 -0.1839  0.2219 -0.0156
 6681SOL    HW131676   3.714   2.353  11.564  0.6456  0.4768 -0.7836
 6681SOL    HW231677   3.719   2.255  11.461  0.7605 -0.8049 -0.1206
 6682SOL     OW31678   2.110   4.035  11.427  0.6958  1.2033  0.0483
 6682SOL    HW131679   2.190   4.083  11.447  1.6764 -0.0416 -0.8435
 6682SOL    HW231680   2.136   3.943  11.413  0.4391  0.9323  1.3574
 6683SOL     OW31681   3.752   0.132   9.118 -0.0569  0.6714  0.2990
 6683SOL    HW131682   3.797   0.140   9.034  1.3443  0.1888  1.0103
 6683SOL    HW231683   3.676   0.185   9.093 -0.2991  1.4074  2.6760
 6684SOL     OW31684   4.046   0.210   8.259  0.1524 -0.3208  0.6523
 6684SOL    HW131685   4.133   0.229   8.224  0.9643 -2.8575  1.2363
 6684SOL    HW231686   3.984   0.262   8.207 -1.6054  0.1170  3.2054
 6685SOL     OW31687   3.922   4.720  10.642 -0.0651 -0.4310  0.0448
 6685SOL    HW131688   3.867   4.694  10.716 -0.8546  1.7380  0.2149
 6685SOL    HW231689   3.943   4.638  10.597  1.7282 -0.3644  0.7765
 6686SOL     OW31690   4.344   0.724   2.719  0.3239  0.3541 -0.2463
 6686SOL    HW131691   4.389   0.808   2.712 -0.7186  0.9544  0.2473
 6686SOL    HW231692   4.313   0.719   2.810  0.1746 -0.7386 -0.3561
 6687SOL     OW31693   3.639   1.812   4.656  0.0822  0.1166  0.0479
 6687SOL    HW131694   3.560   1.866   4.656 -1.4462 -2.1144  2.7279
 6687SOL    HW231695   3.609   1.733   4.700  0.9640 -0.3525 -0.1911
 6688SOL     OW31696   1.957   4.043  10.063  0.1869  0.4066  0.0401
 6688SOL    HW131697   2.006   4.122  10.084 -0.4169  1.3323 -1.9838
 6688SOL    HW231698   1.964   4.046   9.967 -0.4907 -1.7382 -0.0742
 6689SOL     OW31699   2.050   3.087   6.557 -0.2067  0.0427 -0.2455
 6689SOL    HW131700   2.112   3.016   6.540 -3.1115 -2.1497 -1.5444
 6689SOL    HW231701   2.016   3.069   6.645  1.9482  0.0935  0.6005
 6690SOL     OW31702   3.240   1.803  13.023 -0.0760 -0.2601  0.4403
 6690SOL    HW131703   3.281   1.851  12.952  0.3725 -1.2813  0.0104
 6690SOL    HW231704   3.288   1.720  13.019  1.6651  0.7028  1.3627
 6691SOL     OW31705   0.306   3.092  16.603 -0.1116 -0.9937  0.2249
 6691SOL    HW131706   0.220   3.052  16.613 -2.0325  2.7459 -1.3922
 6691SOL    HW231707   0.345   3.019  16.554  0.9582 -0.5171  0.3811
 6692SOL     OW31708   4.560   1.740   9.964 -0.7422 -0.3202 -0.5911
 6692SOL    HW131709   4.564   1.797   9.887 -0.7695  0.4044 -0.0496
 6692SOL    HW231710   4.648   1.761   9.996 -0.9703  0.0769 -0.2291
 6693SOL     OW31711   4.038   1.814   9.297  0.4031  0.0368 -0.1864
 6693SOL    HW131712   3.990   1.754   9.239 -0.1227 -0.8329  1.1622
 6693SOL    HW231713   4.098   1.755   9.342  2.9706  1.4106 -1.8311
 6694SOL     OW31714   0.068   2.558   7.680  0.6606  0.0439 -0.0140
 6694SOL    HW131715   0.138   2.521   7.735  0.2332  0.1676  0.6181
 6694SOL    HW231716   0.115   2.631   7.638 -0.4909  0.5813 -0.3698
 6695SOL     OW31717   2.967   0.959  13.237 -0.5424 -0.2743 -0.6836
 6695SOL    HW131718   2.998   1.021  13.303 -2.6144 -1.1690  1.1600
 6695SOL    HW231719   2.906   1.017  13.191  1.4750  1.1718 -1.4969
 6696SOL     OW31720   2.302   3.449  11.891 -0.4592  0.4938 -0.3765
 6696SOL    HW131721   2.240   3.480  11.957  0.4643 -0.5574  0.9645
 6696SOL    HW231722   2.334   3.540  11.885  0.2033  0.1526 -2.0818
 6697SOL     OW31723   3.084   3.210   5.101  0.2342  0.6633 -0.1558
 6697SOL    HW131724   3.139   3.277   5.060  1.2636  1.1363  1.9933
 6697SOL    HW231725   2.999   3.239   5.067 -0.1519  0.0353  0.2646
 6698SOL     OW31726   2.632   1.620   3.658  0.2355  0.5416 -0.4581
 6698SOL    HW131727   2.658   1.603   3.749 -0.0922  1.9240 -0.0900
 6698SOL    HW231728   2.661   1.541   3.614  0.9121 -0.6250  2.0555
 6699SOL     OW31729   2.637   1.151   6.538 -0.1498 -0.2758  0.6393
 6699SOL    HW131730   2.557   1.180   6.583  0.7786 -0.8442  2.6198
 6699SOL    HW231731   2.621   1.148   6.443 -0.2015  2.6401  0.5378
 6700SOL     OW31732   3.530   2.999  17.548 -0.2243 -0.2152 -0.3345
 6700SOL    HW131733   3.455   2.972  17.494  0.9863 -4.0650 -0.0820
 6700SOL    HW231734   3.581   2.918  17.551  0.9206  0.5117 -0.3563
 6701SOL     OW31735   4.247   4.003   8.625 -0.1846 -0.3425  0.1439
 6701SOL    HW131736   4.175   4.019   8.686 -0.3369 -0.9745  0.1292
 6701SOL    HW231737   4.324   4.039   8.670 -1.7074  0.1082  2.3923
 6702SOL     OW31738   3.507   0.398  10.779  0.1496 -0.3293 -0.2766
 6702SOL    HW131739   3.563   0.474  10.800  2.6394 -1.5916 -2.4224
 6702SOL    HW231740   3.560   0.321  10.760  1.1802  0.4242 -0.5122
 6703SOL     OW31741   3.561   3.955   4.757  0.1601  0.2378  0.0432
 6703SOL    HW131742   3.593   3.985   4.673 -2.3991  1.8168 -0.3640
 6703SOL    HW231743   3.505   4.031   4.771 -3.0959 -1.9054 -1.4572
 6704SOL     OW31744   0.229   2.028  17.495  0.4961  0.5933 -0.4701
 6704SOL    HW131745   0.303   1.982  17.456  1.1284  0.1054  1.3084
 6704SOL    HW231746   0.172   1.952  17.487  0.4216  0.7564 -1.4164
 6705SOL     OW31747   0.845   4.340   4.028 -0.2004  0.1593  0.0340
 6705SOL    HW131748   0.844   4.435   4.025 -1.8273  0.1157 -0.4230
 6705SOL    HW231749   0.775   4.320   3.967  2.1390  1.9298 -3.1984
 6706SOL     OW31750   0.223   3.926  15.071  0.4834 -0.3526 -0.9098
 6706SOL    HW131751   0.308   3.911  15.112 -1.0710 -0.4859  2.2380
 6706SOL    HW231752   0.178   3.963  15.148  1.4261 -0.1199 -0.4754
 6707SOL     OW31753   3.654   1.113  16.574 -0.0765  0.3563 -0.5327
 6707SOL    HW131754   3.635   1.023  16.551  0.9403 -0.1607  0.6482
 6707SOL    HW231755   3.614   1.106  16.661 -0.6064  0.3263 -0.7802
 6708SOL     OW31756   3.225   1.149   9.607  0.1372  0.3159  0.9744
 6708SOL    HW131757   3.213   1.081   9.541 -1.6071  0.7316  0.8664
 6708SOL    HW231758   3.319   1.167   9.604  0.2360 -0.3880 -0.0920
 6709SOL     OW31759   1.536   1.766  12.692 -0.1986  0.2653 -0.0537
 6709SOL    HW131760   1.546   1.710  12.615  1.5902 -0.1801  0.5185
 6709SOL    HW231761   1.629   1.777  12.710  0.5877 -2.0834 -2.6253
 6710SOL     OW31762   1.827   1.157   2.065 -0.2205 -0.0473  0.8434
 6710SOL    HW131763   1.757   1.092   2.061 -1.1036  1.0078 -1.0156
 6710SOL    HW231764   1.865   1.146   1.977  1.2224  1.7540  1.2215
 6711SOL     OW31765   1.619   3.787  11.963 -0.0758  0.9038 -0.2060
 6711SOL    HW131766   1.664   3.843  12.025  0.9884 -0.8223  0.5883
 6711SOL    HW231767   1.593   3.849  11.895  0.3635  0.9712 -0.3121
 6712SOL     OW31768   0.163   2.451   7.371  0.0141 -0.4447 -0.1673
 6712SOL    HW131769   0.194   2.365   7.399 -1.0884 -0.3159  1.4497
 6712SOL    HW231770   0.097   2.473   7.436  2.2642 -1.4570  2.4600
 6713SOL     OW31771   2.136   2.907   5.950  0.3025  0.4532 -0.0704
 6713SOL    HW131772   2.145   2.958   6.030  2.7863  0.9305 -0.6472
 6713SOL    HW231773   2.042   2.916   5.932  0.3332 -3.7334 -2.4048
 6714SOL     OW31774   4.180   0.481   9.409  0.0706  0.1572 -0.0580
 6714SOL    HW131775   4.188   0.456   9.317 -2.0476 -2.0911  0.3768
 6714SOL    HW231776   4.274   0.479   9.429 -0.2925  1.2073  1.7866
 6715SOL     OW31777   4.708   3.823   7.169 -0.1896 -0.2048  0.3172
 6715SOL    HW131778   4.715   3.753   7.105  0.3364  1.1806 -1.1587
 6715SOL    HW231779   4.664   3.788   7.246  0.3794  1.4838  1.4190
 6716SOL     OW31780   4.018   4.009   9.665  0.1469  0.1359  0.1188
 6716SOL    HW131781   3.923   4.010   9.677  0.2728 -0.7708  1.2201
 6716SOL    HW231782   4.033   4.099   9.692  2.6059 -0.1887 -0.1893
 6717SOL     OW31783   3.717   0.006   6.980 -0.3454  0.3456 -0.2314
 6717SOL    HW131784   3.722   4.648   6.970 -2.3269 -0.0666  2.7960
 6717SOL    HW231785   3.737   0.033   6.890 -1.5370 -0.4446 -0.7491
 6718SOL     OW31786   3.783   0.454  11.769 -0.0884  0.0781  0.1215
 6718SOL    HW131787   3.814   0.538  11.735 -2.4279  1.1827  0.6811
 6718SOL    HW231788   3.724   0.419  11.702  1.4127 -0.4663 -0.9181
 6719SOL     OW31789   3.721   1.711  17.438 -0.0179 -0.4251  0.1444
 6719SOL    HW131790   3.718   1.671  17.351  2.6559  1.8635 -1.0288
 6719SOL    HW231791   3.639   1.757  17.419  0.6771  0.7427 -0.0701
 6720SOL     OW31792   1.355   2.667   6.257  0.4749 -0.4371  0.5534
 6720SOL    HW131793   1.327   2.677   6.166  0.9455  1.2092  0.6014
 6720SOL    HW231794   1.407   2.747   6.263 -1.5201  0.7953  1.3526
 6721SOL     OW31795   3.616   1.998   9.580 -0.5850  0.2624 -0.4078
 6721SOL    HW131796   3.676   1.994   9.506  0.6673 -1.2915  0.6855
 6721SOL    HW231797   3.677   1.961   9.645  0.4344  3.1531  0.2862
 6722SOL     OW31798   3.925   4.467   0.938  0.3598  0.2369  0.0374
 6722SOL    HW131799   3.935   4.458   0.844 -0.0707 -0.2407  0.0330
 6722SOL    HW231800   3.840   4.425   0.951  0.0503  0.6327 -0.7287
 6723SOL     OW31801   0.955   1.852  17.227  0.2343 -0.0822  0.3867
 6723SOL    HW131802   0.929   1.806  17.148  1.1904 -0.6325  0.3951
 6723SOL    HW231803   0.922   1.941  17.217 -1.0799 -0.4971  0.9277
 6724SOL     OW31804   2.119   2.667  12.367 -0.0848 -0.5345 -0.0879
 6724SOL    HW131805   2.038   2.713  12.343 -1.6518 -1.9400  2.5200
 6724SOL    HW231806   2.080   2.588  12.406  2.6202 -1.5337  0.5499
 6725SOL     OW31807   0.014   2.189  13.938 -0.2363 -0.0964 -0.0877
 6725SOL    HW131808   0.056   2.107  13.913  1.8198  0.8166  0.4128
 6725SOL    HW231809   4.691   2.173  14.012  0.2857 -1.1664  0.0931
 6726SOL     OW31810   1.094   1.976   2.776  0.4975 -0.0349  0.2846
 6726SOL    HW131811   1.145   1.955   2.854  0.8442  0.7406  0.2747
 6726SOL    HW231812   1.134   1.930   2.702  2.4861  1.1721  0.5934
 6727SOL     OW31813   3.005   3.586  14.226 -0.1806  0.2745  0.5800
 6727SOL    HW131814   2.932   3.537  14.188  0.0066  0.5261 -0.1011
 6727SOL    HW231815   2.973   3.591  14.316  1.9518  0.2432  1.3553
 6728SOL     OW31816   3.132   1.539   4.784  0.0408 -0.0776 -0.0864
 6728SOL    HW131817   3.203   1.577   4.836  0.0160 -1.3525  0.8906
 6728SOL    HW231818   3.054   1.592   4.798  1.1455  1.7523 -0.7419
 6729SOL     OW31819   2.172   3.870   1.934  0.2831  0.0550  0.1668
 6729SOL    HW131820   2.231   3.797   1.914  0.2107  0.2850 -0.8372
 6729SOL    HW231821   2.167   3.910   1.848  2.1273 -1.0181 -0.4403
 6730SOL     OW31822   4.142   2.909   9.302 -0.4062  0.8081 -0.1087
 6730SOL    HW131823   4.191   2.960   9.238 -1.8626  1.5841 -0.6061
 6730SOL    HW231824   4.209   2.843   9.317 -0.8646  0.3544 -0.0435
 6731SOL     OW31825   3.322   3.149   4.929 -0.6247  0.2500 -0.4245
 6731SOL    HW131826   3.306   3.226   4.984 -1.0544 -0.8337  0.9831
 6731SOL    HW231827   3.259   3.172   4.861 -0.4564 -1.7899 -1.2878
 6732SOL     OW31828   3.581   4.549   8.289 -0.8136  0.4192 -0.0621
 6732SOL    HW131829   3.489   4.539   8.264 -1.3368  1.2851  1.4333
 6732SOL    HW231830   3.572   4.542   8.384  2.0525  0.7795  0.2487
 6733SOL     OW31831   0.232   0.088   2.184 -0.6830  0.3871 -0.4583
 6733SOL    HW131832   0.194   0.025   2.245  0.7433 -0.4703 -0.4638
 6733SOL    HW231833   0.301   0.121   2.242  0.9693 -1.2858 -1.4918
 6734SOL     OW31834   2.376   1.477   7.023  0.2465  0.4688 -0.4555
 6734SOL    HW131835   2.394   1.466   6.930 -0.4075 -1.0685 -0.4039
 6734SOL    HW231836   2.452   1.432   7.061 -0.2280 -0.0432 -0.1176
 6735SOL     OW31837   3.025   0.585   9.167  0.0272 -0.3249  0.5881
 6735SOL    HW131838   2.959   0.565   9.234 -0.3210  0.2101  0.4008
 6735SOL    HW231839   3.065   0.669   9.187 -1.7365  0.6025  0.2058
 6736SOL     OW31840   0.680   0.617   9.874 -0.2696 -0.1997 -0.0635
 6736SOL    HW131841   0.618   0.615   9.800  0.7234  0.1170 -0.9046
 6736SOL    HW231842   0.667   0.524   9.893  1.1085 -0.0554  1.5345
 6737SOL     OW31843   4.201   1.431   4.029 -0.6686 -0.2237 -0.0203
 6737SOL    HW131844   4.224   1.403   3.940 -0.4998 -0.6888  0.1717
 6737SOL    HW231845   4.156   1.353   4.061 -1.4640  0.4643  0.5327
 6738SOL     OW31846   0.866   3.436   3.664 -0.3891  0.0913  0.2960
 6738SOL    HW131847   0.827   3.357   3.700  0.4728 -0.2281  0.5178
 6738SOL    HW231848   0.807   3.449   3.590  1.7982  0.2887 -1.3987
 6739SOL     OW31849   0.426   4.496  13.980 -0.0667 -0.2673  0.2013
 6739SOL    HW131850   0.413   4.561  13.911  0.3748 -1.9837 -1.4984
 6739SOL    HW231851   0.443   4.555  14.053 -2.4150 -0.7539  1.1046
 6740SOL     OW31852   1.389   0.430   3.572 -0.0528  0.0798  0.9609
 6740SOL    HW131853   1.296   0.451   3.560 -0.3277 -0.7088  1.7552
 6740SOL    HW231854   1.432   0.479   3.501 -1.9752  0.8249  0.3183
 6741SOL     OW31855   1.351   1.815   7.814  0.6838  0.4946 -0.1481
 6741SOL    HW131856   1.367   1.900   7.854  0.9738 -0.0280  0.8547
 6741SOL    HW231857   1.330   1.834   7.723  0.3078  1.1333  0.0754
 6742SOL     OW31858   4.056   4.419  16.814  0.5105 -0.3313  0.3560
 6742SOL    HW131859   4.051   4.400  16.720 -0.1433  0.9321  0.1338
 6742SOL    HW231860   4.059   4.515  16.818  0.7624 -0.3424  0.4384
 6743SOL     OW31861   2.054   1.636   8.783  0.1285  0.4566  0.0891
 6743SOL    HW131862   2.126   1.577   8.804  0.1927  0.8319  0.9283
 6743SOL    HW231863   1.981   1.576   8.797  2.3897 -2.5045 -0.8246
 6744SOL     OW31864   3.128   0.154  12.235 -0.0182  0.0513  0.2978
 6744SOL    HW131865   3.094   0.149  12.325 -1.6089  0.6317 -0.2623
 6744SOL    HW231866   3.157   0.069  12.203 -1.4762 -0.2259 -0.3177
 6745SOL     OW31867   3.416   2.197   9.513  0.4692 -0.1028 -0.3773
 6745SOL    HW131868   3.489   2.146   9.551 -0.6840 -2.0109 -0.7363
 6745SOL    HW231869   3.419   2.271   9.573 -2.3766 -0.0912 -0.2777
 6746SOL     OW31870   2.122   0.378  15.595  0.8255  0.3429 -0.6271
 6746SOL    HW131871   2.160   0.461  15.564  0.4822  0.2361 -1.3248
 6746SOL    HW231872   2.128   0.328  15.513 -0.1259 -1.5350  0.4569
 6747SOL     OW31873   4.164   4.702   4.341 -0.6342  0.1796  0.3079
 6747SOL    HW131874   4.087   0.007   4.303  0.0834 -1.0188 -2.3975
 6747SOL    HW231875   4.112   4.668   4.414 -0.8767  1.1563  0.5841
 6748SOL     OW31876   3.529   1.081   1.872 -0.2859  0.4001 -0.2249
 6748SOL    HW131877   3.453   1.076   1.814  0.8414  2.0890 -1.8629
 6748SOL    HW231878   3.492   1.098   1.959  1.4851 -0.4701  0.6914
 6749SOL     OW31879   0.714   4.429   8.249 -0.0590 -0.1807 -0.7536
 6749SOL    HW131880   0.727   4.522   8.229  0.5448 -0.3995 -1.3661
 6749SOL    HW231881   0.664   4.407   8.171 -1.5961 -0.0276  0.1797
 6750SOL     OW31882   1.903   3.119   3.112  0.6310 -0.2240 -0.0212
 6750SOL    HW131883   1.847   3.092   3.039  1.1400 -0.1600 -0.4297
 6750SOL    HW231884   1.857   3.197   3.145  1.5932  0.1989  0.3122
 6751SOL     OW31885   4.042   3.131   2.647  0.4394  0.2762  0.3513
 6751SOL    HW131886   4.120   3.088   2.682  1.5003  0.1930 -2.1252
 6751SOL    HW231887   4.069   3.223   2.652  0.7163  0.1496  1.2055
 6752SOL     OW31888   2.080   0.974   9.296  0.1144 -0.0851  0.3970
 6752SOL    HW131889   2.041   0.886   9.291  1.8996 -0.6370 -4.1927
 6752SOL    HW231890   2.056   1.003   9.384  1.9579 -0.3558  0.9886
 6753SOL     OW31891   1.792   0.455   5.802 -0.0712  0.0650  0.2158
 6753SOL    HW131892   1.715   0.511   5.805  0.5822  1.0584 -2.1754
 6753SOL    HW231893   1.784   0.408   5.885 -1.3408  2.7112  1.5847
 6754SOL     OW31894   4.356   3.934  12.187 -0.5022 -0.6285 -0.0497
 6754SOL    HW131895   4.430   3.990  12.169  0.5782 -1.2229  2.5572
 6754SOL    HW231896   4.306   3.980  12.254 -0.8585 -1.6366  0.3890
 6755SOL     OW31897   1.941   0.214   5.754 -0.2406  0.4550 -0.4274
 6755SOL    HW131898   1.924   0.307   5.763  1.3357  0.5710  1.3030
 6755SOL    HW231899   1.996   0.191   5.829  1.7392 -0.2108 -2.0858
 6756SOL     OW31900   0.536   2.019   4.778 -0.4730  0.2257 -1.0070
 6756SOL    HW131901   0.527   2.029   4.873 -0.5258  0.7502 -1.0690
 6756SOL    HW231902   0.465   1.956   4.764 -1.4614  0.6147  2.2795
 6757SOL     OW31903   4.582   0.902  13.417  0.1445 -0.4623 -0.3318
 6757SOL    HW131904   4.605   0.993  13.399 -1.0488 -0.3318 -1.1246
 6757SOL    HW231905   4.666   0.857  13.400 -0.2539 -0.1406 -3.1026
 6758SOL     OW31906   2.417   0.373   7.889  0.3375 -0.2712  0.7357
 6758SOL    HW131907   2.373   0.458   7.896  0.5556 -0.2231  1.5694
 6758SOL    HW231908   2.491   0.401   7.835  0.4749  0.2309  1.1815
 6759SOL     OW31909   3.356   4.517   0.059 -0.0194 -0.0052  0.1987
 6759SOL    HW131910   3.278   4.572   0.067 -0.4108 -0.6466  0.8655
 6759SOL    HW231911   3.378   4.505   0.151  0.2348  0.8875  0.2522
 6760SOL     OW31912   3.679   0.054   8.406 -0.1408  0.2003 -0.4150
 6760SOL    HW131913   3.768   0.045   8.441 -0.4885 -1.4788  0.0062
 6760SOL    HW231914   3.664   4.698   8.389 -2.2897  0.2605  1.2461
 6761SOL     OW31915   0.948   1.415   5.081  0.7684  0.3622 -0.0626
 6761SOL    HW131916   0.874   1.387   5.026 -1.6625  3.4676  1.6149
 6761SOL    HW231917   0.935   1.368   5.163  1.9229  2.6641  1.4241
 6762SOL     OW31918   0.412   2.644   8.693 -0.4751 -0.4540  0.6251
 6762SOL    HW131919   0.355   2.721   8.688 -1.4382 -1.4618 -4.5429
 6762SOL    HW231920   0.490   2.683   8.654 -1.5026  0.7965 -0.2141
 6763SOL     OW31921   2.993   0.799   3.928  0.2757  0.1589 -0.5560
 6763SOL    HW131922   2.911   0.847   3.935  0.9993  1.1785  1.1604
 6763SOL    HW231923   3.058   0.869   3.922 -0.9365  1.3054 -0.1177
 6764SOL     OW31924   4.527   4.010   1.919 -0.1527  0.0865 -0.4252
 6764SOL    HW131925   4.548   3.920   1.944 -0.0381  0.6088  1.3507
 6764SOL    HW231926   4.538   4.015   1.824  0.8793  3.1890 -0.1393
 6765SOL     OW31927   1.011   2.493   6.836  0.4413 -0.2303 -0.0251
 6765SOL    HW131928   0.924   2.473   6.871 -0.0440  0.9389 -0.5432
 6765SOL    HW231929   1.031   2.567   6.894 -1.3935 -0.7237  1.2558
 6766SOL     OW31930   0.521   0.664   7.032 -0.2202  0.0753 -0.2483
 6766SOL    HW131931   0.487   0.607   6.963  0.3026  0.6386 -0.9787
 6766SOL    HW231932   0.528   0.747   6.985 -0.0450  0.3101  0.1921
 6767SOL     OW31933   4.095   0.329   3.953 -0.0964 -0.3566 -0.4197
 6767SOL    HW131934   4.036   0.334   4.028  0.3320 -1.4177 -0.0141
 6767SOL    HW231935   4.072   0.249   3.906  2.1948 -0.5836 -1.1697
 6768SOL     OW31936   0.033   2.961  14.530 -0.1939 -0.6277 -0.4352
 6768SOL    HW131937   0.007   2.891  14.470 -1.6353 -3.4088  3.3836
 6768SOL    HW231938   0.049   3.030  14.466  0.8094  1.1832  1.7333
 6769SOL     OW31939   4.496   2.879  10.131 -0.0590 -0.0264 -1.0619
 6769SOL    HW131940   4.500   2.895  10.037 -1.5599  0.3926 -1.0626
 6769SOL    HW231941   4.507   2.784  10.121  0.9884 -0.0659  0.4555
 6770SOL     OW31942   3.320   3.061   8.661 -0.5985  0.1449 -0.5012
 6770SOL    HW131943   3.332   3.025   8.749 -0.6296  0.7681 -0.2420
 6770SOL    HW231944   3.254   3.005   8.620 -0.3970 -1.2222  1.0447
 6771SOL     OW31945   3.800   2.133  17.550 -0.1151  0.6373 -0.1618
 6771SOL    HW131946   3.806   2.139  17.645 -1.0209  1.2284 -0.1385
 6771SOL    HW231947   3.708   2.107  17.547  0.0308  0.3514 -2.9486
 6772SOL     OW31948   3.919   0.281   9.276  0.9713 -0.1813 -0.2134
 6772SOL    HW131949   3.858   0.212   9.251 -0.3850  0.9836 -0.1185
 6772SOL    HW231950   3.886   0.353   9.222 -1.9311 -0.3263  1.4285
 6773SOL     OW31951   2.796   0.593   9.402 -0.8452  0.2981  0.4523
 6773SOL    HW131952   2.726   0.632   9.454 -0.1512  1.3824  0.5793
 6773SOL    HW231953   2.872   0.610   9.458 -0.0990 -1.5935  0.0188
 6774SOL     OW31954   0.601   1.200   2.605  0.1743 -0.6164 -0.2534
 6774SOL    HW131955   0.607   1.168   2.515  0.3140 -3.5080  0.7947
 6774SOL    HW231956   0.688   1.240   2.616 -0.0663 -0.3145  0.5253
 6775SOL     OW31957   2.887   1.213   4.121  0.2903 -0.4854  0.2793
 6775SOL    HW131958   2.866   1.283   4.059 -0.6692  0.6500  1.9191
 6775SOL    HW231959   2.950   1.162   4.070  2.8397  2.8360  0.1405
 6776SOL     OW31960   4.679   1.149   3.416  0.0009 -0.3364 -1.3940
 6776SOL    HW131961   4.653   1.241   3.423  2.4330  0.2370 -0.0200
 6776SOL    HW231962   4.700   1.130   3.508  0.3403  0.1972 -1.3630
 6777SOL     OW31963   0.667   0.951   8.534  0.2959  0.4764 -0.3836
 6777SOL    HW131964   0.595   1.012   8.547 -0.2010 -0.8309  3.0245
 6777SOL    HW231965   0.720   0.976   8.610 -0.5843 -1.4195  0.8612
 6778SOL     OW31966   1.223   0.630   3.797  0.3093  0.2314  0.2873
 6778SOL    HW131967   1.294   0.667   3.745  0.4725  0.3617  0.6094
 6778SOL    HW231968   1.275   0.552   3.818  0.0032  0.3199  1.3415
 6779SOL     OW31969   0.967   4.615   5.097 -0.4307  0.3690  0.6457
 6779SOL    HW131970   0.874   4.634   5.114 -0.8453  0.3601 -1.6632
 6779SOL    HW231971   0.966   4.618   5.001  1.2918 -0.3065  0.6022
 6780SOL     OW31972   2.663   4.144   7.052  0.0629  0.0279  0.2783
 6780SOL    HW131973   2.736   4.198   7.079  0.6090 -0.5471 -0.0440
 6780SOL    HW231974   2.597   4.198   7.095  0.6014  0.4024  0.6252
 6781SOL     OW31975   1.403   1.022   5.324 -0.4211  0.3848  0.2682
 6781SOL    HW131976   1.373   0.934   5.347  0.5429  0.3117  1.2309
 6781SOL    HW231977   1.325   1.069   5.354 -1.0242  0.4293 -1.3464
 6782SOL     OW31978   2.313   3.027   7.290  0.2424 -0.0760 -0.4444
 6782SOL    HW131979   2.369   3.088   7.241  2.7471 -1.3687  0.7739
 6782SOL    HW231980   2.243   3.009   7.228 -1.8424 -3.5668  2.9340
 6783SOL     OW31981   2.758   1.204   8.290  0.2518 -0.9830 -0.1026
 6783SOL    HW131982   2.730   1.116   8.264  0.4183 -1.0605 -0.0179
 6783SOL    HW231983   2.794   1.189   8.378  1.8425  2.5381 -0.1685
 6784SOL     OW31984   3.096   1.121   6.749  0.1731  0.0883 -0.5496
 6784SOL    HW131985   3.148   1.128   6.669 -1.0473  2.2966 -1.1528
 6784SOL    HW231986   3.011   1.147   6.712  0.5022  3.2271  0.9652
 6785SOL     OW31987   1.105   0.747   7.257  0.0162  0.2829 -0.2350
 6785SOL    HW131988   1.173   0.746   7.189 -2.6703 -0.5065 -2.9390
 6785SOL    HW231989   1.076   0.838   7.248 -0.2026  0.2260 -0.1150
 6786SOL     OW31990   4.328   1.815   2.833  0.0677 -0.8370  0.0983
 6786SOL    HW131991   4.301   1.901   2.867 -0.2793 -0.7298 -0.4526
 6786SOL    HW231992   4.327   1.823   2.738  0.2183  0.0856  0.1755
 6787SOL     OW31993   3.821   3.437   6.026 -0.0786  0.2298  0.4873
 6787SOL    HW131994   3.857   3.517   5.988 -0.3624  0.5508  0.8991
 6787SOL    HW231995   3.730   3.443   5.995  0.0776  1.4548  0.2630
 6788SOL     OW31996   0.930   1.846   6.432  0.0298  0.5994  0.6056
 6788SOL    HW131997   0.916   1.880   6.520 -2.2091  0.0007  0.4790
 6788SOL    HW231998   1.025   1.835   6.426  0.2499  1.6528  2.2047
 6789SOL     OW31999   2.547   3.368   5.074  0.8264  0.5835 -0.3600
 6789SOL    HW132000   2.541   3.436   5.007 -2.2629  2.0285  1.3468
 6789SOL    HW232001   2.465   3.367   5.123  1.2386  4.3507  0.4153
 6790SOL     OW32002   2.335   1.004   2.059  0.2156 -0.0284 -0.5328
 6790SOL    HW132003   2.276   0.931   2.076  0.6940 -0.0757  0.9515
 6790SOL    HW232004   2.290   1.048   1.988 -0.7610 -0.5605 -0.2417
 6791SOL     OW32005   4.308   1.444   9.487 -0.4923  0.2672 -0.2123
 6791SOL    HW132006   4.401   1.463   9.474 -0.3173 -0.4617  0.0032
 6791SOL    HW232007   4.305   1.349   9.476 -2.5121  0.2627  0.3421
 6792SOL     OW32008   2.159   1.878  11.767  0.4807  0.6822 -0.1135
 6792SOL    HW132009   2.240   1.930  11.766  1.3397 -0.6605 -0.1884
 6792SOL    HW232010   2.142   1.878  11.673 -2.0126  0.6702  0.3531
 6793SOL     OW32011   4.510   2.948   3.035 -0.8515 -0.3681 -0.1623
 6793SOL    HW132012   4.449   2.875   3.022 -1.1419 -0.4126  1.5227
 6793SOL    HW232013   4.473   3.015   2.977  0.6349 -0.7459 -1.5458
 6794SOL     OW32014   1.913   2.729   1.781 -0.2129 -0.2525 -0.5204
 6794SOL    HW132015   1.954   2.793   1.840 -1.4936 -1.1353  1.3279
 6794SOL    HW232016   1.851   2.682   1.837  1.0580 -1.1556  0.1363
 6795SOL     OW32017   0.895   0.576   7.254  0.2378 -0.5704  0.0725
 6795SOL    HW132018   0.970   0.634   7.266 -0.1325  0.4304 -2.6470
 6795SOL    HW232019   0.910   0.518   7.329 -0.7275 -0.9232 -0.0034
 6796SOL     OW32020   1.311   3.221   7.753 -0.0043 -0.3019  0.0538
 6796SOL    HW132021   1.355   3.279   7.691  0.9959 -3.1357 -1.8634
 6796SOL    HW232022   1.367   3.231   7.830 -0.9173 -4.6275  1.2730
 6797SOL     OW32023   1.669   1.027   6.866 -0.4730 -0.4459 -0.0663
 6797SOL    HW132024   1.763   1.029   6.880 -0.2054  2.1127 -2.2869
 6797SOL    HW232025   1.631   0.994   6.948 -0.8666  0.9753  0.3162
 6798SOL     OW32026   2.678   3.467  16.631 -0.3338  0.6922  0.0130
 6798SOL    HW132027   2.672   3.492  16.539  1.7158  1.4805  0.0705
 6798SOL    HW232028   2.609   3.401  16.634  0.9536 -0.6264  0.8211
 6799SOL     OW32029   2.596   2.613   7.219 -0.8758  0.4919 -0.0924
 6799SOL    HW132030   2.573   2.689   7.165  1.4398  1.3466  0.1314
 6799SOL    HW232031   2.507   2.592   7.249 -0.2188 -2.2899 -0.0408
 6800SOL     OW32032   2.313   1.997   6.327  0.0324  0.0892 -0.1878
 6800SOL    HW132033   2.362   1.922   6.360  1.8432  1.8244  1.1014
 6800SOL    HW232034   2.362   2.073   6.359  0.6684 -1.2856  2.0420
 6801SOL     OW32035   0.521   3.157  15.495 -0.0305 -0.2920  0.2371
 6801SOL    HW132036   0.550   3.226  15.555  0.3958  1.0260 -1.4944
 6801SOL    HW232037   0.602   3.111  15.475  0.0837 -0.3330  0.8000
 6802SOL     OW32038   3.349   4.678   4.020 -0.7387 -0.1790 -0.3056
 6802SOL    HW132039   3.328   0.032   4.043  2.7782 -0.0669  2.3808
 6802SOL    HW232040   3.265   4.648   3.985 -0.8664  2.6237 -2.4269
 6803SOL     OW32041   1.383   1.645  10.636  0.5297 -0.7118 -0.8530
 6803SOL    HW132042   1.336   1.562  10.640 -0.6946 -0.1482 -3.7525
 6803SOL    HW232043   1.309   1.705  10.640  0.0536 -1.4392  1.3444
 6804SOL     OW32044   4.586   2.236   5.589 -0.1406  0.0214 -1.1830
 6804SOL    HW132045   4.640   2.314   5.601  0.6056 -0.9423  1.5335
 6804SOL    HW232046   4.526   2.249   5.663 -0.4033  0.3872 -1.4567
 6805SOL     OW32047   4.161   2.601   8.256 -0.2912 -0.0155 -0.0052
 6805SOL    HW132048   4.251   2.630   8.272 -0.3497  1.2887 -2.0980
 6805SOL    HW232049   4.142   2.632   8.168 -1.0514 -1.4062 -0.3253
 6806SOL     OW32050   4.375   4.572  10.523  0.1088  0.1518 -0.4215
 6806SOL    HW132051   4.411   4.534  10.443  2.8826 -1.2439  1.5086
 6806SOL    HW232052   4.361   4.491  10.571  0.2764  0.4344  0.1032
 6807SOL     OW32053   1.506   2.361   8.273  0.3022  0.4071  0.3058
 6807SOL    HW132054   1.515   2.271   8.241 -0.9546  0.1058  0.8044
 6807SOL    HW232055   1.444   2.349   8.345  0.7464  0.4149  0.6878
 6808SOL     OW32056   3.507   2.557   5.766 -0.4544 -0.0464  0.2378
 6808SOL    HW132057   3.447   2.553   5.691 -1.3728 -0.8550  1.0246
 6808SOL    HW232058   3.589   2.528   5.727 -1.3792 -0.7050 -1.2454
 6809SOL     OW32059   3.225   3.350  17.689 -0.4149  0.5078 -0.1330
 6809SOL    HW132060   3.236   3.255  17.682  0.2588  0.4524  1.7092
 6809SOL    HW232061   3.130   3.349  17.678 -0.4255  0.6219 -0.0463
 6810SOL     OW32062   3.896   0.741  14.890 -0.3687  0.1121 -0.1924
 6810SOL    HW132063   3.808   0.724  14.856  0.4640  0.0574 -2.3104
 6810SOL    HW232064   3.939   0.694  14.819  1.7686  1.0238  0.5105
 6811SOL     OW32065   2.304   4.065   5.144 -1.0222 -0.0062 -0.0175
 6811SOL    HW132066   2.249   3.987   5.143 -0.9145 -0.0787 -0.3349
 6811SOL    HW232067   2.266   4.115   5.217  0.7639 -0.4695  1.2564
 6812SOL     OW32068   1.745   1.559   6.240  0.4135  0.5728 -0.3655
 6812SOL    HW132069   1.651   1.557   6.258  1.0178 -0.7527  2.6401
 6812SOL    HW232070   1.752   1.468   6.211 -1.1678 -0.3146  2.0239
 6813SOL     OW32071   3.627   4.065  13.000 -0.2506 -0.1741  0.2947
 6813SOL    HW132072   3.552   4.117  12.972 -1.0814 -2.1524 -1.1532
 6813SOL    HW232073   3.628   4.004  12.926  0.4345  0.5860 -0.3197
 6814SOL     OW32074   2.000   1.021   1.843 -0.0060  0.0827  0.2218
 6814SOL    HW132075   2.092   1.048   1.845  0.1596 -0.5172  0.5813
 6814SOL    HW232076   1.982   1.040   1.750  1.2668 -2.6157 -0.5471
 6815SOL     OW32077   4.613   3.472   4.366 -0.7141  0.0956  0.4311
 6815SOL    HW132078   4.651   3.531   4.431 -1.1051 -1.2810  1.8996
 6815SOL    HW232079   4.616   3.530   4.289 -0.4103 -0.7824 -0.2149
 6816SOL     OW32080   2.924   0.367   8.991 -0.0066  0.0830 -0.5263
 6816SOL    HW132081   2.962   0.426   9.057 -0.7594  2.0238 -1.8168
 6816SOL    HW232082   2.981   0.376   8.915  2.3971 -0.7884  1.1914
 6817SOL     OW32083   2.238   3.355   4.451 -0.1400  0.5789 -0.9193
 6817SOL    HW132084   2.218   3.355   4.545 -0.0268  3.4495 -0.9124
 6817SOL    HW232085   2.288   3.276   4.429 -0.6651 -0.3110  1.0786
 6818SOL     OW32086   1.540   2.383   7.701 -0.1143  0.6151  0.5639
 6818SOL    HW132087   1.594   2.450   7.743 -0.5636  0.7317  0.9553
 6818SOL    HW232088   1.587   2.378   7.617 -1.5952 -1.2213 -0.1447
 6819SOL     OW32089   0.688   3.835   8.052 -0.0790 -0.6263  0.1980
 6819SOL    HW132090   0.728   3.898   7.992  1.0485 -0.5374  1.0397
 6819SOL    HW232091   0.745   3.854   8.126  1.3597  1.6492 -1.5097
 6820SOL     OW32092   0.677   3.940  12.301 -0.4936  0.2266 -0.0860
 6820SOL    HW132093   0.598   3.912  12.255 -1.6271  0.6247  1.5936
 6820SOL    HW232094   0.666   4.034  12.316 -3.0507  0.0049 -0.5635
 6821SOL     OW32095   2.764   0.148  17.300  0.6462  0.2075  0.1715
 6821SOL    HW132096   2.677   0.150  17.261  0.7952  1.3277 -0.0786
 6821SOL    HW232097   2.783   0.241  17.309  1.2531  0.2302 -1.4149
 6822SOL     OW32098   1.020   3.740   6.438 -0.2982  0.1815  0.5991
 6822SOL    HW132099   1.114   3.736   6.419 -0.6217 -1.4520 -0.7856
 6822SOL    HW232100   1.014   3.829   6.470  0.6938  0.1104  0.9757
 6823SOL     OW32101   3.067   4.144   2.528  0.1837 -0.5007 -0.1036
 6823SOL    HW132102   3.132   4.089   2.484 -1.2934 -2.1104 -0.2940
 6823SOL    HW232103   3.094   4.157   2.618  1.6897 -2.4057 -0.2852
 6824SOL     OW32104   4.475   2.523   7.337  0.2600  0.9354 -0.6042
 6824SOL    HW132105   4.432   2.596   7.381  0.6839  0.5971  0.3643
 6824SOL    HW232106   4.514   2.484   7.415  1.5010  0.1459 -1.6244
 6825SOL     OW32107   0.088   3.476  13.545  0.0371 -0.3727  0.0434
 6825SOL    HW132108   0.104   3.433  13.460  1.8706  0.7436 -0.1752
 6825SOL    HW232109   0.031   3.403  13.569 -0.5657  0.2607  0.4957
 6826SOL     OW32110   0.626   3.197   3.439 -0.3003  0.3911  0.7473
 6826SOL    HW132111   0.676   3.277   3.420  1.9276 -1.0638  0.4447
 6826SOL    HW232112   0.658   3.172   3.526 -1.9725 -1.2405  0.8902
 6827SOL     OW32113   1.887   1.174   5.739 -0.1337 -0.1552 -0.1756
 6827SOL    HW132114   1.864   1.228   5.663  1.3927 -2.1984 -2.0774
 6827SOL    HW232115   1.979   1.194   5.753 -1.0520  2.6261  1.8130
 6828SOL     OW32116   1.767   4.007   9.738  0.1429  0.0676  0.1876
 6828SOL    HW132117   1.849   4.052   9.718  0.0723  0.4968  0.8579
 6828SOL    HW232118   1.795   3.945   9.806  0.0883 -1.2492 -0.9949
 6829SOL     OW32119   4.044   0.079  10.934  0.5684 -0.7916  0.3374
 6829SOL    HW132120   4.100   0.001  10.932 -1.6766 -2.3555 -1.7292
 6829SOL    HW232121   4.110   0.137  10.972 -1.3118  0.6217  1.4206
 6830SOL     OW32122   1.336   1.421   4.836 -0.1721  0.5168 -0.4398
 6830SOL    HW132123   1.411   1.474   4.811  3.5127 -4.5212  0.0264
 6830SOL    HW232124   1.294   1.463   4.911 -0.0046  2.0032 -1.1969
 6831SOL     OW32125   3.768   0.306   7.398 -0.4050 -0.3617 -0.3190
 6831SOL    HW132126   3.737   0.307   7.488 -1.6381 -3.6804 -0.7086
 6831SOL    HW232127   3.688   0.323   7.348 -0.6016 -1.5605 -0.4247
 6832SOL     OW32128   3.594   2.839   9.282  0.1108  0.5260  0.2314
 6832SOL    HW132129   3.624   2.756   9.244  1.9645  0.8798  0.9199
 6832SOL    HW232130   3.676   2.866   9.324  0.4636 -1.0447  0.5721
 6833SOL     OW32131   3.733   2.354   9.249 -0.1298 -0.1027  0.2633
 6833SOL    HW132132   3.811   2.372   9.302  0.4560  2.7022 -1.5259
 6833SOL    HW232133   3.670   2.321   9.313  0.0950 -0.4740  0.2901
 6834SOL     OW32134   3.972   1.050   9.452 -0.0415 -0.1178 -0.5607
 6834SOL    HW132135   3.952   0.979   9.513 -2.4594 -0.0378 -1.2462
 6834SOL    HW232136   3.882   1.080   9.438  0.1651  0.5473 -0.4559
 6835SOL     OW32137   2.403   2.200   3.780 -0.1246 -0.0137  0.2134
 6835SOL    HW132138   2.452   2.268   3.826  0.6563  0.1815 -0.9118
 6835SOL    HW232139   2.315   2.236   3.769 -0.4026  0.3640  3.6645
 6836SOL     OW32140   3.089   3.693   2.285  0.2554 -0.5356 -0.5547
 6836SOL    HW132141   3.027   3.680   2.213  3.3205  0.8243 -3.4352
 6836SOL    HW232142   3.166   3.739   2.251 -0.6237  1.9319  0.8076
 6837SOL     OW32143   1.874   0.206   8.210  0.4187  0.4971 -0.2655
 6837SOL    HW132144   1.852   0.239   8.297 -0.8880  2.4354 -1.3245
 6837SOL    HW232145   1.895   0.286   8.162  0.5332  1.1591  0.9114
 6838SOL     OW32146   2.763   3.626   1.872  0.7456 -0.7359  0.2787
 6838SOL    HW132147   2.744   3.696   1.810 -1.6433 -1.3495  0.3221
 6838SOL    HW232148   2.724   3.551   1.827  0.7321 -0.2016 -0.6143
 6839SOL     OW32149   0.263   3.360   6.571 -0.4544  0.2679  0.0544
 6839SOL    HW132150   0.256   3.298   6.644  0.2658 -0.7960 -0.7824
 6839SOL    HW232151   0.354   3.361   6.542 -0.4326 -2.0160  0.0241
 6840SOL     OW32152   3.298   1.191   8.802  0.0549  0.3908 -0.1634
 6840SOL    HW132153   3.211   1.201   8.841  0.6742  0.5342  1.1922
 6840SOL    HW232154   3.274   1.132   8.730 -0.9729 -0.3266  0.7752
 6841SOL     OW32155   0.705   2.640   1.808 -0.2497 -0.3360 -0.0984
 6841SOL    HW132156   0.793   2.647   1.772  1.0615 -1.6515  2.9111
 6841SOL    HW232157   0.662   2.633   1.722 -1.0142 -0.9014  0.3280
 6842SOL     OW32158   4.143   0.411  12.456 -0.3893 -0.7090 -0.1660
 6842SOL    HW132159   4.097   0.339  12.498 -0.9206 -0.3210 -0.0834
 6842SOL    HW232160   4.133   0.482  12.519 -0.4917 -1.5912  0.8202
 6843SOL     OW32161   0.986   0.789   2.171 -0.1563 -0.1034  0.2915
 6843SOL    HW132162   0.916   0.855   2.174  1.2302  1.4458 -1.8743
 6843SOL    HW232163   0.934   0.726   2.222 -2.0050  0.1935 -1.2198
 6844SOL     OW32164   0.556   0.815  15.499 -0.3687  0.4000 -0.3494
 6844SOL    HW132165   0.539   0.771  15.583 -1.5473 -0.1078 -0.8606
 6844SOL    HW232166   0.476   0.867  15.492 -1.3520 -0.7544  2.3428
 6845SOL     OW32167   2.705   4.214   6.133 -0.4401 -0.0631 -0.7906
 6845SOL    HW132168   2.713   4.132   6.181  2.1177  0.9271  0.4707
 6845SOL    HW232169   2.611   4.213   6.149 -0.3914 -0.7564 -0.5357
 6846SOL     OW32170   1.737   2.328  14.283  0.3333 -0.3986 -0.6080
 6846SOL    HW132171   1.664   2.343  14.223  0.3282 -2.3940 -1.1223
 6846SOL    HW232172   1.807   2.351  14.222  0.3392  1.0832 -0.0401
 6847SOL     OW32173   2.083   2.122   8.609 -0.1084 -0.2750  0.1717
 6847SOL    HW132174   2.054   2.049   8.664 -0.7189 -0.4512 -0.3840
 6847SOL    HW232175   2.084   2.078   8.524 -2.0423 -0.5488  0.2819
 6848SOL     OW32176   4.718   4.480   9.279 -0.1981 -0.6923  0.0691
 6848SOL    HW132177   0.024   4.436   9.205  0.4015  0.8172 -0.4636
 6848SOL    HW232178   0.052   4.523   9.326 -0.9899 -2.1068  2.5705
 6849SOL     OW32179   1.398   2.561   3.216  0.2388  0.0851  0.1040
 6849SOL    HW132180   1.450   2.592   3.142 -0.7587  1.0664 -0.1833
 6849SOL    HW232181   1.332   2.630   3.223 -0.1881 -0.2540 -0.6135
 6850SOL     OW32182   2.795   1.748  14.777 -0.3073 -0.1774 -0.0289
 6850SOL    HW132183   2.753   1.792  14.851 -2.1029 -1.8206 -0.0673
 6850SOL    HW232184   2.720   1.757  14.718 -0.9685  1.7448  1.1034
 6851SOL     OW32185   4.233   1.955  11.278  0.4256 -0.3556  0.4314
 6851SOL    HW132186   4.239   2.040  11.322  0.8799  0.0205 -0.3547
 6851SOL    HW232187   4.266   1.974  11.190 -0.4181  1.8309  0.5801
 6852SOL     OW32188   0.081   4.682   2.764  0.2902  0.0446  0.0478
 6852SOL    HW132189   0.177   4.686   2.762  0.2298  1.5896 -0.4129
 6852SOL    HW232190   0.067   4.664   2.857 -2.2545 -2.0014 -0.7362
 6853SOL     OW32191   1.031   4.330   2.283 -0.5976  0.3105  0.0051
 6853SOL    HW132192   0.975   4.271   2.232  0.3564 -0.3614 -0.2896
 6853SOL    HW232193   1.053   4.391   2.213  0.5125 -0.8855 -0.7068
 6854SOL     OW32194   4.608   1.993   5.939  1.4309  0.0698 -0.1368
 6854SOL    HW132195   4.625   1.899   5.927 -1.9078  0.0026 -4.1445
 6854SOL    HW232196   4.553   2.011   5.864  0.4813 -1.6696  0.1362
 6855SOL     OW32197   0.583   3.394   4.925 -0.1325 -0.7572 -0.0497
 6855SOL    HW132198   0.593   3.477   4.971  2.0735  0.2472 -2.3904
 6855SOL    HW232199   0.554   3.347   5.004 -0.0148 -1.3703 -0.3690
 6856SOL     OW32200   4.587   3.658   9.732  0.2048  0.6128  0.0464
 6856SOL    HW132201   4.675   3.651   9.696  0.4193 -0.0169  0.7020
 6856SOL    HW232202   4.534   3.583   9.706  1.3126 -0.0291 -0.3134
 6857SOL     OW32203   0.111   4.575   1.348  0.6786  0.5302 -0.2106
 6857SOL    HW132204   0.157   4.656   1.325 -1.3704  1.4427 -1.0812
 6857SOL    HW232205   0.035   4.608   1.396  1.1600  0.6812  0.4400
 6858SOL     OW32206   2.550   1.186   7.752 -0.3844 -0.4466 -0.4774
 6858SOL    HW132207   2.640   1.158   7.739 -1.1646 -2.5989 -1.2015
 6858SOL    HW232208   2.540   1.245   7.678  1.0157  0.2708 -0.0886
 6859SOL     OW32209   1.333   1.955   4.699  0.0212 -0.3621  0.3193
 6859SOL    HW132210   1.272   2.025   4.722 -2.9673 -3.3549  1.3744
 6859SOL    HW232211   1.325   1.972   4.605 -1.2059 -2.0133  0.1273
 6860SOL     OW32212   4.332   3.197  10.126 -0.2081  0.1768 -0.3716
 6860SOL    HW132213   4.327   3.199  10.222  1.4041  0.3572 -0.2847
 6860SOL    HW232214   4.426   3.183  10.112 -0.0382  0.1487  0.7592
 6861SOL     OW32215   3.241   3.431   3.194  0.3544 -0.7258  0.1581
 6861SOL    HW132216   3.322   3.465   3.231 -1.9126  3.7745  1.0038
 6861SOL    HW232217   3.237   3.483   3.114 -1.5662  1.6432  1.7722
 6862SOL     OW32218   0.048   1.498   5.394  0.1486  0.2382 -0.7323
 6862SOL    HW132219   0.069   1.591   5.402 -1.9634  0.4339  2.7270
 6862SOL    HW232220   4.689   1.494   5.391  0.0929  0.1901  1.2144
 6863SOL     OW32221   0.497   4.651   2.198  0.0892  0.5731  0.4361
 6863SOL    HW132222   0.479   4.622   2.108 -0.8926 -0.0201  0.8220
 6863SOL    HW232223   0.436   4.592   2.242 -0.9602  0.6898 -0.8395
 6864SOL     OW32224   2.918   4.255   4.992 -0.3322  0.2843  0.2609
 6864SOL    HW132225   2.885   4.196   5.060  0.1705 -0.5702 -0.2315
 6864SOL    HW232226   2.866   4.231   4.916  0.0056  0.2479  0.0400
 6865SOL     OW32227   2.845   2.377   6.753  0.1916 -0.3539 -0.4589
 6865SOL    HW132228   2.918   2.404   6.810  0.5089  2.4370 -2.2158
 6865SOL    HW232229   2.780   2.367   6.823  0.5517  1.6112  0.1659
 6866SOL     OW32230   3.341   4.343   3.225  0.2538 -0.2848  0.4330
 6866SOL    HW132231   3.275   4.284   3.188 -0.7894  1.3529 -0.3193
 6866SOL    HW232232   3.409   4.287   3.263 -0.9531 -1.5022  0.7966
 6867SOL     OW32233   3.886   3.691  12.392 -0.1580  0.3854 -0.0271
 6867SOL    HW132234   3.840   3.761  12.438  0.6658 -0.9638  2.8685
 6867SOL    HW232235   3.893   3.631  12.466  0.9561 -0.0114 -0.4575
 6868SOL     OW32236   1.123   3.279   4.365  0.9125  0.2983  0.1787
 6868SOL    HW132237   1.048   3.338   4.377  0.5725 -0.2190  0.6151
 6868SOL    HW232238   1.091   3.191   4.389  0.6694  0.0129 -1.1948
 6869SOL     OW32239   4.454   2.704   7.037 -0.0855 -0.4213  0.0957
 6869SOL    HW132240   4.369   2.737   7.067  0.2337 -0.2268  0.7835
 6869SOL    HW232241   4.443   2.610   7.051  0.4855 -0.3353  1.1366
 6870SOL     OW32242   0.064   2.271  14.299  0.1311  0.0125 -0.2241
 6870SOL    HW132243   0.013   2.237  14.372 -0.4816  0.1715 -0.5819
 6870SOL    HW232244   0.023   2.228  14.224 -1.4429 -1.6927  1.5937
 6871SOL     OW32245   2.096   2.624  11.946  0.3124 -0.1294 -0.0907
 6871SOL    HW132246   2.112   2.550  12.005 -0.7750  0.4466  0.9189
 6871SOL    HW232247   2.176   2.675  11.959  0.5267 -0.1464 -1.3509
 6872SOL     OW32248   4.365   0.398   8.742  0.4712  0.5191 -0.0312
 6872SOL    HW132249   4.382   0.323   8.798 -0.6382  0.8491  0.7533
 6872SOL    HW232250   4.433   0.458   8.773 -0.3315  0.0024  2.7283
 6873SOL     OW32251   1.797   1.572   3.815  0.0313  0.7777  0.1535
 6873SOL    HW132252   1.724   1.566   3.752  1.2883 -0.3895 -1.2089
 6873SOL    HW232253   1.771   1.506   3.880 -0.0146  0.7662  0.1239
 6874SOL     OW32254   1.038   1.753   8.465  0.6133  0.3504 -0.3000
 6874SOL    HW132255   0.956   1.712   8.437  0.0780  0.9978  0.3367
 6874SOL    HW232256   1.010   1.822   8.525 -1.0227 -1.3080  0.8250
 6875SOL     OW32257   1.125   1.063   1.712  0.3418 -0.7008 -0.1465
 6875SOL    HW132258   1.047   1.023   1.751 -0.1167  0.1648 -0.1725
 6875SOL    HW232259   1.088   1.151   1.704 -0.5522 -0.9789  0.9110
 6876SOL     OW32260   0.685   4.279   3.250  0.0244  0.5926  0.6736
 6876SOL    HW132261   0.666   4.190   3.280 -0.7515  0.4765 -0.1598
 6876SOL    HW232262   0.664   4.317   3.335 -1.4260  2.4269 -0.5032
 6877SOL     OW32263   0.090   3.704   2.541 -0.4796  0.1677  0.1845
 6877SOL    HW132264   0.003   3.673   2.564  0.2086 -0.8839  1.3499
 6877SOL    HW232265   0.120   3.767   2.607  1.8565  0.3634 -1.0684
 6878SOL     OW32266   3.030   0.357   3.944 -0.1101 -0.0704  0.2851
 6878SOL    HW132267   3.004   0.290   4.007  1.5614 -0.1626  0.8935
 6878SOL    HW232268   2.952   0.412   3.956  0.5240  0.5581  1.6049
 6879SOL     OW32269   0.561   4.101  17.242 -0.3140 -0.2574  0.2996
 6879SOL    HW132270   0.477   4.108  17.196  0.1587 -1.2122 -0.7165
 6879SOL    HW232271   0.603   4.174  17.196 -0.8752  0.6003  1.1519
 6880SOL     OW32272   3.225   1.804   0.700  0.1021 -0.2935 -0.3059
 6880SOL    HW132273   3.164   1.845   0.761  0.9610  1.7003 -0.7665
 6880SOL    HW232274   3.252   1.894   0.677 -0.6915 -0.5313 -2.1561
 6881SOL     OW32275   4.432   2.900   9.836 -0.2304  0.0009 -0.7223
 6881SOL    HW132276   4.413   2.978   9.784 -1.5521 -0.6585 -1.2375
 6881SOL    HW232277   4.361   2.921   9.896  0.3909 -1.5831  0.5446
 6882SOL     OW32278   1.053   1.579   0.692 -0.4828 -0.1035  0.4616
 6882SOL    HW132279   1.067   1.485   0.674  0.7875  0.1675  0.0403
 6882SOL    HW232280   1.098   1.598   0.774 -0.5506 -0.3054  0.5448
 6883SOL     OW32281   3.062   3.378   2.413 -0.0408  0.4432 -0.4027
 6883SOL    HW132282   3.104   3.442   2.471  1.1944 -0.8755  0.1658
 6883SOL    HW232283   3.028   3.308   2.469 -1.3575 -0.0290 -1.7957
 6884SOL     OW32284   1.386   2.735  17.156  1.0352 -0.2328 -0.0205
 6884SOL    HW132285   1.317   2.706  17.216  1.7497 -0.5470  0.6643
 6884SOL    HW232286   1.455   2.757  17.219  0.6661  1.0446 -0.0650
 6885SOL     OW32287   4.289   3.481   4.162 -0.1461  0.7000 -0.3517
 6885SOL    HW132288   4.253   3.395   4.138 -0.5560  0.5039  0.9812
 6885SOL    HW232289   4.370   3.479   4.111 -1.4037 -1.5168 -2.3050
 6886SOL     OW32290   3.882   2.113  10.389 -0.1032 -0.1497  0.1458
 6886SOL    HW132291   3.892   2.124  10.294  0.0030  0.6051  0.2473
 6886SOL    HW232292   3.852   2.023  10.405  2.3918 -1.2655 -1.4704
 6887SOL     OW32293   4.519   1.559  13.842  0.3688 -0.3608 -0.2194
 6887SOL    HW132294   4.524   1.623  13.913 -3.6558 -0.4395  0.1612
 6887SOL    HW232295   4.575   1.490  13.877  0.9620  0.1341 -0.1910
 6888SOL     OW32296   0.760   3.039  15.455 -0.2864 -0.6204  0.0685
 6888SOL    HW132297   0.794   3.067  15.540  1.7464 -0.2283 -0.8471
 6888SOL    HW232298   0.789   2.948  15.453 -1.5049 -0.9833 -0.4169
 6889SOL     OW32299   4.147   2.629  17.644 -0.2331  0.1898 -0.3879
 6889SOL    HW132300   4.187   2.712  17.668  0.7028 -0.0853 -1.0195
 6889SOL    HW232301   4.206   2.605  17.573 -1.1991 -1.7932 -0.5214
 6890SOL     OW32302   1.052   0.146   4.052  0.0033 -0.1560  0.5457
 6890SOL    HW132303   1.000   0.222   4.075  1.3885  1.1325 -0.5533
 6890SOL    HW232304   1.057   0.080   4.122 -1.1644 -1.1075 -0.2724
 6891SOL     OW32305   0.552   2.789   6.329  0.5065  0.7628 -0.2648
 6891SOL    HW132306   0.625   2.741   6.290  1.0690 -0.6131  2.5329
 6891SOL    HW232307   0.474   2.741   6.300  0.6290 -0.1638  0.9689
 6892SOL     OW32308   1.068   0.599   2.514  0.1282 -0.4144  0.4969
 6892SOL    HW132309   1.137   0.665   2.527  0.7186 -0.9205 -0.0436
 6892SOL    HW232310   0.993   0.656   2.530  0.1318 -0.4908  0.7843
 6893SOL     OW32311   0.156   2.904   0.775 -0.0505  0.0964  0.0502
 6893SOL    HW132312   0.126   2.946   0.856  0.9559 -1.7021  1.3544
 6893SOL    HW232313   0.209   2.977   0.742  1.4424 -1.9632 -2.1340
 6894SOL     OW32314   3.931   1.062   0.638 -0.1005 -0.2862 -0.1845
 6894SOL    HW132315   3.879   1.007   0.696 -0.2171  0.3589  0.3215
 6894SOL    HW232316   3.886   1.144   0.657  0.1067 -0.0015 -0.9033
 6895SOL     OW32317   0.314   2.402  17.125 -0.1326  1.0782 -0.0356
 6895SOL    HW132318   0.246   2.343  17.155  1.6482 -1.0962 -0.2570
 6895SOL    HW232319   0.283   2.424  17.037  0.9815  1.1782 -0.4053
 6896SOL     OW32320   2.561   3.926  13.933 -0.7040 -0.6623 -0.0333
 6896SOL    HW132321   2.581   4.006  13.982 -1.5051 -0.9321  0.7396
 6896SOL    HW232322   2.642   3.914  13.883  1.1211  0.6673  2.6169
 6897SOL     OW32323   1.200   2.413  14.721 -0.7277 -0.5453  0.5832
 6897SOL    HW132324   1.119   2.365  14.704 -0.6927 -0.8630  1.3322
 6897SOL    HW232325   1.176   2.494  14.675  1.2544 -0.6002 -0.5701
 6898SOL     OW32326   3.316   0.294  16.759  0.2261 -0.0949 -0.5310
 6898SOL    HW132327   3.403   0.297  16.798 -0.3560  0.1206  0.7415
 6898SOL    HW232328   3.263   0.304  16.838 -0.7173 -2.0984 -0.9209
 6899SOL     OW32329   0.657   1.330   0.733  0.1819 -0.2666  0.0897
 6899SOL    HW132330   0.691   1.370   0.652  1.7366 -0.0270  0.8671
 6899SOL    HW232331   0.737   1.313   0.783  1.8216  0.0528 -2.3885
 6900SOL     OW32332   2.395   2.562   4.037 -0.0295  0.2383  0.1634
 6900SOL    HW132333   2.429   2.499   3.973 -0.8464  0.0446 -0.0781
 6900SOL    HW232334   2.378   2.505   4.112  0.4016 -1.0041 -0.6609
 6901SOL     OW32335   2.559   2.290  11.981  0.1854 -0.6496  0.4681
 6901SOL    HW132336   2.556   2.274  12.075 -0.2550  3.0008  1.0840
 6901SOL    HW232337   2.504   2.223  11.941  1.4912 -1.7684  0.5554
 6902SOL     OW32338   3.656   2.537   4.854  0.0373  0.3009 -0.5344
 6902SOL    HW132339   3.748   2.560   4.841  0.4569 -0.2568  1.3560
 6902SOL    HW232340   3.667   2.443   4.867  1.6470  0.5485 -0.1398
 6903SOL     OW32341   3.652   0.280  17.087 -0.8269 -0.1494  0.2678
 6903SOL    HW132342   3.586   0.262  17.155  0.5832 -0.7613  1.4744
 6903SOL    HW232343   3.588   0.292  17.017 -1.2384  2.2519  1.0551
 6904SOL     OW32344   4.464   0.332   9.170  0.0422 -0.3749  0.0821
 6904SOL    HW132345   4.370   0.320   9.164  0.1580 -1.1834 -0.1744
 6904SOL    HW232346   4.478   0.401   9.105 -2.1859  0.2425  0.2822
 6905SOL     OW32347   1.423   1.819   3.421 -0.0177  0.0500  0.5454
 6905SOL    HW132348   1.403   1.904   3.383 -0.9963 -0.3601  0.1369
 6905SOL    HW232349   1.487   1.781   3.360  1.1882  1.1411  1.1418
 6906SOL     OW32350   3.066   3.303   5.360  0.0644  0.2525  0.0128
 6906SOL    HW132351   3.114   3.263   5.287 -0.2398 -0.9155  0.4507
 6906SOL    HW232352   3.099   3.392   5.345 -0.9033  0.8144  1.3022
 6907SOL     OW32353   2.006   1.065   9.528 -0.2967  0.0940  0.1265
 6907SOL    HW132354   1.952   1.034   9.600  0.5215  0.6958  0.9945
 6907SOL    HW232355   1.967   1.150   9.507 -2.4771 -0.3789  2.2880
 6908SOL     OW32356   4.202   0.381  13.754 -0.1445  0.3870  0.4149
 6908SOL    HW132357   4.205   0.474  13.731 -0.9302  0.2911 -0.0823
 6908SOL    HW232358   4.269   0.382  13.822 -0.2330 -1.6570  0.5269
 6909SOL     OW32359   1.530   1.870   5.614  0.6226  0.6185 -0.0062
 6909SOL    HW132360   1.498   1.782   5.596  0.1935  0.3026  2.3843
 6909SOL    HW232361   1.620   1.858   5.584 -0.0964 -0.9968 -1.4977
 6910SOL     OW32362   2.951   4.548   8.321 -0.0113 -0.4477 -0.2041
 6910SOL    HW132363   2.885   4.498   8.369 -1.6649  3.9763  2.1311
 6910SOL    HW232364   3.030   4.523   8.368 -0.2083 -0.6844  0.0029
 6911SOL     OW32365   0.266   4.012   6.456 -0.0435 -0.2397  0.2659
 6911SOL    HW132366   0.283   4.011   6.362  1.4727  2.2646  0.5272
 6911SOL    HW232367   0.247   3.919   6.473 -1.3012  0.1997  1.2990
 6912SOL     OW32368   3.124   4.428   2.914 -0.6967  0.2885 -0.0993
 6912SOL    HW132369   3.037   4.430   2.954  0.4877  0.9169  2.4016
 6912SOL    HW232370   3.145   4.514   2.878 -2.7554  1.5260  1.6792
 6913SOL     OW32371   0.222   2.356  11.029  0.5310 -0.2531 -0.2923
 6913SOL    HW132372   0.135   2.379  11.063  0.5035  1.2971 -1.4062
 6913SOL    HW232373   0.260   2.321  11.109  0.8982  1.5323  0.3008
 6914SOL     OW32374   3.751   4.658   8.064 -0.1208  0.1163  0.3766
 6914SOL    HW132375   3.772   4.627   8.152 -0.5765 -0.6304  0.2250
 6914SOL    HW232376   3.670   4.707   8.079 -0.8361 -0.9338 -0.0258
 6915SOL     OW32377   4.020   2.281   8.229  0.8612  0.3593 -0.3807
 6915SOL    HW132378   3.966   2.355   8.201 -0.8389 -0.9140 -0.4429
 6915SOL    HW232379   4.027   2.298   8.323  1.3317 -0.8955 -0.1958
 6916SOL     OW32380   0.577   0.548   9.215  0.0719  0.0700 -0.4493
 6916SOL    HW132381   0.512   0.539   9.145 -1.7908  0.2837  1.2340
 6916SOL    HW232382   0.636   0.607   9.169  0.5864  1.3062  1.7848
 6917SOL     OW32383   2.203   1.678  13.971  0.6306  0.1210 -0.0024
 6917SOL    HW132384   2.131   1.685  13.908 -0.3947 -1.0950  1.0555
 6917SOL    HW232385   2.274   1.707  13.913 -1.8599  3.3344 -1.4262
 6918SOL     OW32386   1.218   1.480  11.306 -0.0120 -0.3422 -0.4878
 6918SOL    HW132387   1.235   1.513  11.395 -0.9055 -0.5932 -0.2188
 6918SOL    HW232388   1.308   1.454  11.288  0.5627  1.0037  0.3642
 6919SOL     OW32389   1.771   3.016   7.162 -0.2034  0.4821  0.3778
 6919SOL    HW132390   1.708   3.088   7.160 -0.5959  0.1666  1.2387
 6919SOL    HW232391   1.710   2.963   7.214  1.1510 -0.2242  1.2400
 6920SOL     OW32392   2.156   0.212  16.489 -0.3273  0.1922  0.3061
 6920SOL    HW132393   2.068   0.236  16.517 -0.7071 -1.7525  0.7498
 6920SOL    HW232394   2.156   0.220  16.394  2.2356 -1.9800  0.1122
 6921SOL     OW32395   3.976   0.799   4.982 -0.0276 -0.0363 -0.3922
 6921SOL    HW132396   3.989   0.764   4.894 -0.5690  0.3316 -0.6210
 6921SOL    HW232397   3.949   0.718   5.024  0.3784  0.3674  0.6637
 6922SOL     OW32398   3.705   1.872  17.665  0.3727  0.0330  0.1247
 6922SOL    HW132399   3.794   1.899  17.687  0.1617  2.2308 -1.6984
 6922SOL    HW232400   3.717   1.792  17.615 -0.7771  0.1802 -0.3906
 6923SOL     OW32401   1.811   4.199   5.444 -0.8370  0.4361 -0.1016
 6923SOL    HW132402   1.808   4.292   5.424 -0.0494 -0.4238 -4.2225
 6923SOL    HW232403   1.772   4.205   5.531  0.2282 -0.9669  0.4847
 6924SOL     OW32404   0.685   0.503   7.546  0.2586  0.2798 -0.6758
 6924SOL    HW132405   0.779   0.505   7.533  0.4814 -0.0522  0.8416
 6924SOL    HW232406   0.646   0.495   7.459  0.0776 -1.3829 -0.4490
 6925SOL     OW32407   0.999   2.361   2.026 -0.1997 -0.1600 -0.2908
 6925SOL    HW132408   0.990   2.306   2.104 -0.8644 -0.2023 -0.3921
 6925SOL    HW232409   1.055   2.305   1.973 -0.4767  0.1219 -0.8852
 6926SOL     OW32410   1.145   1.383   7.002 -0.4602  0.1650  0.5371
 6926SOL    HW132411   1.141   1.312   6.938  1.9404  0.8904 -0.4285
 6926SOL    HW232412   1.083   1.448   6.970 -0.8644 -1.2638 -1.5835
 6927SOL     OW32413   3.733   4.236  14.266 -0.4194  0.3418 -0.3306
 6927SOL    HW132414   3.792   4.262  14.336 -2.1354  0.5234  1.0620
 6927SOL    HW232415   3.719   4.325  14.233  2.7557  0.6225 -0.8577
 6928SOL     OW32416   3.580   1.526   4.739  0.1760  0.6346  0.4083
 6928SOL    HW132417   3.535   1.462   4.684  3.4507 -0.3272 -1.1561
 6928SOL    HW232418   3.520   1.531   4.814  0.6885 -1.0484  0.9370
 6929SOL     OW32419   4.410   4.118   2.988  0.0819 -0.3750 -0.4266
 6929SOL    HW132420   4.500   4.091   2.973  0.8625  1.5345  0.8630
 6929SOL    HW232421   4.413   4.183   3.058 -1.2730  1.7934 -2.3666
 6930SOL     OW32422   3.443   0.815   3.358  0.3926  0.8991 -0.0794
 6930SOL    HW132423   3.536   0.803   3.377  0.0297 -2.4045 -0.3850
 6930SOL    HW232424   3.445   0.910   3.351 -0.5185  1.1275  2.7046
 6931SOL     OW32425   4.023   1.634   4.981 -0.4629  0.1181 -0.4573
 6931SOL    HW132426   3.986   1.715   5.015 -0.1063 -1.0705  2.7312
 6931SOL    HW232427   4.113   1.650   4.952 -0.0285 -1.1858  0.1757
 6932SOL     OW32428   2.650   2.511   9.462 -0.7570  0.5124 -0.8917
 6932SOL    HW132429   2.586   2.562   9.413 -3.9812 -2.0685  0.6371
 6932SOL    HW232430   2.610   2.424   9.453 -1.8712  1.0662 -1.3528
 6933SOL     OW32431   0.290   3.205  15.372 -0.0808 -0.1285 -0.0272
 6933SOL    HW132432   0.369   3.190  15.423 -0.7998 -2.4815  0.3672
 6933SOL    HW232433   0.317   3.225  15.283 -0.1814 -0.1536 -0.0635
 6934SOL     OW32434   1.689   2.211  13.942 -0.2590  0.0285  0.5292
 6934SOL    HW132435   1.628   2.282  13.920 -0.8168 -0.9900 -1.1858
 6934SOL    HW232436   1.627   2.138  13.952 -0.6580  0.5843  2.2362
 6935SOL     OW32437   1.139   2.287  16.568  0.8930  0.6675  0.0296
 6935SOL    HW132438   1.177   2.297  16.480 -0.0511 -0.3814 -0.4925
 6935SOL    HW232439   1.048   2.304  16.547  1.2567  1.9410 -0.5523
 6936SOL     OW32440   0.761   2.464   3.620  0.0538 -0.5562  0.2403
 6936SOL    HW132441   0.670   2.493   3.620 -0.4990 -2.2630  1.5362
 6936SOL    HW232442   0.803   2.519   3.554  1.9518 -1.6465  0.5319
 6937SOL     OW32443   3.155   3.793  14.086 -0.4025  0.6077 -0.1289
 6937SOL    HW132444   3.085   3.855  14.068 -1.2854 -0.3181  0.1583
 6937SOL    HW232445   3.100   3.728  14.129 -0.9409  1.1496  0.0008
 6938SOL     OW32446   1.843   0.975   4.733 -0.3816 -0.1194 -0.6393
 6938SOL    HW132447   1.892   0.916   4.676 -0.5452 -0.6141 -0.2635
 6938SOL    HW232448   1.812   0.917   4.803  2.0472  1.9590  2.1943
 6939SOL     OW32449   1.835   1.251   3.149  0.0525  0.3595  0.2589
 6939SOL    HW132450   1.847   1.240   3.055  2.1495  0.2229  0.5400
 6939SOL    HW232451   1.883   1.331   3.168  1.5575 -0.7544  1.1386
 6940SOL     OW32452   3.518   0.436   5.359  0.2823  0.2719  0.3257
 6940SOL    HW132453   3.452   0.451   5.426 -0.5360 -1.7185 -0.0536
 6940SOL    HW232454   3.471   0.461   5.280  0.5934 -0.7028 -0.1664
 6941SOL     OW32455   0.554   1.458   4.909 -0.5300  0.5604  0.2298
 6941SOL    HW132456   0.562   1.474   5.003 -1.4099 -1.1155  0.5969
 6941SOL    HW232457   0.607   1.378   4.903 -1.9887 -0.2014 -2.6698
 6942SOL     OW32458   0.504   1.920   3.533  0.0998  0.4673 -0.3230
 6942SOL    HW132459   0.476   1.973   3.607 -0.3052 -1.4360  0.8729
 6942SOL    HW232460   0.582   1.971   3.508 -1.1586  0.8467 -3.4896
 6943SOL     OW32461   0.808   3.076  15.030 -0.3643  0.5065 -0.6478
 6943SOL    HW132462   0.811   3.126  14.949 -1.1895  2.3228  0.4376
 6943SOL    HW232463   0.775   2.992  14.997  1.1739 -1.1281  1.9663
 6944SOL     OW32464   1.835   4.116   7.385 -0.1271  0.7481 -0.1385
 6944SOL    HW132465   1.929   4.132   7.376  0.1042 -2.0306 -2.4215
 6944SOL    HW232466   1.803   4.194   7.339 -1.5845  0.2780  0.0881
 6945SOL     OW32467   2.337   1.549  14.163  0.3701 -0.1936  0.2621
 6945SOL    HW132468   2.300   1.600  14.091  1.1356  1.0261  0.7285
 6945SOL    HW232469   2.321   1.608  14.237 -1.8627  0.1334 -0.4824
 6946SOL     OW32470   2.311   2.272  12.844 -0.2004  0.0669 -0.0505
 6946SOL    HW132471   2.230   2.242  12.803 -1.5188  0.2045  2.4279
 6946SOL    HW232472   2.299   2.245  12.935 -2.4766 -1.7026 -0.8671
 6947SOL     OW32473   0.600   2.893  11.950  0.1722 -0.0801  0.2792
 6947SOL    HW132474   0.512   2.890  11.913  0.5339  0.0851 -0.5819
 6947SOL    HW232475   0.583   2.844  12.031  0.9354 -1.3337 -0.3215
 6948SOL     OW32476   0.084   1.871   1.435  0.3919  0.0346  0.3136
 6948SOL    HW132477   0.115   1.857   1.345 -0.3553  0.4310 -0.0051
 6948SOL    HW232478   0.091   1.786   1.478 -1.2066  0.1393  0.7631
 6949SOL     OW32479   3.876   2.429   7.365  0.0107 -0.0547 -0.2643
 6949SOL    HW132480   3.826   2.497   7.410  0.1113 -0.7872  0.9441
 6949SOL    HW232481   3.960   2.447   7.406  0.0478  0.6872 -0.6761
 6950SOL     OW32482   2.921   4.594   4.685 -0.5746 -0.0340  0.7707
 6950SOL    HW132483   2.840   4.606   4.734 -0.3047  1.6334  0.8375
 6950SOL    HW232484   2.975   4.646   4.745 -2.1646  1.5096  0.8528
 6951SOL     OW32485   0.625   0.573   6.612 -0.0165 -0.0230 -0.2052
 6951SOL    HW132486   0.590   0.543   6.529  0.9108  0.8945 -0.9284
 6951SOL    HW232487   0.703   0.621   6.585 -0.1773  0.1036 -0.4346
 6952SOL     OW32488   3.287   1.651  15.440 -0.0380  1.0370 -0.7788
 6952SOL    HW132489   3.310   1.723  15.380  1.1427  0.2264 -1.2886
 6952SOL    HW232490   3.358   1.592  15.417  1.0069  1.3854  1.5871
 6953SOL     OW32491   1.565   4.339   1.510 -0.0572 -0.1671 -0.3106
 6953SOL    HW132492   1.560   4.434   1.499  1.3493 -0.0119  0.2486
 6953SOL    HW232493   1.504   4.332   1.583  1.7021 -1.7862  1.0119
 6954SOL     OW32494   0.376   3.392   1.810  0.0151  0.0780 -0.1126
 6954SOL    HW132495   0.310   3.447   1.851 -1.3896 -1.9181  0.2623
 6954SOL    HW232496   0.448   3.438   1.854 -0.3669  0.8000 -0.2305
 6955SOL     OW32497   3.910   2.399   9.448 -0.3998  0.3713 -0.4128
 6955SOL    HW132498   3.912   2.309   9.481  2.9230  0.1849 -1.1742
 6955SOL    HW232499   3.962   2.440   9.517 -1.7589  2.4197 -0.6169
 6956SOL     OW32500   1.236   2.582   9.195  0.1910  0.3885  0.4150
 6956SOL    HW132501   1.224   2.675   9.176  0.2589 -0.0863 -2.0351
 6956SOL    HW232502   1.168   2.568   9.261  0.5773  4.0165  1.5660
 6957SOL     OW32503   4.649   3.292   4.694 -0.1683  0.4471  0.0001
 6957SOL    HW132504   0.003   3.311   4.718 -0.0952  1.2136 -0.8518
 6957SOL    HW232505   4.634   3.223   4.759  0.8235  0.8155  0.6137
 6958SOL     OW32506   4.518   3.505   4.009 -0.1055  0.3267  0.0934
 6958SOL    HW132507   4.602   3.473   3.976  0.3257  1.4128  0.1314
 6958SOL    HW232508   4.531   3.593   4.046  0.4528 -0.8548  2.7182
 6959SOL     OW32509   3.807   2.453   4.341  0.0657 -0.5205 -0.7256
 6959SOL    HW132510   3.892   2.457   4.385 -0.7032 -1.5888  0.8183
 6959SOL    HW232511   3.821   2.369   4.298  2.1650 -0.5220 -0.0546
 6960SOL     OW32512   1.403   4.687   3.418 -0.1628 -0.0431  0.5618
 6960SOL    HW132513   1.420   4.612   3.475  2.7386  0.8674  0.8898
 6960SOL    HW232514   1.388   0.022   3.479 -3.7340  0.2512 -0.7047
 6961SOL     OW32515   1.588   3.230   7.085 -0.1590 -0.3804  0.2228
 6961SOL    HW132516   1.661   3.279   7.049 -0.3113  0.9070  1.6696
 6961SOL    HW232517   1.566   3.171   7.013  0.7431  1.0185 -1.2108
 6962SOL     OW32518   2.987   1.983   5.078  0.0265  0.5316  0.2830
 6962SOL    HW132519   2.986   2.076   5.097 -1.9232  0.5662  0.0197
 6962SOL    HW232520   2.947   1.984   4.991  2.8229 -1.2676 -1.0256
 6963SOL     OW32521   3.015   2.121   5.925 -0.0105  0.5828 -0.1134
 6963SOL    HW132522   2.919   2.118   5.928 -0.0161 -0.8269 -1.7366
 6963SOL    HW232523   3.027   2.113   5.830  0.3273 -0.8890  0.0555
 6964SOL     OW32524   2.339   1.798   4.464 -0.5405 -0.5439  0.1843
 6964SOL    HW132525   2.362   1.708   4.488 -3.3556 -0.6495  2.5842
 6964SOL    HW232526   2.321   1.792   4.370  0.5736 -0.9983 -0.0042
 6965SOL     OW32527   2.333   3.180  12.857 -0.1379 -0.6024 -0.3616
 6965SOL    HW132528   2.265   3.113  12.854 -1.3536  0.5931  0.5781
 6965SOL    HW232529   2.349   3.188  12.763 -2.2431  1.0135 -0.5667
 6966SOL     OW32530   1.796   0.980   3.251  0.4588 -0.1912 -0.2800
 6966SOL    HW132531   1.780   1.068   3.216 -1.4375 -0.8537 -1.0829
 6966SOL    HW232532   1.725   0.963   3.313  1.4708  1.0496  1.2140
 6967SOL     OW32533   4.226   3.164   6.332  0.3934  0.6322 -0.7190
 6967SOL    HW132534   4.262   3.199   6.414 -0.9042 -1.1948  0.6246
 6967SOL    HW232535   4.286   3.202   6.268  2.7301 -0.3647  0.8787
 6968SOL     OW32536   3.849   1.533  14.709  0.0792 -0.3462  0.0826
 6968SOL    HW132537   3.827   1.460  14.768 -1.7011  0.5246  0.5042
 6968SOL    HW232538   3.920   1.494  14.658  0.5946 -0.3564  0.8111
 6969SOL     OW32539   1.967   0.426   1.005 -0.3033 -0.0456 -0.2646
 6969SOL    HW132540   1.966   0.338   1.043  3.5561  0.0574  0.1224
 6969SOL    HW232541   2.035   0.415   0.939 -1.1018 -1.5811 -0.8361
 6970SOL     OW32542   2.359   1.187  11.836  0.4500 -0.2352 -0.6965
 6970SOL    HW132543   2.382   1.158  11.924  1.6851  0.0424 -0.9214
 6970SOL    HW232544   2.281   1.140  11.806  0.8512 -1.0217 -0.5207
 6971SOL     OW32545   3.870   1.687   5.421  0.6368  0.2931  0.6160
 6971SOL    HW132546   3.912   1.771   5.405  0.7109 -0.1905 -1.7530
 6971SOL    HW232547   3.926   1.653   5.490  0.6010  0.5039  0.7479
 6972SOL     OW32548   3.536   1.706   9.228 -0.1736 -0.0931 -0.4224
 6972SOL    HW132549   3.470   1.647   9.266 -0.9348  1.0486  0.0601
 6972SOL    HW232550   3.512   1.780   9.284 -1.8740 -0.6678 -0.3905
 6973SOL     OW32551   1.066   1.522   4.711 -1.0781 -0.2064  0.1349
 6973SOL    HW132552   1.112   1.497   4.791  1.5669 -3.1981 -2.3263
 6973SOL    HW232553   1.126   1.491   4.644 -3.1074  0.2958 -1.9121
 6974SOL     OW32554   3.911   0.844  10.131  0.4297  0.5229 -0.0509
 6974SOL    HW132555   3.948   0.851  10.219  0.8836 -0.2519 -0.1804
 6974SOL    HW232556   3.910   0.749  10.117 -0.1002  0.9136 -2.7628
 6975SOL     OW32557   1.608   3.535   4.505  0.2935 -0.1326  0.4833
 6975SOL    HW132558   1.534   3.486   4.470 -0.6626  2.4345 -1.0125
 6975SOL    HW232559   1.628   3.596   4.434 -1.9296  0.5219  0.4270
 6976SOL     OW32560   3.672   1.345   5.856  0.4622  0.8170  0.1016
 6976SOL    HW132561   3.628   1.351   5.941  1.9220 -0.1224  0.9246
 6976SOL    HW232562   3.758   1.372   5.887  0.6817  0.3021 -0.0598
 6977SOL     OW32563   2.293   1.651   6.294  0.2054  0.2870  0.2866
 6977SOL    HW132564   2.293   1.601   6.212  1.5795  3.3641 -1.5577
 6977SOL    HW232565   2.199   1.666   6.304 -0.0766  0.7024 -3.1565
 6978SOL     OW32566   2.356   0.232   4.266 -0.0373 -0.1871  0.3696
 6978SOL    HW132567   2.381   0.154   4.316 -2.2985 -1.5532 -0.6163
 6978SOL    HW232568   2.436   0.284   4.261 -0.1970  0.0303  0.0344
 6979SOL     OW32569   2.955   1.777   5.790 -0.1089  0.1909  0.0221
 6979SOL    HW132570   2.960   1.682   5.802  1.3512  0.1177 -1.1077
 6979SOL    HW232571   2.946   1.776   5.694  0.5316 -1.3563 -0.0176
 6980SOL     OW32572   4.042   2.474  17.398 -0.0758  0.2075 -0.1531
 6980SOL    HW132573   4.110   2.419  17.437  0.3459 -0.3926 -1.7172
 6980SOL    HW232574   3.968   2.418  17.373 -0.6505  1.1231 -0.5011
 6981SOL     OW32575   0.619   4.317  15.206 -0.3042 -0.3766  0.4893
 6981SOL    HW132576   0.654   4.388  15.152 -1.2790 -0.0925  0.2329
 6981SOL    HW232577   0.566   4.365  15.271 -0.9073 -1.1327  0.5503
 6982SOL     OW32578   2.418   4.294  10.881  0.0542 -0.1326 -0.4738
 6982SOL    HW132579   2.353   4.306  10.812  0.8006  2.7791 -0.6537
 6982SOL    HW232580   2.436   4.203  10.856 -0.1518 -0.8386  1.9664
 6983SOL     OW32581   1.456   4.577   2.525 -0.2436  0.7117 -0.4422
 6983SOL    HW132582   1.538   4.617   2.497  0.5189 -0.8763 -0.5216
 6983SOL    HW232583   1.407   4.577   2.442 -1.5524  0.5921  0.3212
 6984SOL     OW32584   1.806   3.943   3.770 -0.2810  0.2099  1.2301
 6984SOL    HW132585   1.801   3.919   3.678 -0.1157  0.8309  1.0627
 6984SOL    HW232586   1.714   3.942   3.795 -0.4494 -0.9042  0.5870
 6985SOL     OW32587   3.617   0.156  12.230 -0.3185  0.0846  0.2355
 6985SOL    HW132588   3.616   0.077  12.284 -0.6428  1.4340  2.2096
 6985SOL    HW232589   3.704   0.191  12.252  0.1162 -0.2704 -0.9015
 6986SOL     OW32590   1.622   1.779   6.893 -0.5002  0.1721  0.4050
 6986SOL    HW132591   1.696   1.781   6.953  0.0706  2.0019 -0.3588
 6986SOL    HW232592   1.632   1.858   6.840  1.0980  0.3759  1.0227
 6987SOL     OW32593   1.148   0.799   9.147 -0.3697 -0.5322 -0.3724
 6987SOL    HW132594   1.235   0.764   9.129 -0.2031 -0.0178 -0.5606
 6987SOL    HW232595   1.124   0.751   9.226 -1.1106  1.0353  0.3582
 6988SOL     OW32596   4.195   2.057   4.288 -0.2968  0.4246  0.5090
 6988SOL    HW132597   4.267   1.998   4.265 -1.2308 -0.8448  0.8426
 6988SOL    HW232598   4.215   2.127   4.226  3.0743  0.3068  1.4707
 6989SOL     OW32599   3.801   1.206   5.393 -0.2930 -0.2501 -0.2203
 6989SOL    HW132600   3.853   1.241   5.320 -0.7244  1.0995  0.1127
 6989SOL    HW232601   3.809   1.281   5.452  1.7055 -0.2738 -0.4466
 6990SOL     OW32602   1.031   2.582   6.171 -1.0801 -0.1178  0.3900
 6990SOL    HW132603   0.977   2.510   6.137  1.5523 -1.5197 -0.8130
 6990SOL    HW232604   1.040   2.644   6.099  0.3696 -0.6342  0.1321
 6991SOL     OW32605   1.671   1.564   5.051 -0.3189 -0.5050 -0.3112
 6991SOL    HW132606   1.742   1.560   4.987 -2.1175 -0.0993 -2.3583
 6991SOL    HW232607   1.729   1.567   5.126  2.0287 -0.4655 -2.1387
 6992SOL     OW32608   1.187   1.771   7.601  0.3041  0.1833 -0.0242
 6992SOL    HW132609   1.185   1.755   7.507 -1.4255 -5.0024  0.9090
 6992SOL    HW232610   1.179   1.684   7.641  2.4717  0.6084  1.3276
 6993SOL     OW32611   1.407   2.690   2.625  0.2046 -0.3172  0.3714
 6993SOL    HW132612   1.345   2.622   2.653 -1.7225  1.0976 -0.4552
 6993SOL    HW232613   1.444   2.731   2.703 -3.4421  1.8519  0.9427
 6994SOL     OW32614   4.647   0.819   2.252 -0.2065  0.8363  0.0020
 6994SOL    HW132615   4.587   0.775   2.192 -0.7768 -0.1881  1.3190
 6994SOL    HW232616   4.714   0.857   2.196  0.7241  0.2885  0.7481
 6995SOL     OW32617   3.768   2.885   4.964 -1.1379  0.3261  0.1499
 6995SOL    HW132618   3.791   2.892   5.056  0.0201 -1.1547 -0.0233
 6995SOL    HW232619   3.720   2.968   4.960  1.3829  1.8636  1.6342
 6996SOL     OW32620   3.986   4.714   1.910 -0.0527  0.8225 -0.3427
 6996SOL    HW132621   3.914   0.019   1.957 -0.2806  0.3540 -0.2839
 6996SOL    HW232622   4.052   0.044   1.931  0.5363 -0.2470  1.2586
 6997SOL     OW32623   4.121   3.106   6.905 -0.8351  0.4575 -0.5751
 6997SOL    HW132624   4.168   3.100   6.989 -2.1711  0.7630  0.1910
 6997SOL    HW232625   4.055   3.041   6.927  0.0934 -0.1756  0.3283
 6998SOL     OW32626   2.488   2.213   3.063 -0.3306  0.2993  0.0099
 6998SOL    HW132627   2.452   2.140   3.113  0.4810 -0.9397 -1.1755
 6998SOL    HW232628   2.444   2.197   2.979 -0.6305 -0.0435  0.2294
 6999SOL     OW32629   4.677   3.696  16.465 -0.4770 -0.4532  0.0254
 6999SOL    HW132630   4.733   3.708  16.389  0.9894 -1.7303  0.8990
 6999SOL    HW232631   4.651   3.788  16.469  1.1279 -0.1015  2.4485
 7000SOL     OW32632   3.829   1.966   7.297 -0.7420  0.0321  0.0908
 7000SOL    HW132633   3.833   2.034   7.364 -1.5009  0.0320  0.1282
 7000SOL    HW232634   3.755   1.908   7.317 -1.5501  1.1655  0.3614
 7001SOL     OW32635   3.585   2.534   4.463 -0.3123 -0.0695 -0.4163
 7001SOL    HW132636   3.575   2.465   4.529  2.0976 -0.2467 -0.2102
 7001SOL    HW232637   3.659   2.491   4.421  0.5310  0.4287  0.5462
 7002SOL     OW32638   4.530   1.865  11.381 -0.0129  0.1292  0.0969
 7002SOL    HW132639   4.495   1.845  11.468  1.5266  0.8074  0.8765
 7002SOL    HW232640   4.620   1.888  11.405 -0.2616  1.1228  0.1113
 7003SOL     OW32641   2.308   3.065   9.180 -0.1968 -0.6159  0.2567
 7003SOL    HW132642   2.345   3.018   9.255 -0.4068 -0.5958  0.3734
 7003SOL    HW232643   2.382   3.117   9.149  0.8037 -2.7857 -1.0060
 7004SOL     OW32644   0.542   0.284   7.329 -0.4979 -0.0327  0.2371
 7004SOL    HW132645   0.573   0.234   7.254 -0.8666  0.9351 -0.5557
 7004SOL    HW232646   0.453   0.255   7.346 -0.5332 -0.8287 -1.3292
 7005SOL     OW32647   3.481   0.807  16.958  0.3367 -0.1757 -0.3381
 7005SOL    HW132648   3.501   0.877  17.020 -1.1032  0.5926 -0.7621
 7005SOL    HW232649   3.398   0.770  16.988  1.1849 -0.4482  1.6807
 7006SOL     OW32650   4.141   0.578   2.579  0.5884 -0.2019 -0.2865
 7006SOL    HW132651   4.116   0.493   2.616  1.4626 -0.8455 -1.1754
 7006SOL    HW232652   4.191   0.614   2.652 -0.9340  1.1823  0.0676
 7007SOL     OW32653   0.139   2.292   2.554  0.2864  0.1525 -0.3136
 7007SOL    HW132654   0.112   2.204   2.529  2.0815  0.0576 -1.8991
 7007SOL    HW232655   0.131   2.346   2.476  0.9381  1.9485  0.8571
 7008SOL     OW32656   3.873   3.530   2.520 -0.2030 -0.4058  0.7524
 7008SOL    HW132657   3.843   3.484   2.441 -1.3148 -2.1471  2.1647
 7008SOL    HW232658   3.923   3.606   2.492 -0.0401 -1.1076 -0.8132
 7009SOL     OW32659   1.153   2.232   0.705  0.1339  0.3229  0.0513
 7009SOL    HW132660   1.080   2.251   0.647  1.6896  0.8859 -1.7392
 7009SOL    HW232661   1.209   2.173   0.654 -1.8870 -0.0752 -1.6769
 7010SOL     OW32662   1.927   3.955  12.284 -0.3361  0.3046  0.1416
 7010SOL    HW132663   1.991   3.902  12.235  1.2241  1.5536  0.8245
 7010SOL    HW232664   1.904   3.903  12.361 -0.1431 -2.2017 -1.4919
 7011SOL     OW32665   4.190   4.090  12.354 -0.9147 -0.1674  0.6318
 7011SOL    HW132666   4.103   4.130  12.363 -0.9435 -0.0479 -0.1062
 7011SOL    HW232667   4.235   4.095  12.437  1.9757 -3.1535 -0.7511
 7012SOL     OW32668   3.042   1.312   2.061  0.1858  0.0723  0.0353
 7012SOL    HW132669   2.950   1.292   2.047  0.0530  0.7364 -0.0456
 7012SOL    HW232670   3.088   1.258   1.997 -0.1287 -1.3248  0.9845
 7013SOL     OW32671   0.128   1.101   6.546 -0.6121  0.0108  0.4527
 7013SOL    HW132672   0.065   1.091   6.475 -0.5207 -0.7618  0.4817
 7013SOL    HW232673   0.061   1.105   6.615 -1.5909  1.3920 -0.5840
 7014SOL     OW32674   2.283   2.099   5.893  0.0671  0.5253 -0.0066
 7014SOL    HW132675   2.202   2.133   5.855 -1.0028 -0.4589  1.4236
 7014SOL    HW232676   2.262   2.041   5.965 -1.1381  1.3815  0.3318
 7015SOL     OW32677   4.321   1.770  10.108 -0.1132  0.2508 -0.1280
 7015SOL    HW132678   4.308   1.697  10.169  1.5658  0.7405  0.8064
 7015SOL    HW232679   4.414   1.759  10.090  0.2106 -0.6769  2.1198
 7016SOL     OW32680   1.650   2.558   8.652  0.0022 -0.1319 -0.2615
 7016SOL    HW132681   1.701   2.620   8.600 -0.0791  0.7726  0.7375
 7016SOL    HW232682   1.645   2.481   8.595  2.7996 -1.1015  0.7881
 7017SOL     OW32683   0.441   0.134   6.075  0.1586  0.3519  0.8014
 7017SOL    HW132684   0.428   0.221   6.037 -2.6979 -0.5074 -0.1988
 7017SOL    HW232685   0.350   0.128   6.104 -0.4470 -3.4565 -1.9068
 7018SOL     OW32686   1.936   0.935   6.233 -0.3077  0.4705  0.1484
 7018SOL    HW132687   1.850   0.974   6.215 -0.3737  0.5155  0.5625
 7018SOL    HW232688   1.985   0.966   6.156 -1.4659  0.6422 -0.5215
 7019SOL     OW32689   0.428   2.846  10.952  0.9271 -0.5366 -0.1630
 7019SOL    HW132690   0.439   2.898  11.032  3.2168 -0.3963 -0.5696
 7019SOL    HW232691   0.450   2.910  10.884  3.1824 -0.2308  0.8372
 7020SOL     OW32692   4.212   0.076   4.808 -0.3604 -0.2774  0.6084
 7020SOL    HW132693   4.119   0.054   4.816 -0.4178 -0.9166 -1.5714
 7020SOL    HW232694   4.254   4.726   4.808  2.0804  0.9158 -1.1206
 7021SOL     OW32695   4.091   0.812   1.701 -0.1619  0.1537 -0.2436
 7021SOL    HW132696   4.185   0.820   1.712  0.2219 -0.4571 -3.0290
 7021SOL    HW232697   4.076   0.732   1.751 -2.1504 -0.2347 -1.4754
 7022SOL     OW32698   2.778   2.996   2.757  0.1957  0.6840  0.0671
 7022SOL    HW132699   2.790   3.091   2.766 -3.1086  0.8934  2.1816
 7022SOL    HW232700   2.689   2.982   2.790  1.4875 -2.8056  2.0096
 7023SOL     OW32701   4.710   2.488   5.643 -0.0296  0.2763  0.2611
 7023SOL    HW132702   4.681   2.554   5.706 -1.3191  0.2806 -0.3307
 7023SOL    HW232703   0.040   2.540   5.599  2.4703 -0.6041  3.0451
 7024SOL     OW32704   3.533   1.636   4.193  0.1541  0.2855  0.4756
 7024SOL    HW132705   3.565   1.682   4.271 -1.1627  3.1964 -0.7127
 7024SOL    HW232706   3.545   1.706   4.130 -1.3132 -1.8065 -2.0976
 7025SOL     OW32707   3.996   4.102  15.673 -0.2588  0.6456 -0.1889
 7025SOL    HW132708   3.976   4.038  15.604 -1.1613  2.5877 -1.7502
 7025SOL    HW232709   3.942   4.073  15.746  1.8174 -1.6774  0.4173
 7026SOL     OW32710   3.726   3.057  16.168  0.1656 -0.1090 -0.2071
 7026SOL    HW132711   3.785   2.982  16.170  0.8983  0.4232 -2.1825
 7026SOL    HW232712   3.785   3.125  16.135 -0.5080 -0.5247 -2.2438
 7027SOL     OW32713   0.709   0.862   3.531 -0.0384  0.4322 -0.3255
 7027SOL    HW132714   0.768   0.927   3.492  0.7082 -3.3111 -5.3911
 7027SOL    HW232715   0.779   0.821   3.583 -0.2344 -0.5806 -0.8751
 7028SOL     OW32716   2.939   0.824   6.071 -0.2099  0.1168 -0.1086
 7028SOL    HW132717   2.980   0.737   6.074 -1.5860 -0.6091 -2.1188
 7028SOL    HW232718   2.897   0.820   5.985  1.2549 -1.2207 -0.7746
 7029SOL     OW32719   3.919   2.210  17.340 -0.7262  0.2511  0.5481
 7029SOL    HW132720   3.880   2.196  17.426 -0.0204  0.6887  0.9405
 7029SOL    HW232721   3.967   2.128  17.332  0.4879  1.3934 -3.6611
 7030SOL     OW32722   4.396   1.494   6.846  0.4948 -0.1652 -0.2101
 7030SOL    HW132723   4.350   1.533   6.921 -0.1584 -0.4613 -0.4526
 7030SOL    HW232724   4.431   1.411   6.878 -0.9888  0.1736  2.3271
 7031SOL     OW32725   2.292   4.693  11.258  0.1785 -1.0454  0.6612
 7031SOL    HW132726   2.198   4.702  11.244  0.3359 -1.8540 -0.8065
 7031SOL    HW232727   2.287   4.630  11.330 -0.8958  0.2650  1.7567
 7032SOL     OW32728   2.090   2.907   8.054 -0.0287  0.1110  0.4064
 7032SOL    HW132729   2.170   2.863   8.025  0.2466 -0.0901  1.4549
 7032SOL    HW232730   2.034   2.832   8.075 -0.2859  0.0825 -0.3789
 7033SOL     OW32731   4.198   0.044   0.877 -0.8386  0.1184  0.0296
 7033SOL    HW132732   4.285   0.071   0.904 -0.4807 -1.2490  0.2172
 7033SOL    HW232733   4.139   0.110   0.914 -0.6612 -0.7570  1.8516
 7034SOL     OW32734   2.848   4.117   4.650  0.4929 -0.0240 -0.0727
 7034SOL    HW132735   2.768   4.102   4.701  1.2903 -0.8934  0.9185
 7034SOL    HW232736   2.815   4.181   4.587 -0.0979 -0.5333 -0.2795
 7035SOL     OW32737   2.740   1.543  15.980 -0.1890 -0.2755 -0.0179
 7035SOL    HW132738   2.805   1.489  15.935 -0.7481  0.6393 -1.9552
 7035SOL    HW232739   2.692   1.573  15.902 -0.6995 -0.9728  0.0207
 7036SOL     OW32740   3.411   0.444  11.174  0.7803  0.0361 -0.5801
 7036SOL    HW132741   3.343   0.444  11.107  0.4758  0.5514 -0.2697
 7036SOL    HW232742   3.346   0.448  11.244 -1.0380  0.0354 -2.2764
 7037SOL     OW32743   3.568   0.241  11.269 -0.7139 -0.0952 -0.2540
 7037SOL    HW132744   3.564   0.225  11.363 -0.3077  0.7178 -0.0959
 7037SOL    HW232745   3.512   0.317  11.252  0.2255  0.4505 -0.9058
 7038SOL     OW32746   1.050   1.421   7.731 -0.3299 -0.2990 -0.2389
 7038SOL    HW132747   1.072   1.444   7.821 -0.7859 -0.5017 -0.0749
 7038SOL    HW232748   0.957   1.406   7.748 -0.3105 -0.7745 -0.5274
 7039SOL     OW32749   2.666   1.236  10.773 -0.3800  0.0191 -0.0609
 7039SOL    HW132750   2.645   1.275  10.689  3.2770  0.4864 -0.7486
 7039SOL    HW232751   2.717   1.159  10.748  1.7485  1.6086 -0.6148
 7040SOL     OW32752   4.098   2.277   7.681  0.1690  0.0480  0.1377
 7040SOL    HW132753   4.092   2.217   7.756  0.6485 -0.5447 -0.2942
 7040SOL    HW232754   4.187   2.311   7.671 -0.2271  1.1986  0.5791
 7041SOL     OW32755   2.086   2.360  16.987  0.4515  0.4260 -0.0328
 7041SOL    HW132756   2.025   2.385  16.918  0.0857  0.1752  0.2047
 7041SOL    HW232757   2.103   2.432  17.048 -1.9553  1.2492 -0.3458
 7042SOL     OW32758   1.327   1.011  17.679 -0.3291  0.2849 -0.0783
 7042SOL    HW132759   1.394   1.045  17.738 -2.5793  1.8183  1.5551
 7042SOL    HW232760   1.321   1.080  17.613  1.8206  1.2109  0.6809
 7043SOL     OW32761   3.480   1.221   2.390 -0.2388  0.3366 -0.6645
 7043SOL    HW132762   3.397   1.174   2.396 -0.6785  1.1441 -0.3268
 7043SOL    HW232763   3.485   1.231   2.295  2.8593  1.9766 -0.3437
 7044SOL     OW32764   1.030   3.204   8.170  0.0507  0.4863  0.7300
 7044SOL    HW132765   1.009   3.265   8.099 -1.2799  0.1251  0.8138
 7044SOL    HW232766   1.049   3.125   8.118  0.7778  0.9888  0.2431
 7045SOL     OW32767   0.776   1.258   1.248 -0.4745 -0.0886 -0.1457
 7045SOL    HW132768   0.806   1.197   1.315  0.1226  0.1688 -0.1804
 7045SOL    HW232769   0.764   1.340   1.295 -2.9047 -0.1837 -0.6256
 7046SOL     OW32770   0.688   3.610   4.405 -0.4092 -0.7323  0.2370
 7046SOL    HW132771   0.601   3.578   4.382 -1.0825  0.7999  0.6210
 7046SOL    HW232772   0.677   3.705   4.393 -0.9355 -0.9269 -0.7842
 7047SOL     OW32773   3.507   0.075  13.780 -0.0014  0.7662  0.6828
 7047SOL    HW132774   3.556   4.736  13.749 -1.8910 -0.4952  0.7986
 7047SOL    HW232775   3.575   0.141  13.794 -0.0699  1.2310 -1.1248
 7048SOL     OW32776   2.530   1.201  13.045  0.3612  0.2038  0.7586
 7048SOL    HW132777   2.536   1.108  13.065 -1.6664 -0.1260 -0.2049
 7048SOL    HW232778   2.508   1.205  12.952 -0.9536  0.5418  1.0736
 7049SOL     OW32779   3.654   1.074   5.783 -0.5241  0.1480 -0.0762
 7049SOL    HW132780   3.563   1.045   5.775 -0.2406 -0.4321 -1.1698
 7049SOL    HW232781   3.635   1.167   5.797 -3.0606 -0.2215 -1.0596
 7050SOL     OW32782   4.667   1.748   7.754 -0.5104  0.2778 -1.1390
 7050SOL    HW132783   4.681   1.693   7.831  0.2535  1.0995 -0.6912
 7050SOL    HW232784   4.578   1.778   7.770 -0.4448 -0.6631  1.0511
 7051SOL     OW32785   2.401   0.505   2.919  0.5193  0.0603  0.0781
 7051SOL    HW132786   2.376   0.434   2.979  1.7869 -0.1904  0.3081
 7051SOL    HW232787   2.404   0.577   2.982  1.5832  1.0223 -1.0592
 7052SOL     OW32788   0.314   3.920  13.023 -0.0454  0.9190  0.3169
 7052SOL    HW132789   0.275   3.999  13.060 -1.0295  0.5493  0.0925
 7052SOL    HW232790   0.234   3.879  12.988  0.4893  1.3670 -1.4353
 7053SOL     OW32791   0.112   0.985   9.275 -0.6114  0.0566 -0.0489
 7053SOL    HW132792   0.139   1.077   9.278 -0.2435 -0.0880  0.8801
 7053SOL    HW232793   0.188   0.941   9.311 -0.8061 -2.0441 -2.1883
 7054SOL     OW32794   4.185   0.759   9.461  0.0819  0.1736 -1.1544
 7054SOL    HW132795   4.243   0.780   9.534 -0.5715 -0.1434 -0.5468
 7054SOL    HW232796   4.190   0.664   9.453  0.4062  0.0261  0.7379
 7055SOL     OW32797   3.239   0.172  13.578 -0.1252 -0.5551  0.0651
 7055SOL    HW132798   3.303   0.136  13.517 -1.8231 -0.3004 -1.8521
 7055SOL    HW232799   3.170   0.213  13.525  0.8238  1.6987  0.5634
 7056SOL     OW32800   0.083   0.325   0.684  0.0215 -0.0713  0.1919
 7056SOL    HW132801   0.034   0.343   0.764 -0.8998  1.8026 -0.7942
 7056SOL    HW232802   0.016   0.351   0.622 -0.1781  0.1948  0.5159
 7057SOL     OW32803   4.606   2.909  12.932  0.1790 -0.2650  0.6289
 7057SOL    HW132804   4.527   2.962  12.936 -0.0144 -0.4987 -0.1649
 7057SOL    HW232805   4.629   2.901  12.839  2.0672 -1.1659  1.1783
 7058SOL     OW32806   0.789   0.754   6.041  0.4689 -0.0161  0.2393
 7058SOL    HW132807   0.736   0.825   6.078  2.3227  0.4889  1.8711
 7058SOL    HW232808   0.750   0.733   5.956  0.3721  0.9617  0.0449
 7059SOL     OW32809   1.729   3.857   8.756 -0.3121  0.4140 -0.3532
 7059SOL    HW132810   1.786   3.891   8.687 -0.0855 -1.4384 -1.0693
 7059SOL    HW232811   1.780   3.881   8.834  0.2550 -2.1363  0.0532
 7060SOL     OW32812   3.495   0.458   7.801 -0.1019  0.5701  0.2107
 7060SOL    HW132813   3.557   0.461   7.873 -0.3699 -1.2400  0.5188
 7060SOL    HW232814   3.459   0.372   7.824  0.9734  1.1992  4.2088
 7061SOL     OW32815   3.820   4.249   4.066  0.2737 -0.1257  0.2592
 7061SOL    HW132816   3.793   4.291   4.148  1.7639 -1.9281  1.6741
 7061SOL    HW232817   3.879   4.187   4.108 -1.6361 -2.4975 -0.5661
 7062SOL     OW32818   0.632   2.758   8.564  0.2789  0.4266  0.8512
 7062SOL    HW132819   0.717   2.728   8.532  0.4497  0.4291  1.2946
 7062SOL    HW232820   0.618   2.838   8.514  1.2728  0.6738  0.9713
 7063SOL     OW32821   4.268   3.845   2.359 -0.4319 -0.0947  0.1603
 7063SOL    HW132822   4.216   3.921   2.384  0.8496  0.6669  0.5117
 7063SOL    HW232823   4.320   3.881   2.287 -2.4172  1.4205 -0.5224
 7064SOL     OW32824   0.739   4.492  13.330  0.0128  0.3605  0.0916
 7064SOL    HW132825   0.708   4.509  13.419  1.5476 -0.9570  0.8750
 7064SOL    HW232826   0.817   4.438  13.342 -0.0930  0.4623  1.2659
 7065SOL     OW32827   1.290   1.679   0.045  0.6431  0.1043 -0.7716
 7065SOL    HW132828   1.294   1.633  17.707 -2.8440  0.7060 -1.2609
 7065SOL    HW232829   1.225   1.748   0.031 -0.3936 -0.4549  1.2563
 7066SOL     OW32830   0.872   4.343  17.090 -0.7036  0.9286 -0.0890
 7066SOL    HW132831   0.846   4.432  17.068  0.5653  1.8575  2.1955
 7066SOL    HW232832   0.857   4.339  17.185  0.1058 -1.1463 -0.0457
 7067SOL     OW32833   2.349   0.565   8.952  0.5098 -0.0637 -0.1309
 7067SOL    HW132834   2.428   0.520   8.920  2.1284  2.3027  0.5157
 7067SOL    HW232835   2.384   0.644   8.993  1.6697 -0.6520  0.0192
 7068SOL     OW32836   0.090   2.296  11.563 -0.4630 -0.3113 -0.3436
 7068SOL    HW132837   0.075   2.206  11.591 -0.2365 -0.5346 -0.9341
 7068SOL    HW232838   0.147   2.327  11.634  1.5213 -1.3352 -1.5003
 7069SOL     OW32839   2.183   2.167   4.285 -0.2531  0.6921 -0.5618
 7069SOL    HW132840   2.123   2.128   4.349  2.2057 -0.7560  0.8602
 7069SOL    HW232841   2.267   2.148   4.326 -0.6813  0.7609  0.3635
 7070SOL     OW32842   3.346   1.391   6.286 -0.1760 -0.2358 -0.0172
 7070SOL    HW132843   3.314   1.432   6.366  0.5076 -0.8675  0.5854
 7070SOL    HW232844   3.265   1.341   6.274 -0.2099 -0.2311  0.1950
 7071SOL     OW32845   1.534   1.591   5.742 -0.2701 -0.9809 -0.4319
 7071SOL    HW132846   1.454   1.568   5.789  0.0641  1.2140  1.2070
 7071SOL    HW232847   1.491   1.622   5.662  0.2649 -0.2836 -0.4473
 7072SOL     OW32848   3.726   3.614   8.007  0.3079  0.4348  0.2408
 7072SOL    HW132849   3.786   3.629   8.080  1.0357 -0.4896 -0.1608
 7072SOL    HW232850   3.729   3.698   7.962 -1.0279  0.0257 -0.6069
 7073SOL     OW32851   4.026   2.751   2.477 -0.1286 -0.2084 -0.2800
 7073SOL    HW132852   3.942   2.773   2.517 -0.6378 -0.6346 -1.0952
 7073SOL    HW232853   4.074   2.736   2.558 -1.7374 -0.4421  0.6218
 7074SOL     OW32854   0.253   4.256   8.357  0.3280  0.0626 -0.1507
 7074SOL    HW132855   0.191   4.300   8.298  1.4717  0.4343 -1.0661
 7074SOL    HW232856   0.297   4.207   8.287  0.8204  2.0572 -1.2323
 7075SOL     OW32857   3.407   3.782   4.867  0.4029 -0.2232  0.1261
 7075SOL    HW132858   3.340   3.842   4.902  1.8011  1.3582  0.0618
 7075SOL    HW232859   3.470   3.838   4.822 -0.5384  0.8031  0.0845
 7076SOL     OW32860   1.514   4.503  11.435 -0.1439 -0.0388  0.5840
 7076SOL    HW132861   1.442   4.443  11.454 -1.7282  1.5631 -0.4219
 7076SOL    HW232862   1.497   4.586  11.480  1.3401  1.4111 -1.5715
 7077SOL     OW32863   4.691   3.259   6.917  0.0126 -0.0458  0.4366
 7077SOL    HW132864   0.034   3.219   6.950 -0.1084 -0.6249  0.0233
 7077SOL    HW232865   4.623   3.198   6.946  0.5292 -1.2458 -0.8451
 7078SOL     OW32866   3.479   2.141  11.983  1.1019 -0.4206 -0.0475
 7078SOL    HW132867   3.561   2.178  12.015  2.1214  0.4841 -3.6741
 7078SOL    HW232868   3.485   2.145  11.888 -0.5825 -1.5233 -0.2153
 7079SOL     OW32869   0.643   0.559  16.839 -0.4811  0.1699  0.6757
 7079SOL    HW132870   0.722   0.530  16.794  0.1445  4.6155 -1.0957
 7079SOL    HW232871   0.579   0.503  16.796 -0.1597 -1.9546  2.9858
 7080SOL     OW32872   0.769   2.446  16.757 -0.0277  0.3202 -0.2087
 7080SOL    HW132873   0.839   2.458  16.692  0.3602  2.7859  0.6420
 7080SOL    HW232874   0.816   2.387  16.816 -0.0298  1.0376  0.5097
 7081SOL     OW32875   0.900   3.736   1.501 -0.2303 -0.4143  0.1111
 7081SOL    HW132876   0.841   3.672   1.461  1.5840 -2.5450  0.8404
 7081SOL    HW232877   0.925   3.780   1.419 -1.5355  0.3781  0.1396
 7082SOL     OW32878   4.638   1.723  12.353  0.3893  0.2855 -0.1294
 7082SOL    HW132879   4.648   1.787  12.424 -1.5944  2.2341 -1.5951
 7082SOL    HW232880   4.578   1.663  12.398 -1.5416  0.7087 -2.1277
 7083SOL     OW32881   4.181   2.258  11.312  0.5557 -0.2169 -0.2111
 7083SOL    HW132882   4.121   2.257  11.387  1.3807 -2.3598  0.4364
 7083SOL    HW232883   4.135   2.284  11.232  1.6380  0.5646 -0.5754
 7084SOL     OW32884   3.589   1.816   7.347  0.1002 -0.7412 -0.2303
 7084SOL    HW132885   3.589   1.801   7.253  1.9581  0.9243 -0.4998
 7084SOL    HW232886   3.497   1.809   7.373  0.0795 -0.1725 -0.1358
 7085SOL     OW32887   4.045   3.983   5.573  0.1159 -0.7724 -0.2404
 7085SOL    HW132888   4.031   4.042   5.499  0.0168  1.5709  1.6208
 7085SOL    HW232889   3.956   3.982   5.608 -0.4473  1.2297 -1.5761
 7086SOL     OW32890   4.642   1.451   5.033 -0.1579 -0.3827  0.2833
 7086SOL    HW132891   4.679   1.530   5.073 -0.7326  0.0310 -0.0056
 7086SOL    HW232892   4.625   1.481   4.943 -0.5742  0.2756  0.5777
 7087SOL     OW32893   3.033   1.365   6.947 -0.2855  0.0058 -0.7613
 7087SOL    HW132894   3.105   1.302   6.955  0.8799  1.5878  1.1417
 7087SOL    HW232895   3.030   1.402   7.035 -0.5998  1.5647 -1.4416
 7088SOL     OW32896   1.329   3.400   6.411 -0.2373 -0.2312  0.3666
 7088SOL    HW132897   1.389   3.464   6.448  0.4626 -0.5737 -0.1786
 7088SOL    HW232898   1.381   3.355   6.344  0.4998 -1.4176  1.7449
 7089SOL     OW32899   0.855   3.488   0.667 -0.0508  0.1730  0.7722
 7089SOL    HW132900   0.802   3.409   0.673  3.4241 -2.3282 -0.8325
 7089SOL    HW232901   0.881   3.489   0.574 -0.2858  0.3229  0.7084
 7090SOL     OW32902   1.419   0.864   9.344 -0.4019 -0.0713  0.3646
 7090SOL    HW132903   1.474   0.897   9.272  1.0178 -0.5606  1.2298
 7090SOL    HW232904   1.470   0.892   9.420 -0.0342 -2.8450  1.1385
 7091SOL     OW32905   4.011   0.513   6.391 -0.8033  0.1249  0.0509
 7091SOL    HW132906   4.053   0.501   6.476 -0.0741 -1.7954 -0.5772
 7091SOL    HW232907   3.927   0.555   6.411 -0.4756  0.1669  1.3342
 7092SOL     OW32908   0.563   3.172   7.695 -0.0625  0.4254  0.0701
 7092SOL    HW132909   0.476   3.148   7.725  0.8009 -1.2634  1.2192
 7092SOL    HW232910   0.605   3.218   7.767 -0.8787 -0.2692  0.9845
 7093SOL     OW32911   1.699   3.535  16.323 -0.6710  0.2409 -0.4830
 7093SOL    HW132912   1.722   3.450  16.359  0.9023  0.5730 -0.7109
 7093SOL    HW232913   1.604   3.529  16.319 -0.7847  0.9259  1.0031
 7094SOL     OW32914   1.658   2.461   5.968 -0.2969  0.0305 -0.0762
 7094SOL    HW132915   1.674   2.392   6.033 -2.1636  0.2681  0.6226
 7094SOL    HW232916   1.726   2.443   5.902  0.2916 -3.8045  1.5813
 7095SOL     OW32917   3.720   4.273   6.205  0.0170  0.6121  0.1927
 7095SOL    HW132918   3.661   4.325   6.260 -1.0151  0.2809 -0.5944
 7095SOL    HW232919   3.728   4.197   6.263  0.5089  1.5384  1.3328
 7096SOL     OW32920   1.033   3.045   6.133 -0.4039  0.2856 -0.6678
 7096SOL    HW132921   0.970   3.077   6.069 -0.3772  1.2046 -0.2276
 7096SOL    HW232922   0.988   3.052   6.217 -0.8522 -0.7485 -0.8205
 7097SOL     OW32923   1.888   4.277  16.716 -0.1112 -0.4057  0.8213
 7097SOL    HW132924   1.964   4.225  16.740 -1.0619 -2.3678 -0.4637
 7097SOL    HW232925   1.878   4.325  16.799 -1.0995  1.7126 -0.5284
 7098SOL     OW32926   1.000   3.247   1.883  0.2328  0.3686  0.8661
 7098SOL    HW132927   0.980   3.324   1.936  0.5873 -0.4400  2.1710
 7098SOL    HW232928   0.926   3.188   1.899  1.9043 -1.5107  1.8103
 7099SOL     OW32929   2.056   1.437  15.356 -0.2972 -0.8799  0.2551
 7099SOL    HW132930   1.965   1.406  15.361 -0.3347 -0.6998  0.7421
 7099SOL    HW232931   2.096   1.353  15.332  2.0348  0.2733  0.1416
 7100SOL     OW32932   3.168   2.267   3.724 -0.4078 -0.1987  0.4439
 7100SOL    HW132933   3.145   2.204   3.793 -3.7003 -0.9521 -1.3297
 7100SOL    HW232934   3.141   2.223   3.643 -1.0185 -0.2470  0.6725
 7101SOL     OW32935   0.152   1.331   4.972 -0.3609 -0.5063  0.2512
 7101SOL    HW132936   0.153   1.273   5.048  0.6317 -2.3298 -1.1529
 7101SOL    HW232937   0.069   1.371   4.996  0.0203  1.0293 -0.9456
 7102SOL     OW32938   2.376   3.543   2.498  0.2281  0.0992 -0.1828
 7102SOL    HW132939   2.402   3.615   2.556 -2.5080  0.3938  0.6749
 7102SOL    HW232940   2.336   3.605   2.436 -1.5090  0.2540  1.1070
 7103SOL     OW32941   3.116   3.541  13.298  0.5440  0.0444  0.1304
 7103SOL    HW132942   3.193   3.585  13.261  0.9307 -2.4106 -1.9715
 7103SOL    HW232943   3.054   3.584  13.239  1.7009 -1.2103 -1.9781
 7104SOL     OW32944   1.933   2.597   6.256 -0.7183  0.1108 -0.7898
 7104SOL    HW132945   1.906   2.513   6.294 -1.8139  0.3583 -1.0410
 7104SOL    HW232946   1.982   2.575   6.177  1.1740  1.1430  0.0974
 7105SOL     OW32947   2.066   1.007  15.472  0.1020  0.2040  0.8415
 7105SOL    HW132948   2.089   1.079  15.413  0.2966  1.9194  3.0279
 7105SOL    HW232949   2.155   0.987  15.498  1.1402  1.4017 -1.7963
 7106SOL     OW32950   0.751   1.659   0.312 -0.2959  0.1692 -0.4298
 7106SOL    HW132951   0.799   1.737   0.341 -1.0406  0.1721  0.8004
 7106SOL    HW232952   0.663   1.677   0.344 -0.5112 -1.8191  0.0895
 7107SOL     OW32953   4.413   1.181  10.533  0.4213 -0.4288  0.1511
 7107SOL    HW132954   4.508   1.185  10.544  0.3581 -0.8691  0.8532
 7107SOL    HW232955   4.382   1.203  10.620 -1.2310 -1.2030 -0.2495
 7108SOL     OW32956   1.359   4.610  16.599  0.5277  0.2566 -0.2931
 7108SOL    HW132957   1.412   4.628  16.522  0.5498  1.2189 -0.0526
 7108SOL    HW232958   1.337   4.700  16.623 -1.5868  0.2919 -2.3145
 7109SOL     OW32959   0.326   4.466  10.995 -0.0153  0.1206  0.2596
 7109SOL    HW132960   0.332   4.433  11.085 -2.9241  1.1765  0.8480
 7109SOL    HW232961   0.241   4.510  10.988 -0.1210  0.0204  0.9749
 7110SOL     OW32962   1.289   4.193   6.844 -0.1815  0.6166 -0.0262
 7110SOL    HW132963   1.203   4.162   6.873 -0.5645  0.5672 -1.2176
 7110SOL    HW232964   1.268   4.285   6.832 -0.9799  0.3864 -0.3678
 7111SOL     OW32965   0.333   3.638   5.255  0.5756  0.1397 -0.2812
 7111SOL    HW132966   0.414   3.654   5.304 -0.1052  3.0120 -0.1211
 7111SOL    HW232967   0.263   3.619   5.318  1.0037  3.2191  1.1283
 7112SOL     OW32968   2.849   3.681   8.084 -0.1126 -0.2964  0.5115
 7112SOL    HW132969   2.933   3.658   8.124 -0.2514  0.1148  1.0333
 7112SOL    HW232970   2.870   3.659   7.993 -1.1568 -2.7527  0.8842
 7113SOL     OW32971   4.395   3.377   7.854  0.0170  0.0281  0.0932
 7113SOL    HW132972   4.343   3.379   7.773 -1.1031 -0.1279  0.8094
 7113SOL    HW232973   4.405   3.472   7.861 -3.6145  0.4654 -0.3491
 7114SOL     OW32974   2.509   2.140  12.233 -0.0139  0.0460 -0.1022
 7114SOL    HW132975   2.595   2.097  12.231 -0.3107 -0.4777 -1.4973
 7114SOL    HW232976   2.443   2.071  12.231  0.3729 -0.3270 -0.0350
 7115SOL     OW32977   0.168   3.767   4.448 -0.1871 -0.0597  0.0527
 7115SOL    HW132978   0.139   3.756   4.538  1.8960 -0.4230  0.6792
 7115SOL    HW232979   0.114   3.838   4.413 -0.8048 -0.3443  0.4400
 7116SOL     OW32980   3.489   2.069   8.360  0.2650 -0.2822  0.1244
 7116SOL    HW132981   3.453   2.035   8.443  3.1855 -3.4682  0.1047
 7116SOL    HW232982   3.411   2.086   8.307 -0.1554  0.2413  0.9132
 7117SOL     OW32983   3.297   2.191  16.422  0.3514 -0.5652  0.1662
 7117SOL    HW132984   3.329   2.101  16.428 -0.0961 -0.9504 -2.9066
 7117SOL    HW232985   3.264   2.200  16.511 -2.7039 -2.4241 -0.7605
 7118SOL     OW32986   0.248   3.135   3.396  0.1325  0.1006 -0.6773
 7118SOL    HW132987   0.169   3.087   3.370  1.4024 -2.0754 -0.5425
 7118SOL    HW232988   0.316   3.070   3.415  1.0529  0.7009 -1.9617
 7119SOL     OW32989   1.977   4.243   7.877 -0.7717 -0.1749 -0.0495
 7119SOL    HW132990   2.013   4.305   7.940 -0.4062 -0.9399  0.4903
 7119SOL    HW232991   1.933   4.299   7.812  0.6406  1.5914  0.5231
 7120SOL     OW32992   3.322   0.646  10.746 -0.5815 -0.2989  0.0544
 7120SOL    HW132993   3.327   0.562  10.792  0.6558 -1.4135 -2.1252
 7120SOL    HW232994   3.285   0.614  10.664  1.0907 -0.2439 -0.7117
 7121SOL     OW32995   0.169   1.521  10.867  0.2339  0.3536 -0.7446
 7121SOL    HW132996   0.263   1.526  10.850  0.0853 -0.7463 -1.8730
 7121SOL    HW232997   0.149   1.428  10.876 -0.5625  0.5807 -0.1672
 7122SOL     OW32998   0.887   1.575  17.462  0.4681 -0.3305  0.2948
 7122SOL    HW132999   0.926   1.489  17.479 -1.7241 -1.2275  0.8265
 7122SOL    HW233000   0.813   1.544  17.409  0.5663 -0.9064  0.4960
 7123SOL     OW33001   0.752   3.570   7.478  0.2361 -0.3324 -0.0682
 7123SOL    HW133002   0.745   3.638   7.411  0.7701 -0.8754 -0.6831
 7123SOL    HW233003   0.665   3.576   7.516  0.4316 -1.5215  0.5985
 7124SOL     OW33004   0.602   2.544   2.316  0.2660 -0.0828 -0.0347
 7124SOL    HW133005   0.621   2.461   2.273  1.3128  0.7094 -1.1084
 7124SOL    HW233006   0.540   2.580   2.252 -0.2164  1.0586  1.0549
 7125SOL     OW33007   4.396   0.710  13.555 -0.7603  0.1336 -0.2594
 7125SOL    HW133008   4.370   0.650  13.485 -0.5872 -0.1228 -0.0988
 7125SOL    HW233009   4.438   0.780  13.504 -2.1365  1.0740 -0.1205
 7126SOL     OW33010   3.450   3.198  16.919 -0.3060  0.4301  0.5105
 7126SOL    HW133011   3.446   3.193  16.823  0.5499 -2.6649  0.6446
 7126SOL    HW233012   3.542   3.194  16.946 -0.0057 -0.6616 -0.6759
 7127SOL     OW33013   2.384   2.023  14.425  0.2996  0.0851 -0.6063
 7127SOL    HW133014   2.340   2.081  14.363 -2.2858  0.1369  1.3071
 7127SOL    HW233015   2.374   1.938  14.383  0.3603  0.3129 -1.0943
 7128SOL     OW33016   2.738   3.707   2.770 -0.2222 -0.1024  0.5195
 7128SOL    HW133017   2.799   3.773   2.738  1.1513 -0.0043  3.2848
 7128SOL    HW233018   2.751   3.634   2.710  0.6511 -0.6095  1.3308
 7129SOL     OW33019   3.860   4.085   7.935  0.1920 -0.3222 -0.7484
 7129SOL    HW133020   3.903   4.030   8.001  1.1688 -0.6120 -1.6425
 7129SOL    HW233021   3.857   4.171   7.977  1.8683 -0.0047 -1.3170
 7130SOL     OW33022   2.169   0.199   2.036 -0.2368 -0.8828 -0.0411
 7130SOL    HW133023   2.106   0.168   1.971  0.0933 -0.6731 -0.4620
 7130SOL    HW233024   2.114   0.259   2.087 -1.1566 -1.0476 -0.8365
 7131SOL     OW33025   2.309   0.860   6.181 -0.2854 -0.3719  0.5812
 7131SOL    HW133026   2.265   0.785   6.141  2.2602 -1.2495 -0.5390
 7131SOL    HW233027   2.251   0.880   6.255 -0.3546  1.8692 -0.0715
 7132SOL     OW33028   0.919   1.586   3.157  0.1693 -0.6050 -0.2713
 7132SOL    HW133029   0.940   1.678   3.173 -0.3031 -0.2574 -1.6085
 7132SOL    HW233030   1.000   1.563   3.113  1.3474 -0.8182  1.9921
 7133SOL     OW33031   3.536   0.438  12.560  0.7795  0.2481 -0.1321
 7133SOL    HW133032   3.545   0.532  12.541  1.8203  0.0916 -0.4023
 7133SOL    HW233033   3.479   0.409  12.488  1.1219 -2.2339  0.6230
 7134SOL     OW33034   2.513   2.687   5.157  0.2150 -0.7829  0.1719
 7134SOL    HW133035   2.475   2.645   5.234 -1.6909  0.7379  0.0767
 7134SOL    HW233036   2.603   2.656   5.165  0.6498  0.4709  0.1222
 7135SOL     OW33037   1.369   1.204   9.371  0.4635 -0.2044 -0.6205
 7135SOL    HW133038   1.355   1.119   9.413 -0.6991  0.5167  0.4728
 7135SOL    HW233039   1.446   1.235   9.418 -0.5960 -0.3363  1.2056
 7136SOL     OW33040   3.781   1.723   5.815  0.2935 -0.2776 -0.3869
 7136SOL    HW133041   3.686   1.724   5.804  0.3056 -1.4722 -0.5520
 7136SOL    HW233042   3.793   1.709   5.909  1.2127 -1.4369 -0.6881
 7137SOL     OW33043   1.015   3.756   8.328 -0.5062  0.2208 -0.4893
 7137SOL    HW133044   1.052   3.711   8.403 -0.6968 -2.6429 -2.0998
 7137SOL    HW233045   0.999   3.690   8.260 -0.5143 -2.3662  2.0399
 7138SOL     OW33046   1.311   0.001  10.514 -0.3845  0.4263 -0.2374
 7138SOL    HW133047   1.230   0.052  10.504 -0.7776 -0.0444  0.6255
 7138SOL    HW233048   1.300   4.677  10.587 -0.0003  0.1933 -0.3763
 7139SOL     OW33049   1.819   1.602   2.774 -0.2989 -0.0473  0.0441
 7139SOL    HW133050   1.773   1.536   2.826 -1.3291  0.6690  0.0342
 7139SOL    HW233051   1.770   1.603   2.692  0.9558 -0.4051 -0.7089
 7140SOL     OW33052   3.551   1.672   8.967 -0.5397 -0.6455 -0.0659
 7140SOL    HW133053   3.510   1.586   8.972 -0.6664 -0.5519  0.4901
 7140SOL    HW233054   3.551   1.696   9.060 -0.7836 -1.6501  0.1874
 7141SOL     OW33055   2.358   0.513   6.453  0.1200  0.6649 -0.0069
 7141SOL    HW133056   2.414   0.573   6.405  2.0302 -0.1997  1.1453
 7141SOL    HW233057   2.395   0.432   6.418 -1.6326  0.2610 -0.9381
 7142SOL     OW33058   3.880   3.384   8.588 -0.8190 -0.5786  0.4223
 7142SOL    HW133059   3.917   3.347   8.508  0.0466 -1.6284  1.3054
 7142SOL    HW233060   3.839   3.310   8.632 -1.2267 -0.4456  0.2632
 7143SOL     OW33061   0.143   3.701   4.716 -0.6257  0.0668 -0.4291
 7143SOL    HW133062   0.184   3.748   4.789 -2.4120  1.4840 -0.3371
 7143SOL    HW233063   0.165   3.613   4.745  1.3092  0.2168 -1.4565
 7144SOL     OW33064   3.336   0.880   7.175 -0.0282  0.3278 -0.5040
 7144SOL    HW133065   3.301   0.871   7.264 -0.5676 -2.7569 -1.0292
 7144SOL    HW233066   3.264   0.840   7.127 -1.0795  0.8262  0.6491
 7145SOL     OW33067   3.001   1.073   1.540 -0.0699 -0.7256 -0.9519
 7145SOL    HW133068   3.089   1.067   1.502  0.4541  1.3269 -0.0526
 7145SOL    HW233069   2.952   1.119   1.472 -0.8067 -1.6881 -1.0765
 7146SOL     OW33070   2.424   4.083   2.252 -0.0809 -0.8242 -0.0993
 7146SOL    HW133071   2.392   4.019   2.315 -0.8082 -0.9014 -0.5574
 7146SOL    HW233072   2.344   4.096   2.202  1.8380 -2.2904 -3.5115
 7147SOL     OW33073   3.937   2.879  15.228 -0.3455  0.4749 -0.1192
 7147SOL    HW133074   3.941   2.925  15.312  0.7823  2.3163 -1.1552
 7147SOL    HW233075   4.027   2.884  15.196 -0.6750  1.2627 -0.9538
 7148SOL     OW33076   4.593   1.537   2.756  0.0381  0.2218  0.4119
 7148SOL    HW133077   4.548   1.564   2.677 -1.5843 -0.6512  1.0455
 7148SOL    HW233078   4.680   1.562   2.725  0.6280 -1.8676  0.4104
 7149SOL     OW33079   3.224   1.143   4.887 -0.0798 -0.4752 -0.0784
 7149SOL    HW133080   3.272   1.071   4.929 -0.4231 -0.4497  0.3599
 7149SOL    HW233081   3.281   1.213   4.919 -2.2189  0.8143  0.8663
 7150SOL     OW33082   0.831   1.491   9.150 -0.2660 -0.5290  0.0168
 7150SOL    HW133083   0.855   1.420   9.091 -0.2175  0.0254 -0.6360
 7150SOL    HW233084   0.874   1.478   9.235 -2.0843 -2.1704  0.6622
 7151SOL     OW33085   2.746   2.973   7.668 -0.0057 -0.3575  0.0210
 7151SOL    HW133086   2.707   2.971   7.755 -0.3953  0.8402 -0.1296
 7151SOL    HW233087   2.817   3.037   7.679 -1.6296  1.4224  0.2317
 7152SOL     OW33088   3.860   3.850   2.178  0.2353  0.3518 -0.3510
 7152SOL    HW133089   3.900   3.871   2.262  0.4436  3.3510 -1.2240
 7152SOL    HW233090   3.839   3.938   2.146  0.6636  0.8572  0.7668
 7153SOL     OW33091   4.292   1.138   3.446  0.3857  0.2756  0.0408
 7153SOL    HW133092   4.382   1.107   3.433  0.4271  0.6042 -0.4588
 7153SOL    HW233093   4.271   1.183   3.365  2.9489 -1.4497 -1.5718
 7154SOL     OW33094   0.356   1.014   5.075 -0.4176 -0.0464  0.1114
 7154SOL    HW133095   0.322   0.929   5.101  1.0916 -0.4925  0.6119
 7154SOL    HW233096   0.287   1.064   5.119 -0.8221  1.1578 -1.8672
 7155SOL     OW33097   4.481   3.491  15.261 -0.3170  0.7769 -0.4462
 7155SOL    HW133098   4.547   3.470  15.195 -0.3317 -2.3229  0.5244
 7155SOL    HW233099   4.438   3.406  15.262  2.4752 -0.6327  1.2555
 7156SOL     OW33100   4.038   2.539   2.909 -0.6000 -0.4182 -0.5655
 7156SOL    HW133101   3.979   2.529   2.983  1.2996 -3.1366  0.5765
 7156SOL    HW233102   3.981   2.509   2.838  0.6342  0.6189 -2.0338
 7157SOL     OW33103   0.852   1.264   4.036  0.2587  0.1958 -0.6403
 7157SOL    HW133104   0.768   1.219   4.023 -1.1912  3.0114 -0.9592
 7157SOL    HW233105   0.830   1.325   4.106 -1.1397 -1.1649  0.1239
 7158SOL     OW33106   4.109   4.718   6.229 -0.4508 -0.2347 -0.7636
 7158SOL    HW133107   4.164   0.056   6.207 -0.2152  0.2460  1.4728
 7158SOL    HW233108   4.167   4.668   6.287 -1.5903  1.7836  2.0448
 7159SOL     OW33109   4.266   1.127   5.556 -0.1932 -0.2975 -0.2442
 7159SOL    HW133110   4.360   1.110   5.555 -0.1542  0.0472 -1.9704
 7159SOL    HW233111   4.265   1.217   5.589  1.0453  0.2157 -1.6238
 7160SOL     OW33112   0.088   0.245   5.040 -0.4929  0.7251  0.1238
 7160SOL    HW133113   0.159   0.225   4.979 -2.4791  1.5443 -2.4122
 7160SOL    HW233114   0.036   0.166   5.030  1.6321 -0.8089  1.1361
 7161SOL     OW33115   1.739   3.141   9.044 -0.4234 -0.4375 -0.1138
 7161SOL    HW133116   1.825   3.108   9.016  0.7178  1.6892  0.8580
 7161SOL    HW233117   1.754   3.164   9.136 -1.7538 -0.3819  0.0809
 7162SOL     OW33118   3.616   4.491   3.640  0.7614  0.1349 -0.1581
 7162SOL    HW133119   3.681   4.426   3.667  0.4574 -0.7663 -1.6009
 7162SOL    HW233120   3.619   4.489   3.544  2.2732 -1.1042 -0.0702
 7163SOL     OW33121   1.935   0.461   7.118 -0.0063 -0.0855  0.5425
 7163SOL    HW133122   2.025   0.467   7.085 -0.8484  0.1476 -1.7114
 7163SOL    HW233123   1.893   0.482   7.035  1.0616  0.8520  0.2438
 7164SOL     OW33124   2.931   2.658  16.010  0.3668 -0.1423  0.3787
 7164SOL    HW133125   2.990   2.693  15.942 -2.4510 -0.9138 -2.4873
 7164SOL    HW233126   2.867   2.609  15.959 -0.5017  0.0330  1.3062
 7165SOL     OW33127   3.200   0.274  10.581  0.3362  0.0657  0.2030
 7165SOL    HW133128   3.254   0.350  10.557  1.1530 -0.4012  0.5396
 7165SOL    HW233129   3.219   0.215  10.508  0.3759  0.0371  0.2364
 7166SOL     OW33130   4.539   2.327   2.562  0.0477 -0.0656  0.2604
 7166SOL    HW133131   4.461   2.279   2.587 -0.4184 -0.0951 -1.2204
 7166SOL    HW233132   4.602   2.254   2.562 -2.1465 -1.9347  0.4292
 7167SOL     OW33133   4.598   2.475   9.633 -0.4951  0.0844 -0.2106
 7167SOL    HW133134   4.539   2.440   9.700 -0.2736  1.2447  0.5888
 7167SOL    HW233135   4.678   2.484   9.685 -0.3116  3.5857 -1.1321
 7168SOL     OW33136   0.352   0.501   7.644 -0.0726  0.3886  0.2756
 7168SOL    HW133137   0.339   0.559   7.569  1.9801  0.5736  0.0708
 7168SOL    HW233138   0.390   0.554   7.714  0.1116 -1.3120  1.4384
 7169SOL     OW33139   2.775   2.466   2.474 -0.2797 -0.1401  0.0033
 7169SOL    HW133140   2.734   2.492   2.556  0.8848  1.5424  0.0602
 7169SOL    HW233141   2.800   2.553   2.441 -0.7108 -0.1725 -0.4074
 7170SOL     OW33142   3.079   2.905   8.625  0.0102 -0.0934 -0.1289
 7170SOL    HW133143   3.071   2.820   8.670  0.9458  0.6299  1.4084
 7170SOL    HW233144   2.987   2.930   8.633 -0.0294  0.2150 -1.5937
 7171SOL     OW33145   2.308   1.030   6.582 -0.9924 -0.0145  0.7101
 7171SOL    HW133146   2.349   1.104   6.538 -0.4625 -1.4201 -1.1824
 7171SOL    HW233147   2.256   0.993   6.510 -0.8428  0.2001  0.4928
 7172SOL     OW33148   0.149   2.633  11.232  0.5004  0.2936 -0.0104
 7172SOL    HW133149   0.226   2.675  11.270  0.6190 -0.1098  0.2023
 7172SOL    HW233150   0.114   2.707  11.183 -0.7393 -1.2356 -1.4473
 7173SOL     OW33151   2.069   0.895   7.383 -0.1491  0.3939 -0.7231
 7173SOL    HW133152   2.141   0.926   7.439  3.4846 -2.1305 -4.0123
 7173SOL    HW233153   2.047   0.813   7.426  0.1615 -0.0885 -1.4924
 7174SOL     OW33154   4.381   2.612  16.722  0.2464 -0.1746  0.1190
 7174SOL    HW133155   4.289   2.637  16.721  0.9382  2.2833 -0.8972
 7174SOL    HW233156   4.411   2.618  16.632  1.3430 -3.5904  0.2547
 7175SOL     OW33157   2.398   4.721   4.425 -0.1721  0.4105  0.1673
 7175SOL    HW133158   2.427   4.641   4.380 -1.1901  0.3327 -0.3607
 7175SOL    HW233159   2.333   4.679   4.482  0.0216 -0.7073 -0.4242
 7176SOL     OW33160   3.582   3.509   3.967  0.0889  0.2589  0.0319
 7176SOL    HW133161   3.597   3.415   3.953  1.0498  0.0422  2.4193
 7176SOL    HW233162   3.491   3.514   3.996  0.0453 -2.4289  0.3958
 7177SOL     OW33163   2.085   4.172   1.402 -0.9297 -0.5224  0.0505
 7177SOL    HW133164   2.119   4.204   1.485 -0.2053  1.0195 -0.8431
 7177SOL    HW233165   1.999   4.212   1.403 -0.3965  0.6019  0.7923
 7178SOL     OW33166   3.918   3.075  13.021  0.1893  0.0716  0.4419
 7178SOL    HW133167   3.835   3.059  12.976  1.7106 -0.9067 -2.0179
 7178SOL    HW233168   3.903   3.148  13.081 -1.7680  1.2569 -1.4875
 7179SOL     OW33169   1.317   4.167   7.897  0.6397 -0.0865  0.8663
 7179SOL    HW133170   1.382   4.226   7.936  2.2435  0.4339 -2.5972
 7179SOL    HW233171   1.232   4.194   7.932  2.3612  1.4157  3.9165
 7180SOL     OW33172   1.410   4.660   6.960 -0.2626  0.5534 -0.5938
 7180SOL    HW133173   1.331   4.695   6.920 -0.0231 -0.2599 -1.7635
 7180SOL    HW233174   1.374   4.577   6.991  0.3089  1.0046  1.3164
 7181SOL     OW33175   2.476   0.127   5.710  0.3717  0.4373 -0.2518
 7181SOL    HW133176   2.516   0.213   5.704 -2.0579  1.5536 -0.4998
 7181SOL    HW233177   2.501   0.083   5.628  0.8420  1.2715 -0.5522
 7182SOL     OW33178   0.589   1.463  14.515 -0.5265 -0.0960 -0.0395
 7182SOL    HW133179   0.506   1.416  14.515 -0.9432  0.6784  2.2482
 7182SOL    HW233180   0.619   1.456  14.424  0.8883  0.3589  0.3809
 7183SOL     OW33181   0.864   4.015   7.880 -0.6624 -0.5759  0.0406
 7183SOL    HW133182   0.943   4.036   7.930 -0.1415  0.6200 -1.2694
 7183SOL    HW233183   0.907   3.990   7.798  0.5905  3.3182 -0.4932
 7184SOL     OW33184   3.705   3.849   7.875  0.0768 -0.1480 -0.3589
 7184SOL    HW133185   3.721   3.943   7.867 -1.9161  0.2345  0.1174
 7184SOL    HW233186   3.634   3.842   7.810  0.2139  2.0963 -0.7261
 7185SOL     OW33187   3.380   3.463  16.648  0.3639 -0.0755 -0.0519
 7185SOL    HW133188   3.412   3.373  16.639  0.6030 -0.0011  0.0381
 7185SOL    HW233189   3.323   3.445  16.723 -0.2484  1.2905 -0.1838
 7186SOL     OW33190   1.295   1.063   7.108  0.3042 -0.2343 -0.2364
 7186SOL    HW133191   1.274   1.131   7.172 -2.0670  0.1507 -1.4201
 7186SOL    HW233192   1.209   1.024   7.094  1.5427 -2.2208 -2.2724
 7187SOL     OW33193   4.691   0.060   2.090  0.4149 -0.5099  0.0803
 7187SOL    HW133194   0.035   0.043   2.139  0.1645 -0.2895  0.5756
 7187SOL    HW233195   4.722   0.099   2.008  1.2413 -0.2006  0.5395
 7188SOL     OW33196   2.392   2.134   2.436  0.0766 -0.2896 -0.1403
 7188SOL    HW133197   2.463   2.145   2.499  1.3450 -0.4301 -1.5820
 7188SOL    HW233198   2.349   2.220   2.434 -1.0766 -0.9479 -3.1106
 7189SOL     OW33199   2.626   0.124   2.762 -0.6188  0.8099 -0.0592
 7189SOL    HW133200   2.604   0.154   2.850  3.7219 -0.9622  1.6129
 7189SOL    HW233201   2.567   0.049   2.755  1.1034 -0.4407 -1.1804
 7190SOL     OW33202   0.762   4.500   7.757  0.0744 -0.8871 -0.5659
 7190SOL    HW133203   0.813   4.580   7.764 -2.0230  0.3138  1.3050
 7190SOL    HW233204   0.819   4.440   7.709 -0.2992 -1.6973 -0.0046
 7191SOL     OW33205   0.613   0.202   6.725 -0.0347  0.6171  0.0298
 7191SOL    HW133206   0.634   0.135   6.660 -2.5338 -0.1783  0.0337
 7191SOL    HW233207   0.556   0.145   6.775 -1.1367 -0.3681 -2.3247
 7192SOL     OW33208   2.175   1.234  16.898 -0.3140  0.1105 -0.4103
 7192SOL    HW133209   2.129   1.292  16.837 -1.5344 -1.2452 -0.7856
 7192SOL    HW233210   2.158   1.272  16.985  2.9632 -0.6305  0.5473
 7193SOL     OW33211   4.116   1.988  16.203 -0.3546  0.3790 -0.1265
 7193SOL    HW133212   4.200   2.033  16.212  0.3610 -0.9077 -0.4284
 7193SOL    HW233213   4.058   2.055  16.167 -0.7600  0.0522 -0.0790
 7194SOL     OW33214   0.257   1.336   9.428  0.2017 -0.1224 -0.0686
 7194SOL    HW133215   0.202   1.318   9.505  0.5255  0.5467  0.3171
 7194SOL    HW233216   0.268   1.430   9.441  0.4836 -0.1209 -0.3355
 7195SOL     OW33217   3.098   4.061   1.762 -0.2512  0.1026  0.1344
 7195SOL    HW133218   3.175   4.118   1.756  0.6025 -1.0447  0.3089
 7195SOL    HW233219   3.031   4.119   1.727  0.7444  0.1995 -1.6330
 7196SOL     OW33220   2.299   4.619  12.417  0.2979  0.5148 -0.0646
 7196SOL    HW133221   2.330   4.669  12.492  1.5337  0.7484 -0.7216
 7196SOL    HW233222   2.281   4.533  12.455 -2.0486  1.2723  0.4923
 7197SOL     OW33223   4.594   2.207   7.839 -0.1003 -0.2726  0.7368
 7197SOL    HW133224   4.620   2.144   7.772  0.4598  1.5277 -0.7342
 7197SOL    HW233225   4.556   2.152   7.908  0.0650 -1.1964  0.0958
 7198SOL     OW33226   4.353   4.478   0.557  1.2674 -0.0275 -0.5386
 7198SOL    HW133227   4.413   4.499   0.486  1.6153 -0.6618 -0.4266
 7198SOL    HW233228   4.394   4.403   0.599  2.4411  0.9288  0.0312
 7199SOL     OW33229   2.901   3.506   1.371 -0.1700 -0.3494 -0.4483
 7199SOL    HW133230   2.931   3.495   1.461  2.1311 -0.3217 -1.2132
 7199SOL    HW233231   2.837   3.435   1.371  0.0018 -0.5062 -1.0262
 7200SOL     OW33232   2.228   4.061  11.137  0.0235  0.6558  0.0577
 7200SOL    HW133233   2.207   3.994  11.202 -0.7262 -0.1706 -1.0157
 7200SOL    HW233234   2.322   4.051  11.123 -0.0109  0.6743 -0.1975
 7201SOL     OW33235   1.632   0.019   3.263  0.1452 -0.2515  0.0199
 7201SOL    HW133236   1.545   4.720   3.283  0.2921 -0.1777  0.7853
 7201SOL    HW233237   1.634   0.104   3.308 -0.9538  0.4484 -1.2429
 7202SOL     OW33238   0.001   0.904  11.204 -0.2276 -0.1776  0.0033
 7202SOL    HW133239   0.080   0.855  11.180  0.2835  0.6156  0.0646
 7202SOL    HW233240   4.702   0.854  11.278  0.9833 -1.4381 -0.2542
 7203SOL     OW33241   3.626   1.103   7.288  0.0348 -0.0754 -0.1617
 7203SOL    HW133242   3.538   1.139   7.303 -0.7643 -0.7172 -3.3602
 7203SOL    HW233243   3.605   1.022   7.242  0.6916  0.6467 -1.7056
 7204SOL     OW33244   3.479   2.421  11.216 -0.0483 -0.5847 -0.1247
 7204SOL    HW133245   3.414   2.435  11.286 -0.8768 -1.6745 -0.6857
 7204SOL    HW233246   3.430   2.472  11.152 -0.3040 -1.8865 -0.9557
 7205SOL     OW33247   0.613   1.651   2.477 -0.3227  0.0881 -0.0733
 7205SOL    HW133248   0.594   1.624   2.567  1.4604 -0.5353  0.1094
 7205SOL    HW233249   0.650   1.739   2.475 -1.9876  0.7217 -3.6221
 7206SOL     OW33250   3.541   0.146   4.226 -0.5594 -0.2252 -0.2341
 7206SOL    HW133251   3.569   0.237   4.237  1.1550 -0.7101 -0.4642
 7206SOL    HW233252   3.477   0.150   4.156  0.7572  2.1330 -1.2927
 7207SOL     OW33253   2.420   1.542   7.688  0.7260  0.1455  0.3298
 7207SOL    HW133254   2.491   1.511   7.746 -0.3239 -0.7417  1.1605
 7207SOL    HW233255   2.450   1.528   7.599  0.8361  3.6086 -0.1425
 7208SOL     OW33256   1.186   0.015   6.501 -0.2955 -0.4979  0.5807
 7208SOL    HW133257   1.249   0.086   6.492  0.3434 -1.0942  0.3347
 7208SOL    HW233258   1.189   4.709   6.415  0.2097  0.2536  0.2263
 7209SOL     OW33259   0.616   2.474   0.847 -0.3506  0.1313 -0.0523
 7209SOL    HW133260   0.653   2.494   0.762  2.1442  1.4782  1.3495
 7209SOL    HW233261   0.621   2.556   0.897 -0.3988 -1.6795  2.9614
 7210SOL     OW33262   0.157   4.303  10.090 -0.0599  0.1286  0.1046
 7210SOL    HW133263   0.217   4.231  10.072 -2.4967 -1.5662 -1.2262
 7210SOL    HW233264   0.223   4.371  10.103 -0.5334  0.1711  2.1831
 7211SOL     OW33265   4.643   3.795   6.378 -0.8816  0.2946  0.2118
 7211SOL    HW133266   4.581   3.777   6.449  0.5192  0.8921  1.5727
 7211SOL    HW233267   4.718   3.821   6.431 -0.3011 -2.5763  0.8314
 7212SOL     OW33268   3.387   0.510   0.199 -0.0020  0.1240 -0.4308
 7212SOL    HW133269   3.433   0.513   0.116 -0.3615 -1.3388 -0.6752
 7212SOL    HW233270   3.389   0.415   0.208 -1.2269  0.3611  2.5267
 7213SOL     OW33271   3.262   1.289   1.444 -0.3759 -0.2166  0.2829
 7213SOL    HW133272   3.299   1.315   1.360 -1.4556 -2.0777 -0.7576
 7213SOL    HW233273   3.197   1.359   1.453 -0.9392 -0.7161  0.0645
 7214SOL     OW33274   0.386   4.124   7.390 -0.1281  0.3979 -0.6786
 7214SOL    HW133275   0.388   4.217   7.414  0.7332 -0.5424  2.9176
 7214SOL    HW233276   0.310   4.123   7.332 -0.4445  1.3214 -0.2879
 7215SOL     OW33277   4.664   0.228   6.015 -0.3399 -0.3723  0.0465
 7215SOL    HW133278   4.623   0.142   6.011 -1.6773  0.1787  1.8919
 7215SOL    HW233279   4.623   0.269   6.091  1.4271 -1.0465  1.3667
 7216SOL     OW33280   4.715   3.252  15.204  0.3203 -0.5602 -0.3172
 7216SOL    HW133281   4.710   3.316  15.133  2.0640 -0.4707 -0.3702
 7216SOL    HW233282   0.015   3.174  15.163  0.5936  0.0820 -1.2935
 7217SOL     OW33283   0.333   2.307   5.970  0.3101 -0.1272  0.2090
 7217SOL    HW133284   0.283   2.227   5.983  1.4359 -0.7747  0.5799
 7217SOL    HW233285   0.338   2.340   6.060  3.6986  2.0049 -0.7605
 7218SOL     OW33286   3.261   3.985   4.974 -0.0914 -0.2990 -0.0460
 7218SOL    HW133287   3.175   3.949   4.951  1.2167 -2.2690 -1.9126
 7218SOL    HW233288   3.242   4.064   5.023 -0.1908 -0.0750 -0.4445
 7219SOL     OW33289   3.921   1.676   3.716 -1.0424 -0.2502 -0.5064
 7219SOL    HW133290   3.888   1.760   3.746  0.2847  0.3602 -0.7614
 7219SOL    HW233291   3.856   1.617   3.753 -0.8479  1.3319  2.3280
 7220SOL     OW33292   2.681   1.081  16.389  0.2039 -0.1362  0.0180
 7220SOL    HW133293   2.738   1.147  16.347 -0.4822  1.0967  1.0211
 7220SOL    HW233294   2.715   1.066  16.477 -0.9338 -3.2880 -0.0788
 7221SOL     OW33295   1.782   4.169  13.624 -0.3397  0.3601  0.1969
 7221SOL    HW133296   1.809   4.089  13.670  0.9816  0.2442 -0.8080
 7221SOL    HW233297   1.789   4.151  13.530  0.1622  1.3227  0.0515
 7222SOL     OW33298   3.853   0.806   7.054 -0.0219 -0.5024  0.4929
 7222SOL    HW133299   3.924   0.744   7.071  0.0673 -0.6934 -0.5756
 7222SOL    HW233300   3.798   0.796   7.131 -0.6078 -0.4135  0.0879
 7223SOL     OW33301   4.632   3.236   7.830 -0.0906  0.4739  0.0086
 7223SOL    HW133302   4.546   3.278   7.839 -0.1120  1.0510 -2.9279
 7223SOL    HW233303   4.634   3.225   7.735  2.0476  1.9561 -0.1078
 7224SOL     OW33304   4.481   1.316  13.590  0.2539  0.9545  0.4220
 7224SOL    HW133305   4.499   1.259  13.665 -1.6724 -0.3558 -0.1384
 7224SOL    HW233306   4.517   1.400  13.621  0.5090  0.6923  0.8469
 7225SOL     OW33307   2.717   1.594   3.908  0.0527 -0.5377 -0.4062
 7225SOL    HW133308   2.665   1.569   3.985 -0.2462  0.3150 -0.3351
 7225SOL    HW233309   2.763   1.674   3.933 -1.2114  0.5009 -1.4523
 7226SOL     OW33310   2.792   1.787   5.217 -0.1914  0.2677 -0.0429
 7226SOL    HW133311   2.873   1.822   5.179  0.5483  0.1475  1.4254
 7226SOL    HW233312   2.729   1.857   5.204 -1.5703 -1.0230 -0.2389
 7227SOL     OW33313   0.519   2.972   5.741 -0.8651 -0.1147  0.5434
 7227SOL    HW133314   0.432   2.933   5.729 -0.7847 -1.0885  3.0018
 7227SOL    HW233315   0.498   3.064   5.758 -1.9548  0.2665 -2.9794
 7228SOL     OW33316   2.536   1.261   9.898 -0.5913 -0.2364 -0.0288
 7228SOL    HW133317   2.456   1.219   9.866 -1.4411  1.4867 -0.1914
 7228SOL    HW233318   2.586   1.261   9.816  1.8368 -0.1470  1.4640
 7229SOL     OW33319   2.185   3.817  10.202  0.2064  0.5250  0.1934
 7229SOL    HW133320   2.192   3.723  10.182 -0.1560  0.6274 -0.4048
 7229SOL    HW233321   2.092   3.822  10.223 -0.0446 -1.3910 -0.4554
 7230SOL     OW33322   2.744   2.693   6.102  0.2310  0.3223 -0.0074
 7230SOL    HW133323   2.682   2.626   6.130  0.2630 -0.1110 -0.9640
 7230SOL    HW233324   2.698   2.769   6.137 -1.6014 -0.1295 -1.4426
 7231SOL     OW33325   1.078   2.223   3.486  0.3067  0.1734 -0.2780
 7231SOL    HW133326   1.159   2.196   3.530 -0.3757 -0.3997  0.6066
 7231SOL    HW233327   1.054   2.289   3.550  0.0453 -0.3755  0.1909
 7232SOL     OW33328   1.306   3.211   4.754 -0.3357 -0.7449  0.0610
 7232SOL    HW133329   1.347   3.171   4.831  0.8016 -0.6999 -0.5185
 7232SOL    HW233330   1.381   3.258   4.718  0.5164 -0.3478  2.3726
 7233SOL     OW33331   0.109   1.250   8.712 -0.2529  0.5433  0.1312
 7233SOL    HW133332   0.015   1.239   8.728  0.1298 -0.8232  1.4224
 7233SOL    HW233333   0.100   1.281   8.622  0.2904 -4.2867 -1.6046
 7234SOL     OW33334   0.875   3.785   7.653  0.3153  0.0152 -0.0459
 7234SOL    HW133335   0.893   3.736   7.734 -0.9661 -0.4391 -0.0343
 7234SOL    HW233336   0.831   3.720   7.598 -0.0981  0.5130 -0.2970
 7235SOL     OW33337   0.496   0.087   3.669  0.6312 -0.0699  0.6202
 7235SOL    HW133338   0.538   0.101   3.584 -0.1810  0.9925  0.3920
 7235SOL    HW233339   0.518   4.732   3.686  0.6641 -0.2843 -0.5992
 7236SOL     OW33340   2.812   4.326  10.604  0.1590 -0.7549 -0.0707
 7236SOL    HW133341   2.752   4.401  10.610  1.8816  0.6518 -0.2858
 7236SOL    HW233342   2.846   4.343  10.516 -0.5722 -0.7432 -0.3450
 7237SOL     OW33343   2.958   3.504   5.655  0.0463  0.0258  0.5481
 7237SOL    HW133344   2.936   3.429   5.710 -2.9423  0.4440 -0.0748
 7237SOL    HW233345   3.037   3.470   5.613 -0.4286  0.1177 -0.4255
 7238SOL     OW33346   3.935   4.571   7.214 -0.4962 -0.0003  0.1423
 7238SOL    HW133347   3.948   4.652   7.263 -1.5929  0.8275 -0.9064
 7238SOL    HW233348   3.874   4.612   7.153 -1.2119 -3.0122 -1.1988
 7239SOL     OW33349   1.493   0.582   5.181 -0.4075  0.1985 -0.1761
 7239SOL    HW133350   1.422   0.572   5.244 -1.0351  1.7629 -0.6315
 7239SOL    HW233351   1.448   0.613   5.102  0.2956  1.2708 -0.1487
 7240SOL     OW33352   3.841   2.555  11.982  0.2082  0.7999  0.0114
 7240SOL    HW133353   3.840   2.628  11.920  1.9698  0.0017 -0.9345
 7240SOL    HW233354   3.930   2.527  11.964 -0.3510 -1.9198  1.4730
 7241SOL     OW33355   2.281   1.230  13.280  0.3426  0.1007 -0.5771
 7241SOL    HW133356   2.373   1.254  13.293 -0.2913  1.0020  2.2331
 7241SOL    HW233357   2.274   1.134  13.281 -3.4345  0.3904 -0.2970
 7242SOL     OW33358   2.098   0.835   3.351 -0.2633 -0.3182  0.0653
 7242SOL    HW133359   2.160   0.795   3.411  0.0424  0.4806  0.2790
 7242SOL    HW233360   2.117   0.922   3.384  0.3752 -0.1352 -0.7661
 7243SOL     OW33361   0.987   2.527   3.986 -0.1327 -0.6165  0.5093
 7243SOL    HW133362   0.946   2.445   3.957 -0.0517  0.2239 -2.0267
 7243SOL    HW233363   0.966   2.593   3.920 -2.8660 -1.0986  0.9292
 7244SOL     OW33364   4.001   1.834   2.960  0.1715 -0.3159  0.5228
 7244SOL    HW133365   3.979   1.849   3.052 -1.5906  1.6234 -0.2045
 7244SOL    HW233366   4.006   1.922   2.923 -1.0429 -1.0981 -1.4884
 7245SOL     OW33367   0.612   0.214   6.254  0.3013 -0.3514 -0.3379
 7245SOL    HW133368   0.596   0.173   6.338  1.7202  0.8301  0.5090
 7245SOL    HW233369   0.525   0.202   6.217  0.2435 -2.5443  0.5519
 7246SOL     OW33370   2.873   3.924   9.206 -0.1952  0.7784  0.4140
 7246SOL    HW133371   2.939   3.882   9.151  0.8125  1.7287  0.8890
 7246SOL    HW233372   2.788   3.895   9.173  0.4955  2.4432 -2.7958
 7247SOL     OW33373   1.632   1.861   2.889 -0.4543 -0.8260 -0.2612
 7247SOL    HW133374   1.637   1.859   2.793 -1.4544  0.7149 -0.3584
 7247SOL    HW233375   1.724   1.875   2.913 -0.8751 -0.3728  1.0904
 7248SOL     OW33376   2.972   1.489  12.273  0.0195  0.2244 -0.0048
 7248SOL    HW133377   2.903   1.432  12.308 -0.0210  0.9236  1.0664
 7248SOL    HW233378   2.975   1.474  12.179 -0.0167  0.0194  0.0256
 7249SOL     OW33379   4.178   0.190  10.159 -0.0628  0.6746  0.0582
 7249SOL    HW133380   4.153   0.186  10.252  1.4679  0.5756  0.4565
 7249SOL    HW233381   4.216   0.278  10.158  2.2367 -0.3378 -1.1280
 7250SOL     OW33382   2.433   4.003   3.169  0.4627 -0.2044  0.1124
 7250SOL    HW133383   2.372   4.000   3.243  1.3249 -1.0929  0.8012
 7250SOL    HW233384   2.488   3.930   3.197 -0.1130  0.1769  2.2535
 7251SOL     OW33385   4.291   1.109   8.821  0.1890 -0.0911 -0.0617
 7251SOL    HW133386   4.237   1.063   8.886 -0.3779  1.4454  0.5403
 7251SOL    HW233387   4.234   1.179   8.790  1.6660 -0.0071 -2.6085
 7252SOL     OW33388   2.614   2.097   7.878  0.3276 -0.1330 -0.3075
 7252SOL    HW133389   2.549   2.166   7.889 -1.8331 -2.7143  2.9209
 7252SOL    HW233390   2.669   2.122   7.952  1.6439 -2.2351 -0.5542
 7253SOL     OW33391   3.933   0.528   7.671 -0.0004  0.0231 -0.1988
 7253SOL    HW133392   4.017   0.489   7.693 -0.3789 -0.5384  0.2664
 7253SOL    HW233393   3.915   0.589   7.742 -0.3119  2.6393 -2.5145
 7254SOL     OW33394   3.421   0.042  13.405  0.0562 -0.5525 -1.0150
 7254SOL    HW133395   3.454   0.129  13.385  2.7542 -1.3107  0.1051
 7254SOL    HW233396   3.475   4.722  13.351 -0.0989 -0.0130 -1.7399
 7255SOL     OW33397   1.823   0.583  15.472 -0.1452  0.7464  0.0082
 7255SOL    HW133398   1.918   0.588  15.480  0.2363 -2.4554 -2.7053
 7255SOL    HW233399   1.798   0.603  15.562 -2.4939 -1.4525 -0.1447
 7256SOL     OW33400   1.429   2.486  14.859  0.1661 -0.2375 -0.6956
 7256SOL    HW133401   1.453   2.397  14.886  0.9723  0.3950  0.6743
 7256SOL    HW233402   1.343   2.466  14.821  0.9045 -0.6817 -2.1451
 7257SOL     OW33403   2.362   3.778   8.643 -0.0980  0.0112  0.5722
 7257SOL    HW133404   2.294   3.809   8.703  0.9959 -0.3080  1.9717
 7257SOL    HW233405   2.422   3.853   8.643  0.1994 -0.2700 -3.1665
 7258SOL     OW33406   3.013   0.990  12.398 -0.7086 -0.7788  0.1891
 7258SOL    HW133407   3.099   1.023  12.373 -1.1069 -0.5090 -0.8209
 7258SOL    HW233408   3.029   0.897  12.414  0.0106 -1.1537 -2.8532
 7259SOL     OW33409   0.471   4.315   4.571  0.3365  0.2438 -0.3082
 7259SOL    HW133410   0.504   4.370   4.642 -2.2518  1.3534  0.0343
 7259SOL    HW233411   0.484   4.355   4.485 -0.2287 -0.8756 -0.9150
 7260SOL     OW33412   1.938   1.667   5.718 -0.0195 -0.2260 -0.0272
 7260SOL    HW133413   1.927   1.725   5.642  3.3224 -1.6284 -1.5893
 7260SOL    HW233414   1.874   1.699   5.781  0.9030  0.9123  0.3156
 7261SOL     OW33415   2.354   1.957   8.738 -0.2906 -0.1422 -0.0006
 7261SOL    HW133416   2.436   1.973   8.692  0.2672  0.4183  1.1777
 7261SOL    HW233417   2.291   1.977   8.669  0.3612 -2.4754 -1.2662
 7262SOL     OW33418   0.546   1.092   5.939 -0.1448 -0.6898  0.0705
 7262SOL    HW133419   0.489   1.026   5.901  1.8490 -0.9943 -2.3742
 7262SOL    HW233420   0.589   1.048   6.013 -0.3520  0.1455  0.6892
 7263SOL     OW33421   1.607   1.675  14.427  0.1528  0.2858  0.2477
 7263SOL    HW133422   1.551   1.598  14.437  3.2555 -2.0233 -0.3393
 7263SOL    HW233423   1.664   1.670  14.503  0.1468 -1.8950  0.0916
 7264SOL     OW33424   4.013   4.279   9.775  0.6369 -0.4853 -0.1101
 7264SOL    HW133425   4.024   4.345   9.843 -1.0337 -0.5163  0.2110
 7264SOL    HW233426   3.996   4.332   9.698  0.1422  1.5854  1.4091
 7265SOL     OW33427   0.895   1.895   9.623 -0.4199 -0.9247  0.2600
 7265SOL    HW133428   0.874   1.814   9.670  0.3260 -0.8796  0.6634
 7265SOL    HW233429   0.901   1.867   9.531  0.5472  0.8181 -0.2066
 7266SOL     OW33430   1.342   2.968   7.634  0.0570 -0.1360  0.2931
 7266SOL    HW133431   1.333   2.903   7.704 -1.2440  0.6391  0.8524
 7266SOL    HW233432   1.313   3.053   7.668 -1.0844  0.1815 -1.4847
 7267SOL     OW33433   4.619   3.847   9.455  0.0592  0.2090  0.4608
 7267SOL    HW133434   4.646   3.769   9.502  2.8927  0.6029 -0.4804
 7267SOL    HW233435   4.681   3.847   9.381  1.0461  0.2003  1.2832
 7268SOL     OW33436   0.343   4.200   8.078 -0.2346  0.1184  0.5502
 7268SOL    HW133437   0.250   4.195   8.055 -0.2958  1.7115  0.4267
 7268SOL    HW233438   0.385   4.225   7.995  0.9935 -2.6087  0.3359
 7269SOL     OW33439   2.406   2.083  15.095  0.3947  0.0313  0.1923
 7269SOL    HW133440   2.321   2.124  15.078  1.6039  2.6074  0.2585
 7269SOL    HW233441   2.382   1.991  15.102 -0.4377  0.1859 -0.6233
 7270SOL     OW33442   1.155   0.669   6.794 -0.5603  0.3760  0.1478
 7270SOL    HW133443   1.103   0.612   6.851  1.9662 -1.2326  0.8293
 7270SOL    HW233444   1.100   0.747   6.799 -0.1287  0.6622  0.3902
 7271SOL     OW33445   0.579   1.678  17.312  0.1972  0.2635 -0.1734
 7271SOL    HW133446   0.625   1.600  17.280 -1.3417 -0.7202  0.0076
 7271SOL    HW233447   0.517   1.644  17.377 -1.7011 -0.6123 -2.4474
 7272SOL     OW33448   0.683   4.262   6.661 -0.1249 -0.0652 -0.5269
 7272SOL    HW133449   0.660   4.171   6.682 -0.9517  0.8654  2.5884
 7272SOL    HW233450   0.702   4.302   6.746  1.5293  1.0595 -1.4358
 7273SOL     OW33451   3.982   0.934  10.382  0.1322 -0.1514  0.3871
 7273SOL    HW133452   3.968   0.918  10.475  1.5301 -1.5374  0.3551
 7273SOL    HW233453   4.076   0.947  10.388  0.1077  0.2109 -0.0325
 7274SOL     OW33454   3.208   0.475  12.445  0.6654  0.3568  0.2435
 7274SOL    HW133455   3.275   0.477  12.514  0.8872 -1.1121  0.0880
 7274SOL    HW233456   3.269   0.479  12.372  0.0164  0.2058 -0.3008
 7275SOL     OW33457   2.980   4.296  12.512  0.2327  0.6607  0.7872
 7275SOL    HW133458   2.900   4.252  12.539  1.1651 -2.5894 -1.7231
 7275SOL    HW233459   3.034   4.294  12.591  0.5636  1.6265  0.5833
 7276SOL     OW33460   0.205   3.100   5.862 -0.0475  0.2141 -0.2413
 7276SOL    HW133461   0.160   3.110   5.778 -0.7018  0.7216  0.1696
 7276SOL    HW233462   0.276   3.163   5.851 -0.3999  0.1957 -2.5963
 7277SOL     OW33463   3.404   4.478  11.699 -0.4088 -0.1252  0.5597
 7277SOL    HW133464   3.457   4.444  11.627  2.0311 -1.4780  2.9984
 7277SOL    HW233465   3.317   4.445  11.676 -0.5807  2.9624 -3.1756
 7278SOL     OW33466   4.021   0.570   1.837  0.4138  0.0722 -0.1852
 7278SOL    HW133467   4.015   0.555   1.931  2.1043 -3.7717 -0.6937
 7278SOL    HW233468   3.934   0.606   1.818 -0.1175 -0.4532  1.2111
 7279SOL     OW33469   4.456   1.854  14.635 -0.5757 -0.2267 -0.3825
 7279SOL    HW133470   4.465   1.774  14.686 -0.9206 -0.0450 -0.0346
 7279SOL    HW233471   4.361   1.862  14.628 -0.7015  2.1509  3.8867
 7280SOL     OW33472   4.058   3.537  10.230  0.1726 -0.5553 -0.1737
 7280SOL    HW133473   4.152   3.544  10.211 -0.0408  1.7734 -0.3082
 7280SOL    HW233474   4.047   3.557  10.323  1.6287  1.8532 -0.5120
 7281SOL     OW33475   1.501   1.150   4.531  0.1502 -0.4092  0.3689
 7281SOL    HW133476   1.459   1.130   4.614 -0.9865 -1.1937 -0.3852
 7281SOL    HW233477   1.453   1.089   4.474  0.8256 -0.3927 -0.2219
 7282SOL     OW33478   1.186   2.225   2.707 -0.4622 -0.2860 -0.1832
 7282SOL    HW133479   1.104   2.272   2.723  0.4912  0.5348  2.3493
 7282SOL    HW233480   1.164   2.132   2.708 -0.1177 -0.3482  0.9625
 7283SOL     OW33481   2.122   3.902  11.926  0.2322 -0.2264  0.2598
 7283SOL    HW133482   2.149   3.977  11.977 -2.3089  1.6900 -1.2072
 7283SOL    HW233483   2.035   3.925  11.891  0.0525  0.1074  0.9306
 7284SOL     OW33484   1.131   3.532   2.537 -0.0070  0.2376 -0.4581
 7284SOL    HW133485   1.079   3.597   2.490  2.7918  2.6229 -0.2160
 7284SOL    HW233486   1.065   3.465   2.553  0.4991 -0.5751 -1.7581
 7285SOL     OW33487   0.749   2.721  16.843  0.5239 -0.2399 -0.8237
 7285SOL    HW133488   0.789   2.640  16.812 -0.8600 -0.9841 -0.6269
 7285SOL    HW233489   0.826   2.765  16.879  1.4214  0.2502 -3.3193
 7286SOL     OW33490   4.033   1.808   6.642  0.0230  0.2023  0.3451
 7286SOL    HW133491   3.979   1.879   6.678 -0.4090 -0.7795  1.6128
 7286SOL    HW233492   4.104   1.793   6.704 -0.1770  0.4002  0.6219
 7287SOL     OW33493   1.528   2.724  13.063 -0.4201 -0.3560  0.1561
 7287SOL    HW133494   1.492   2.788  13.003 -1.5321 -1.3631 -0.2464
 7287SOL    HW233495   1.519   2.651  13.001  1.4316 -1.6695  1.4039
 7288SOL     OW33496   3.532   4.678   2.143 -0.2791  0.2234 -0.5731
 7288SOL    HW133497   3.528   4.586   2.171 -0.4115  0.6956  0.9302
 7288SOL    HW233498   3.452   4.705   2.188  1.4434  0.4606  2.3238
 7289SOL     OW33499   1.183   2.299   0.210  0.3592 -0.4515  0.3909
 7289SOL    HW133500   1.099   2.258   0.188  1.1275 -1.5785 -0.4239
 7289SOL    HW233501   1.177   2.392   0.189 -0.1842 -0.4125  0.7121
 7290SOL     OW33502   4.254   3.663   3.652  0.5822  0.6732 -0.0552
 7290SOL    HW133503   4.171   3.693   3.689  0.9010 -1.0456  2.0569
 7290SOL    HW233504   4.282   3.737   3.597 -1.5778  0.1615 -1.8292
 7291SOL     OW33505   3.320   0.546   1.977 -0.1330 -0.1060  0.3145
 7291SOL    HW133506   3.357   0.497   2.050 -1.4820 -1.2497  0.2341
 7291SOL    HW233507   3.270   0.473   1.939 -0.3282  1.0224 -1.6059
 7292SOL     OW33508   1.379   0.768   2.026 -0.5122 -0.2688 -0.0874
 7292SOL    HW133509   1.320   0.842   2.010  0.2747  0.1130 -1.2321
 7292SOL    HW233510   1.337   0.734   2.105  1.1333 -0.1510  0.8642
 7293SOL     OW33511   2.848   4.479   2.992  0.0876  0.3365  0.4558
 7293SOL    HW133512   2.815   4.425   2.920 -2.6568  1.6627  0.7243
 7293SOL    HW233513   2.853   4.407   3.055 -0.1148  0.1470  0.2568
 7294SOL     OW33514   4.633   3.245   6.386  0.0971  0.1604 -0.2339
 7294SOL    HW133515   4.690   3.322   6.386  0.5119 -0.1440  0.4236
 7294SOL    HW233516   4.601   3.250   6.476 -3.0955 -1.0021 -1.3336
 7295SOL     OW33517   0.182   3.669   7.871  0.2683 -0.3657 -0.2610
 7295SOL    HW133518   0.206   3.648   7.962  2.2767  0.6139 -0.5559
 7295SOL    HW233519   0.244   3.606   7.834 -0.4586 -0.8129 -0.7190
 7296SOL     OW33520   1.419   1.432   7.448 -0.0573  0.4952  0.0954
 7296SOL    HW133521   1.453   1.522   7.449  1.6938 -0.2252  2.7077
 7296SOL    HW233522   1.424   1.414   7.354  1.0153  0.6275  0.1276
 7297SOL     OW33523   3.661   3.703   5.688  0.6039 -0.4582  0.2438
 7297SOL    HW133524   3.574   3.708   5.728  0.2371 -0.3540 -0.5772
 7297SOL    HW233525   3.641   3.641   5.618  0.1826  1.3116 -1.2076
 7298SOL     OW33526   1.671   3.480   1.354  0.2341  0.6810 -0.9691
 7298SOL    HW133527   1.624   3.549   1.400  0.0390  1.1238 -1.8319
 7298SOL    HW233528   1.613   3.405   1.365  0.3313  0.7719  0.2120
 7299SOL     OW33529   2.735   3.053   4.089 -0.2780 -0.0577  0.1318
 7299SOL    HW133530   2.673   3.125   4.101  0.0266  0.1791  0.3075
 7299SOL    HW233531   2.817   3.102   4.100 -1.6829  2.3027  0.1839
 7300SOL     OW33532   3.950   0.120   3.873  0.1234 -0.1499  0.4281
 7300SOL    HW133533   3.928   0.027   3.873 -0.1671 -0.0793 -0.3655
 7300SOL    HW233534   3.879   0.168   3.916  1.0001  0.1042  1.6018
 7301SOL     OW33535   3.559   2.108  11.703  0.0690  0.6535  0.4396
 7301SOL    HW133536   3.626   2.063  11.753 -0.6191 -0.8945 -0.0281
 7301SOL    HW233537   3.623   2.163  11.659 -1.9380  3.1002  0.5758
 7302SOL     OW33538   3.303   1.747   8.245 -0.0750  0.2356 -0.1258
 7302SOL    HW133539   3.330   1.823   8.195 -0.1988 -1.6471 -3.0230
 7302SOL    HW233540   3.381   1.717   8.292  1.6329  1.8402 -1.9588
 7303SOL     OW33541   4.200   3.383   8.498 -0.0288 -0.1396  0.0388
 7303SOL    HW133542   4.201   3.299   8.545 -0.5887 -0.3817 -0.3767
 7303SOL    HW233543   4.198   3.448   8.569 -1.8883  2.5968 -2.5307
 7304SOL     OW33544   0.055   4.347  16.525  0.3410  0.3157  0.2541
 7304SOL    HW133545   0.057   4.406  16.449  0.3096  1.8690  1.4385
 7304SOL    HW233546   0.047   4.262  16.483 -0.2440  0.2194  0.5546
 7305SOL     OW33547   3.791   0.192   6.299  0.0731  0.3541 -0.5435
 7305SOL    HW133548   3.697   0.210   6.304  0.2122  1.6042 -2.4082
 7305SOL    HW233549   3.795   0.103   6.332  0.0453 -0.0852 -1.7294
 7306SOL     OW33550   0.928   1.444   9.492 -0.2076  0.3335 -0.1613
 7306SOL    HW133551   1.004   1.501   9.481  0.9734 -1.0676  0.8742
 7306SOL    HW233552   0.970   1.360   9.477 -1.4655 -0.4214  0.5043
 7307SOL     OW33553   2.617   3.120   7.446 -0.0831 -0.3259 -0.1946
 7307SOL    HW133554   2.704   3.080   7.452 -0.0911  0.2119  3.1094
 7307SOL    HW233555   2.565   3.040   7.444  0.3209 -0.5887 -0.0834
 7308SOL     OW33556   3.815   0.140  11.929 -0.4129 -0.3305 -0.3420
 7308SOL    HW133557   3.868   0.136  11.850  1.6599 -0.8623  1.0844
 7308SOL    HW233558   3.867   0.117  12.006  1.2721 -0.9678 -1.6709
 7309SOL     OW33559   0.808   0.282   8.834 -0.2981 -0.2772  0.3672
 7309SOL    HW133560   0.860   0.213   8.792 -1.4535 -1.3195  0.6644
 7309SOL    HW233561   0.850   0.279   8.920 -0.6229 -0.7694  0.5080
 7310SOL     OW33562   1.141   1.994   9.709  0.5607  0.0839  0.3174
 7310SOL    HW133563   1.142   1.945   9.792 -2.3769  1.0249  0.8854
 7310SOL    HW233564   1.050   1.974   9.688  0.3058  3.9264 -2.2222
 7311SOL     OW33565   2.678   4.081  10.345 -0.1039  0.2358  0.8470
 7311SOL    HW133566   2.679   4.060  10.438 -1.3893  0.6048  0.9548
 7311SOL    HW233567   2.772   4.088  10.327 -0.4068 -1.4311 -1.3485
 7312SOL     OW33568   3.157   4.123   0.461 -0.4875 -0.1372  0.3476
 7312SOL    HW133569   3.143   4.039   0.418 -1.3621 -0.2008  0.7711
 7312SOL    HW233570   3.229   4.092   0.516 -1.6810 -1.2227  1.3017
 7313SOL     OW33571   0.569   2.600  17.058 -0.1109 -0.2133 -0.6822
 7313SOL    HW133572   0.474   2.616  17.060 -0.8610 -4.9141  0.8573
 7313SOL    HW233573   0.602   2.680  17.018  1.2166 -0.4118  0.0228
 7314SOL     OW33574   3.930   2.985   4.772  0.2034  0.2437  0.6535
 7314SOL    HW133575   3.901   2.946   4.690 -0.1326 -2.6697  2.1412
 7314SOL    HW233576   3.871   2.945   4.836  0.7218 -0.8625  0.4272
 7315SOL     OW33577   2.326   1.071  11.261  0.3714  0.3282  0.3324
 7315SOL    HW133578   2.311   1.162  11.234 -3.2461 -0.8548 -1.5973
 7315SOL    HW233579   2.305   1.040  11.173  0.2624 -2.1911  1.2542
 7316SOL     OW33580   0.743   0.088   9.302  0.7287 -0.1455  0.5170
 7316SOL    HW133581   0.829   0.101   9.341  2.1976 -2.2859 -2.0234
 7316SOL    HW233582   0.686   0.129   9.367  1.9479  2.1816  0.1124
 7317SOL     OW33583   1.884   4.514   5.159 -0.3228 -0.0918 -0.5368
 7317SOL    HW133584   1.908   4.590   5.106  0.6836 -0.8240 -1.1188
 7317SOL    HW233585   1.864   4.452   5.090  1.9092 -1.3690 -0.0423
 7318SOL     OW33586   0.025   1.972   8.279  0.0058 -0.7871  0.2727
 7318SOL    HW133587   0.020   1.967   8.183  0.9011 -4.1006  0.3857
 7318SOL    HW233588   0.089   2.043   8.277 -1.1065  0.1739 -0.6399
 7319SOL     OW33589   4.693   3.790   8.691 -0.0779 -0.2662 -0.1578
 7319SOL    HW133590   4.646   3.790   8.608  2.3380  1.7489 -1.5299
 7319SOL    HW233591   4.635   3.733   8.742 -1.9166 -0.5097 -2.5467
 7320SOL     OW33592   3.329   3.809   9.616  0.1760 -0.2000  0.2769
 7320SOL    HW133593   3.319   3.714   9.619  0.0743 -0.1412  1.7730
 7320SOL    HW233594   3.244   3.843   9.590 -0.0886 -1.6564 -0.7423
 7321SOL     OW33595   1.994   4.686   9.523  0.4322  0.0627  0.4274
 7321SOL    HW133596   1.931   0.009   9.562  0.1649 -0.1980  0.3931
 7321SOL    HW233597   1.939   4.660   9.450  0.8234  3.1201 -0.9548
 7322SOL     OW33598   1.663   1.383   7.164  0.5471 -0.0653  0.5102
 7322SOL    HW133599   1.723   1.388   7.238  0.9156  0.8815  0.1519
 7322SOL    HW233600   1.729   1.399   7.096  1.9414  1.8774  2.3167
 7323SOL     OW33601   2.385   1.981   3.181  0.6969  0.4071  0.5101
 7323SOL    HW133602   2.353   1.895   3.152  3.0987 -1.2087  2.7048
 7323SOL    HW233603   2.447   1.961   3.250  0.1673  0.7814  1.0964
 7324SOL     OW33604   0.354   2.800  11.388 -0.6166 -0.0555  0.0075
 7324SOL    HW133605   0.360   2.841  11.473 -1.8532  2.0714 -0.9452
 7324SOL    HW233606   0.448   2.787  11.374 -0.4762 -0.6816  1.5502
 7325SOL     OW33607   0.166   0.635   6.769 -0.1589  0.6501  0.3414
 7325SOL    HW133608   0.202   0.683   6.695 -0.0683  0.5458  0.3174
 7325SOL    HW233609   0.252   0.612   6.805 -0.6971 -2.0388 -0.0693
 7326SOL     OW33610   3.752   0.731  11.160 -0.2867 -0.0724  0.0818
 7326SOL    HW133611   3.794   0.818  11.159  1.1761 -0.7774  1.1823
 7326SOL    HW233612   3.657   0.745  11.170  0.4273  2.6526  2.9778
 7327SOL     OW33613   1.280   2.975   8.603  0.2884 -0.0151 -0.2558
 7327SOL    HW133614   1.206   2.972   8.542  0.2351  0.0700 -0.1955
 7327SOL    HW233615   1.322   3.053   8.568  2.1306  0.6535  3.4707
 7328SOL     OW33616   3.507   1.315  16.462 -0.0463 -0.4811 -0.4644
 7328SOL    HW133617   3.432   1.280  16.509 -1.6577  2.4530 -0.8051
 7328SOL    HW233618   3.582   1.259  16.480  1.4071  2.3373  2.3221
 7329SOL     OW33619   4.632   1.159   9.647 -0.4744 -0.3373  0.4492
 7329SOL    HW133620   4.571   1.185   9.578  3.3048  0.0303 -2.7149
 7329SOL    HW233621   4.631   1.065   9.633 -0.1106 -0.3847  0.7505
 7330SOL     OW33622   3.152   4.255   4.273 -0.3683 -0.1842 -0.7350
 7330SOL    HW133623   3.141   4.277   4.180 -0.7265  1.6813 -0.2607
 7330SOL    HW233624   3.166   4.344   4.307  1.8786 -0.1607 -1.7339
 7331SOL     OW33625   2.390   3.189   1.432 -0.1426  0.1346 -0.3139
 7331SOL    HW133626   2.363   3.126   1.365 -1.3310 -0.1570  0.4461
 7331SOL    HW233627   2.304   3.185   1.474 -0.8520 -0.1601 -1.7692
 7332SOL     OW33628   1.118   0.231   3.372  0.4682 -0.5151  0.0892
 7332SOL    HW133629   1.149   0.319   3.352  0.5039 -0.7000 -0.6556
 7332SOL    HW233630   1.199   0.180   3.367  0.6182 -0.3107  0.3680
 7333SOL     OW33631   3.585   0.792   3.996  0.2727  1.0159  0.3787
 7333SOL    HW133632   3.662   0.844   3.972 -0.4794  2.1318  0.3594
 7333SOL    HW233633   3.526   0.808   3.922  0.0950  0.4034  0.3861
 7334SOL     OW33634   0.699   3.245   4.567 -0.2323 -0.0440 -0.1191
 7334SOL    HW133635   0.659   3.182   4.507  2.0886  0.5100 -2.2153
 7334SOL    HW233636   0.614   3.283   4.593 -0.8226 -1.2534 -0.2917
 7335SOL     OW33637   0.888   4.735   3.781 -1.0370 -0.2446  0.4070
 7335SOL    HW133638   0.960   0.051   3.746  0.1838 -0.7117  2.2347
 7335SOL    HW233639   0.811   0.055   3.773  0.3719  1.5320 -0.5950
 7336SOL     OW33640   3.754   1.059   8.449  0.1678  0.0385 -0.5575
 7336SOL    HW133641   3.732   0.969   8.472  0.0040 -0.0890 -1.2164
 7336SOL    HW233642   3.840   1.066   8.489  0.8838 -1.1487 -1.8926
 7337SOL     OW33643   1.908   4.313   4.716  0.1289  0.0017  0.4269
 7337SOL    HW133644   1.836   4.376   4.714 -0.3880 -0.5184  2.6650
 7337SOL    HW233645   1.919   4.298   4.622  1.8255 -1.4367  0.8416
 7338SOL     OW33646   0.048   4.582   3.916 -0.1459  0.3110 -0.0707
 7338SOL    HW133647   0.036   4.661   3.969  0.1543  1.8678 -2.3027
 7338SOL    HW233648   0.034   4.618   3.828 -1.3908  2.0352  0.8377
 7339SOL     OW33649   2.481   1.650  14.921 -0.3817 -0.2356 -0.0140
 7339SOL    HW133650   2.388   1.661  14.942 -1.2121 -2.1718 -2.7133
 7339SOL    HW233651   2.509   1.741  14.910  1.7387 -0.5930  2.3657
 7340SOL     OW33652   3.481   1.110  13.268 -0.0229 -0.1308  0.0121
 7340SOL    HW133653   3.547   1.046  13.296  1.8375  1.8683  0.2032
 7340SOL    HW233654   3.494   1.193  13.314  0.2905 -0.3002  0.2284
 7341SOL     OW33655   0.771   0.241   4.766  0.2265  0.5817 -0.3902
 7341SOL    HW133656   0.703   0.284   4.817 -0.7350 -0.0707 -1.1368
 7341SOL    HW233657   0.855   0.280   4.791 -0.1618  2.7306 -2.4640
 7342SOL     OW33658   2.613   1.292   5.295 -0.0324  0.2476 -0.2145
 7342SOL    HW133659   2.671   1.293   5.370 -1.2523 -0.1844  0.7419
 7342SOL    HW233660   2.642   1.211   5.252 -2.6729 -0.6324 -0.3583
 7343SOL     OW33661   1.385   0.155   8.398 -0.3008  0.1738 -0.2105
 7343SOL    HW133662   1.443   0.223   8.365  2.0355 -1.0583  1.3118
 7343SOL    HW233663   1.398   0.170   8.492  2.3014 -3.5246  0.0463
 7344SOL     OW33664   2.376   1.739  11.334  0.1975  0.1584  0.6385
 7344SOL    HW133665   2.426   1.660  11.312  1.5351  1.1203  0.2421
 7344SOL    HW233666   2.357   1.723  11.426  0.8058 -1.1500  0.5350
 7345SOL     OW33667   2.084   4.720   2.290  1.1822  0.4901 -0.0385
 7345SOL    HW133668   2.036   4.660   2.347 -0.2554  1.4862 -0.2296
 7345SOL    HW233669   2.035   4.708   2.210  1.1256  0.4217  0.0065
 7346SOL     OW33670   2.782   1.238   2.040 -0.4434  0.1610  0.0685
 7346SOL    HW133671   2.691   1.264   2.057 -0.4767 -0.2610  0.5252
 7346SOL    HW233672   2.773   1.145   2.059 -1.5023  0.5309  1.3918
 7347SOL     OW33673   0.170   3.950   2.329  0.1780  0.1953  0.1704
 7347SOL    HW133674   0.153   3.870   2.377 -0.6451 -0.4670 -1.2149
 7347SOL    HW233675   0.214   4.005   2.393 -1.7059  0.4350  1.2642
 7348SOL     OW33676   3.960   4.707   4.532  0.3557 -0.0164 -0.5142
 7348SOL    HW133677   3.895   4.643   4.504 -0.5441 -0.6338  3.0082
 7348SOL    HW233678   3.960   4.695   4.627  2.4218 -2.1782 -0.7756
 7349SOL     OW33679   0.537   3.230   8.184 -0.0724 -0.1764 -0.2571
 7349SOL    HW133680   0.627   3.252   8.205 -0.2474  0.6203 -0.3287
 7349SOL    HW233681   0.517   3.264   8.096 -1.7435  1.6774  0.8462
 7350SOL     OW33682   0.515   2.340   2.618  0.3863 -0.3354 -0.3928
 7350SOL    HW133683   0.475   2.426   2.609 -0.8914 -0.8102  0.7609
 7350SOL    HW233684   0.579   2.375   2.680 -2.3196  1.6759  1.2489
 7351SOL     OW33685   2.686   0.613   4.653  0.1008 -0.0547 -0.4241
 7351SOL    HW133686   2.734   0.614   4.570  3.6759  0.2317  1.6407
 7351SOL    HW233687   2.683   0.709   4.658  1.4558  0.0592 -1.7336
 7352SOL     OW33688   4.556   4.328  15.724  0.3355  0.1731  0.2634
 7352SOL    HW133689   4.494   4.284  15.667 -0.3796  0.3874  0.8755
 7352SOL    HW233690   4.635   4.275  15.717 -0.6783 -1.3097  0.2508
 7353SOL     OW33691   2.517   4.478   1.143  0.4115 -0.4133  0.5850
 7353SOL    HW133692   2.525   4.568   1.175 -1.2595  0.5965 -1.9348
 7353SOL    HW233693   2.424   4.465   1.158  0.2110  1.4724  1.0547
 7354SOL     OW33694   2.783   1.957   5.860  0.0406  0.0630  0.5368
 7354SOL    HW133695   2.715   1.894   5.838  1.7332 -1.2305 -1.0757
 7354SOL    HW233696   2.857   1.900   5.837  0.7163 -0.3057  3.6567
 7355SOL     OW33697   3.104   4.438   6.394 -0.4358  0.0544 -0.0196
 7355SOL    HW133698   3.070   4.409   6.478 -0.0220 -1.0076 -0.2257
 7355SOL    HW233699   3.038   4.412   6.330 -1.8941  2.4125  0.4902
 7356SOL     OW33700   4.187   1.108   2.643 -0.5564  0.3454  0.0399
 7356SOL    HW133701   4.211   1.192   2.605 -1.8134  0.8962  0.4723
 7356SOL    HW233702   4.230   1.044   2.586 -0.1976  1.2688 -0.7386
 7357SOL     OW33703   1.587   1.570  15.666  0.9706  0.0027  0.2629
 7357SOL    HW133704   1.677   1.552  15.694 -0.6711 -1.8461  4.4070
 7357SOL    HW233705   1.605   1.651  15.620 -1.3350 -0.6894 -1.8654
 7358SOL     OW33706   4.020   2.964  14.912 -0.1024  0.5114 -0.1075
 7358SOL    HW133707   3.990   3.049  14.880 -1.1713  0.5696  1.0462
 7358SOL    HW233708   4.090   2.989  14.972  1.6348 -1.0422 -1.4661
 7359SOL     OW33709   2.578   1.086   4.481  0.6312  0.3386  0.0823
 7359SOL    HW133710   2.629   1.004   4.479  0.3035  0.1567 -0.9495
 7359SOL    HW233711   2.568   1.107   4.573  0.8128 -0.9253  0.3905
 7360SOL     OW33712   3.156   2.261   9.420 -0.0150  0.1955 -0.0954
 7360SOL    HW133713   3.146   2.199   9.492  1.7587 -1.1956 -1.0351
 7360SOL    HW233714   3.250   2.259   9.404  0.0560 -1.6800  0.5321
 7361SOL     OW33715   3.725   0.489   2.876 -0.5123  0.4713 -0.1479
 7361SOL    HW133716   3.660   0.529   2.818  0.8001  1.4751 -0.9178
 7361SOL    HW233717   3.778   0.564   2.900  0.0886 -0.6066  1.8738
 7362SOL     OW33718   2.839   2.699   1.417  0.1851 -0.4707 -0.6282
 7362SOL    HW133719   2.795   2.751   1.350 -0.6684 -0.1847  0.1683
 7362SOL    HW233720   2.772   2.641   1.453  0.9172 -0.4723  0.7218
 7363SOL     OW33721   0.687   2.186   8.060 -0.0729  0.0765 -0.6682
 7363SOL    HW133722   0.653   2.097   8.052 -2.0384  0.9858 -2.2424
 7363SOL    HW233723   0.762   2.171   8.003 -0.6464 -0.3814 -1.2943
 7364SOL     OW33724   2.693   3.708   8.836 -0.0399  0.2253  0.2183
 7364SOL    HW133725   2.612   3.686   8.791 -0.0840  0.3799  0.2195
 7364SOL    HW233726   2.753   3.741   8.770  0.4615  1.7212  1.4115
 7365SOL     OW33727   2.660   2.908   6.326 -0.3374 -0.5815 -0.8131
 7365SOL    HW133728   2.582   2.932   6.275 -0.8958 -1.7559 -0.5356
 7365SOL    HW233729   2.723   2.972   6.294  0.7947 -0.3746  1.8528
 7366SOL     OW33730   2.825   4.369  10.345  0.6988 -0.0334  0.3570
 7366SOL    HW133731   2.753   4.379  10.282  0.5816  0.4438  0.5583
 7366SOL    HW233732   2.895   4.333  10.292 -1.0540 -1.0816 -1.2436
 7367SOL     OW33733   4.422   1.020   4.581  0.5789 -0.2497  0.0941
 7367SOL    HW133734   4.440   1.068   4.500 -3.0756  1.9072  0.5484
 7367SOL    HW233735   4.426   1.095   4.641  0.5857 -0.4905  0.3917
 7368SOL     OW33736   2.616   2.377  11.726  0.2246 -0.2671 -0.0332
 7368SOL    HW133737   2.592   2.376  11.819 -0.6083  0.4330 -0.2375
 7368SOL    HW233738   2.645   2.466  11.705 -0.3463 -0.0494  0.0983
 7369SOL     OW33739   0.237   4.529  16.118  0.5716 -0.0001 -0.2824
 7369SOL    HW133740   0.329   4.503  16.126  0.2990 -0.9772 -0.2846
 7369SOL    HW233741   0.226   4.561  16.029 -2.0550  0.0183  0.0528
 7370SOL     OW33742   2.667   2.329   6.971 -0.2043 -0.0645 -0.4365
 7370SOL    HW133743   2.592   2.277   6.999 -0.7170  1.2612  0.6435
 7370SOL    HW233744   2.718   2.331   7.052 -0.1782  0.3547 -0.4641
 7371SOL     OW33745   2.132   3.112   8.357 -0.0117  0.0635 -0.0601
 7371SOL    HW133746   2.168   3.152   8.278  0.2506 -1.6716 -0.8124
 7371SOL    HW233747   2.109   3.026   8.321 -1.8835  0.2757  0.6003
 7372SOL     OW33748   4.497   1.476   5.499  0.3946 -0.2963 -0.2761
 7372SOL    HW133749   4.403   1.485   5.487  0.6249  3.0244  0.4397
 7372SOL    HW233750   4.510   1.396   5.550 -0.7743  0.3260  0.9963
 7373SOL     OW33751   0.797   4.342   2.992 -0.3941 -0.2490  0.1422
 7373SOL    HW133752   0.804   4.437   2.984 -3.5291 -0.1228 -1.2230
 7373SOL    HW233753   0.730   4.341   3.060  0.2873 -0.8977  0.7931
 7374SOL     OW33754   3.925   2.659   8.380  0.5445  0.2244 -0.6908
 7374SOL    HW133755   3.937   2.703   8.464  1.7030  1.8383 -1.6985
 7374SOL    HW233756   4.015   2.640   8.353  0.0848 -1.3514 -1.0935
 7375SOL     OW33757   2.561   1.162   0.477 -0.0096  0.0918  0.7529
 7375SOL    HW133758   2.541   1.128   0.564  0.2912  0.7049  1.0597
 7375SOL    HW233759   2.654   1.182   0.492  0.0780 -0.8316  1.4006
 7376SOL     OW33760   0.874   3.679   8.943 -0.2091  0.4155  0.5891
 7376SOL    HW133761   0.850   3.587   8.930 -1.5294  0.3302  3.4485
 7376SOL    HW233762   0.789   3.704   8.980 -0.1647  0.0027  0.9778
 7377SOL     OW33763   3.524   1.375   7.825  0.5427  0.6031 -0.5682
 7377SOL    HW133764   3.459   1.445   7.829  0.5298  0.6277 -1.2461
 7377SOL    HW233765   3.609   1.419   7.833  0.8818 -0.3781  1.1586
 7378SOL     OW33766   4.368   2.783   0.703 -0.0497 -0.3775  0.1773
 7378SOL    HW133767   4.341   2.790   0.795 -1.7663  0.3468 -0.3946
 7378SOL    HW233768   4.294   2.823   0.658  0.9929  0.0778 -1.1193
 7379SOL     OW33769   2.500   0.255  10.040 -0.0784 -0.5607  0.2072
 7379SOL    HW133770   2.463   0.311   9.972 -1.4347 -1.0886  0.5256
 7379SOL    HW233771   2.589   0.292  10.042  0.5050 -2.0574  2.3799
 7380SOL     OW33772   4.647   1.864   1.746  0.3419 -0.1069  0.0712
 7380SOL    HW133773   4.720   1.833   1.692  0.2357  1.8865 -1.2421
 7380SOL    HW233774   4.646   1.800   1.817 -0.6884 -0.6390 -0.4268
 7381SOL     OW33775   0.311   0.231  11.030 -0.1735  0.1051 -0.3837
 7381SOL    HW133776   0.330   0.197  11.118 -0.9478  0.8959  0.0837
 7381SOL    HW233777   0.309   0.158  10.968  2.4453  0.8417 -1.3492
 7382SOL     OW33778   0.836   0.164  16.571 -0.1637 -0.5568  0.1074
 7382SOL    HW133779   0.870   0.176  16.660  1.3218 -2.7622 -0.1714
 7382SOL    HW233780   0.867   0.074  16.563  1.2838  0.1584 -2.0388
 7383SOL     OW33781   4.553   4.010   3.736 -0.1159 -0.0252 -0.4862
 7383SOL    HW133782   4.538   4.071   3.808 -2.0243 -0.0751 -0.8465
 7383SOL    HW233783   4.648   4.016   3.741 -0.2572  1.2308  0.4984
 7384SOL     OW33784   0.016   2.377   4.150  0.3045  0.3872 -0.4020
 7384SOL    HW133785   4.727   2.455   4.200  3.0902  0.1085  1.5414
 7384SOL    HW233786   4.673   2.341   4.113 -0.4655 -0.1393  1.7675
 7385SOL     OW33787   4.113   2.301   2.129  0.3419 -0.4605  0.2715
 7385SOL    HW133788   4.036   2.244   2.124 -0.4905  0.9664 -2.6232
 7385SOL    HW233789   4.089   2.371   2.068  1.9488 -0.8505 -0.8003
 7386SOL     OW33790   4.462   4.577  16.791 -0.1812  0.3338  0.0171
 7386SOL    HW133791   4.401   4.563  16.720  0.8032 -0.9505 -0.5650
 7386SOL    HW233792   4.423   4.643  16.849  0.0100  0.5324 -0.0777
 7387SOL     OW33793   1.926   1.534   2.350 -0.1693  0.3502 -0.3096
 7387SOL    HW133794   1.853   1.573   2.303  0.3154  0.7363 -0.7390
 7387SOL    HW233795   1.995   1.592   2.319  1.1970 -0.2596  1.5645
 7388SOL     OW33796   2.647   0.065   8.452 -0.3845  0.0646 -0.2802
 7388SOL    HW133797   2.710   0.035   8.387  0.6372 -0.9805  1.1796
 7388SOL    HW233798   2.568   0.090   8.404  0.2410  1.2440 -0.6758
 7389SOL     OW33799   4.237   1.424  13.669 -0.4265  0.4518  0.1495
 7389SOL    HW133800   4.324   1.394  13.641  0.0459  2.0687 -0.0884
 7389SOL    HW233801   4.240   1.519  13.676 -0.1710  0.3700  1.1461
 7390SOL     OW33802   3.377   3.907  14.000  0.2714 -0.0224  0.0268
 7390SOL    HW133803   3.316   3.839  14.031 -0.3103  0.6668  0.3884
 7390SOL    HW233804   3.451   3.903  14.060 -1.1317 -1.7704  1.6306
 7391SOL     OW33805   1.631   4.229   8.321 -0.3529  1.0276 -0.1394
 7391SOL    HW133806   1.703   4.167   8.323 -1.8404 -0.7533 -1.6246
 7391SOL    HW233807   1.557   4.177   8.352  1.0963 -1.6646 -1.2469
 7392SOL     OW33808   1.866   3.611   3.302  1.0064 -0.1412 -0.1760
 7392SOL    HW133809   1.792   3.648   3.349  1.7262 -0.5542  1.2878
 7392SOL    HW233810   1.928   3.681   3.323  1.9718 -1.2368  0.6255
 7393SOL     OW33811   4.297   0.762   8.014 -0.3826 -0.1277 -0.2301
 7393SOL    HW133812   4.350   0.824   8.064 -0.6707 -0.4102  0.4146
 7393SOL    HW233813   4.207   0.786   8.036 -0.6310 -0.7771 -0.5132
 7394SOL     OW33814   3.875   4.429   1.639  0.2598 -0.6844  0.1473
 7394SOL    HW133815   3.951   4.414   1.583  0.9740 -0.7316  1.1190
 7394SOL    HW233816   3.812   4.365   1.607 -0.1134  1.9790 -4.4770
 7395SOL     OW33817   3.440   2.704   0.705  0.5065  0.0906  0.3514
 7395SOL    HW133818   3.449   2.644   0.630 -0.2152 -0.0199  0.3613
 7395SOL    HW233819   3.465   2.664   0.788 -1.2567  0.8521  1.2314
 7396SOL     OW33820   2.549   4.521   3.052  0.1916  0.2702 -0.2233
 7396SOL    HW133821   2.572   4.467   3.128 -0.6482  2.2736  1.4351
 7396SOL    HW233822   2.631   4.519   3.002  1.7172 -0.3838  2.2896
 7397SOL     OW33823   0.179   1.616   9.735  0.3485 -0.6033 -0.0776
 7397SOL    HW133824   0.146   1.705   9.738 -1.6440 -1.4161  2.0340
 7397SOL    HW233825   0.117   1.571   9.792  1.8093 -2.6814 -0.0891
 7398SOL     OW33826   3.637   0.815   7.283 -0.2467  0.1536  0.1652
 7398SOL    HW133827   3.599   0.744   7.232  0.2308  1.2097 -1.6779
 7398SOL    HW233828   3.612   0.786   7.371  1.5814  0.1333  0.6738
 7399SOL     OW33829   3.307   0.015  16.689  0.2245 -0.3124 -0.3326
 7399SOL    HW133830   3.303   0.110  16.698 -2.0261 -0.4355 -0.0173
 7399SOL    HW233831   3.379   4.736  16.627 -0.8636  1.1655 -1.9903
 7400SOL     OW33832   1.817   2.197   5.448 -0.2454 -0.4851 -0.5955
 7400SOL    HW133833   1.734   2.151   5.436  0.2394 -1.1994 -1.1930
 7400SOL    HW233834   1.794   2.287   5.427 -1.6114 -0.5680  0.5525
 7401SOL     OW33835   0.093   0.552   7.756 -0.6209 -0.5095 -0.1056
 7401SOL    HW133836   0.177   0.510   7.737 -0.7635 -0.6875 -0.3457
 7401SOL    HW233837   0.098   0.570   7.849 -1.4256  2.2219 -0.5963
 7402SOL     OW33838   4.374   3.248  15.252 -0.4388  0.2710 -0.2125
 7402SOL    HW133839   4.429   3.221  15.179  0.1950  0.6266  0.1330
 7402SOL    HW233840   4.353   3.161  15.284 -0.2888 -0.8645 -3.3002
 7403SOL     OW33841   1.224   0.228   7.954 -0.1080 -0.1593  0.2223
 7403SOL    HW133842   1.185   0.226   8.042 -1.5117  0.0964 -0.4018
 7403SOL    HW233843   1.302   0.174   7.967 -0.1561 -0.8426 -2.3312
 7404SOL     OW33844   4.015   2.880   3.477 -0.7200 -0.3357 -0.0225
 7404SOL    HW133845   4.017   2.892   3.572  1.9691  0.9681 -0.2244
 7404SOL    HW233846   3.935   2.927   3.453 -0.4619 -0.0566 -0.3439
 7405SOL     OW33847   3.602   2.169   9.917  0.0923  0.4898 -0.2283
 7405SOL    HW133848   3.578   2.229   9.988  0.0025 -1.4968  1.4172
 7405SOL    HW233849   3.694   2.189   9.899 -0.2727 -0.0325 -2.6661
 7406SOL     OW33850   3.786   3.555   5.122 -0.4917 -0.2570 -0.0387
 7406SOL    HW133851   3.749   3.567   5.210  0.4100 -0.3523  0.3545
 7406SOL    HW233852   3.854   3.489   5.135 -1.3317 -0.9872  0.7526
 7407SOL     OW33853   4.233   0.976   0.681 -0.1930  0.2726  1.0816
 7407SOL    HW133854   4.247   1.011   0.593  1.2108 -0.3891  1.0294
 7407SOL    HW233855   4.175   1.041   0.719 -0.3946  0.6843  0.0584
 7408SOL     OW33856   4.243   0.469   4.167 -0.1584 -0.0966 -0.8008
 7408SOL    HW133857   4.338   0.480   4.166 -0.4803  2.7032 -1.6935
 7408SOL    HW233858   4.225   0.462   4.073  0.9661  1.0569 -1.1113
 7409SOL     OW33859   0.282   1.891   5.300  0.5837  0.6829 -0.6475
 7409SOL    HW133860   0.370   1.876   5.334  0.4549  0.0821 -0.5755
 7409SOL    HW233861   0.290   1.980   5.268  1.2955 -0.2285 -3.0039
 7410SOL     OW33862   1.836   3.180   8.165 -0.1228 -0.1115  0.0728
 7410SOL    HW133863   1.915   3.228   8.139  1.0876 -2.1366  0.0757
 7410SOL    HW233864   1.802   3.241   8.231  1.3765  0.6451  0.1520
 7411SOL     OW33865   4.257   3.810   3.209  0.0160  0.1421 -0.1522
 7411SOL    HW133866   4.207   3.864   3.270 -1.1770 -0.4002 -0.6529
 7411SOL    HW233867   4.315   3.873   3.166  2.2635  0.6060  3.5618
 7412SOL     OW33868   1.575   4.421  13.314  0.0838 -0.0317 -0.1930
 7412SOL    HW133869   1.667   4.425  13.288 -0.1911 -0.2006 -1.1998
 7412SOL    HW233870   1.555   4.514  13.326 -0.9710  0.1230 -3.0723
 7413SOL     OW33871   2.261   0.952  13.125  0.4012  0.4084  0.1072
 7413SOL    HW133872   2.256   0.889  13.053  1.5491 -1.2499  1.4725
 7413SOL    HW233873   2.352   0.978  13.110 -0.5722  3.0683 -1.1123
 7414SOL     OW33874   2.801   1.890   1.349 -0.0561  0.1209  0.1222
 7414SOL    HW133875   2.809   1.795   1.358 -0.0569  0.1910  0.8676
 7414SOL    HW233876   2.892   1.915   1.333  0.1208 -1.7998 -1.8870
 7415SOL     OW33877   1.823   4.014   8.260 -0.0908  0.4387  0.7680
 7415SOL    HW133878   1.831   3.918   8.259 -0.0648  0.4559 -0.0167
 7415SOL    HW233879   1.823   4.026   8.166  1.9688  0.4582  0.7709
 7416SOL     OW33880   1.346   3.913   6.159  0.1618 -0.2910  0.1740
 7416SOL    HW133881   1.438   3.914   6.186  0.2534 -0.8202 -0.1215
 7416SOL    HW233882   1.318   4.004   6.161 -0.1611 -0.3513 -1.4507
 7417SOL     OW33883   2.402   3.432  10.969  0.0218  0.7886  0.4269
 7417SOL    HW133884   2.456   3.510  10.980 -0.3669  0.9369  1.3053
 7417SOL    HW233885   2.423   3.399  11.056 -1.6021  2.4542  1.4555
 7418SOL     OW33886   0.095   1.110   1.586 -0.1409  0.3225  0.0951
 7418SOL    HW133887   0.186   1.080   1.581 -0.3340 -0.4106  0.9369
 7418SOL    HW233888   0.098   1.204   1.567  0.4376  0.2225 -0.3146
 7419SOL     OW33889   0.224   3.031   3.016  0.0554 -0.0099  0.3083
 7419SOL    HW133890   0.291   2.980   3.061  0.1627 -1.0564 -1.0452
 7419SOL    HW233891   0.162   2.965   2.984 -0.8064  1.1607 -0.4643
 7420SOL     OW33892   1.930   1.824   3.952 -0.3840  0.7880 -0.2278
 7420SOL    HW133893   1.903   1.732   3.952  1.6998  0.1719 -0.9646
 7420SOL    HW233894   2.024   1.810   3.944 -0.2429  1.0241  1.0219
 7421SOL     OW33895   4.295   3.757  15.875  0.4545  0.0160 -0.2897
 7421SOL    HW133896   4.261   3.771  15.787 -2.2261  1.1582  0.9183
 7421SOL    HW233897   4.363   3.692  15.856  0.2587 -0.1743 -0.3369
 7422SOL     OW33898   0.895   1.510   6.271 -0.4677  0.3374  0.3323
 7422SOL    HW133899   0.960   1.441   6.266 -0.7930  0.2808 -2.9797
 7422SOL    HW233900   0.822   1.470   6.318 -1.2364  0.3941 -0.8228
 7423SOL     OW33901   1.433   0.905   6.136  0.7501  0.3288 -0.5476
 7423SOL    HW133902   1.373   0.883   6.065 -0.4297 -1.2337  0.9293
 7423SOL    HW233903   1.379   0.904   6.215 -0.6555  1.2375 -1.5061
 7424SOL     OW33904   2.394   4.039   7.345  0.4077 -0.2824  0.1723
 7424SOL    HW133905   2.393   3.944   7.355  2.8336 -0.3657 -0.4594
 7424SOL    HW233906   2.434   4.074   7.424  1.7747  0.0481 -0.6669
 7425SOL     OW33907   0.495   0.934   7.280 -0.3132 -0.4575  0.1487
 7425SOL    HW133908   0.448   0.932   7.364  0.5414  1.7586  0.6833
 7425SOL    HW233909   0.425   0.929   7.215  0.8398 -2.0236 -0.9625
 7426SOL     OW33910   1.147   4.658  12.789 -0.1614 -0.0768  0.0114
 7426SOL    HW133911   1.137   0.013  12.814  2.0782 -0.3186  1.8171
 7426SOL    HW233912   1.054   4.637  12.799 -0.4799  0.4993 -1.7319
 7427SOL     OW33913   1.125   0.417   2.808  0.6240  0.1933 -0.0011
 7427SOL    HW133914   1.206   0.458   2.837  0.9624  0.1000 -0.8012
 7427SOL    HW233915   1.152   0.333   2.770  1.4449  0.9596 -1.1205
 7428SOL     OW33916   1.497   2.627   2.952 -0.0122 -0.2725  0.0297
 7428SOL    HW133917   1.522   2.553   2.896 -2.4267 -1.8459  0.9911
 7428SOL    HW233918   1.407   2.626   2.919 -0.6138 -0.8277  1.7167
 7429SOL     OW33919   3.746   3.362   4.442 -1.2584 -0.5463 -0.5455
 7429SOL    HW133920   3.772   3.450   4.469 -1.6518 -0.2550 -1.0994
 7429SOL    HW233921   3.682   3.347   4.511 -0.1262 -2.3946  0.1144
 7430SOL     OW33922   2.015   1.955   3.221  0.5071  0.0959 -0.0811
 7430SOL    HW133923   1.991   1.927   3.310  1.6433  1.7185  0.7218
 7430SOL    HW233924   2.065   1.884   3.181  0.6264  0.4705 -0.5926
 7431SOL     OW33925   1.359   2.124   0.304  0.4519 -0.1780  0.5221
 7431SOL    HW133926   1.314   2.041   0.286  0.6825  0.0179 -0.9578
 7431SOL    HW233927   1.294   2.184   0.269  0.9405  0.0593  0.0244
 7432SOL     OW33928   1.513   3.968  11.732 -0.1380 -0.2786 -0.2127
 7432SOL    HW133929   1.544   3.987  11.643  0.8651  1.2712  0.4645
 7432SOL    HW233930   1.523   4.053  11.774 -1.8380 -1.6246  2.9547
 7433SOL     OW33931   2.529   1.309  13.298  0.0321 -0.2072  0.2129
 7433SOL    HW133932   2.613   1.299  13.343  0.1016 -0.0047  0.1268
 7433SOL    HW233933   2.544   1.283  13.208  0.1193 -1.8404  0.6979
 7434SOL     OW33934   3.231   1.547   5.851 -0.4116  0.1135  0.0841
 7434SOL    HW133935   3.280   1.579   5.926  0.7181 -1.7637  0.1296
 7434SOL    HW233936   3.220   1.631   5.805  0.2647 -0.1788 -0.5934
 7435SOL     OW33937   3.524   2.325  14.246 -0.9333 -0.8676  0.5737
 7435SOL    HW133938   3.549   2.302  14.157  0.0670 -1.6117  1.0541
 7435SOL    HW233939   3.442   2.275  14.244 -0.4066 -1.6142 -2.2886
 7436SOL     OW33940   2.159   2.463  17.348  0.4298 -0.2945  0.0751
 7436SOL    HW133941   2.215   2.444  17.424  0.4415 -1.6852 -0.2798
 7436SOL    HW233942   2.073   2.438  17.383  1.1197 -1.6059  0.8312
 7437SOL     OW33943   1.663   0.053   6.896 -0.3770 -0.3636 -0.1481
 7437SOL    HW133944   1.714   4.734   6.954 -1.7902 -0.4402  1.0124
 7437SOL    HW233945   1.578   0.010   6.885 -0.8252  0.3372  0.5887
 7438SOL     OW33946   0.028   3.989   4.381 -0.5925 -0.4796 -0.1277
 7438SOL    HW133947   4.677   3.992   4.419 -1.6120 -1.0620 -2.4426
 7438SOL    HW233948   0.016   3.990   4.286 -0.2325 -0.8563 -0.1785
 7439SOL     OW33949   0.466   2.801   0.744  0.0266 -0.2555 -0.4332
 7439SOL    HW133950   0.387   2.777   0.793 -0.5680  0.3949 -1.0698
 7439SOL    HW233951   0.464   2.717   0.700  0.3130  0.0353 -0.9952
 7440SOL     OW33952   1.702   2.085  12.300 -0.0459  0.0948  0.2398
 7440SOL    HW133953   1.631   2.149  12.311 -0.8541 -0.7090 -0.3516
 7440SOL    HW233954   1.657   2.027  12.239 -0.8701 -2.0594  2.8558
 7441SOL     OW33955   3.127   0.669  11.935  0.3352  0.0777 -0.7640
 7441SOL    HW133956   3.195   0.607  11.907  0.6707 -0.2048  0.6578
 7441SOL    HW233957   3.124   0.712  11.850  0.0241 -0.2700 -0.9262
 7442SOL     OW33958   3.056   3.742   6.889 -0.1452  0.0259 -0.5029
 7442SOL    HW133959   3.075   3.835   6.877  1.4120 -0.1674  0.5226
 7442SOL    HW233960   3.105   3.729   6.970  0.8237  0.5239 -1.0090
 7443SOL     OW33961   3.372   0.930   7.690 -0.1994 -0.2990  0.2436
 7443SOL    HW133962   3.315   0.993   7.735  0.8337  0.8437 -0.0604
 7443SOL    HW233963   3.389   0.867   7.760  0.5858  1.4263  1.6162
 7444SOL     OW33964   2.868   2.929   8.280 -0.2608  0.2683  0.0552
 7444SOL    HW133965   2.792   2.965   8.328 -0.6906 -2.9080  1.7684
 7444SOL    HW233966   2.934   2.980   8.327  0.3019  1.8771 -2.5105
 7445SOL     OW33967   2.163   2.416  13.353 -0.6070 -0.0373 -0.1180
 7445SOL    HW133968   2.252   2.383  13.361 -0.0186  1.6370  0.2700
 7445SOL    HW233969   2.180   2.506  13.324 -2.6585  0.0817 -0.9209
 7446SOL     OW33970   1.395   2.938   3.041 -0.2749  0.0702 -0.3997
 7446SOL    HW133971   1.415   2.900   3.126  0.2581 -2.2660 -1.5538
 7446SOL    HW233972   1.305   2.905   3.029 -0.3436 -0.0063  0.3472
 7447SOL     OW33973   0.433   1.322   6.520  0.6488 -0.2980  0.5504
 7447SOL    HW133974   0.355   1.312   6.466  0.2251 -2.6989  1.6208
 7447SOL    HW233975   0.455   1.412   6.496 -0.2758 -0.2626 -0.1616
 7448SOL     OW33976   1.574   2.068  13.624 -0.0672  0.2867 -0.3534
 7448SOL    HW133977   1.509   2.033  13.565  0.2132  0.2809 -0.6609
 7448SOL    HW233978   1.602   2.148  13.578  1.0470 -0.9934 -1.8854
 7449SOL     OW33979   2.673   1.307   1.781  0.4518  0.1553 -0.0272
 7449SOL    HW133980   2.674   1.245   1.708  0.8776 -1.0482  0.9969
 7449SOL    HW233981   2.694   1.250   1.855  1.7683  1.8970  0.9209
 7450SOL     OW33982   4.664   3.237   7.272 -0.0702  0.5815  0.7509
 7450SOL    HW133983   4.641   3.320   7.230 -0.1038  0.4021  0.4180
 7450SOL    HW233984   4.709   3.195   7.199  1.8498  2.2733  0.9824
 7451SOL     OW33985   3.039   2.611   0.049  0.1716  0.0412 -0.0764
 7451SOL    HW133986   3.118   2.582   0.095 -0.2356 -1.5825 -0.3853
 7451SOL    HW233987   3.071   2.681  17.738  1.9564 -1.6924 -1.2358
 7452SOL     OW33988   1.207   4.569   5.252 -0.1479  0.1495 -0.5121
 7452SOL    HW133989   1.248   4.647   5.289 -0.2596 -0.4893  0.9560
 7452SOL    HW233990   1.120   4.602   5.229 -0.2951 -0.2041 -0.4547
 7453SOL     OW33991   0.369   2.502  17.380 -0.3589 -0.2246 -0.7169
 7453SOL    HW133992   0.351   2.472  17.291 -0.4394 -0.2095 -0.7058
 7453SOL    HW233993   0.300   2.453  17.425  0.2767 -0.4290  0.0450
 7454SOL     OW33994   2.599   2.982  14.189  0.0567  0.0777  0.4910
 7454SOL    HW133995   2.572   2.900  14.231  0.6138 -0.8554 -0.9796
 7454SOL    HW233996   2.568   2.969  14.099  0.9032 -1.4063  0.4070
 7455SOL     OW33997   4.234   4.338   5.507 -0.9263  0.3423  0.1340
 7455SOL    HW133998   4.261   4.260   5.459 -3.0581  0.1649 -0.7674
 7455SOL    HW233999   4.211   4.401   5.439  0.3143  2.2559  1.4811
 7456SOL     OW34000   4.432   4.216   6.749 -0.0171 -0.1458  0.3008
 7456SOL    HW134001   4.479   4.226   6.666 -2.3497  0.9583 -0.8934
 7456SOL    HW234002   4.348   4.182   6.719  0.6172 -1.2338 -0.2368
 7457SOL     OW34003   4.063   1.413   0.405  1.0142  0.4619 -0.1665
 7457SOL    HW134004   4.135   1.474   0.419  1.1818  0.0722  0.7090
 7457SOL    HW234005   3.993   1.453   0.457 -0.2007 -0.7584 -0.8654
 7458SOL     OW34006   3.324   0.920   8.860 -0.5890 -1.1149 -0.0934
 7458SOL    HW134007   3.302   0.873   8.940  0.1516 -0.1195  0.7084
 7458SOL    HW234008   3.309   1.009   8.894 -1.2952 -1.3394  0.1735
 7459SOL     OW34009   1.835   4.023   7.998  0.2395  0.4467 -0.5254
 7459SOL    HW134010   1.883   4.101   7.972  0.7898 -0.1099 -1.2065
 7459SOL    HW234011   1.773   4.002   7.928 -1.4545  2.8556  0.2793
 7460SOL     OW34012   1.460   2.567  11.870  0.6218  0.6610 -0.9791
 7460SOL    HW134013   1.537   2.613  11.840  0.3819  0.9076 -1.2131
 7460SOL    HW234014   1.427   2.529  11.789  1.0327  0.4629 -1.0536
 7461SOL     OW34015   1.135   0.011   1.885 -0.2993 -0.1088 -0.5694
 7461SOL    HW134016   1.205   0.075   1.870  1.1128 -1.3064  0.9899
 7461SOL    HW234017   1.154   4.705   1.968  1.3527 -0.4868 -1.1312
 7462SOL     OW34018   2.508   2.984   2.880  0.0551 -0.1814  0.6818
 7462SOL    HW134019   2.450   2.953   2.950  1.8145  0.2052  2.2767
 7462SOL    HW234020   2.480   3.074   2.864  1.4555  0.7488  3.4085
 7463SOL     OW34021   4.109   4.644   8.270 -0.9737 -0.3443  0.0435
 7463SOL    HW134022   4.066   4.729   8.270  0.0246  0.1612 -3.8167
 7463SOL    HW234023   4.203   4.665   8.275 -1.6114  2.5439 -0.1841
 7464SOL     OW34024   1.457   4.433   4.086 -0.3822 -0.2735 -0.1204
 7464SOL    HW134025   1.435   4.524   4.108 -2.6097 -1.0996  0.9898
 7464SOL    HW234026   1.395   4.384   4.140  0.2844 -0.5447  0.3992
 7465SOL     OW34027   4.258   1.181  16.807  0.1387  0.1333  0.4414
 7465SOL    HW134028   4.248   1.175  16.712  0.3735  1.1770  0.3496
 7465SOL    HW234029   4.166   1.197  16.830 -0.4814  0.3985 -2.2518
 7466SOL     OW34030   0.768   4.099   3.576  0.1320 -0.1667 -0.3321
 7466SOL    HW134031   0.849   4.084   3.527  0.1554 -0.8308 -0.0966
 7466SOL    HW234032   0.709   4.077   3.504 -1.1510  3.2343 -0.2726
 7467SOL     OW34033   0.955   3.490   1.995 -0.0866 -0.3055  0.0559
 7467SOL    HW134034   0.912   3.521   2.074  0.3239 -0.9733  0.5392
 7467SOL    HW234035   0.969   3.569   1.943 -2.0781 -0.9061 -1.3900
 7468SOL     OW34036   1.328   2.003   5.918  0.0831 -0.2960 -0.3516
 7468SOL    HW134037   1.262   2.065   5.948 -0.3794 -1.9803  2.1498
 7468SOL    HW234038   1.275   1.923   5.927  0.2357 -0.2551  0.9117
 7469SOL     OW34039   0.745   3.153   3.725  0.4115  0.5771 -0.3359
 7469SOL    HW134040   0.649   3.153   3.730  0.4487 -0.6674  0.4605
 7469SOL    HW234041   0.763   3.112   3.810 -1.0567  0.7273  0.0534
 7470SOL     OW34042   2.300   2.216   5.353 -0.4496 -0.0280  0.1139
 7470SOL    HW134043   2.268   2.235   5.265  0.2566 -0.1550 -0.1697
 7470SOL    HW234044   2.346   2.134   5.336 -0.2266  0.1232 -0.0107
 7471SOL     OW34045   1.321   4.691   3.168 -0.3804 -0.9006 -0.1995
 7471SOL    HW134046   1.309   0.044   3.137 -0.1151 -1.0516 -0.7398
 7471SOL    HW234047   1.344   4.708   3.259  0.7385  2.9981 -1.2231
 7472SOL     OW34048   1.911   3.966   5.740  0.3932 -0.3256 -0.6718
 7472SOL    HW134049   1.893   3.935   5.829 -0.1097  2.5474  0.2303
 7472SOL    HW234050   1.917   4.062   5.740  1.7812 -0.4274  0.5141
 7473SOL     OW34051   2.710   3.717  16.722 -0.2033  0.1403  0.0840
 7473SOL    HW134052   2.690   3.629  16.690 -1.6727  1.0646 -1.5833
 7473SOL    HW234053   2.744   3.760  16.643  0.5724  2.1083  1.4745
 7474SOL     OW34054   2.048   0.847   8.447 -0.0594 -0.7285 -0.6206
 7474SOL    HW134055   1.981   0.859   8.515 -0.5583 -3.5885 -0.5999
 7474SOL    HW234056   1.997   0.793   8.387 -1.3678 -0.8695  0.6077
 7475SOL     OW34057   0.927   2.435   4.992 -0.1457  0.0236  0.3310
 7475SOL    HW134058   0.842   2.416   4.954  0.4578 -0.7279 -0.6522
 7475SOL    HW234059   0.897   2.457   5.080  1.5850  1.4109  0.5832
 7476SOL     OW34060   3.189   1.633   6.233 -0.5295  0.0944  0.2289
 7476SOL    HW134061   3.176   1.578   6.310  0.1875  0.3744  0.5615
 7476SOL    HW234062   3.173   1.722   6.265 -1.0470  0.4011 -0.8891
 7477SOL     OW34063   3.796   3.893  12.566  0.1630  0.3854 -0.3924
 7477SOL    HW134064   3.844   3.969  12.599 -1.8811  2.0534 -1.3448
 7477SOL    HW234065   3.764   3.855  12.648 -1.1559  0.4169 -0.8958
 7478SOL     OW34066   3.344   4.689   9.460 -0.1218 -0.2966  0.4176
 7478SOL    HW134067   3.345   4.613   9.401  2.5920 -1.3823  1.8549
 7478SOL    HW234068   3.355   4.644   9.544 -3.1812  0.2444  1.0973
 7479SOL     OW34069   2.578   0.622   3.431 -0.3052  0.2818  0.3417
 7479SOL    HW134070   2.555   0.679   3.505 -1.0907 -0.9991  1.0880
 7479SOL    HW234071   2.650   0.576   3.474  1.4069  2.7673  0.1370
 7480SOL     OW34072   4.464   2.575  16.480 -0.3935 -0.0702  0.4654
 7480SOL    HW134073   4.552   2.568  16.443 -1.0511  0.9522 -1.2762
 7480SOL    HW234074   4.452   2.668  16.465  0.3420 -0.0827 -0.2590
 7481SOL     OW34075   0.337   0.940   7.535 -0.4627  0.1914 -0.4981
 7481SOL    HW134076   0.310   0.849   7.521 -1.4346  0.6505 -1.5371
 7481SOL    HW234077   0.299   0.955   7.621 -3.4002  0.4090 -1.8348
 7482SOL     OW34078   2.064   1.584   5.979 -0.0227  0.4114  0.2655
 7482SOL    HW134079   2.101   1.667   5.949 -0.1708  0.4874  0.2926
 7482SOL    HW234080   1.975   1.593   5.944  0.0322  1.7264  0.4823
 7483SOL     OW34081   1.807   1.053  15.354  0.1939 -0.0500 -0.8638
 7483SOL    HW134082   1.779   0.965  15.333 -3.0035  0.7558  0.0331
 7483SOL    HW234083   1.900   1.030  15.356  0.4078  0.9576  0.8714
 7484SOL     OW34084   3.202   2.774   8.361  0.6713  0.0020  0.2087
 7484SOL    HW134085   3.210   2.686   8.397 -1.3748 -0.3881 -0.3084
 7484SOL    HW234086   3.196   2.824   8.443  3.6654  1.4749 -0.4730
 7485SOL     OW34087   2.399   1.364   5.956 -0.1818  0.4404  0.0824
 7485SOL    HW134088   2.488   1.377   5.990  0.1516  0.7272 -0.8887
 7485SOL    HW234089   2.396   1.422   5.880  1.2898 -1.2370 -1.2724
 7486SOL     OW34090   4.530   2.297   4.023  0.1860 -0.7443 -0.3249
 7486SOL    HW134091   4.528   2.282   3.928 -0.2232 -0.0921 -0.4140
 7486SOL    HW234092   4.437   2.296   4.045 -0.1227 -1.9765 -1.6368
 7487SOL     OW34093   1.469   4.403   7.655  0.3058  0.0118 -0.5296
 7487SOL    HW134094   1.517   4.481   7.626 -2.0575  1.3926 -0.6992
 7487SOL    HW234095   1.524   4.330   7.626  0.7450  0.1321  0.0053
 7488SOL     OW34096   3.296   3.743   3.855 -0.1148  0.0691  0.5265
 7488SOL    HW134097   3.337   3.801   3.918 -1.0167  1.2970 -0.0122
 7488SOL    HW234098   3.203   3.754   3.874 -0.0583  0.3822  0.6234
 7489SOL     OW34099   3.908   1.523   4.330  0.2790  0.5583  0.3744
 7489SOL    HW134100   3.842   1.590   4.346 -1.2782 -1.1972  1.2680
 7489SOL    HW234101   3.882   1.502   4.241  1.3650  0.5273  0.0662
 7490SOL     OW34102   2.376   3.023  12.616 -0.4235  0.7177  0.2160
 7490SOL    HW134103   2.466   3.000  12.640 -0.1390  1.4646 -0.1374
 7490SOL    HW234104   2.355   2.943  12.567  0.2949  0.3440  0.5242
 7491SOL     OW34105   0.409   1.796  17.121  0.7561 -0.2594  0.2579
 7491SOL    HW134106   0.478   1.799  17.056  0.6698  0.6403  0.2137
 7491SOL    HW234107   0.450   1.745  17.191 -1.3240  0.1528  1.7907
 7492SOL     OW34108   1.378   0.806   6.472 -0.3982  0.4126 -0.6309
 7492SOL    HW134109   1.338   0.747   6.408 -0.9352 -1.7266  1.6581
 7492SOL    HW234110   1.304   0.858   6.503  1.6269  2.9126 -0.0612
 7493SOL     OW34111   4.474   3.207   8.543 -0.4592 -0.0983 -0.3844
 7493SOL    HW134112   4.570   3.209   8.540 -0.4705  1.5814  0.0634
 7493SOL    HW234113   4.469   3.302   8.557 -1.2779 -0.0645 -0.8788
 7494SOL     OW34114   1.582   0.612   4.873  0.4217 -0.1868  0.1710
 7494SOL    HW134115   1.638   0.588   4.800  0.3200  0.3895 -0.0960
 7494SOL    HW234116   1.626   0.563   4.942 -1.4762 -2.2109 -0.0602
 7495SOL     OW34117   4.117   0.142   7.702 -0.0746  0.0769 -0.3279
 7495SOL    HW134118   4.118   0.111   7.792 -0.6590 -0.3522 -0.4683
 7495SOL    HW234119   4.055   0.078   7.668  1.0451 -1.3797  0.3396
 7496SOL     OW34120   0.321   4.640   6.258  0.1880 -0.5512  0.4352
 7496SOL    HW134121   0.415   4.656   6.244  0.4105  0.1516  2.6989
 7496SOL    HW234122   0.315   4.550   6.228 -1.3983  0.3783 -1.9802
 7497SOL     OW34123   3.389   3.669   3.599 -0.2275  0.7070  0.3559
 7497SOL    HW134124   3.366   3.661   3.692  0.5151  0.0641  0.4955
 7497SOL    HW234125   3.483   3.661   3.616  0.1467 -0.3364 -2.2344
 7498SOL     OW34126   3.302   3.322   6.697  0.4941  0.0937 -0.1361
 7498SOL    HW134127   3.273   3.278   6.618  0.8131 -1.0960  0.4029
 7498SOL    HW234128   3.243   3.279   6.759  0.4575  1.3932  0.7291
 7499SOL     OW34129   0.621   0.295  17.473 -0.1296  0.3742 -0.4381
 7499SOL    HW134130   0.629   0.305  17.568 -0.3516  1.4458 -0.5247
 7499SOL    HW234131   0.659   0.373  17.432 -0.3190 -0.8304 -2.8378
 7500SOL     OW34132   3.556   0.720   1.255  0.7306  0.4070 -0.1603
 7500SOL    HW134133   3.492   0.757   1.194  0.2157  1.1814  0.8522
 7500SOL    HW234134   3.506   0.689   1.331  0.4182  3.0516  0.7157
 7501SOL     OW34135   0.610   4.245   2.831 -0.2776  0.7107  0.4025
 7501SOL    HW134136   0.694   4.261   2.873 -0.3859  0.3014  0.7885
 7501SOL    HW234137   0.564   4.324   2.859  1.0272  1.9526 -1.0160
 7502SOL     OW34138   4.227   1.187   7.974 -0.0323  0.0359  0.1803
 7502SOL    HW134139   4.176   1.212   8.051  0.5334  1.5752  0.0458
 7502SOL    HW234140   4.151   1.176   7.916  0.6679 -1.3630 -0.4653
 7503SOL     OW34141   3.735   4.422   2.373  0.1592 -0.4928 -0.0214
 7503SOL    HW134142   3.740   4.504   2.421  1.7172 -0.2533 -0.5923
 7503SOL    HW234143   3.741   4.449   2.281 -0.3413 -0.6324 -0.0969
 7504SOL     OW34144   4.028   4.466   2.248  0.0380  0.7795  0.4768
 7504SOL    HW134145   4.069   4.387   2.212  0.6334  0.0871  2.6731
 7504SOL    HW234146   3.994   4.423   2.326 -0.1016  0.6387  0.3367
 7505SOL     OW34147   3.371   4.387  13.469  0.4666  0.0715  0.1181
 7505SOL    HW134148   3.385   4.383  13.374 -0.0696 -0.6204  0.0747
 7505SOL    HW234149   3.347   4.301  13.502  1.3448  0.3215  1.4322
 7506SOL     OW34150   4.230   2.247   4.088 -0.6074 -0.2049 -0.3652
 7506SOL    HW134151   4.204   2.315   4.026 -2.9509 -2.1969 -1.5263
 7506SOL    HW234152   4.226   2.170   4.032  0.6423 -1.3249  1.0787
 7507SOL     OW34153   1.166   1.796  10.978  0.1253  0.1609 -0.4064
 7507SOL    HW134154   1.085   1.771  11.022  0.7245  0.3617  0.8362
 7507SOL    HW234155   1.231   1.757  11.037 -0.8842 -1.0305 -0.0797
 7508SOL     OW34156   4.725   3.513   5.927 -0.0249 -0.1334  0.1162
 7508SOL    HW134157   4.651   3.512   5.867 -0.4218  0.7160  0.5826
 7508SOL    HW234158   4.724   3.419   5.942 -3.7010  0.1544  1.6257
 7509SOL     OW34159   2.750   4.055  10.621  0.5414 -0.0075 -0.3276
 7509SOL    HW134160   2.765   4.146  10.644 -1.1983  0.0003  0.7357
 7509SOL    HW234161   2.738   4.012  10.706  1.3884 -0.1955 -0.3053
 7510SOL     OW34162   0.002   0.219   4.460 -0.1293 -0.2627  0.5891
 7510SOL    HW134163   4.717   0.129   4.435 -0.2909  0.1247 -0.6291
 7510SOL    HW234164   4.674   0.232   4.530  0.8612 -0.8862  1.6273
 7511SOL     OW34165   3.646   3.115   6.181 -0.1273  0.4210 -0.1242
 7511SOL    HW134166   3.692   3.186   6.225 -0.8449 -0.8765  2.7063
 7511SOL    HW234167   3.558   3.146   6.201  0.3111 -0.0665  2.6237
 7512SOL     OW34168   2.073   4.229   9.583 -0.1864  0.8099  0.0854
 7512SOL    HW134169   2.110   4.314   9.608  0.6970 -0.3546  2.7283
 7512SOL    HW234170   1.979   4.249   9.582 -0.4041 -0.3068 -3.0556
 7513SOL     OW34171   0.568   0.992   4.867  0.4674  0.5605  0.3293
 7513SOL    HW134172   0.502   1.006   4.936  0.5491  0.4508  0.4293
 7513SOL    HW234173   0.648   0.976   4.917 -0.1528  2.3143  1.8870
 7514SOL     OW34174   1.848   3.003   5.644  0.3934 -0.0281  0.1612
 7514SOL    HW134175   1.880   3.093   5.647  0.2715 -0.0341  1.6002
 7514SOL    HW234176   1.835   2.968   5.732 -2.2145  0.4920 -0.0344
 7515SOL     OW34177   1.724   1.704   6.496  0.2788  0.3461  0.0318
 7515SOL    HW134178   1.697   1.628   6.445 -0.8249  2.2182 -2.1406
 7515SOL    HW234179   1.753   1.651   6.571  1.4884 -0.3366 -0.9182
 7516SOL     OW34180   1.613   1.460   5.383 -0.3534  0.2579  0.2485
 7516SOL    HW134181   1.551   1.481   5.314 -0.8199  0.9059  0.8616
 7516SOL    HW234182   1.554   1.435   5.454  0.2986  1.3535  1.1881
 7517SOL     OW34183   1.964   2.768  14.013  0.0709  0.2014  0.2124
 7517SOL    HW134184   1.980   2.745  14.104 -0.4309  0.0398  0.2583
 7517SOL    HW234185   2.039   2.737  13.961  0.5187  2.3955 -0.4452
 7518SOL     OW34186   0.599   0.611   3.735 -0.0745  0.2869  0.1050
 7518SOL    HW134187   0.634   0.618   3.646 -0.6711  2.3145  0.0326
 7518SOL    HW234188   0.505   0.632   3.730  0.1650  1.0066 -1.3173
 7519SOL     OW34189   1.556   3.865  12.334 -0.0571  0.7030 -0.5082
 7519SOL    HW134190   1.498   3.795  12.364  0.3717  1.4123  1.9618
 7519SOL    HW234191   1.512   3.945  12.359 -0.1200  1.3567 -2.6703
 7520SOL     OW34192   0.210   3.420   3.411 -0.0159  0.4975 -0.3351
 7520SOL    HW134193   0.204   3.426   3.316  2.1305 -1.1361 -0.5931
 7520SOL    HW234194   0.240   3.330   3.426  1.6161  1.1763  0.5054
 7521SOL     OW34195   4.296   4.288   6.429  0.2380  0.4196  0.1834
 7521SOL    HW134196   4.215   4.267   6.382  0.8671 -1.2808 -0.1059
 7521SOL    HW234197   4.324   4.201   6.457  0.5451 -0.0637 -1.6157
 7522SOL     OW34198   3.495   0.893   4.216 -0.6603 -0.5501  0.6199
 7522SOL    HW134199   3.556   0.851   4.278  0.4662 -0.9570 -0.7679
 7522SOL    HW234200   3.520   0.847   4.136 -0.3461  0.6059  0.0645
 7523SOL     OW34201   1.438   1.230  16.352 -0.2837 -0.5275  0.2773
 7523SOL    HW134202   1.410   1.270  16.434 -0.2684 -0.3424  0.1905
 7523SOL    HW234203   1.487   1.154  16.385 -1.0057 -1.2914 -0.4024
 7524SOL     OW34204   0.387   2.190   4.596  0.2204 -0.0860 -1.0674
 7524SOL    HW134205   0.418   2.277   4.620  0.0477 -1.1266  2.9655
 7524SOL    HW234206   0.385   2.153   4.685  0.1220 -0.9202 -1.4148
 7525SOL     OW34207   2.384   4.248   5.880 -0.0808  0.1692  0.2462
 7525SOL    HW134208   2.307   4.302   5.865  1.1387  1.9538  0.4894
 7525SOL    HW234209   2.405   4.264   5.971 -1.7803 -0.9351  0.8335
 7526SOL     OW34210   1.204   2.575   5.291  0.0376  0.2625 -0.1201
 7526SOL    HW134211   1.278   2.564   5.232  2.1091  0.4036  2.4204
 7526SOL    HW234212   1.132   2.548   5.235  1.5052 -1.9765 -0.9125
 7527SOL     OW34213   3.034   3.350   6.292  0.2460 -0.0774 -0.5068
 7527SOL    HW134214   2.942   3.324   6.289  0.0200  0.7379 -0.4959
 7527SOL    HW234215   3.037   3.404   6.372 -0.8639 -2.7792  1.3644
 7528SOL     OW34216   3.346   4.329   8.548 -0.2447 -0.4523 -0.3708
 7528SOL    HW134217   3.433   4.368   8.547 -0.5095  0.1449  0.1582
 7528SOL    HW234218   3.380   4.244   8.520 -0.5934 -1.0564  1.0396
 7529SOL     OW34219   0.420   3.844   1.762  0.7225  0.0353 -0.2145
 7529SOL    HW134220   0.479   3.878   1.829  1.2079  0.5410 -0.8934
 7529SOL    HW234221   0.482   3.797   1.706  1.9710  1.5272 -0.0986
 7530SOL     OW34222   0.479   1.781   3.897  0.1163  0.0410 -0.2609
 7530SOL    HW134223   0.398   1.809   3.853 -0.3405  0.5876  0.9179
 7530SOL    HW234224   0.482   1.854   3.959  0.0423  0.2498 -0.5022
 7531SOL     OW34225   3.673   3.205   5.879  0.1883  0.3872 -0.0449
 7531SOL    HW134226   3.620   3.272   5.922  0.0782  1.4685 -1.8675
 7531SOL    HW234227   3.692   3.153   5.957 -0.8404 -0.3315 -0.2836
 7532SOL     OW34228   0.727   2.577   6.254  0.1503  0.0452  0.5544
 7532SOL    HW134229   0.721   2.533   6.169 -1.1616 -0.8659  1.1036
 7532SOL    HW234230   0.822   2.586   6.252  0.1655 -0.6719 -2.3360
 7533SOL     OW34231   1.109   3.091   3.364  0.5618 -0.0220  0.3637
 7533SOL    HW134232   1.174   3.086   3.434  1.1173 -0.3213 -0.1685
 7533SOL    HW234233   1.030   3.074   3.415 -0.5746  2.2843 -0.6419
 7534SOL     OW34234   1.578   2.480   6.290  0.1826  0.4389 -0.1096
 7534SOL    HW134235   1.602   2.523   6.372  0.6996 -0.4510  0.2005
 7534SOL    HW234236   1.502   2.535   6.270 -1.6826 -0.7852  3.5500
 7535SOL     OW34237   2.474   0.614   4.030 -0.6413 -0.7561  0.1194
 7535SOL    HW134238   2.417   0.680   4.068  2.1136  0.0959  2.7754
 7535SOL    HW234239   2.460   0.529   4.073 -2.1693 -1.3246 -1.4993
 7536SOL     OW34240   4.184   0.366   6.919  0.0003  0.7355 -0.7161
 7536SOL    HW134241   4.156   0.279   6.945  0.4274  1.0474  0.7463
 7536SOL    HW234242   4.233   0.384   6.999  0.1310 -0.2999 -0.5690
 7537SOL     OW34243   2.484   4.079   9.082 -0.0800  0.5883 -0.2121
 7537SOL    HW134244   2.484   4.128   9.164  0.6866  0.8721 -0.3810
 7537SOL    HW234245   2.531   3.997   9.097 -0.5410 -0.0401 -2.2392
 7538SOL     OW34246   2.877   1.652   6.690  0.9028  0.8251  0.0869
 7538SOL    HW134247   2.948   1.589   6.676 -0.5542 -0.8400  0.1666
 7538SOL    HW234248   2.798   1.603   6.666 -0.4208  1.6848  2.6040
 7539SOL     OW34249   1.321   4.154   8.363  0.4696 -0.0409 -0.9464
 7539SOL    HW134250   1.301   4.209   8.287 -2.0294  0.1985 -0.1025
 7539SOL    HW234251   1.246   4.095   8.366  0.8513 -0.4266  1.3370
 7540SOL     OW34252   4.715   4.250   3.244  0.0477  0.2027 -0.2707
 7540SOL    HW134253   0.057   4.234   3.193  0.3324  2.7005 -0.6393
 7540SOL    HW234254   0.004   4.281   3.330  0.8626  1.6054 -1.0166
 7541SOL     OW34255   4.392   2.820  14.367  0.3519  0.6466  0.1797
 7541SOL    HW134256   4.323   2.886  14.374 -0.1047 -0.0518  2.0911
 7541SOL    HW234257   4.345   2.750  14.322 -0.7814 -0.6915  3.5252
 7542SOL     OW34258   1.106   3.170   7.095  0.0324  0.0707 -0.4978
 7542SOL    HW134259   1.044   3.115   7.143 -0.4971  1.5032  0.4579
 7542SOL    HW234260   1.184   3.173   7.149 -0.2309 -0.0092 -0.1112
 7543SOL     OW34261   2.665   0.141   1.989 -0.1172 -0.6594 -0.4923
 7543SOL    HW134262   2.647   0.149   1.895  0.6325 -0.2055 -0.5956
 7543SOL    HW234263   2.581   0.114   2.027  0.1290 -2.2085 -1.0731
 7544SOL     OW34264   2.469   3.753   7.879  0.4887  0.3863 -0.5371
 7544SOL    HW134265   2.376   3.777   7.887  0.9555  2.2344 -0.7033
 7544SOL    HW234266   2.456   3.670   7.833 -2.9119  0.2159  0.7076
 7545SOL     OW34267   0.883   0.320   4.198  0.2740  0.1156 -0.2876
 7545SOL    HW134268   0.796   0.335   4.163 -0.7225  0.1327  2.1597
 7545SOL    HW234269   0.868   0.341   4.290 -1.1889  0.3047 -0.5775
 7546SOL     OW34270   3.758   2.946   7.788 -0.6608 -0.1968 -0.1170
 7546SOL    HW134271   3.772   2.866   7.838 -0.4533 -0.3542 -0.4261
 7546SOL    HW234272   3.835   2.960   7.733  0.2427 -1.8960  0.7431
 7547SOL     OW34273   3.323   2.900  17.381 -0.3608  0.2219  0.3331
 7547SOL    HW134274   3.339   2.886  17.287 -1.0156  0.9909  0.1002
 7547SOL    HW234275   3.228   2.913  17.374 -0.5558 -2.4072 -1.5796
 7548SOL     OW34276   3.970   1.237   7.486  0.3085  0.5867  0.0937
 7548SOL    HW134277   3.901   1.296   7.454 -0.5686 -0.5969 -0.2045
 7548SOL    HW234278   3.918   1.168   7.528 -1.8391  1.7983 -0.5637
 7549SOL     OW34279   3.566   2.530   2.306 -0.0791 -0.1224 -0.3569
 7549SOL    HW134280   3.569   2.453   2.364 -0.2086 -0.3985 -0.7143
 7549SOL    HW234281   3.472   2.540   2.290 -0.4246 -1.7622  0.6260
 7550SOL     OW34282   4.596   2.187   9.380  0.5151  0.3672 -0.1183
 7550SOL    HW134283   4.642   2.172   9.462 -0.0824 -1.7841 -0.1717
 7550SOL    HW234284   4.596   2.100   9.340 -0.9845  0.2140  0.2300
 7551SOL     OW34285   3.482   3.233   8.506 -0.0420  0.1536  0.0023
 7551SOL    HW134286   3.419   3.193   8.566  1.0715 -3.3325 -1.1874
 7551SOL    HW234287   3.419   3.283   8.454  1.1019  1.4797 -0.1237
 7552SOL     OW34288   4.440   4.479   6.150  0.2503 -0.1901  0.4455
 7552SOL    HW134289   4.436   4.390   6.116 -0.2580  0.8078 -2.0939
 7552SOL    HW234290   4.433   4.532   6.071  0.7650 -2.7899 -1.3531
 7553SOL     OW34291   1.389   0.526   2.839  0.1204  0.2497  0.3280
 7553SOL    HW134292   1.408   0.590   2.770 -1.7207 -0.3155 -0.7156
 7553SOL    HW234293   1.447   0.453   2.815 -1.3533 -0.5644 -0.7490
 7554SOL     OW34294   4.029   0.397   4.625 -0.1690 -0.2148  0.0114
 7554SOL    HW134295   4.069   0.377   4.709  2.0151  1.1046 -0.7345
 7554SOL    HW234296   4.076   0.473   4.593 -0.3918 -0.2239 -0.3426
 7555SOL     OW34297   2.347   2.726   6.137  0.0796 -0.0347  0.0502
 7555SOL    HW134298   2.411   2.788   6.101  0.5109 -1.1401 -1.0941
 7555SOL    HW234299   2.312   2.791   6.197  0.2344 -0.7174  0.8732
 7556SOL     OW34300   4.564   4.535   9.507  0.1135  0.6517  0.8617
 7556SOL    HW134301   4.607   4.529   9.422 -2.0904  2.7137 -0.3878
 7556SOL    HW234302   4.584   4.453   9.552  0.4193  0.6785  0.7769
 7557SOL     OW34303   0.791   3.091  12.285  0.7032 -0.1724 -0.8683
 7557SOL    HW134304   0.830   3.178  12.272 -1.2635  0.7911 -0.3220
 7557SOL    HW234305   0.851   3.036  12.236  3.0899  0.2183  1.5848
 7558SOL     OW34306   1.964   2.839   3.022  0.1510 -0.3507 -0.0189
 7558SOL    HW134307   1.887   2.798   3.061 -1.0642  0.7624 -1.2342
 7558SOL    HW234308   1.924   2.926   3.012  0.0160 -0.3670  0.3830
 7559SOL     OW34309   2.852   2.911   7.401  0.8856 -0.0481  0.5291
 7559SOL    HW134310   2.921   2.957   7.448 -0.6352  1.9661  0.8007
 7559SOL    HW234311   2.785   2.875   7.459 -1.5691  1.7604 -1.1850
 7560SOL     OW34312   0.614   4.044   6.396 -0.3876  0.3053  0.2060
 7560SOL    HW134313   0.615   3.976   6.329 -1.4339 -1.4872  2.0026
 7560SOL    HW234314   0.601   4.001   6.480 -0.5709 -1.4430 -0.7221
 7561SOL     OW34315   4.606   2.089  14.147 -0.0368  0.2948  0.1113
 7561SOL    HW134316   4.632   1.998  14.160  0.0788  0.6546  2.5044
 7561SOL    HW234317   4.520   2.097  14.189  0.2551  1.2606  0.5251
 7562SOL     OW34318   2.554   4.523  12.101  0.6456  0.0414 -0.0693
 7562SOL    HW134319   2.597   4.576  12.168 -0.8502 -1.0173  1.7234
 7562SOL    HW234320   2.601   4.552  12.022 -1.8534  2.1471 -0.7613
 7563SOL     OW34321   1.502   4.287   8.075  0.0375  0.5016 -0.7107
 7563SOL    HW134322   1.548   4.268   8.156  0.7047 -1.5504 -1.5714
 7563SOL    HW234323   1.502   4.382   8.065 -0.8476  0.5882  0.1241
 7564SOL     OW34324   0.772   3.312   9.999 -0.2351  0.4519  0.0533
 7564SOL    HW134325   0.768   3.233  10.054 -0.9326  0.8055  0.5167
 7564SOL    HW234326   0.748   3.268   9.918  0.5957 -0.8942  0.5323
 7565SOL     OW34327   3.982   0.561  14.012 -0.1354 -0.1368 -0.1771
 7565SOL    HW134328   4.066   0.594  13.981  1.1948 -1.7421  1.7226
 7565SOL    HW234329   3.942   0.638  14.050 -0.0798  0.0076 -0.4087
 7566SOL     OW34330   0.883   2.013  16.581  0.3705  0.1520  0.4448
 7566SOL    HW134331   0.830   1.945  16.540  0.7338  0.2936 -0.2437
 7566SOL    HW234332   0.960   2.023  16.526 -0.5547 -0.9140 -1.0452
 7567SOL     OW34333   0.338   0.761  14.063  0.3754 -0.2040  0.4951
 7567SOL    HW134334   0.412   0.765  14.002  0.6195  1.3385  0.9012
 7567SOL    HW234335   0.289   0.688  14.025  0.5410  1.1243 -2.2694
 7568SOL     OW34336   1.717   3.159   8.672  0.4855  0.1226 -0.0993
 7568SOL    HW134337   1.800   3.198   8.700  0.2145 -0.0212  0.9026
 7568SOL    HW234338   1.722   3.077   8.720 -0.2810 -0.4806 -1.0503
 7569SOL     OW34339   1.236   4.263   4.157  0.1042 -0.4001  0.6294
 7569SOL    HW134340   1.196   4.325   4.096 -0.2064 -0.5525  0.6821
 7569SOL    HW234341   1.161   4.204   4.168 -0.3078 -0.5101 -2.7136
 7570SOL     OW34342   0.300   0.379   8.080  0.3874  0.1596  0.1242
 7570SOL    HW134343   0.385   0.381   8.036  0.6315  1.2923  0.6313
 7570SOL    HW234344   0.313   0.417   8.168 -0.9292 -0.5433  0.6193
 7571SOL     OW34345   1.587   3.566   7.753  0.1429 -0.1713 -0.1489
 7571SOL    HW134346   1.523   3.505   7.715  0.4672  0.1008 -1.1215
 7571SOL    HW234347   1.659   3.510   7.783 -0.3229 -1.5190 -1.5496
 7572SOL     OW34348   4.641   1.500   0.412  0.0440 -0.2811 -0.2989
 7572SOL    HW134349   4.707   1.563   0.439 -1.2123  0.2928  1.4059
 7572SOL    HW234350   4.616   1.546   0.332 -2.5973  1.3212  1.4672
 7573SOL     OW34351   3.487   4.315  11.446 -0.3468  0.3215 -0.2228
 7573SOL    HW134352   3.445   4.358  11.371 -0.7241  1.1024  0.4381
 7573SOL    HW234353   3.462   4.224  11.428 -1.2946  0.3654  0.9049
 7574SOL     OW34354   4.661   0.904   0.667 -0.1519 -0.1531  0.2250
 7574SOL    HW134355   4.711   0.896   0.748  2.3109  0.4591 -1.2669
 7574SOL    HW234356   4.641   0.811   0.651  1.1986 -0.4033  0.0329
 7575SOL     OW34357   3.382   3.818   8.136  0.0036 -0.4886 -1.0749
 7575SOL    HW134358   3.447   3.887   8.127 -0.1789  0.1324  2.1205
 7575SOL    HW234359   3.307   3.871   8.108  0.3001  0.4676 -0.0653
 7576SOL     OW34360   1.188   0.850   7.611 -0.0950 -0.6400  0.0305
 7576SOL    HW134361   1.100   0.883   7.594 -0.1061 -0.2702  0.8318
 7576SOL    HW234362   1.234   0.902   7.544  0.7458 -2.4936 -0.8213
 7577SOL     OW34363   4.359   2.424   8.909 -0.1001 -0.0197 -0.0642
 7577SOL    HW134364   4.373   2.337   8.946 -0.5911 -0.4578 -0.9204
 7577SOL    HW234365   4.422   2.477   8.958  0.1625  1.0321 -1.5475
 7578SOL     OW34366   1.814   2.589  10.862 -0.2479  0.1230  0.5270
 7578SOL    HW134367   1.846   2.676  10.835 -0.1236 -0.2763 -0.6136
 7578SOL    HW234368   1.884   2.550  10.915 -2.1781 -2.2750  1.2800
 7579SOL     OW34369   1.183   0.543  14.925  0.3221  0.0165 -0.1481
 7579SOL    HW134370   1.116   0.542  14.994  0.7162 -3.1636  0.1583
 7579SOL    HW234371   1.223   0.624  14.957  1.8535 -1.5240  1.7584
 7580SOL     OW34372   0.104   2.407   2.999  0.3921 -0.3489 -0.0832
 7580SOL    HW134373   0.169   2.357   2.950  1.7932  0.8815  0.5185
 7580SOL    HW234374   0.047   2.335   3.027  1.7914 -1.9258 -1.3054
 7581SOL     OW34375   0.150   2.767  16.879 -0.2327 -0.1721 -0.1629
 7581SOL    HW134376   0.126   2.739  16.967 -0.2823 -0.4912 -0.2767
 7581SOL    HW234377   0.121   2.858  16.871  1.6548  0.5625  1.4519
 7582SOL     OW34378   2.988   2.155   5.628  0.1266 -0.3515 -0.7422
 7582SOL    HW134379   2.895   2.174   5.631  0.6525  1.9722  0.8309
 7582SOL    HW234380   2.998   2.092   5.557 -0.1587 -0.2314 -0.8863
 7583SOL     OW34381   4.505   3.681  10.174 -0.4063 -0.4641 -0.6794
 7583SOL    HW134382   4.600   3.680  10.168 -0.1266 -1.0144  3.8040
 7583SOL    HW234383   4.479   3.695  10.083 -1.2949  2.1909 -0.0338
 7584SOL     OW34384   0.335   0.101   3.888  0.2824  0.1379 -0.0604
 7584SOL    HW134385   0.311   0.008   3.882 -2.7037  1.0349 -2.3374
 7584SOL    HW234386   0.377   0.108   3.803 -2.6315 -0.0836 -1.5245
 7585SOL     OW34387   1.763   2.994   7.457 -1.0008  0.3197 -0.0608
 7585SOL    HW134388   1.837   2.933   7.452 -1.1944 -0.0326  1.4953
 7585SOL    HW234389   1.794   3.079   7.425 -3.6476  0.8539 -1.1694
 7586SOL     OW34390   0.899   3.630   7.889 -0.2473 -0.4699  0.0962
 7586SOL    HW134391   0.893   3.537   7.913  3.4794 -0.5497  0.6271
 7586SOL    HW234392   0.960   3.664   7.953  0.7068 -1.5670 -0.2258
 7587SOL     OW34393   3.194   2.089   9.646 -0.2887 -0.5314  0.1343
 7587SOL    HW134394   3.192   2.109   9.740  1.4768  0.6216 -0.0866
 7587SOL    HW234395   3.289   2.084   9.637 -0.0829 -0.1807  2.1094
 7588SOL     OW34396   1.460   3.525   7.337  0.0664 -0.2164 -0.1563
 7588SOL    HW134397   1.398   3.538   7.265  0.2377 -0.6800 -0.3871
 7588SOL    HW234398   1.476   3.610   7.379 -1.9994 -0.1255  0.4401
 7589SOL     OW34399   1.450   4.112  12.396 -0.0631  0.0744  0.4976
 7589SOL    HW134400   1.406   4.161  12.466 -1.7520  1.5671 -1.6308
 7589SOL    HW234401   1.377   4.081  12.343 -0.1609  0.5665  0.3429
 7590SOL     OW34402   3.256   0.897   5.297 -0.1226  0.1520 -0.1289
 7590SOL    HW134403   3.349   0.891   5.318 -0.0971 -0.0630 -0.3057
 7590SOL    HW234404   3.222   0.836   5.362  0.2584  0.4234  0.3288
 7591SOL     OW34405   3.811   2.511   8.181 -0.8253 -0.7753  0.3187
 7591SOL    HW134406   3.733   2.462   8.205 -2.7529  0.6008 -3.2188
 7591SOL    HW234407   3.824   2.552   8.266 -1.2283  1.3773 -0.6641
 7592SOL     OW34408   3.695   1.395   6.728  0.2240 -0.2269  0.3046
 7592SOL    HW134409   3.766   1.337   6.756 -2.2032 -2.2543  2.4026
 7592SOL    HW234410   3.741   1.468   6.688  2.6147 -2.1855 -0.5578
 7593SOL     OW34411   2.045   3.469   4.269 -0.6119 -0.4621  0.4130
 7593SOL    HW134412   2.103   3.408   4.315  1.0784 -0.1378 -1.3025
 7593SOL    HW234413   2.061   3.551   4.315  1.8539 -1.3639  1.1330
 7594SOL     OW34414   1.376   0.164   3.595 -0.0074  0.1030 -0.4356
 7594SOL    HW134415   1.458   0.137   3.636  0.0790 -2.3112 -2.2248
 7594SOL    HW234416   1.388   0.259   3.600 -1.6897  0.2677  0.6065
 7595SOL     OW34417   3.631   4.061   9.010 -0.0526 -0.4346 -0.2554
 7595SOL    HW134418   3.617   4.139   8.957  0.7585 -1.5084 -2.0324
 7595SOL    HW234419   3.619   4.097   9.098  1.9667  2.5353 -1.2045
 7596SOL     OW34420   3.307   0.685   9.600  0.0169 -0.1965 -0.2162
 7596SOL    HW134421   3.366   0.615   9.628  0.7683  0.1390 -0.9997
 7596SOL    HW234422   3.289   0.724   9.686  3.3394 -1.2775  0.9869
 7597SOL     OW34423   1.049   4.621   2.776 -0.0953 -0.3589  0.0055
 7597SOL    HW134424   0.990   4.642   2.704 -1.0081  1.7003  1.3643
 7597SOL    HW234425   1.137   4.640   2.743  0.3777 -1.2613  0.7421
 7598SOL     OW34426   1.963   4.619  16.309 -0.4650 -0.0786 -0.1289
 7598SOL    HW134427   1.988   4.624  16.216 -0.4668  0.5897 -0.0957
 7598SOL    HW234428   2.046   4.602  16.353  0.7112  1.0122 -1.8912
 7599SOL     OW34429   4.510   2.446   3.758  0.3872 -0.1139  0.2599
 7599SOL    HW134430   4.430   2.498   3.754  0.5018  0.0947  0.6993
 7599SOL    HW234431   4.495   2.374   3.696  0.6769 -0.9397  1.1434
 7600SOL     OW34432   0.782   1.285   4.899 -0.1566  0.1592 -0.4276
 7600SOL    HW134433   0.790   1.312   4.808 -1.0403  0.2979 -0.4597
 7600SOL    HW234434   0.849   1.219   4.919 -0.2741  0.3414  0.5714
 7601SOL     OW34435   4.029   3.321   4.396  0.2629 -0.7099 -0.4479
 7601SOL    HW134436   4.004   3.363   4.314  2.4783 -0.2235 -0.8847
 7601SOL    HW234437   3.938   3.309   4.422  0.8833 -1.7217  1.2697
 7602SOL     OW34438   1.822   2.745   8.516 -0.3854 -0.3024  0.1399
 7602SOL    HW134439   1.805   2.791   8.434 -0.0265 -1.1349 -0.3870
 7602SOL    HW234440   1.763   2.794   8.574  0.3180  2.1863 -1.2602
 7603SOL     OW34441   3.151   1.470   5.202  0.1625 -0.1785  0.2092
 7603SOL    HW134442   3.106   1.528   5.140  0.9075  0.2754  0.0916
 7603SOL    HW234443   3.236   1.445   5.167  1.7793  1.5544  2.8141
 7604SOL     OW34444   4.167   0.390  11.730 -1.3822 -0.7651 -0.5403
 7604SOL    HW134445   4.213   0.461  11.685  2.8519 -2.1091  1.7619
 7604SOL    HW234446   4.168   0.425  11.819 -0.3614 -2.4438  0.1051
 7605SOL     OW34447   2.889   4.356   6.243 -0.2569 -0.2171  0.7061
 7605SOL    HW134448   2.818   4.307   6.202  0.7750 -3.3526  2.7215
 7605SOL    HW234449   2.884   4.439   6.196 -0.8655 -0.2836  0.6591
 7606SOL     OW34450   0.475   1.027   3.598 -0.1260  0.3654  0.8363
 7606SOL    HW134451   0.540   0.957   3.596  0.4081  0.8303  1.8103
 7606SOL    HW234452   0.462   1.050   3.506  1.6444 -2.5530 -0.1294
 7607SOL     OW34453   4.217   4.481   6.661  0.2661 -0.6448  0.1359
 7607SOL    HW134454   4.188   4.434   6.582 -0.1700 -0.8941  0.4471
 7607SOL    HW234455   4.165   4.436   6.727  1.2522 -0.7489  0.8323
 7608SOL     OW34456   3.133   0.390   9.426  0.7534  0.0115  0.6125
 7608SOL    HW134457   3.170   0.310   9.462  1.4194  1.1961  2.5198
 7608SOL    HW234458   3.046   0.352   9.420  0.7323  0.5608 -2.7862
 7609SOL     OW34459   4.183   2.197  14.146  0.2196  0.4835 -0.1770
 7609SOL    HW134460   4.100   2.150  14.132  1.0335 -1.1404  0.3647
 7609SOL    HW234461   4.230   2.179  14.065  1.5711 -1.8929  1.1318
 7610SOL     OW34462   3.075   1.763  16.152 -0.3742 -0.1302  0.0344
 7610SOL    HW134463   3.092   1.856  16.139 -1.4610 -0.1455 -1.4251
 7610SOL    HW234464   2.991   1.756  16.108  0.0068  1.6568 -0.9848
 7611SOL     OW34465   2.829   4.409   6.539  0.0302  0.3978 -0.0060
 7611SOL    HW134466   2.832   4.356   6.460 -1.5503 -0.2451  0.3631
 7611SOL    HW234467   2.905   4.371   6.581  1.0455 -0.1574 -2.3315
 7612SOL     OW34468   4.389   2.668   9.549  0.5231  0.3426  0.0813
 7612SOL    HW134469   4.434   2.749   9.524  0.1404  1.5119  3.1528
 7612SOL    HW234470   4.423   2.601   9.491  1.5329  0.0246  1.0366
 7613SOL     OW34471   2.182   2.525   4.972 -0.4057  0.5211  0.0609
 7613SOL    HW134472   2.110   2.575   4.935  0.0500  0.4713 -0.8940
 7613SOL    HW234473   2.223   2.587   5.034 -0.6432  2.9834 -2.2461
 7614SOL     OW34474   1.932   3.749   8.030  0.3673 -0.2137  0.1484
 7614SOL    HW134475   1.929   3.845   8.023 -0.9905 -0.1195  1.8950
 7614SOL    HW234476   1.910   3.715   7.943 -0.0713  1.1836 -0.2895
 7615SOL     OW34477   1.149   0.142   6.103  0.3966 -0.3975 -0.0791
 7615SOL    HW134478   1.150   0.053   6.140  0.3052 -1.1996 -2.0260
 7615SOL    HW234479   1.054   0.156   6.095  0.1588 -1.4884  0.7989
 7616SOL     OW34480   0.567   1.375   9.945 -0.0365  0.5459 -0.1253
 7616SOL    HW134481   0.521   1.311  10.000 -1.2102  0.1458 -1.5642
 7616SOL    HW234482   0.497   1.387   9.880  0.3231  0.5521 -0.5073
 7617SOL     OW34483   0.112   1.620   2.127  0.0430  0.3204 -0.0359
 7617SOL    HW134484   0.164   1.690   2.088  0.8800 -0.3594 -0.1529
 7617SOL    HW234485   0.138   1.630   2.219 -0.5356  1.0404  0.0446
 7618SOL     OW34486   2.531   3.504   8.647 -0.2570  0.0240  0.9933
 7618SOL    HW134487   2.608   3.532   8.598 -1.0558 -3.1353 -2.0319
 7618SOL    HW234488   2.465   3.532   8.584  0.2196  2.1225  1.4019
 7619SOL     OW34489   2.232   1.394   4.017 -0.3538 -0.0911  0.9512
 7619SOL    HW134490   2.189   1.310   4.003 -0.1996  0.2104 -1.4692
 7619SOL    HW234491   2.226   1.389   4.112 -0.2147 -2.3615  0.8391
 7620SOL     OW34492   3.221   2.724   9.313 -0.1737  0.1739  0.4111
 7620SOL    HW134493   3.161   2.669   9.364  0.3698 -1.0901 -0.3245
 7620SOL    HW234494   3.291   2.729   9.377  0.3484  1.5259 -0.2708
 7621SOL     OW34495   3.718   4.191   8.408  0.1120  0.1844  0.3952
 7621SOL    HW134496   3.717   4.207   8.503 -1.3746  1.7797  0.1166
 7621SOL    HW234497   3.806   4.158   8.392  1.5751  3.9477  0.6847
 7622SOL     OW34498   4.228   4.702  12.516  0.3372 -0.3797 -0.4592
 7622SOL    HW134499   4.285   0.002  12.448 -0.7457 -1.0354 -1.7228
 7622SOL    HW234500   4.295   4.685  12.583  1.3776  0.6595 -1.2274
 7623SOL     OW34501   3.881   2.673  17.505  0.1587  0.5769 -0.2598
 7623SOL    HW134502   3.928   2.591  17.491  0.8055  0.9014  0.0401
 7623SOL    HW234503   3.935   2.729  17.560 -1.4558  2.5984 -0.7162
 7624SOL     OW34504   1.072   2.610   3.098  0.0358  0.4248 -0.0131
 7624SOL    HW134505   1.031   2.536   3.142 -1.3597  0.5467 -1.1077
 7624SOL    HW234506   1.087   2.673   3.168  2.6015 -0.0058 -0.1630
 7625SOL     OW34507   3.946   2.616   5.800  0.6435 -0.3637 -0.1016
 7625SOL    HW134508   3.927   2.608   5.707  0.8654  0.6476 -0.2293
 7625SOL    HW234509   3.862   2.660   5.818  1.3982  1.3947 -0.8092
 7626SOL     OW34510   3.678   1.315   4.926 -0.5249  0.5243  0.6336
 7626SOL    HW134511   3.684   1.351   4.838 -1.0989  0.4206  0.5506
 7626SOL    HW234512   3.738   1.364   4.982  0.0245  1.0598 -0.4243
 7627SOL     OW34513   2.915   3.266   2.633  0.5413 -0.3026  0.0625
 7627SOL    HW134514   2.880   3.341   2.586  2.1372  0.6527  0.4025
 7627SOL    HW234515   2.853   3.245   2.704 -0.5526 -0.8563 -1.0495
 7628SOL     OW34516   2.716   3.278   5.987 -0.2952  0.3843 -0.1884
 7628SOL    HW134517   2.632   3.238   5.964  1.1793 -3.0381  0.3872
 7628SOL    HW234518   2.765   3.254   5.908 -1.0487 -3.4002  0.5221
 7629SOL     OW34519   1.707   4.369   7.268 -0.6961  0.4060  0.0410
 7629SOL    HW134520   1.739   4.443   7.320 -0.0775  0.8960 -1.0439
 7629SOL    HW234521   1.617   4.359   7.298 -0.8804 -1.1399 -1.0602
 7630SOL     OW34522   1.547   2.148   2.787  0.4938 -0.8482  0.5153
 7630SOL    HW134523   1.508   2.140   2.700 -0.4478  0.5109  0.8074
 7630SOL    HW234524   1.579   2.059   2.802  1.7149 -0.4125  0.4988
 7631SOL     OW34525   4.714   2.601   8.630 -0.1178  0.0722  0.4315
 7631SOL    HW134526   0.020   2.546   8.695  1.2182  1.8527  1.0848
 7631SOL    HW234527   4.622   2.579   8.641 -0.8427  1.9848 -1.5682
 7632SOL     OW34528   2.058   2.563  14.271 -0.0998 -0.3710  0.0075
 7632SOL    HW134529   2.009   2.529  14.196 -2.9120 -2.0825  2.6218
 7632SOL    HW234530   2.103   2.488  14.311 -0.1019  0.7022  2.0299
 7633SOL     OW34531   0.478   2.471   9.434 -0.1063  0.3240 -0.1653
 7633SOL    HW134532   0.499   2.432   9.349  2.7350  1.3760  0.0422
 7633SOL    HW234533   0.384   2.458   9.436 -0.3190  1.9731  1.1363
 7634SOL     OW34534   1.544   0.888   1.624  0.3726  0.0269  0.6687
 7634SOL    HW134535   1.499   0.891   1.539  1.1755 -0.0369  0.2348
 7634SOL    HW234536   1.482   0.942   1.673 -1.4766 -0.2672 -1.3525
 7635SOL     OW34537   4.655   0.765   7.039 -0.0321  0.1548 -0.0776
 7635SOL    HW134538   4.587   0.731   6.980  0.4206  0.6845 -0.9168
 7635SOL    HW234539   4.673   0.847   6.992 -2.2841 -0.4242 -1.9794
 7636SOL     OW34540   3.986   4.218   3.623 -0.3051  0.5743  0.6251
 7636SOL    HW134541   4.072   4.239   3.660  0.8621 -2.8856 -0.1333
 7636SOL    HW234542   3.970   4.283   3.555  2.3646  0.0621 -0.4956
 7637SOL     OW34543   2.512   1.002   0.133  0.5083 -0.3566 -0.3862
 7637SOL    HW134544   2.436   1.021   0.077  1.0593 -1.4297 -1.4917
 7637SOL    HW234545   2.578   1.060   0.095  2.8969 -1.2606  2.3674
 7638SOL     OW34546   3.256   4.144   5.429 -0.3434 -0.2379 -0.5354
 7638SOL    HW134547   3.304   4.215   5.471 -0.5957 -1.1292  1.2590
 7638SOL    HW234548   3.210   4.116   5.507  1.8182 -3.3808 -0.3934
 7639SOL     OW34549   0.950   1.892   0.103  0.1169  0.2120 -0.3234
 7639SOL    HW134550   0.868   1.931   0.074  0.1817  0.3454 -0.3238
 7639SOL    HW234551   1.011   1.911   0.032  0.4414 -1.0949 -0.4073
 7640SOL     OW34552   1.716   0.845   2.795  0.1973  0.7080 -0.0425
 7640SOL    HW134553   1.682   0.931   2.820 -1.2264  1.0876 -3.2728
 7640SOL    HW234554   1.780   0.883   2.733 -2.4297  1.5638 -2.2339
 7641SOL     OW34555   2.180   2.850  13.578 -0.4247 -0.1370 -0.3462
 7641SOL    HW134556   2.182   2.777  13.516  0.2220 -0.7302  0.3649
 7641SOL    HW234557   2.086   2.865  13.566 -0.5276 -0.8393 -0.4653
 7642SOL     OW34558   2.500   3.274   3.329  0.1685  0.1746 -0.1685
 7642SOL    HW134559   2.521   3.367   3.339  0.3881  0.1596 -0.4720
 7642SOL    HW234560   2.409   3.269   3.302  0.0582 -0.3022  0.2876
 7643SOL     OW34561   4.171   0.209   1.819 -0.2563 -0.3676 -0.1921
 7643SOL    HW134562   4.255   0.176   1.788  0.1443  1.0740 -0.6539
 7643SOL    HW234563   4.126   0.230   1.737 -0.7474 -0.7852 -0.0305
 7644SOL     OW34564   2.340   4.185  11.403 -0.3394 -0.0909 -0.3638
 7644SOL    HW134565   2.414   4.239  11.432 -2.0103  1.7006  0.6248
 7644SOL    HW234566   2.346   4.209  11.311 -3.1130  2.1858  0.0473
 7645SOL     OW34567   1.980   4.571  13.800 -0.1705  0.0357 -0.3419
 7645SOL    HW134568   1.955   4.656  13.765 -0.0677 -0.2736 -1.1913
 7645SOL    HW234569   1.897   4.558  13.846 -0.7891 -0.7488 -1.6521
 7646SOL     OW34570   1.017   0.787   5.003 -0.8983  0.1566 -0.1121
 7646SOL    HW134571   1.012   0.750   4.914  1.1837  1.7470 -0.9007
 7646SOL    HW234572   0.974   0.871   4.987 -0.7566  0.2707  0.1187
 7647SOL     OW34573   3.482   0.839   3.732  0.4031  0.5007  0.4297
 7647SOL    HW134574   3.406   0.806   3.684 -0.1663  1.3981  0.7001
 7647SOL    HW234575   3.525   0.897   3.669 -0.5816 -2.8979 -3.3175
 7648SOL     OW34576   0.472   1.164   9.538 -0.4100  0.2895 -0.1371
 7648SOL    HW134577   0.400   1.226   9.532  0.3576  1.3053  1.1619
 7648SOL    HW234578   0.542   1.223   9.512  0.7339 -0.6037  0.9148
 7649SOL     OW34579   3.003   1.163  13.423  0.4572  0.1857 -0.2873
 7649SOL    HW134580   2.963   1.250  13.417  0.8237  0.5077  1.9031
 7649SOL    HW234581   3.006   1.141  13.516 -0.6503  1.3170  0.0221
 7650SOL     OW34582   3.053   3.048   3.706 -0.1365  0.2534  0.3048
 7650SOL    HW134583   3.000   2.969   3.716 -0.6142  0.3041 -1.7603
 7650SOL    HW234584   2.997   3.116   3.669 -0.0093 -1.0798 -2.3225
 7651SOL     OW34585   0.043   2.747   6.185  0.0853  0.3677 -0.5747
 7651SOL    HW134586   4.708   2.774   6.128  0.2553  0.2009 -0.8693
 7651SOL    HW234587   4.735   2.684   6.241  0.0785  0.4639 -0.4718
 7652SOL     OW34588   4.585   2.491  14.351  0.2947 -0.4210 -0.2667
 7652SOL    HW134589   4.492   2.489  14.374  0.6216 -1.2008  0.9632
 7652SOL    HW234590   4.585   2.414  14.294 -1.2260 -0.2450 -0.4980
 7653SOL     OW34591   0.537   1.813   4.516  0.4510 -0.1791 -0.3877
 7653SOL    HW134592   0.608   1.803   4.580  0.1903 -0.0248 -0.0750
 7653SOL    HW234593   0.483   1.745   4.556 -1.5825  1.1798 -0.8387
 7654SOL     OW34594   3.408   0.203   1.689 -0.1835  0.0810 -0.8217
 7654SOL    HW134595   3.316   0.223   1.705  0.1119  0.8318 -0.0757
 7654SOL    HW234596   3.417   0.116   1.729 -0.2640  1.0116  1.2499
 7655SOL     OW34597   1.739   3.898  10.540 -0.5336  0.1478 -0.0782
 7655SOL    HW134598   1.721   3.805  10.555  1.7283  0.1261  2.5874
 7655SOL    HW234599   1.709   3.938  10.622 -2.4078 -2.4046  0.4663
 7656SOL     OW34600   3.191   3.051   4.511  0.0090 -0.4438 -0.2660
 7656SOL    HW134601   3.283   3.024   4.512  0.3221  0.5992 -1.1187
 7656SOL    HW234602   3.173   3.065   4.418 -0.6186 -0.9329 -0.2119
 7657SOL     OW34603   4.445   4.622   8.625  0.1502  0.8596  0.4855
 7657SOL    HW134604   4.486   4.615   8.711  0.6412 -0.6279  0.1324
 7657SOL    HW234605   4.376   4.555   8.629 -0.6472  1.5932 -1.2968
 7658SOL     OW34606   0.978   1.141   5.426  0.1723 -0.5566  0.1190
 7658SOL    HW134607   0.934   1.213   5.382 -1.4273 -1.6319 -0.0126
 7658SOL    HW234608   0.900   1.104   5.468 -0.1544 -1.6597 -1.4688
 7659SOL     OW34609   2.866   0.379  12.002 -0.0762 -0.1963 -0.1531
 7659SOL    HW134610   2.848   0.428  12.082  2.2418 -1.3392  1.0796
 7659SOL    HW234611   2.936   0.427  11.957 -0.1313 -1.7252 -1.8597
 7660SOL     OW34612   1.483   2.256  12.296 -0.2768 -0.4303 -0.0316
 7660SOL    HW134613   1.469   2.335  12.244 -0.2208 -1.8325 -2.1454
 7660SOL    HW234614   1.412   2.251  12.360  0.5540  0.3372  0.9588
 7661SOL     OW34615   3.057   2.446   8.059  0.6184  0.2708 -0.2889
 7661SOL    HW134616   3.049   2.351   8.050  0.4267  0.2017  0.6075
 7661SOL    HW234617   2.990   2.473   8.122  1.3276 -1.0017  1.0194
 7662SOL     OW34618   3.910   1.846  14.271 -0.0493 -0.4379  0.5273
 7662SOL    HW134619   3.954   1.762  14.284 -2.3722 -1.8031 -0.3901
 7662SOL    HW234620   3.830   1.841  14.324 -1.1923 -0.4391 -1.1916
 7663SOL     OW34621   3.047   0.959   7.972 -0.0504  0.3197 -0.7410
 7663SOL    HW134622   3.094   0.984   8.051 -0.0134  2.2628 -1.3673
 7663SOL    HW234623   2.965   1.006   7.991  0.2484  0.3446  0.4730
 7664SOL     OW34624   4.326   4.082   8.211 -0.5183 -0.5798  0.6180
 7664SOL    HW134625   4.394   4.017   8.192  1.4737  2.9569 -4.2340
 7664SOL    HW234626   4.319   4.118   8.122  0.5705  2.6414  1.8729
 7665SOL     OW34627   1.374   0.405   8.192  0.0593 -0.6393  0.0637
 7665SOL    HW134628   1.312   0.464   8.235  0.6297  0.7640 -1.0344
 7665SOL    HW234629   1.391   0.449   8.109 -1.7756 -1.4749 -0.7521
 7666SOL     OW34630   0.547   0.071   9.988  0.2783  0.4313 -0.2515
 7666SOL    HW134631   0.532   4.724  10.033 -1.4115  0.1618 -1.3442
 7666SOL    HW234632   0.565   0.038   9.901  0.8088 -2.4063  0.9285
 7667SOL     OW34633   4.312   1.058   4.179  0.5548 -0.1009 -0.5090
 7667SOL    HW134634   4.378   1.093   4.119  0.1341  1.7898  0.1086
 7667SOL    HW234635   4.230   1.078   4.135 -0.0583  0.3396  0.8202
 7668SOL     OW34636   3.290   4.499   1.740  0.0521 -0.1469  0.1968
 7668SOL    HW134637   3.294   4.550   1.659  1.3338  0.4492  0.6306
 7668SOL    HW234638   3.353   4.542   1.798 -0.1770 -0.7539  0.9004
 7669SOL     OW34639   1.898   4.332   9.830 -0.5161  0.2314  0.3102
 7669SOL    HW134640   1.961   4.297   9.893  0.8771  0.9268 -0.6926
 7669SOL    HW234641   1.953   4.370   9.762 -0.5874  1.1953  0.7872
 7670SOL     OW34642   1.235   3.493   6.753 -0.2800 -0.6448 -1.0149
 7670SOL    HW134643   1.156   3.472   6.804 -0.6792  2.2486 -0.4335
 7670SOL    HW234644   1.209   3.563   6.694  1.7209  1.5844  0.7376
 7671SOL     OW34645   4.317   3.404   2.388 -0.1495  0.2004 -0.2695
 7671SOL    HW134646   4.392   3.352   2.418  0.8427  2.0556  0.4364
 7671SOL    HW234647   4.255   3.339   2.353 -1.3889  1.6509 -0.7391
 7672SOL     OW34648   2.536   3.071   8.638 -0.1915 -0.4150 -0.2911
 7672SOL    HW134649   2.445   3.099   8.633  0.6858  1.7505 -4.0909
 7672SOL    HW234650   2.567   3.139   8.699 -0.1430  0.2147 -1.0196
 7673SOL     OW34651   0.855   1.785   6.169 -0.7724 -0.4026 -0.4090
 7673SOL    HW134652   0.872   1.691   6.178  0.6214  0.2379  3.5974
 7673SOL    HW234653   0.871   1.819   6.257  1.9230 -1.2793 -0.5475
 7674SOL     OW34654   3.597   1.476   0.874  0.3087  0.1328  0.0045
 7674SOL    HW134655   3.505   1.458   0.853  0.1469 -0.3283  1.0932
 7674SOL    HW234656   3.599   1.465   0.969 -2.0334  1.7269  0.2417
 7675SOL     OW34657   2.309   3.496   3.817 -0.0384 -0.1537  0.3274
 7675SOL    HW134658   2.233   3.549   3.793 -0.3159 -1.2955 -1.2838
 7675SOL    HW234659   2.295   3.492   3.912 -1.3529 -3.6067 -0.0140
 7676SOL     OW34660   1.658   2.753  11.819  0.5258  0.5019  0.5825
 7676SOL    HW134661   1.731   2.762  11.880 -1.4688 -0.4822  3.0593
 7676SOL    HW234662   1.706   2.734  11.738  0.9353  3.4212  0.1204
 7677SOL     OW34663   1.181   2.474   4.249  0.0811 -0.3784  0.7301
 7677SOL    HW134664   1.102   2.425   4.223 -0.5684  0.7930  0.4883
 7677SOL    HW234665   1.255   2.428   4.209 -1.7565 -0.2640 -2.8237
 7678SOL     OW34666   2.806   1.334   3.894 -0.1103  0.2776 -0.0258
 7678SOL    HW134667   2.719   1.311   3.861  0.8627 -2.3150 -0.7720
 7678SOL    HW234668   2.802   1.427   3.873  1.1986  0.1283 -0.8896
 7679SOL     OW34669   3.446   3.039   8.094 -0.4849  0.0834  0.0745
 7679SOL    HW134670   3.462   3.080   8.009  0.3004  0.6429  0.4970
 7679SOL    HW234671   3.351   3.040   8.105 -0.2990  0.1734  1.6469
 7680SOL     OW34672   3.908   2.070  14.812 -0.4953 -0.3743  0.0163
 7680SOL    HW134673   3.814   2.089  14.824 -1.1583 -1.2200 -3.8467
 7680SOL    HW234674   3.917   1.982  14.847  0.8742  0.5269  1.9134
 7681SOL     OW34675   0.652   1.543   2.812  0.1435 -0.3561  0.4832
 7681SOL    HW134676   0.629   1.536   2.905 -2.8486 -0.4115 -0.2681
 7681SOL    HW234677   0.568   1.510   2.781  0.8296 -1.2900 -0.3945
 7682SOL     OW34678   0.939   3.925  14.561  0.4363 -0.0341 -0.6655
 7682SOL    HW134679   0.897   3.962  14.483  0.4902  3.6615  1.0480
 7682SOL    HW234680   0.867   3.868  14.587  1.2523 -2.3954 -3.5835
 7683SOL     OW34681   4.240   2.007   9.265  0.5514  0.4409  0.1416
 7683SOL    HW134682   4.161   1.953   9.255 -2.1839  4.1362  1.5960
 7683SOL    HW234683   4.258   2.016   9.359  3.3987 -2.1552 -0.1349
 7684SOL     OW34684   2.754   2.328   5.994 -0.4709 -0.2203  0.0808
 7684SOL    HW134685   2.698   2.251   5.983  0.5403 -0.7373 -1.4670
 7684SOL    HW234686   2.686   2.396   5.999 -0.2326 -0.0060  0.3640
 7685SOL     OW34687   4.335   4.504   3.121  0.0207 -0.0986  0.2538
 7685SOL    HW134688   4.372   4.568   3.059 -3.1101  0.4166 -1.0644
 7685SOL    HW234689   4.340   4.553   3.203 -0.7591  2.3534 -1.1711
 7686SOL     OW34690   0.031   0.595   1.987 -0.3171 -0.5342 -0.1067
 7686SOL    HW134691   4.705   0.523   1.984 -0.7276 -0.1629 -0.3789
 7686SOL    HW234692   0.042   0.604   2.082 -0.9403  0.7540 -0.1572
 7687SOL     OW34693   3.385   0.364   2.614  0.2943  0.5157  0.3192
 7687SOL    HW134694   3.385   0.395   2.523  1.6714 -0.0728  0.1146
 7687SOL    HW234695   3.438   0.435   2.650  1.6840  0.4911 -1.6731
 7688SOL     OW34696   0.711   3.779   7.326 -0.3046 -0.0084  0.1411
 7688SOL    HW134697   0.682   3.864   7.359  0.8240  0.9730 -1.3830
 7688SOL    HW234698   0.708   3.796   7.232 -0.1887  1.0496  0.3247
 7689SOL     OW34699   0.504   3.885  13.797 -0.0910 -0.4267  0.4274
 7689SOL    HW134700   0.582   3.848  13.755 -0.7341  0.0274 -1.1535
 7689SOL    HW234701   0.482   3.821  13.865 -0.4898  1.0317  1.6758
 7690SOL     OW34702   3.141   1.819  17.343 -0.0067 -0.0031  0.1923
 7690SOL    HW134703   3.234   1.796  17.340 -0.3210 -0.9516 -2.0279
 7690SOL    HW234704   3.117   1.746  17.401 -1.5139 -0.5042 -1.0510
 7691SOL     OW34705   3.029   2.263   8.677  0.4773  0.0955 -0.1594
 7691SOL    HW134706   3.122   2.279   8.659  0.1255  1.1037 -1.0988
 7691SOL    HW234707   2.981   2.309   8.608  0.2848  1.0506  0.6095
 7692SOL     OW34708   0.016   2.708   1.476 -0.2430  0.0490 -0.5627
 7692SOL    HW134709   0.041   2.690   1.385  0.4436 -1.0472 -0.1535
 7692SOL    HW234710   4.681   2.771   1.467  1.5152  2.0763 -0.4426
 7693SOL     OW34711   1.395   4.107   7.331 -1.1285 -0.0822 -0.7032
 7693SOL    HW134712   1.321   4.166   7.316 -0.7996  0.9156  1.6166
 7693SOL    HW234713   1.440   4.145   7.406 -1.1443 -2.2816  0.4181
 7694SOL     OW34714   3.666   3.463   8.439 -0.3597  0.0931 -0.1909
 7694SOL    HW134715   3.742   3.411   8.465  1.4213  1.8168 -1.9191
 7694SOL    HW234716   3.597   3.400   8.462 -0.3612 -0.1499 -0.8585
 7695SOL     OW34717   0.558   1.523   5.201 -0.6076 -0.4897  0.6294
 7695SOL    HW134718   0.550   1.456   5.268 -1.9240  0.2261  1.2058
 7695SOL    HW234719   0.468   1.557   5.207 -0.4992  0.0678 -0.7627
 7696SOL     OW34720   3.537   1.427   6.079  0.0389  0.7313 -0.2695
 7696SOL    HW134721   3.469   1.413   6.145  0.7230  0.3209  0.3531
 7696SOL    HW234722   3.561   1.517   6.099  0.4981  0.3014  1.1520
 7697SOL     OW34723   4.299   3.949  12.863 -0.1151  0.2318  0.6474
 7697SOL    HW134724   4.358   3.873  12.859 -0.8161 -0.4072  2.6013
 7697SOL    HW234725   4.235   3.931  12.932 -0.5489  1.1769  0.4834
 7698SOL     OW34726   4.491   2.911   8.073 -0.2794  0.2121  0.2698
 7698SOL    HW134727   4.524   2.943   7.989 -2.3689  0.7701 -0.3389
 7698SOL    HW234728   4.432   2.982   8.097  1.9776  1.6918  1.4533
 7699SOL     OW34729   4.522   4.402  13.300  0.0437 -0.0329  0.5289
 7699SOL    HW134730   4.611   4.409  13.335  0.1258  1.6946 -0.0046
 7699SOL    HW234731   4.541   4.351  13.222  0.6152 -0.3169  0.8537
 7700SOL     OW34732   1.525   2.906   6.316 -0.3230 -0.0578 -0.2337
 7700SOL    HW134733   1.570   2.973   6.367  2.9279 -2.2070 -0.2749
 7700SOL    HW234734   1.459   2.888   6.383  2.0275 -0.1045  2.0659
 7701SOL     OW34735   3.215   1.298   3.370 -0.0168  0.3529 -0.8778
 7701SOL    HW134736   3.278   1.353   3.323  0.1761  1.8717  1.1483
 7701SOL    HW234737   3.154   1.282   3.298  1.2542 -1.7714 -1.4785
 7702SOL     OW34738   3.998   4.672   9.153  0.1068 -0.1721  0.2507
 7702SOL    HW134739   4.061   4.602   9.172 -1.0093 -0.5571  2.5463
 7702SOL    HW234740   3.918   4.620   9.141  0.1924 -0.4076  0.7352
 7703SOL     OW34741   2.795   1.489   6.367  0.4526  0.2697 -0.6032
 7703SOL    HW134742   2.819   1.517   6.278  2.4789  1.8493  0.4375
 7703SOL    HW234743   2.749   1.564   6.404 -0.2826 -0.4779 -0.0005
 7704SOL     OW34744   4.507   0.264   3.840  0.3799  0.1925 -0.0984
 7704SOL    HW134745   4.581   0.215   3.803  0.5889  0.4516 -0.0195
 7704SOL    HW234746   4.469   0.296   3.758 -0.8187 -1.9250 -0.3879
 7705SOL     OW34747   0.220   0.558   6.036  0.1774 -0.0746 -0.1533
 7705SOL    HW134748   0.249   0.574   6.126  0.0017  0.4491 -0.1948
 7705SOL    HW234749   0.130   0.537   6.062 -0.1211 -0.4332 -1.4896
 7706SOL     OW34750   4.527   0.072   3.501 -0.4093 -0.0007 -0.3518
 7706SOL    HW134751   4.513   0.147   3.442  2.1733 -0.1149 -1.1142
 7706SOL    HW234752   4.466   0.001   3.483 -1.0349  0.5247 -0.2983
 7707SOL     OW34753   0.485   3.124  10.061 -0.1962 -0.2266 -0.3821
 7707SOL    HW134754   0.571   3.090  10.084  0.2605  0.1786 -1.5246
 7707SOL    HW234755   0.496   3.088   9.973 -0.7736  0.8169 -0.8751
 7708SOL     OW34756   1.883   0.913  11.493 -0.0140  0.9584 -0.3125
 7708SOL    HW134757   1.891   0.843  11.428 -0.7570  1.4682 -0.9580
 7708SOL    HW234758   1.968   0.957  11.490  1.2595 -1.4186  0.7464
 7709SOL     OW34759   1.221   0.464   3.239  0.1204 -0.0367  0.4658
 7709SOL    HW134760   1.275   0.525   3.190  0.6987 -0.4711  0.5659
 7709SOL    HW234761   1.136   0.505   3.222  0.3737  0.6181  0.7912
 7710SOL     OW34762   1.492   0.426   5.657  0.0557  0.1016 -0.2325
 7710SOL    HW134763   1.477   0.424   5.752  0.6876 -0.0602 -0.1383
 7710SOL    HW234764   1.474   0.517   5.634 -1.5732 -0.1648 -0.0322
 7711SOL     OW34765   2.541   0.872   1.552 -0.2582 -0.4539 -0.6905
 7711SOL    HW134766   2.597   0.817   1.606 -0.1813  1.4470  1.1721
 7711SOL    HW234767   2.494   0.806   1.501 -2.2223  0.9929 -0.7464
 7712SOL     OW34768   4.403   1.082   3.768 -0.5003 -0.0302  0.3946
 7712SOL    HW134769   4.346   1.021   3.816 -2.3923  2.3380  1.1655
 7712SOL    HW234770   4.438   1.022   3.703  1.4070  0.4636  0.9624
 7713SOL     OW34771   0.750   0.585  16.401  0.0980 -0.0765 -0.4008
 7713SOL    HW134772   0.717   0.606  16.314 -1.1302  3.0404  0.8113
 7713SOL    HW234773   0.803   0.663  16.416 -0.5773  0.1218  1.0405
 7714SOL     OW34774   0.388   2.127   3.707 -0.4598 -0.0078 -0.3606
 7714SOL    HW134775   0.422   2.154   3.792  0.5781 -1.6666 -0.2592
 7714SOL    HW234776   0.413   2.208   3.662 -1.2499 -0.1220 -1.0131
 7715SOL     OW34777   3.629   2.377   8.307 -0.0191 -0.3541 -0.2429
 7715SOL    HW134778   3.636   2.394   8.401 -0.1764  0.4444 -0.3804
 7715SOL    HW234779   3.611   2.283   8.305  2.6601 -0.9441  1.8747
 7716SOL     OW34780   3.639   0.834   8.526 -0.0375  0.3443 -0.0222
 7716SOL    HW134781   3.611   0.863   8.613  0.0483 -0.4490  0.2713
 7716SOL    HW234782   3.674   0.749   8.556 -1.2865 -0.0640  0.2766
 7717SOL     OW34783   2.858   4.037   7.875  0.1829  0.2741 -0.1661
 7717SOL    HW134784   2.859   3.943   7.893  3.4591  0.3939  0.2305
 7717SOL    HW234785   2.803   4.040   7.797 -1.7635 -0.5726  1.1812
 7718SOL     OW34786   4.212   2.987  13.128  0.0723 -0.3303 -0.0358
 7718SOL    HW134787   4.117   2.975  13.123 -0.3872  2.4375  2.1987
 7718SOL    HW234788   4.234   2.936  13.206 -2.1144 -0.9982  0.1479
 7719SOL     OW34789   4.092   0.202  16.782  0.0346  0.3138  0.3751
 7719SOL    HW134790   4.075   0.250  16.863  0.8469  0.5002  0.4379
 7719SOL    HW234791   4.177   0.242  16.762  0.0742 -0.4456 -0.9262
 7720SOL     OW34792   2.680   1.502   5.927  0.3321  0.6419  0.3071
 7720SOL    HW134793   2.769   1.501   5.892  0.5532 -2.2045  0.9797
 7720SOL    HW234794   2.687   1.437   5.997  1.3984 -1.5453 -1.8043
 7721SOL     OW34795   0.443   1.596   1.643  0.3028 -0.1158 -0.3363
 7721SOL    HW134796   0.473   1.638   1.563  3.7344 -1.5006  0.2312
 7721SOL    HW234797   0.396   1.667   1.686 -2.8710 -1.9208 -0.8612
 7722SOL     OW34798   1.571   3.362   3.655  0.3573 -0.2962 -0.5155
 7722SOL    HW134799   1.593   3.315   3.736  1.8380  1.0372 -0.1552
 7722SOL    HW234800   1.652   3.393   3.616  0.4565  1.6180  1.1619
 7723SOL     OW34801   4.162   1.960   4.753  0.4043 -0.3707  0.4823
 7723SOL    HW134802   4.081   1.920   4.786 -0.2114  0.2213 -0.3095
 7723SOL    HW234803   4.135   2.002   4.671  0.5017 -0.7785  0.2383
 7724SOL     OW34804   4.352   4.617  11.368  0.8071 -0.2133 -0.2948
 7724SOL    HW134805   4.434   4.585  11.332  0.0889 -3.4323  0.9915
 7724SOL    HW234806   4.293   4.603  11.294 -0.1197 -1.9648  0.7925
 7725SOL     OW34807   4.547   1.987   1.491  0.2588  0.4584  0.0204
 7725SOL    HW134808   4.573   1.942   1.572 -2.0018 -0.7925  0.0737
 7725SOL    HW234809   4.586   1.922   1.433  1.0115  0.5476  0.4316
 7726SOL     OW34810   2.099   2.252   5.735  0.2957  0.0733  0.0006
 7726SOL    HW134811   2.095   2.200   5.654  0.3868  0.4456 -0.2416
 7726SOL    HW234812   2.169   2.316   5.723 -0.9589  1.6058  0.9330
 7727SOL     OW34813   0.422   4.246  10.259  0.7635  0.2331 -0.0874
 7727SOL    HW134814   0.514   4.252  10.232  0.6700  0.2845 -0.4010
 7727SOL    HW234815   0.426   4.150  10.267  0.9107  0.1894 -0.6251
 7728SOL     OW34816   4.342   4.321   8.971 -0.3648  0.1033 -0.0054
 7728SOL    HW134817   4.411   4.367   9.018 -1.2919  2.1823 -0.6920
 7728SOL    HW234818   4.279   4.312   9.042  0.4937 -1.1792  0.5780
 7729SOL     OW34819   1.279   0.069   7.611 -0.6951 -0.3792 -0.2885
 7729SOL    HW134820   1.355   0.074   7.669 -0.8093 -1.1490 -0.0756
 7729SOL    HW234821   1.214   0.093   7.676  1.1488  1.6048  0.8018
 7730SOL     OW34822   0.338   1.996  12.295  0.0665  0.0601 -0.1549
 7730SOL    HW134823   0.366   1.965  12.209  0.2809 -1.5539  0.4890
 7730SOL    HW234824   0.283   1.920  12.316  0.1853 -0.3708 -1.4272
 7731SOL     OW34825   3.238   0.914   9.446  0.2712  0.1743 -0.5184
 7731SOL    HW134826   3.253   0.837   9.500  0.5101  0.8137  0.3214
 7731SOL    HW234827   3.178   0.877   9.381  1.3127 -0.2169 -1.2570
 7732SOL     OW34828   2.195   0.447   7.530 -0.4159 -0.1624 -0.2721
 7732SOL    HW134829   2.112   0.470   7.488 -1.0699 -1.5794  0.2462
 7732SOL    HW234830   2.244   0.424   7.452  1.6689  0.6185  0.8224
 7733SOL     OW34831   3.806   1.477  16.466  0.4688 -0.2777  0.6444
 7733SOL    HW134832   3.858   1.527  16.529  0.3468  3.1048 -2.0052
 7733SOL    HW234833   3.719   1.510  16.485 -0.5929 -1.4898 -2.1972
 7734SOL     OW34834   1.270   1.786   9.204  0.4012 -0.4596  0.7606
 7734SOL    HW134835   1.319   1.868   9.212  1.4656 -1.0396  0.1353
 7734SOL    HW234836   1.326   1.728   9.255  0.4257  0.7171  2.0807
 7735SOL     OW34837   4.347   1.724   6.408 -0.1054  0.0597 -0.0641
 7735SOL    HW134838   4.294   1.648   6.381  1.5198 -1.4619  1.0399
 7735SOL    HW234839   4.354   1.721   6.503 -1.0224  3.2594  0.1131
 7736SOL     OW34840   1.241   3.069   0.184  0.3451 -0.1651 -0.3063
 7736SOL    HW134841   1.195   3.099   0.262  1.8975 -2.5739  1.5101
 7736SOL    HW234842   1.327   3.096   0.215 -0.6000  1.2248  1.0950
 7737SOL     OW34843   3.945   3.049  13.531 -0.5452 -0.5840 -0.0412
 7737SOL    HW134844   3.926   3.132  13.486  1.9399  0.4181  0.7563
 7737SOL    HW234845   3.891   2.992  13.477 -0.7380  0.6076 -1.1046
 7738SOL     OW34846   0.177   1.318   2.769 -0.1863 -0.0738  0.1313
 7738SOL    HW134847   0.221   1.320   2.684  1.4093  0.7334  0.9808
 7738SOL    HW234848   0.176   1.223   2.780  4.6158 -0.0041  0.9562
 7739SOL     OW34849   1.264   3.445   0.030  0.2871  0.0732  0.1672
 7739SOL    HW134850   1.325   3.518   0.023 -0.2038  0.3774 -0.9047
 7739SOL    HW234851   1.278   3.418   0.121 -1.9319 -0.8408  0.2481
 7740SOL     OW34852   3.125   0.470   8.822 -0.5639 -0.3999 -0.3990
 7740SOL    HW134853   3.148   0.438   8.735  2.2704  2.5161 -0.7498
 7740SOL    HW234854   3.111   0.560   8.794  0.1043 -0.3541 -0.6001
 7741SOL     OW34855   3.523   4.729   1.164 -0.4489 -0.1035 -0.3911
 7741SOL    HW134856   3.558   0.013   1.250 -3.1352  0.3354  0.6027
 7741SOL    HW234857   3.433   0.025   1.165 -0.1673  0.6284  1.3161
 7742SOL     OW34858   0.111   2.169   0.624  0.2816  0.3344 -0.0235
 7742SOL    HW134859   0.120   2.097   0.561 -2.1625  0.1327 -0.1361
 7742SOL    HW234860   0.049   2.131   0.686 -2.1539  2.4965 -1.1363
 7743SOL     OW34861   1.628   0.814   8.213 -0.2071 -0.0800 -0.0348
 7743SOL    HW134862   1.574   0.793   8.137  0.3523 -2.2923  0.1957
 7743SOL    HW234863   1.566   0.810   8.286  0.0398  2.0617  0.3072
 7744SOL     OW34864   2.874   0.506   5.552  0.1002 -0.1147 -0.5076
 7744SOL    HW134865   2.896   0.567   5.482 -1.3121  0.7747 -0.1758
 7744SOL    HW234866   2.809   0.446   5.516 -1.8719  2.6038 -1.4403
 7745SOL     OW34867   3.677   3.084   2.628  0.1344  0.1308 -0.0799
 7745SOL    HW134868   3.582   3.076   2.622  0.0960 -1.1152  2.0394
 7745SOL    HW234869   3.683   3.136   2.708  0.3212 -1.2597  0.8229
 7746SOL     OW34870   2.134   1.834   8.106  0.1988  0.1052 -0.3682
 7746SOL    HW134871   2.209   1.873   8.059  1.7817 -3.6672 -1.0116
 7746SOL    HW234872   2.176   1.751   8.132  3.2558  2.4960  2.2916
 7747SOL     OW34873   3.064   1.772   6.521 -0.0315  0.2878 -0.6935
 7747SOL    HW134874   3.000   1.729   6.578 -0.8714  5.0872  1.9052
 7747SOL    HW234875   3.011   1.827   6.463 -1.4404 -1.3908 -1.0030
 7748SOL     OW34876   3.009   2.019  14.650  0.0302 -0.4408  0.1148
 7748SOL    HW134877   3.091   2.066  14.665  0.2950 -1.5635  2.2712
 7748SOL    HW234878   2.945   2.069  14.700  1.0630 -1.1144  2.1146
 7749SOL     OW34879   3.552   4.529   7.625  0.4290  0.7505 -0.0980
 7749SOL    HW134880   3.621   4.476   7.585 -1.2871 -0.9016 -0.9022
 7749SOL    HW234881   3.603   4.562   7.699  1.2210  1.1955 -0.8384
 7750SOL     OW34882   4.103   2.354  15.789 -0.1601 -0.8884 -0.1699
 7750SOL    HW134883   4.112   2.309  15.705 -1.7274 -2.0234  0.2645
 7750SOL    HW234884   4.067   2.438  15.760  1.3998 -0.1356  0.0855
 7751SOL     OW34885   0.234   3.125   4.169 -0.5786  0.5274  0.3295
 7751SOL    HW134886   0.256   3.193   4.232 -2.7452 -0.5092  2.1952
 7751SOL    HW234887   0.205   3.052   4.223  2.4571  1.3847  3.1234
 7752SOL     OW34888   1.431   3.645  17.726  0.1373 -0.2756 -0.7586
 7752SOL    HW134889   1.454   3.707   0.050 -1.2879  1.5354 -1.8877
 7752SOL    HW234890   1.410   3.705  17.654 -2.3345  2.6874  2.4249
 7753SOL     OW34891   3.663   4.109   2.164  0.4045  0.2595  0.0549
 7753SOL    HW134892   3.615   4.191   2.155 -0.5715 -0.2231  0.7288
 7753SOL    HW234893   3.647   4.089   2.256 -0.1030  0.2536 -0.0330
 7754SOL     OW34894   3.297   0.175   8.670  0.0697  0.1583  0.0812
 7754SOL    HW134895   3.308   0.168   8.765  0.4954  0.1177  0.0300
 7754SOL    HW234896   3.337   0.260   8.651  1.0322 -0.9501 -2.8264
 7755SOL     OW34897   4.130   2.417   5.883  0.1157 -0.4143  0.4317
 7755SOL    HW134898   4.122   2.413   5.978 -0.6895  0.5741  0.3987
 7755SOL    HW234899   4.065   2.484   5.863 -0.4612 -1.6981 -1.9296
 7756SOL     OW34900   1.236   3.255  17.212  0.6243 -0.8653  0.1012
 7756SOL    HW134901   1.306   3.224  17.269  2.5614  0.7997 -1.3905
 7756SOL    HW234902   1.162   3.282  17.267  0.7614 -0.2993  0.0088
 7757SOL     OW34903   1.209   2.615  17.368  0.2853  0.0529 -0.4630
 7757SOL    HW134904   1.177   2.538  17.415 -1.1731  2.0490  1.8226
 7757SOL    HW234905   1.245   2.664  17.442 -1.0458 -0.1578  0.3231
 7758SOL     OW34906   4.154   3.601   7.094  0.1214  0.1775  0.2478
 7758SOL    HW134907   4.243   3.637   7.089  0.0983  0.1166 -0.7353
 7758SOL    HW234908   4.166   3.573   7.184 -1.3240 -0.2953  0.3010
 7759SOL     OW34909   2.720   4.188   3.732 -0.4415 -0.0124 -0.3026
 7759SOL    HW134910   2.724   4.216   3.641 -2.9622  0.7230 -0.1771
 7759SOL    HW234911   2.805   4.209   3.770 -0.7821  0.4237  0.2262
 7760SOL     OW34912   1.536   0.198   6.246 -0.8014  0.1000  0.1970
 7760SOL    HW134913   1.534   0.292   6.233 -0.4336  0.4768  2.7472
 7760SOL    HW234914   1.618   0.181   6.293  0.9790 -2.4054 -3.8645
 7761SOL     OW34915   3.279   1.047   2.045 -0.2598  0.1788 -0.0083
 7761SOL    HW134916   3.244   1.021   1.960 -0.7116 -0.2468  0.3043
 7761SOL    HW234917   3.200   1.065   2.095 -1.2678 -0.4603 -1.3692
 7762SOL     OW34918   4.165   0.266   6.014 -0.0718 -0.3556 -0.5435
 7762SOL    HW134919   4.231   0.312   6.066 -1.6836  1.1653  0.1372
 7762SOL    HW234920   4.086   0.293   6.061  2.0702  0.1382  2.7888
 7763SOL     OW34921   0.098   3.563   3.600  0.2646 -0.3714 -0.0469
 7763SOL    HW134922   0.122   3.519   3.518  0.3286 -1.4528  0.5550
 7763SOL    HW234923   0.005   3.541   3.598  0.1016  0.2830  0.6589
 7764SOL     OW34924   0.476   1.915   6.023 -0.2221 -0.5158  0.4269
 7764SOL    HW134925   0.412   1.971   6.066  0.8835  2.1035 -1.3193
 7764SOL    HW234926   0.427   1.835   6.006 -0.7526 -0.6230  2.4751
 7765SOL     OW34927   4.358   0.718   1.544 -0.5272 -0.4527  0.2934
 7765SOL    HW134928   4.389   0.805   1.519  0.5562 -0.3522  2.0087
 7765SOL    HW234929   4.437   0.665   1.556 -0.0346  0.4620  1.0595
 7766SOL     OW34930   0.515   1.265  15.975  0.0504  0.5012 -0.2802
 7766SOL    HW134931   0.566   1.186  15.987 -0.7093 -0.2076 -1.6250
 7766SOL    HW234932   0.433   1.248  16.022  0.3416  0.3895  0.1793
 7767SOL     OW34933   4.572   4.419   4.117  0.1426  0.8901 -0.0824
 7767SOL    HW134934   4.607   4.501   4.081  0.1346  1.5979  1.5215
 7767SOL    HW234935   4.478   4.428   4.105 -0.4316 -1.4813  2.8132
 7768SOL     OW34936   4.197   0.641   7.201 -0.0312  0.5303  0.0895
 7768SOL    HW134937   4.125   0.578   7.199 -1.2540  1.8997  1.9950
 7768SOL    HW234938   4.269   0.581   7.181 -0.0234 -0.1053  2.0256
 7769SOL     OW34939   4.267   2.060   2.914 -0.5881  0.1629  0.3299
 7769SOL    HW134940   4.314   2.116   2.976 -0.5172  1.3337 -0.7914
 7769SOL    HW234941   4.238   2.123   2.848 -0.1478 -2.7450 -2.6477
 7770SOL     OW34942   1.180   1.553   5.030 -0.7939  1.3167  0.0564
 7770SOL    HW134943   1.162   1.647   5.029  0.2321  1.5218  2.8235
 7770SOL    HW234944   1.091   1.519   5.038 -0.9103  2.0109  1.5863
 7771SOL     OW34945   4.211   2.511  11.119 -0.3265 -0.5473  0.7737
 7771SOL    HW134946   4.215   2.537  11.211  0.7215 -0.7716  0.7923
 7771SOL    HW234947   4.270   2.567  11.069 -0.8954  0.8993  1.7423
 7772SOL     OW34948   0.917   1.165  11.059  0.2457  0.1354  0.4932
 7772SOL    HW134949   0.824   1.160  11.079  0.3902 -1.0378  0.8625
 7772SOL    HW234950   0.944   1.230  11.124  0.5542  0.0916  0.4102
 7773SOL     OW34951   4.366   0.621   6.513  0.0446  0.3044 -0.1924
 7773SOL    HW134952   4.392   0.538   6.472  0.7332  0.7148 -0.5833
 7773SOL    HW234953   4.365   0.594   6.605 -0.7526  1.6730  0.1875
 7774SOL     OW34954   2.742   2.946   2.481  0.1351  0.0102  0.1993
 7774SOL    HW134955   2.759   2.975   2.570 -0.1368  2.9695 -0.7202
 7774SOL    HW234956   2.672   3.008   2.461 -1.0877 -0.6584  2.3994
 7775SOL     OW34957   4.342   3.318  12.308  0.6033 -0.1918 -0.1291
 7775SOL    HW134958   4.382   3.405  12.302  2.2500 -0.9552 -0.2438
 7775SOL    HW234959   4.419   3.264  12.290 -0.3798 -1.1613 -1.3462
 7776SOL     OW34960   2.765   1.844   3.588 -0.1090 -0.4914 -0.0053
 7776SOL    HW134961   2.744   1.752   3.602 -0.6999 -0.6039 -1.6556
 7776SOL    HW234962   2.687   1.885   3.624  0.2522 -0.9574  1.2959
 7777SOL     OW34963   3.632   0.789   6.088 -0.2479 -0.3717 -0.4385
 7777SOL    HW134964   3.573   0.788   6.164  0.8767  1.6971  0.4577
 7777SOL    HW234965   3.586   0.849   6.029  0.1406 -0.6385 -1.0045
 7778SOL     OW34966   2.476   0.091   0.574  0.1449  0.2521  0.0162
 7778SOL    HW134967   2.548   0.035   0.603  0.4863  0.5906 -0.1833
 7778SOL    HW234968   2.482   0.078   0.479  0.6437  1.2991 -0.0916
 7779SOL     OW34969   2.038   4.364   2.315  0.1745  0.2909 -0.3872
 7779SOL    HW134970   2.063   4.356   2.407  2.6234  0.1932 -1.0503
 7779SOL    HW234971   1.971   4.432   2.317 -0.1334  0.0118 -1.0611
 7780SOL     OW34972   3.858   1.492  17.272 -0.0151  0.2167  0.0642
 7780SOL    HW134973   3.769   1.513  17.244  0.0290 -1.1547 -1.0967
 7780SOL    HW234974   3.921   1.535  17.215 -1.2901 -0.1820 -1.6372
 7781SOL     OW34975   4.603   0.578   1.541 -0.0926  0.1818 -0.5826
 7781SOL    HW134976   4.645   0.652   1.584  0.1336 -1.1729  1.5384
 7781SOL    HW234977   4.671   0.562   1.476  1.1467 -1.4508  1.1226
 7782SOL     OW34978   1.906   4.434   2.872  0.1467  0.9280 -0.0270
 7782SOL    HW134979   1.919   4.496   2.944 -0.2950 -2.5436  3.0152
 7782SOL    HW234980   1.993   4.428   2.833  0.3334  2.1407  0.2116
 7783SOL     OW34981   3.456   3.802  10.562  0.1788  0.5352 -0.1348
 7783SOL    HW134982   3.523   3.832  10.623  2.3883  0.1539 -2.3491
 7783SOL    HW234983   3.417   3.887  10.541 -2.5214 -0.9668 -1.1647
 7784SOL     OW34984   4.631   0.776   8.195 -0.5259  0.2051 -0.1537
 7784SOL    HW134985   4.611   0.683   8.201  1.1889 -0.2587 -1.6932
 7784SOL    HW234986   4.680   0.788   8.277  0.2611  1.4647 -0.8125
 7785SOL     OW34987   4.267   3.071   2.127  0.4670 -0.8087  0.5725
 7785SOL    HW134988   4.208   3.130   2.173 -0.0809 -2.0798  1.5151
 7785SOL    HW234989   4.221   2.991   2.152 -0.3134 -0.5690 -0.1079
 7786SOL     OW34990   3.672   4.055   6.328 -0.1010 -0.3379 -0.3384
 7786SOL    HW134991   3.701   3.987   6.389 -1.2626  1.4822  2.2266
 7786SOL    HW234992   3.619   4.102   6.392  0.0212  0.8307 -1.1021
 7787SOL     OW34993   1.094   3.702  15.150 -0.0569  0.1016  0.0633
 7787SOL    HW134994   1.169   3.760  15.162 -0.8539  1.2260 -0.4302
 7787SOL    HW234995   1.033   3.773  15.132 -0.3600 -0.6362 -1.8420
 7788SOL     OW34996   2.548   4.294   3.231  0.1606  0.4445 -0.2342
 7788SOL    HW134997   2.529   4.208   3.267  0.0228  1.4012  2.0126
 7788SOL    HW234998   2.460   4.326   3.250  0.2429  0.2841  0.4046
 7789SOL     OW34999   3.341   0.501   5.574 -0.1207 -0.2360 -0.5163
 7789SOL    HW135000   3.268   0.448   5.606  0.7394 -0.6850  0.7193
 7789SOL    HW235001   3.377   0.523   5.659  3.5149 -0.2700 -2.0284
 7790SOL     OW35002   4.477   2.761   3.540 -0.0691  0.0484 -0.0616
 7790SOL    HW135003   4.384   2.751   3.562  0.2145  0.8987  1.4873
 7790SOL    HW235004   4.481   2.731   3.449  0.8213  2.6816 -0.8864
 7791SOL     OW35005   1.043   2.952  17.307 -0.1007 -0.3419 -0.0290
 7791SOL    HW135006   1.002   3.038  17.317  0.5571  0.2256 -2.2099
 7791SOL    HW235007   1.100   2.968  17.232 -0.5918 -2.0290 -0.7428
 7792SOL     OW35008   4.511   1.196   6.234  0.3999  0.1478 -0.3531
 7792SOL    HW135009   4.455   1.170   6.160  0.2626 -1.2134  0.2334
 7792SOL    HW235010   4.445   1.222   6.298  0.4922  0.5820 -0.4329
 7793SOL     OW35011   0.670   0.701   8.463  0.2962 -0.0675 -0.7157
 7793SOL    HW135012   0.666   0.789   8.500  3.7357  0.3586 -1.3719
 7793SOL    HW235013   0.670   0.643   8.540 -0.9841 -0.8209 -1.2736
 7794SOL     OW35014   3.947   0.007   0.131  0.0792 -0.5218  0.4408
 7794SOL    HW135015   4.025   0.027   0.079 -0.4257  2.6450  0.9056
 7794SOL    HW235016   3.952   0.076   0.197  2.1034  0.4273 -0.7296
 7795SOL     OW35017   1.195   1.208   4.671 -0.2600  0.1632 -0.0866
 7795SOL    HW135018   1.211   1.259   4.592  2.7474 -0.2868  0.2215
 7795SOL    HW235019   1.206   1.273   4.740 -1.8970 -0.9833  1.2652
 7796SOL     OW35020   1.549   3.010  13.792  0.2361 -0.1558 -0.4892
 7796SOL    HW135021   1.610   3.041  13.725 -2.8127  0.7279 -2.8582
 7796SOL    HW235022   1.568   3.067  13.867  0.5416 -2.4410  1.1465
 7797SOL     OW35023   0.594   3.232  13.581  0.2968 -0.5010 -1.3604
 7797SOL    HW135024   0.589   3.227  13.486  0.0306 -1.7944 -1.2874
 7797SOL    HW235025   0.553   3.148  13.603  1.4284 -1.0896 -1.4502
 7798SOL     OW35026   2.807   3.830  10.199  0.6142  0.1136 -0.3586
 7798SOL    HW135027   2.858   3.795  10.126  1.7134  1.3814 -0.1974
 7798SOL    HW235028   2.873   3.860  10.262  0.3224 -2.0605  0.9991
 7799SOL     OW35029   2.227   4.339   8.652  0.2362 -0.1682  0.2885
 7799SOL    HW135030   2.247   4.290   8.732  1.6565 -0.8059 -0.4650
 7799SOL    HW235031   2.286   4.413   8.665 -0.5560  0.4688  0.2938
 7800SOL     OW35032   1.041   3.448   6.998  0.3859  0.2801 -0.0454
 7800SOL    HW135033   1.077   3.365   7.027  1.6678  0.5237 -0.9745
 7800SOL    HW235034   0.965   3.428   6.943  0.1437 -0.7712  0.6755
 7801SOL     OW35035   0.974   2.027   5.050  0.3620  0.2452  0.2700
 7801SOL    HW135036   0.966   2.074   4.967  0.0523  2.4233  1.5442
 7801SOL    HW235037   0.904   1.961   5.040 -1.3372  1.4850  3.7028
 7802SOL     OW35038   1.460   2.294   4.353  0.0984  0.1982  0.1658
 7802SOL    HW135039   1.446   2.300   4.258  0.7572  2.5811  0.2301
 7802SOL    HW235040   1.555   2.291   4.365  0.1243  1.6918  0.3312
 7803SOL     OW35041   2.545   1.023  11.425  0.5755  0.2442  0.3049
 7803SOL    HW135042   2.537   0.929  11.408 -0.7819  0.4599 -0.2063
 7803SOL    HW235043   2.468   1.052  11.376  0.7128 -0.7803 -0.5182
 7804SOL     OW35044   3.142   0.181   2.914  0.0739 -0.3358 -0.1714
 7804SOL    HW135045   3.065   0.138   2.951 -0.1128  1.2872  1.3424
 7804SOL    HW235046   3.100   0.259   2.877  1.7822  0.3449 -0.6670
 7805SOL     OW35047   3.182   4.007  14.935  0.1441  0.1295  0.0492
 7805SOL    HW135048   3.235   3.946  14.987 -0.2213 -1.0118 -0.9392
 7805SOL    HW235049   3.176   4.066  15.010 -0.7758 -1.9864  1.6417
 7806SOL     OW35050   0.372   1.055  11.665  0.5262 -0.2543  0.2939
 7806SOL    HW135051   0.347   1.141  11.698  0.2827 -1.2082  2.6173
 7806SOL    HW235052   0.310   0.997  11.709  0.2014  1.5302  2.1952
 7807SOL     OW35053   0.389   1.589   4.263  0.4004  0.0166  0.1994
 7807SOL    HW135054   0.327   1.628   4.324 -0.7634 -0.7427 -0.4927
 7807SOL    HW235055   0.448   1.536   4.317  1.3762  0.5142 -0.3863
 7808SOL     OW35056   4.075   4.101   4.960  0.0530 -0.1883  0.3300
 7808SOL    HW135057   4.009   4.051   4.912 -0.1009 -1.7222  2.1160
 7808SOL    HW235058   4.121   4.032   5.009 -1.0487 -1.1608 -0.0085
 7809SOL     OW35059   2.005   2.143  14.789  0.1265 -0.1943  0.0912
 7809SOL    HW135060   2.082   2.108  14.744  0.3041  2.8339 -1.9441
 7809SOL    HW235061   1.997   2.224  14.738  0.0750  0.0348  0.4636
 7810SOL     OW35062   0.031   3.355   1.877  0.3073  0.2379 -0.3590
 7810SOL    HW135063   0.005   3.307   1.956  1.0493  1.5029  0.6380
 7810SOL    HW235064   0.075   3.433   1.910 -0.5502  0.2259  0.8366
 7811SOL     OW35065   2.328   4.399   7.364 -0.1923  0.4692 -0.0091
 7811SOL    HW135066   2.335   4.462   7.435 -0.2998 -2.0775  2.2796
 7811SOL    HW235067   2.300   4.452   7.290  0.9115  0.8549 -0.1537
 7812SOL     OW35068   2.401   3.713  13.840 -0.1552  0.2479  0.4423
 7812SOL    HW135069   2.360   3.660  13.909 -1.2282 -0.5349 -0.7858
 7812SOL    HW235070   2.441   3.773  13.903  0.0736  0.9135 -0.3498
 7813SOL     OW35071   1.246   4.311   9.936 -0.4262  0.6070 -0.6864
 7813SOL    HW135072   1.316   4.247   9.946 -2.2590 -1.7988 -3.1325
 7813SOL    HW235073   1.283   4.385   9.984 -2.7125  0.1498  1.7650
 7814SOL     OW35074   0.767   3.946   2.195  0.2166  0.1510  0.7179
 7814SOL    HW135075   0.827   3.903   2.255  0.1899 -0.8936  0.0006
 7814SOL    HW235076   0.768   4.038   2.219  1.3935  0.5280 -0.8312
 7815SOL     OW35077   0.886   3.313   7.458 -0.0739 -0.0486 -0.1184
 7815SOL    HW135078   0.929   3.321   7.543  2.6541 -0.3796 -1.4682
 7815SOL    HW235079   0.828   3.389   7.452  2.6552  1.9165 -1.6289
 7816SOL     OW35080   1.832   2.934   8.869 -0.5432 -0.2822 -0.1767
 7816SOL    HW135081   1.903   2.979   8.824  0.3159  0.3000  1.7271
 7816SOL    HW235082   1.866   2.846   8.854  2.7285  0.8593  0.4736
 7817SOL     OW35083   1.669   0.643  10.205 -0.3944 -0.3861  0.0279
 7817SOL    HW135084   1.601   0.627  10.270 -0.0332  1.1167  0.7880
 7817SOL    HW235085   1.639   0.729  10.175  0.5142 -0.8860 -2.3467
 7818SOL     OW35086   4.610   4.673   4.680 -0.0917 -0.3063 -0.1085
 7818SOL    HW135087   4.580   4.719   4.601 -1.1219 -0.6911  0.0637
 7818SOL    HW235088   4.701   4.657   4.652  0.7036  2.4580  0.9004
 7819SOL     OW35089   2.457   2.116   1.014  0.0592 -0.2674 -0.3170
 7819SOL    HW135090   2.439   2.198   1.059  0.9800 -0.2281 -0.0226
 7819SOL    HW235091   2.394   2.118   0.942 -2.2854 -0.8433  1.7094
 7820SOL     OW35092   3.343   3.087   5.929 -0.2994 -0.0983  0.0093
 7820SOL    HW135093   3.423   3.036   5.938  0.1527 -0.0430 -3.7678
 7820SOL    HW235094   3.299   3.027   5.869  0.9878  1.4290 -2.4854
 7821SOL     OW35095   2.569   3.284   4.178 -0.4302  0.2506 -0.1101
 7821SOL    HW135096   2.600   3.354   4.120  0.2392  0.1970  0.1872
 7821SOL    HW235097   2.525   3.334   4.247 -1.5044 -3.0141  1.5300
 7822SOL     OW35098   1.306   1.000   1.441  0.6140  0.1794 -0.0103
 7822SOL    HW135099   1.277   0.990   1.532  1.4091 -0.1424  0.2100
 7822SOL    HW235100   1.227   0.966   1.400  0.2619  0.6046  0.3184
 7823SOL     OW35101   2.079   2.984   8.796  0.3529 -0.1149  0.0163
 7823SOL    HW135102   2.115   3.047   8.860  1.7380 -1.1955  0.2988
 7823SOL    HW235103   2.145   2.995   8.727 -0.4773  0.9380 -0.5974
 7824SOL     OW35104   0.788   1.507   3.393  0.6148 -0.1789 -0.6609
 7824SOL    HW135105   0.768   1.601   3.393 -2.5976 -0.8727 -1.4340
 7824SOL    HW235106   0.832   1.502   3.308 -0.2373  1.1606 -1.1813
 7825SOL     OW35107   2.280   0.667  15.890  0.2775  0.2314 -0.1815
 7825SOL    HW135108   2.194   0.698  15.918  0.7440  1.9263 -0.6206
 7825SOL    HW235109   2.337   0.684  15.966  0.7121  0.9741 -0.6671
 7826SOL     OW35110   3.383   1.897   8.985  0.2107  0.1133  0.2517
 7826SOL    HW135111   3.440   1.821   8.977 -0.2017 -0.1261 -0.4342
 7826SOL    HW235112   3.447   1.962   9.015 -0.4605 -0.4028  2.7245
 7827SOL     OW35113   4.525   0.068   7.978  0.4507  0.5488  0.1317
 7827SOL    HW135114   4.580   0.069   8.056 -1.3758 -1.1793  1.4387
 7827SOL    HW235115   4.562   0.141   7.928  0.9452  1.5959  2.0493
 7828SOL     OW35116   0.718   2.781   7.779  0.6202  0.2169  0.1063
 7828SOL    HW135117   0.805   2.767   7.741  1.2076 -1.8924  2.1888
 7828SOL    HW235118   0.738   2.821   7.864 -0.9033 -1.3086  1.1621
 7829SOL     OW35119   0.587   3.441   8.633  0.3611  0.4258 -0.2252
 7829SOL    HW135120   0.665   3.416   8.583 -0.3702 -1.0042 -0.6492
 7829SOL    HW235121   0.518   3.406   8.577  0.0292 -1.9149  1.6414
 7830SOL     OW35122   2.050   0.669   4.867 -0.6250 -0.2348 -0.8102
 7830SOL    HW135123   1.982   0.698   4.807 -1.2110 -1.3318 -0.6799
 7830SOL    HW235124   2.057   0.746   4.924 -0.7923 -2.3348  2.0735
 7831SOL     OW35125   0.004   1.498   3.728 -0.3712 -0.0414 -0.4039
 7831SOL    HW135126   0.083   1.541   3.762  1.2934 -0.3343 -3.8659
 7831SOL    HW235127   4.678   1.569   3.732  1.4126  1.3938  1.8704
 7832SOL     OW35128   1.153   3.858   5.219 -0.6103 -0.3029  0.7141
 7832SOL    HW135129   1.108   3.892   5.296  1.3782 -0.6949  2.0331
 7832SOL    HW235130   1.242   3.850   5.252 -0.4798 -0.4819  0.3241
 7833SOL     OW35131   2.682   3.421  13.736  0.0246 -0.6154  0.0194
 7833SOL    HW135132   2.683   3.487  13.667  0.9831 -1.6521 -0.9606
 7833SOL    HW235133   2.771   3.387  13.741  0.4576  0.7243  1.1379
 7834SOL     OW35134   3.089   1.117   9.065 -0.5459  0.0585 -0.3249
 7834SOL    HW135135   3.044   1.141   9.146 -2.1844 -1.4188 -0.7834
 7834SOL    HW235136   3.015   1.070   9.025 -2.1491  1.3997  1.0418
 7835SOL     OW35137   2.276   1.789   1.029  0.2576  0.4268  0.0538
 7835SOL    HW135138   2.293   1.800   0.935  1.7315 -1.4447  0.0933
 7835SOL    HW235139   2.359   1.819   1.067  0.3648 -4.2246  3.5567
 7836SOL     OW35140   3.027   0.953  11.578 -0.0977  0.0405 -0.2129
 7836SOL    HW135141   2.939   0.991  11.572  1.6407  3.7825 -1.3842
 7836SOL    HW235142   3.073   1.036  11.576  3.3123 -1.7432  3.9791
 7837SOL     OW35143   0.707   4.268   3.794  0.2659  0.1905 -0.1317
 7837SOL    HW135144   0.734   4.207   3.725 -1.3729  1.0544 -1.5290
 7837SOL    HW235145   0.653   4.203   3.840 -0.1369 -0.2518 -1.2334
 7838SOL     OW35146   4.393   0.389   3.029 -0.0756  1.2413  0.2772
 7838SOL    HW135147   4.359   0.477   3.042 -1.1226  0.6051  1.8174
 7838SOL    HW235148   4.444   0.411   2.950  1.7137 -0.3412  0.9771
 7839SOL     OW35149   4.155   3.268   5.655 -0.1974 -0.5379 -0.0587
 7839SOL    HW135150   4.219   3.254   5.725 -0.1031  0.7463  0.1223
 7839SOL    HW235151   4.073   3.285   5.700 -0.1975  2.4360 -1.1552
 7840SOL     OW35152   3.212   0.516   3.019 -0.0388  0.4096  0.2287
 7840SOL    HW135153   3.144   0.494   2.955  0.2836 -1.5434  0.5684
 7840SOL    HW235154   3.163   0.513   3.101  0.5950 -0.9908  0.5434
 7841SOL     OW35155   4.212   4.460   8.574 -0.2687 -0.1906 -0.1766
 7841SOL    HW135156   4.125   4.422   8.580  0.3041 -0.9432  3.0540
 7841SOL    HW235157   4.244   4.426   8.491 -0.5345 -0.7761 -0.0336
 7842SOL     OW35158   3.951   2.045  14.113 -0.5490 -0.2952  0.0144
 7842SOL    HW135159   3.947   1.973  14.177  0.4919 -1.3111 -1.0593
 7842SOL    HW235160   3.866   2.087  14.115  0.0912  0.9762  0.3981
 7843SOL     OW35161   4.152   1.078  11.868 -0.0160 -0.3755 -0.1710
 7843SOL    HW135162   4.161   1.101  11.960  1.8012 -0.0269 -0.4496
 7843SOL    HW235163   4.223   1.127  11.826 -1.8045  0.8390 -1.7939
 7844SOL     OW35164   1.538   2.499   7.042 -0.1778 -0.3402 -0.3032
 7844SOL    HW135165   1.466   2.436   7.053 -0.5094  0.2517  0.8496
 7844SOL    HW235166   1.553   2.523   7.133  1.6491 -0.6671 -0.5197
 7845SOL     OW35167   4.343   2.540   2.564 -0.2293 -0.3670  0.6592
 7845SOL    HW135168   4.319   2.501   2.480  0.0494 -2.6369  1.6230
 7845SOL    HW235169   4.418   2.483   2.584  0.3609 -0.7690 -2.6338
 7846SOL     OW35170   4.110   4.143   4.061 -0.2238  0.6198 -0.1331
 7846SOL    HW135171   4.056   4.131   3.983  1.1817 -3.3851 -0.4567
 7846SOL    HW235172   4.191   4.097   4.039  0.7365  0.3031  4.1081
 7847SOL     OW35173   0.194   0.666   1.244  0.5806  0.0182  0.4193
 7847SOL    HW135174   0.119   0.705   1.199  0.8518 -1.1945 -1.1004
 7847SOL    HW235175   0.252   0.741   1.232 -0.4188  0.8608  0.8641
 7848SOL     OW35176   0.518   4.521   8.687  0.0878  0.2816 -0.1380
 7848SOL    HW135177   0.535   4.471   8.607 -0.1612 -0.2811  0.1653
 7848SOL    HW235178   0.596   4.504   8.740  2.1201  2.1065 -2.5128
 7849SOL     OW35179   1.786   0.611   1.093 -0.0180  0.0402 -0.0980
 7849SOL    HW135180   1.751   0.522   1.081  1.0204 -0.5225  1.0798
 7849SOL    HW235181   1.880   0.598   1.085 -0.2952 -2.8957  1.1238
 7850SOL     OW35182   1.137   0.964   8.278 -0.2182 -0.2621 -0.3567
 7850SOL    HW135183   1.220   0.996   8.243  0.7301 -1.6966  0.5941
 7850SOL    HW235184   1.091   0.930   8.201 -2.1508 -1.1100  1.1759
 7851SOL     OW35185   0.240   2.066   1.099  0.2810 -0.7197 -0.6742
 7851SOL    HW135186   0.160   2.103   1.136  0.0075 -2.6433  0.6814
 7851SOL    HW235187   0.202   2.024   1.021 -1.8036  0.8512 -0.5106
 7852SOL     OW35188   3.047   1.598   2.064  0.1906  0.0185  0.0725
 7852SOL    HW135189   3.064   1.504   2.070  0.5158  0.0287 -0.7059
 7852SOL    HW235190   2.973   1.601   2.003 -0.6379  0.1258  1.0722
 7853SOL     OW35191   4.017   0.637  11.029 -0.0831 -0.2898  0.1331
 7853SOL    HW135192   3.976   0.715  10.991  1.6330  0.4552 -0.1790
 7853SOL    HW235193   3.948   0.600  11.085 -0.9581 -0.3870 -1.0138
 7854SOL     OW35194   3.296   0.879   5.893 -0.1445 -0.0091  0.1002
 7854SOL    HW135195   3.214   0.876   5.844 -0.7656  2.4172  1.0088
 7854SOL    HW235196   3.316   0.964   5.855  0.5329 -0.1002  0.2420
 7855SOL     OW35197   3.149   4.092   8.234  0.2524 -0.0465 -0.3609
 7855SOL    HW135198   3.168   4.165   8.176  1.5439 -1.2064 -1.4149
 7855SOL    HW235199   3.155   4.127   8.323 -0.0191  0.0267 -0.3732
 7856SOL     OW35200   1.842   2.455   7.614  0.7493  0.1462  0.1329
 7856SOL    HW135201   1.930   2.460   7.579  0.2403  0.7624 -1.0428
 7856SOL    HW235202   1.839   2.536   7.665 -3.0345 -0.8113  1.4804
 7857SOL     OW35203   0.815   0.535  11.859  0.5385 -0.6005  0.2883
 7857SOL    HW135204   0.778   0.620  11.834 -1.2564 -1.0296  1.5489
 7857SOL    HW235205   0.874   0.561  11.929  1.1721 -4.4763  1.1737
 7858SOL     OW35206   2.324   0.208  14.883 -0.3125 -0.1278 -0.3368
 7858SOL    HW135207   2.275   0.224  14.964  2.3963 -0.7656  1.4292
 7858SOL    HW235208   2.325   0.299  14.851  0.3104 -0.3284 -0.8737
 7859SOL     OW35209   1.135   2.799  14.111 -0.0615  0.2291 -0.0831
 7859SOL    HW135210   1.153   2.790  14.018 -1.3117 -0.1259 -0.2790
 7859SOL    HW235211   1.043   2.822  14.101  0.3602  1.0753 -2.1031
 7860SOL     OW35212   2.708   4.169  16.904 -0.0158 -0.0721 -0.3700
 7860SOL    HW135213   2.778   4.132  16.851  0.7044  0.4855  0.1964
 7860SOL    HW235214   2.634   4.151  16.845 -0.1481  0.0952 -0.2536
 7861SOL     OW35215   4.600   4.016   0.943  0.4644  0.5325  0.8340
 7861SOL    HW135216   4.692   4.041   0.939  0.8110 -0.6782  1.5925
 7861SOL    HW235217   4.592   3.935   0.893 -1.9312 -0.2031  2.4103
 7862SOL     OW35218   3.766   1.159   4.469  0.3855 -0.1687  0.3740
 7862SOL    HW135219   3.826   1.231   4.490  2.0170 -1.7735  1.1885
 7862SOL    HW235220   3.747   1.172   4.376 -2.3285  2.5773  1.2902
 7863SOL     OW35221   2.856   0.476   7.401  0.9263 -0.0948 -0.0815
 7863SOL    HW135222   2.858   0.465   7.496  1.1665 -0.6865 -0.1594
 7863SOL    HW235223   2.813   0.395   7.373  0.1541 -0.2999  1.7405
 7864SOL     OW35224   0.661   0.074   5.224 -0.6318  0.0103  0.3735
 7864SOL    HW135225   0.572   0.085   5.190 -0.2207 -2.0737 -1.4067
 7864SOL    HW235226   0.680   4.718   5.213  1.2112  0.2035  1.8203
 7865SOL     OW35227   0.106   2.017   8.020 -0.1306  0.3497 -0.5504
 7865SOL    HW135228   0.164   2.089   7.994 -0.5402  0.6734 -0.5781
 7865SOL    HW235229   0.067   1.992   7.936  2.5270 -2.8686 -0.7876
 7866SOL     OW35230   1.776   4.264  12.261 -0.1365 -0.2448 -0.3724
 7866SOL    HW135231   1.704   4.224  12.211  1.6530 -1.8754 -1.6233
 7866SOL    HW235232   1.749   4.356  12.262 -0.8664 -0.4433 -1.7314
 7867SOL     OW35233   1.603   0.340  16.036 -0.4797 -0.3613  0.0494
 7867SOL    HW135234   1.673   0.288  16.074  1.4125  0.4622 -2.2681
 7867SOL    HW235235   1.652   0.370  15.959 -1.5499 -1.6816 -1.1601
 7868SOL     OW35236   0.111   1.904   4.349  0.0382  1.1940 -0.0775
 7868SOL    HW135237   0.050   1.973   4.374  0.7082  1.7284  0.0950
 7868SOL    HW235238   0.142   1.861   4.429  0.0042  3.5911  1.2118
 7869SOL     OW35239   2.726   3.386   7.102 -0.4910 -0.0374 -0.4071
 7869SOL    HW135240   2.752   3.346   7.019 -0.7413 -0.4529 -0.2875
 7869SOL    HW235241   2.809   3.422   7.132 -1.4374 -0.8691  3.1430
 7870SOL     OW35242   0.050   2.155   8.826  0.0207  0.2908 -0.0936
 7870SOL    HW135243   4.728   2.082   8.848  2.4576 -1.6060  0.1723
 7870SOL    HW235244   0.134   2.108   8.828 -0.1384  0.0129  0.1284
 7871SOL     OW35245   0.892   0.574   9.705 -0.0702  0.0778 -0.3994
 7871SOL    HW135246   0.835   0.530   9.641 -2.2983 -1.3701  2.5874
 7871SOL    HW235247   0.831   0.591   9.777  0.7967 -2.0436  0.8440
 7872SOL     OW35248   4.469   0.365   1.739 -0.0241 -0.3567 -0.1098
 7872SOL    HW135249   4.410   0.426   1.695  1.1977  0.9504  0.0565
 7872SOL    HW235250   4.437   0.282   1.703  3.8267 -0.5906 -2.9454
 7873SOL     OW35251   0.732   2.085  13.097 -0.0529 -0.2856 -0.1247
 7873SOL    HW135252   0.765   2.174  13.112  0.1644 -0.1581 -1.2871
 7873SOL    HW235253   0.639   2.100  13.109 -0.4645 -2.8370 -0.1359
 7874SOL     OW35254   2.357   1.028   3.687  0.1398  0.5062  1.2423
 7874SOL    HW135255   2.294   1.027   3.615  1.2523  0.4249  0.2741
 7874SOL    HW235256   2.305   1.058   3.762  0.6561  2.5270  0.8013
 7875SOL     OW35257   0.408   3.855   7.666 -0.1722  0.5688  0.4345
 7875SOL    HW135258   0.416   3.785   7.731 -2.5071  0.1829  0.3253
 7875SOL    HW235259   0.477   3.913   7.699  0.9034 -1.5976  1.9881
 7876SOL     OW35260   4.554   2.340  16.720 -0.2542  0.1336  0.1185
 7876SOL    HW135261   4.606   2.420  16.728  0.7543 -0.2150 -2.7558
 7876SOL    HW235262   4.489   2.362  16.653 -0.0274  0.5781  0.0441
 7877SOL     OW35263   0.663   2.922   5.978 -0.3096 -0.4005 -0.1380
 7877SOL    HW135264   0.582   2.921   6.029 -0.9109 -0.0454 -1.0981
 7877SOL    HW235265   0.623   2.909   5.892  0.3437  0.7314 -0.6110
 7878SOL     OW35266   1.773   0.439  12.272 -0.1116 -0.1730  0.0992
 7878SOL    HW135267   1.707   0.394  12.326 -0.1184 -0.1182  0.1366
 7878SOL    HW235268   1.846   0.443  12.334 -0.3717  1.6386  0.2995
 7879SOL     OW35269   2.168   2.019   4.058 -0.9454 -0.2860 -0.4131
 7879SOL    HW135270   2.259   1.991   4.051 -1.1178 -1.0787  0.5965
 7879SOL    HW235271   2.161   2.087   4.125 -0.2185 -1.1059  0.4791
 7880SOL     OW35272   4.269   1.798  15.222 -0.3710 -0.2459  0.6521
 7880SOL    HW135273   4.195   1.858  15.228 -0.8897 -0.7467 -1.0071
 7880SOL    HW235274   4.257   1.730  15.288  0.6042 -1.6226 -0.5868
 7881SOL     OW35275   4.635   0.139  16.524  0.4315  0.2554 -0.4597
 7881SOL    HW135276   4.699   0.122  16.455 -0.5001 -1.3309 -0.9303
 7881SOL    HW235277   4.564   0.079  16.500  1.1362 -0.4247 -0.8326
 7882SOL     OW35278   3.385   0.232   4.018  0.1468 -0.0575 -0.0207
 7882SOL    HW135279   3.346   0.316   4.041 -0.1560 -0.5407  1.2598
 7882SOL    HW235280   3.357   0.223   3.927  1.4834  2.8383 -0.7088
 7883SOL     OW35281   1.801   2.459   2.142 -0.1069 -0.1737 -0.3280
 7883SOL    HW135282   1.736   2.529   2.152  0.7691  0.7366 -1.0460
 7883SOL    HW235283   1.874   2.511   2.109  1.4941 -1.8848  0.5077
 7884SOL     OW35284   3.190   3.764  12.705 -0.2280 -0.3570  0.0623
 7884SOL    HW135285   3.246   3.765  12.783  0.0457 -0.5507 -0.1343
 7884SOL    HW235286   3.103   3.786  12.739  0.2389  1.8801 -0.1736
 7885SOL     OW35287   4.207   1.839  14.679 -0.7078 -0.5223  0.5581
 7885SOL    HW135288   4.138   1.775  14.699 -3.3129  1.4201 -2.0932
 7885SOL    HW235289   4.217   1.872  14.768  0.5629  2.1643 -0.5898
 7886SOL     OW35290   0.116   4.499   3.443  0.2056  0.1108 -0.1232
 7886SOL    HW135291   0.176   4.567   3.473  1.4287 -0.3525 -1.4847
 7886SOL    HW235292   0.070   4.552   3.378  0.9822  0.3341 -0.4897
 7887SOL     OW35293   0.994   3.389   9.889 -0.2758  0.3547 -0.1935
 7887SOL    HW135294   0.918   3.352   9.934  0.2820 -0.8829 -0.2679
 7887SOL    HW235295   0.994   3.476   9.930 -1.6183 -0.9329  2.5272
 7888SOL     OW35296   0.079   2.640   1.232  0.5805  0.3934 -0.4953
 7888SOL    HW135297   0.045   2.585   1.162 -1.9865 -0.3242  1.3020
 7888SOL    HW235298   0.164   2.660   1.195  0.5783 -0.3145 -0.8767
 7889SOL     OW35299   4.370   3.843   4.846  0.2902  0.2113  0.2385
 7889SOL    HW135300   4.425   3.772   4.879 -1.3326 -1.6886 -1.0719
 7889SOL    HW235301   4.289   3.795   4.824 -0.0292  1.3153 -0.9972
 7890SOL     OW35302   4.522   0.978   1.778  0.3151  0.2511 -0.2260
 7890SOL    HW135303   4.530   0.888   1.809 -0.0763  0.0068 -0.8268
 7890SOL    HW235304   4.574   0.972   1.698 -0.7208 -0.2043 -0.8706
 7891SOL     OW35305   2.158   3.189   5.446  0.1881  0.0091  0.2778
 7891SOL    HW135306   2.182   3.097   5.452 -1.0987 -0.2099  2.3719
 7891SOL    HW235307   2.090   3.195   5.379 -1.8441 -0.0663  2.3165
 7892SOL     OW35308   3.447   3.232   0.443  0.1317 -1.2425  0.3189
 7892SOL    HW135309   3.506   3.156   0.441  1.4217 -0.2152 -0.9447
 7892SOL    HW235310   3.496   3.285   0.380  0.4616 -3.2565 -1.1452
 7893SOL     OW35311   2.761   2.899   5.473 -0.3354  0.1937 -0.3368
 7893SOL    HW135312   2.798   2.971   5.422  1.4358 -1.0986 -0.8973
 7893SOL    HW235313   2.673   2.900   5.433  0.3544 -2.1884 -1.9315
 7894SOL     OW35314   0.671   3.332   1.296 -0.2436 -0.4473 -0.1066
 7894SOL    HW135315   0.622   3.405   1.258 -0.0468 -0.2247  0.0664
 7894SOL    HW235316   0.704   3.378   1.373 -0.8146  0.8238 -0.6182
 7895SOL     OW35317   0.305   3.881   4.229 -0.0926  0.1032 -0.2106
 7895SOL    HW135318   0.294   3.830   4.149  0.4299  1.9002 -1.3994
 7895SOL    HW235319   0.269   3.819   4.293  0.3796 -0.3857 -0.4211
 7896SOL     OW35320   0.073   1.511  14.640 -0.3087  0.4182 -0.5215
 7896SOL    HW135321   0.085   1.604  14.657 -1.5429  0.4732  0.1181
 7896SOL    HW235322   0.043   1.480  14.726 -1.9904  0.1183 -1.2017
 7897SOL     OW35323   3.567   3.540   4.872  0.7016 -0.2921  0.5441
 7897SOL    HW135324   3.569   3.511   4.963 -0.1649  1.2637  1.0566
 7897SOL    HW235325   3.513   3.619   4.878 -0.1223 -0.9075  1.1688
 7898SOL     OW35326   1.253   0.627   8.298 -0.0190  0.1029 -0.1885
 7898SOL    HW135327   1.326   0.689   8.300 -0.1133  0.1824  0.6573
 7898SOL    HW235328   1.236   0.606   8.389  0.0465 -1.0367 -0.4344
 7899SOL     OW35329   1.594   4.620   5.728  0.1923 -0.2220  0.0726
 7899SOL    HW135330   1.666   4.559   5.710  1.2156  1.1181 -0.3500
 7899SOL    HW235331   1.631   4.706   5.709 -0.2843  0.0293  0.2847
 7900SOL     OW35332   1.892   0.701  14.880  0.3414 -0.3396  0.2944
 7900SOL    HW135333   1.861   0.652  14.956 -0.1791  0.0871  0.3560
 7900SOL    HW235334   1.827   0.687  14.811  0.1518  1.9603  0.0226
 7901SOL     OW35335   0.931   4.221  17.565 -0.5135 -0.1634 -0.4746
 7901SOL    HW135336   0.874   4.208  17.641  1.6301  0.7224  1.2852
 7901SOL    HW235337   0.974   4.135  17.554  0.1897  0.0399  0.7334
 7902SOL     OW35338   4.093   0.893   0.293  0.1613 -0.5899  0.1159
 7902SOL    HW135339   4.019   0.841   0.325  0.0199  0.5513  1.6503
 7902SOL    HW235340   4.062   0.980   0.319 -0.4593 -0.7542 -0.0726
 7903SOL     OW35341   3.833   4.698   3.415  0.1683  0.4899 -0.5297
 7903SOL    HW135342   3.748   4.732   3.388 -1.1410 -2.9219 -0.6308
 7903SOL    HW235343   3.853   0.026   3.482  2.0515 -2.1476  1.4682
 7904SOL     OW35344   3.689   0.006   2.751 -0.3054 -0.3018  0.1403
 7904SOL    HW135345   3.748   0.081   2.755  0.1947 -0.8155  2.7369
 7904SOL    HW235346   3.600   0.040   2.744  1.0453  3.3810  1.2710
 7905SOL     OW35347   2.429   3.693   5.560 -0.2661 -0.2488 -0.3951
 7905SOL    HW135348   2.377   3.754   5.507 -0.7844  0.7575  1.2932
 7905SOL    HW235349   2.438   3.626   5.491  0.5807 -0.1454 -0.3813
 7906SOL     OW35350   2.466   1.769   7.178 -0.4624  0.1345 -0.2127
 7906SOL    HW135351   2.489   1.687   7.134 -0.8753  0.2818 -0.7101
 7906SOL    HW235352   2.551   1.812   7.185 -0.1484 -0.1455 -2.1273
 7907SOL     OW35353   2.282   1.489   8.811 -0.7329 -0.3259  0.4506
 7907SOL    HW135354   2.305   1.419   8.750 -0.5378 -0.1298  0.2988
 7907SOL    HW235355   2.318   1.449   8.890  0.3740 -0.8483 -0.3165
 7908SOL     OW35356   2.359   1.012   2.438 -0.3547  0.6649 -0.1674
 7908SOL    HW135357   2.425   0.960   2.393 -1.2658 -1.7572  1.3166
 7908SOL    HW235358   2.309   1.052   2.366 -3.3382 -2.0884  0.3761
 7909SOL     OW35359   2.875   2.941   4.551  0.1359  0.1892  0.8794
 7909SOL    HW135360   2.842   2.892   4.626 -1.3034  0.7787  0.6341
 7909SOL    HW235361   2.836   2.895   4.477  0.3389  3.1792 -1.0949
 7910SOL     OW35362   3.835   2.573   7.636 -0.1084 -0.1005 -0.2921
 7910SOL    HW135363   3.775   2.499   7.633 -0.1550 -0.0722 -0.0742
 7910SOL    HW235364   3.902   2.528   7.688  0.0655  0.6537  0.1433
 7911SOL     OW35365   2.127   3.785  12.177 -0.1598  0.1159  0.0161
 7911SOL    HW135366   2.208   3.833  12.195 -0.9081  2.5437 -3.0650
 7911SOL    HW235367   2.114   3.803  12.084 -2.0988  0.7250  0.4031
 7912SOL     OW35368   3.432   3.402   2.041  0.8784 -0.4989 -0.5475
 7912SOL    HW135369   3.399   3.313   2.029 -0.5967  0.0969 -0.8539
 7912SOL    HW235370   3.376   3.426   2.115 -0.6694  0.1769 -1.9571
 7913SOL     OW35371   4.385   0.353   3.575 -0.1847 -0.2085 -0.0579
 7913SOL    HW135372   4.374   0.384   3.485  2.4076 -2.5834 -1.1776
 7913SOL    HW235373   4.313   0.289   3.572 -1.2874  1.0252  0.1912
 7914SOL     OW35374   1.841   1.352  11.552  0.0134 -0.2842 -0.9980
 7914SOL    HW135375   1.792   1.316  11.478 -0.0745 -0.9541 -0.6108
 7914SOL    HW235376   1.920   1.298  11.551  0.5394  0.4616  0.7492
 7915SOL     OW35377   3.330   3.026   7.525 -0.5498 -0.2599  0.2052
 7915SOL    HW135378   3.297   3.057   7.609 -1.6283 -1.8336  0.3608
 7915SOL    HW235379   3.423   3.038   7.542 -0.8686  0.5985  1.3111
 7916SOL     OW35380   4.371   0.827   9.011  0.0588  1.1174 -0.3336
 7916SOL    HW135381   4.344   0.872   9.092  1.7108  0.6231  0.4843
 7916SOL    HW235382   4.463   0.816   9.035 -0.7515 -1.6586  1.4814
 7917SOL     OW35383   4.333   2.876   5.316 -0.6198  0.5757 -1.0018
 7917SOL    HW135384   4.374   2.866   5.229  0.8553  2.5240 -0.5148
 7917SOL    HW235385   4.369   2.962   5.337 -0.7827  0.9060 -2.0867
 7918SOL     OW35386   2.865   2.218   3.936  0.4320 -0.3958  0.0912
 7918SOL    HW135387   2.853   2.265   3.854 -1.5035 -2.9124 -1.0664
 7918SOL    HW235388   2.888   2.296   3.987  0.3118  0.7715 -1.6498
 7919SOL     OW35389   0.813   2.167  12.777  0.2671 -0.3090  0.4333
 7919SOL    HW135390   0.836   2.109  12.850  2.6607 -1.8850 -1.5780
 7919SOL    HW235391   0.732   2.205  12.810  0.5253  0.4425  0.1908
 7920SOL     OW35392   0.174   2.079   5.918 -0.3826 -0.5142  0.0575
 7920SOL    HW135393   0.096   2.088   5.973  0.1512  0.1744  0.7093
 7920SOL    HW235394   0.150   2.031   5.839  0.3989 -0.6253 -0.1105
 7921SOL     OW35395   0.555   1.071   7.722 -0.0454  0.0298  0.5793
 7921SOL    HW135396   0.551   1.037   7.632 -0.4129 -1.5225  1.1850
 7921SOL    HW235397   0.471   1.037   7.751  0.6711 -2.5018 -0.2234
 7922SOL     OW35398   0.279   2.330   6.474 -0.2092 -0.6762 -0.5582
 7922SOL    HW135399   0.189   2.314   6.501 -0.4897  1.2386 -0.3702
 7922SOL    HW235400   0.315   2.345   6.562  1.3192  1.8164 -1.6208
 7923SOL     OW35401   3.279   3.127   7.764  0.7532  0.1665  0.0005
 7923SOL    HW135402   3.226   3.099   7.839  0.5795 -1.3922 -0.7109
 7923SOL    HW235403   3.367   3.114   7.799  1.4836  0.1256 -1.8983
 7924SOL     OW35404   4.444   3.325   0.837  0.1061  0.0003 -0.0392
 7924SOL    HW135405   4.510   3.389   0.813  0.2137  0.0837  0.4693
 7924SOL    HW235406   4.361   3.362   0.807 -0.7402  0.2745  2.6174
 7925SOL     OW35407   1.851   2.828   5.436 -0.2494 -0.7017 -0.2457
 7925SOL    HW135408   1.824   2.886   5.507  2.1192 -0.4127  0.4389
 7925SOL    HW235409   1.935   2.795   5.470 -0.8625 -0.0025  1.9127
 7926SOL     OW35410   1.933   3.085   3.777 -0.1293 -0.5510 -0.5124
 7926SOL    HW135411   1.873   3.114   3.846  0.6829 -0.8998  0.3409
 7926SOL    HW235412   2.016   3.116   3.812  0.4538 -1.6453 -0.9494
 7927SOL     OW35413   1.579   2.776  14.111 -0.0183  0.1399 -0.5689
 7927SOL    HW135414   1.632   2.766  14.032  2.2644 -0.7195  1.0592
 7927SOL    HW235415   1.633   2.844  14.152  1.4122 -0.9198 -0.6744
 7928SOL     OW35416   3.497   1.176   4.585  0.1225  0.3791  0.1453
 7928SOL    HW135417   3.475   1.265   4.557  1.0895  0.9767  1.2412
 7928SOL    HW235418   3.590   1.177   4.562 -0.1871  1.0938 -1.0576
 7929SOL     OW35419   1.537   0.212   9.484 -0.2739  0.0241  0.0413
 7929SOL    HW135420   1.453   0.171   9.467 -1.8264  3.0635  0.3716
 7929SOL    HW235421   1.518   0.302   9.457 -0.7399  0.2121  1.0189
 7930SOL     OW35422   0.960   1.525   4.429  0.6706  0.7247  0.1060
 7930SOL    HW135423   0.968   1.612   4.391 -3.3628  1.7402  1.4967
 7930SOL    HW235424   1.004   1.460   4.375 -0.2341  0.3781 -0.2150
 7931SOL     OW35425   1.275   2.179   7.537  0.0016 -0.2311 -0.0838
 7931SOL    HW135426   1.353   2.158   7.588 -1.2068 -1.2187  1.3283
 7931SOL    HW235427   1.231   2.095   7.539  0.2256 -0.3533 -0.2677
 7932SOL     OW35428   1.636   1.131  16.693  0.2505  0.1832 -0.1880
 7932SOL    HW135429   1.707   1.165  16.748 -0.0135 -0.2023  0.3939
 7932SOL    HW235430   1.654   1.180  16.613 -0.6378  0.7662 -0.0341
 7933SOL     OW35431   3.937   3.097   8.781 -0.3862 -0.4273 -0.5716
 7933SOL    HW135432   3.920   3.033   8.850  3.0762 -2.5518 -1.6577
 7933SOL    HW235433   3.847   3.129   8.782 -0.5911 -1.0286  0.8889
 7934SOL     OW35434   3.506   1.726   5.783 -0.3234 -0.0568  0.1086
 7934SOL    HW135435   3.492   1.707   5.876  2.8585 -0.5825  0.4742
 7934SOL    HW235436   3.422   1.689   5.755 -0.5054  0.3466  0.1273
 7935SOL     OW35437   2.832   0.459   2.609  0.2617 -0.3917 -0.5830
 7935SOL    HW135438   2.838   0.368   2.580  0.6270  0.3872 -3.0046
 7935SOL    HW235439   2.882   0.508   2.544 -1.0424  2.4951  0.6045
 7936SOL     OW35440   0.946   4.511  17.552  0.3947 -0.3879  0.9111
 7936SOL    HW135441   0.917   4.541  17.638 -1.3565 -1.3804  0.6566
 7936SOL    HW235442   0.987   4.425  17.564 -0.8591 -1.2128 -0.7369
 7937SOL     OW35443   1.587   0.784   5.595  0.6721 -0.2558  0.1503
 7937SOL    HW135444   1.511   0.839   5.611  1.6710  0.1255  3.5120
 7937SOL    HW235445   1.656   0.850   5.588  0.5541 -0.2486 -0.8537
 7938SOL     OW35446   1.081   4.396   6.942  0.4721 -0.2888 -0.2029
 7938SOL    HW135447   1.041   4.483   6.946  0.1773 -0.4370  0.1270
 7938SOL    HW235448   1.149   4.407   7.008 -1.0828  1.8134  1.0669
 7939SOL     OW35449   2.900   0.025   3.011 -0.6155 -0.6549  0.4443
 7939SOL    HW135450   2.907   4.667   3.019 -3.1020 -0.9097 -0.2833
 7939SOL    HW235451   2.921   0.059   3.098  1.0331 -1.1793  0.2342
 7940SOL     OW35452   2.296   1.453   8.140 -0.1004  0.1847  0.3366
 7940SOL    HW135453   2.254   1.519   8.085  1.4101  0.2969 -0.6587
 7940SOL    HW235454   2.361   1.414   8.082 -2.2200 -2.7469 -0.1102
 7941SOL     OW35455   1.388   2.130   2.543 -0.0266 -0.4874 -0.0068
 7941SOL    HW135456   1.317   2.185   2.578  0.5618  1.7348 -2.3602
 7941SOL    HW235457   1.400   2.178   2.461  1.4045  0.5235  0.8099
 7942SOL     OW35458   3.239   1.939   6.608 -0.0232  0.0073  0.2872
 7942SOL    HW135459   3.186   1.869   6.570  0.6233 -0.6225  0.5346
 7942SOL    HW235460   3.324   1.895   6.610  0.8494  1.5676 -2.5362
 7943SOL     OW35461   4.353   4.099  13.175  0.1555  0.7771  0.2830
 7943SOL    HW135462   4.298   4.021  13.166  1.2896  0.0763 -0.5068
 7943SOL    HW235463   4.289   4.167  13.197 -0.2649  0.7503 -0.8561
 7944SOL     OW35464   4.722   1.227   2.511  0.4159 -1.0611  0.0328
 7944SOL    HW135465   4.685   1.144   2.480 -0.2409 -0.4551 -0.8061
 7944SOL    HW235466   4.693   1.230   2.602  0.2750 -0.1666 -0.0506
 7945SOL     OW35467   0.161   1.498   2.958  0.7472  0.7075 -0.1616
 7945SOL    HW135468   0.163   1.434   2.887 -0.8788  1.6153 -1.0550
 7945SOL    HW235469   0.201   1.449   3.029  0.3305  0.1510 -0.3160
 7946SOL     OW35470   1.510   0.707   2.681 -0.3035  0.5332 -0.1613
 7946SOL    HW135471   1.591   0.737   2.720 -0.0733 -0.7383  0.3511
 7946SOL    HW235472   1.457   0.785   2.665 -0.8934 -0.1292 -1.4864
 7947SOL     OW35473   4.455   3.254   5.835  0.3474  0.1854 -0.1214
 7947SOL    HW135474   4.548   3.242   5.854  0.7786  0.4437 -2.0843
 7947SOL    HW235475   4.436   3.172   5.789  2.0124  0.6297 -1.6206
 7948SOL     OW35476   4.217   0.390  16.349  0.3145  0.2768  0.4585
 7948SOL    HW135477   4.183   0.473  16.384 -1.0117 -0.2943  0.5218
 7948SOL    HW235478   4.134   0.344  16.336  0.0701  0.3564  1.7735
 7949SOL     OW35479   3.908   3.235   8.033  0.1708  0.2824 -0.2187
 7949SOL    HW135480   3.972   3.165   8.046 -0.0080  0.2192  0.3355
 7949SOL    HW235481   3.900   3.266   8.124  0.8007  1.5706 -0.5993
 7950SOL     OW35482   3.070   3.646   0.114 -0.3376 -0.3589 -0.4852
 7950SOL    HW135483   3.131   3.637   0.040  1.2688  1.2914  0.6380
 7950SOL    HW235484   3.001   3.697   0.072  0.9539  1.0673 -0.8753
 7951SOL     OW35485   0.294   3.826   7.012  0.7711 -0.4786 -0.1767
 7951SOL    HW135486   0.384   3.812   7.042  0.2664  1.2245  2.1090
 7951SOL    HW235487   0.316   3.878   6.935  0.1962 -1.2055 -0.8336
 7952SOL     OW35488   2.276   4.704   9.073 -0.2602 -0.3346  0.4988
 7952SOL    HW135489   2.359   0.005   9.101  0.2509  0.9213 -2.6214
 7952SOL    HW235490   2.205   0.031   9.079 -0.9393 -1.3957  3.2636
 7953SOL     OW35491   0.394   3.013   2.776  0.3064  0.1127  0.6784
 7953SOL    HW135492   0.446   3.083   2.814  1.0039 -0.0090 -0.0293
 7953SOL    HW235493   0.327   2.993   2.840 -2.3297  1.6360 -1.6071
 7954SOL     OW35494   4.445   3.566   8.156  0.2745  0.9404  0.3410
 7954SOL    HW135495   4.430   3.472   8.146  2.2771  0.5777  0.7360
 7954SOL    HW235496   4.355   3.595   8.173 -0.0814 -0.3411  0.6642
 7955SOL     OW35497   0.300   1.705   0.198 -0.4202 -0.1479 -0.6120
 7955SOL    HW135498   0.273   1.617   0.171  2.1093 -0.8855 -0.6982
 7955SOL    HW235499   0.306   1.754   0.117  1.9640 -0.4878 -0.6266
 7956SOL     OW35500   0.738   3.491   1.762 -0.3287  0.6154  0.1928
 7956SOL    HW135501   0.811   3.534   1.806  0.1788 -0.2232  0.1745
 7956SOL    HW235502   0.662   3.517   1.814  0.2961 -0.8972  1.8689
 7957SOL     OW35503   3.627   1.819   5.099  0.0049 -0.4128 -0.2853
 7957SOL    HW135504   3.706   1.817   5.046  1.4056  1.3959  1.7350
 7957SOL    HW235505   3.560   1.867   5.051  0.3573 -0.7186 -1.0742
 7958SOL     OW35506   2.576   3.303   8.322  0.4386  0.6086 -0.0008
 7958SOL    HW135507   2.552   3.379   8.375  0.2806  2.0663 -2.1260
 7958SOL    HW235508   2.640   3.343   8.263  0.0650  1.5377  0.2197
 7959SOL     OW35509   0.544   2.090  13.506  0.3245 -0.0353 -0.3771
 7959SOL    HW135510   0.580   2.178  13.496  1.4999 -0.5228 -0.4445
 7959SOL    HW235511   0.615   2.037  13.469  0.7072  1.1601 -1.3484
 7960SOL     OW35512   3.045   2.610  13.933  0.9394 -0.1519  0.6313
 7960SOL    HW135513   3.089   2.525  13.937 -1.7683 -1.6231 -0.6485
 7960SOL    HW235514   3.082   2.627  13.846  1.4937  0.2443  0.9475
 7961SOL     OW35515   4.236   1.698   9.424  0.0263  0.1367  0.3385
 7961SOL    HW135516   4.276   1.708   9.510 -0.0295  0.3450  0.3397
 7961SOL    HW235517   4.244   1.604   9.409 -1.7210  0.3421 -1.9440
 7962SOL     OW35518   0.424   0.927   3.849  0.6363 -0.1778 -0.1239
 7962SOL    HW135519   0.389   1.017   3.846 -0.7756 -0.7223 -0.0204
 7962SOL    HW235520   0.434   0.910   3.755 -2.1907  1.8569 -0.8170
 7963SOL     OW35521   3.346   3.632   6.255  0.1563  0.2332  0.3685
 7963SOL    HW135522   3.417   3.679   6.211  1.1750 -0.8147  0.8762
 7963SOL    HW235523   3.390   3.588   6.328  0.3658 -1.6152 -0.8574
 7964SOL     OW35524   1.661   2.275   7.434 -0.0721 -0.7375 -0.0849
 7964SOL    HW135525   1.754   2.290   7.418  0.2350 -0.8511  1.6515
 7964SOL    HW235526   1.659   2.180   7.443 -1.8503 -0.7827 -0.8838
 7965SOL     OW35527   2.101   1.159   2.226  0.4226  0.1026 -0.3464
 7965SOL    HW135528   2.109   1.065   2.211 -0.6190  0.1079 -0.9281
 7965SOL    HW235529   2.014   1.177   2.192  1.1616 -0.2653 -2.4167
 7966SOL     OW35530   3.377   4.250  13.004 -0.2646 -0.3400  0.0944
 7966SOL    HW135531   3.384   4.340  13.036  0.3539  0.1645 -1.4411
 7966SOL    HW235532   3.412   4.257  12.915  1.1596 -1.6443  0.5411
 7967SOL     OW35533   3.071   2.596   1.517  0.3327 -0.1184  0.1174
 7967SOL    HW135534   3.051   2.571   1.607 -0.1554  2.4587  0.7042
 7967SOL    HW235535   2.991   2.636   1.482  1.6832  1.6755 -0.8942
 7968SOL     OW35536   2.049   1.438  16.751  0.0226 -0.5372 -0.0019
 7968SOL    HW135537   1.991   1.506  16.785  2.1898  0.9752  0.7286
 7968SOL    HW235538   2.028   1.442  16.658 -0.1280  3.5010  0.2096
 7969SOL     OW35539   3.773   1.162   7.742  0.1553  0.0995  0.3040
 7969SOL    HW135540   3.783   1.257   7.745  0.3844  0.0606  0.8989
 7969SOL    HW235541   3.706   1.149   7.809  0.2461  1.0611  0.5786
 7970SOL     OW35542   4.164   2.450   7.446  0.4159  0.1117  0.4007
 7970SOL    HW135543   4.148   2.389   7.517 -0.4320  1.0833  1.0537
 7970SOL    HW235544   4.235   2.500   7.486  0.4079 -0.7743  1.5021
 7971SOL     OW35545   3.130   2.887  13.678 -0.0032 -0.3641  0.0350
 7971SOL    HW135546   3.214   2.866  13.638 -0.2555  1.3017 -1.3802
 7971SOL    HW235547   3.142   2.982  13.689  1.6612 -0.4731 -0.8315
 7972SOL     OW35548   1.763   3.494   9.297  0.4510 -0.3312  0.1929
 7972SOL    HW135549   1.668   3.501   9.310  0.2826 -1.0142 -0.6583
 7972SOL    HW235550   1.774   3.542   9.216 -0.7049 -0.5462 -0.0999
 7973SOL     OW35551   0.976   2.313  10.800  0.1991  0.0555  0.2713
 7973SOL    HW135552   0.920   2.335  10.726 -0.2336 -1.0919  0.2671
 7973SOL    HW235553   1.053   2.356  10.762 -0.5594  0.9543 -0.2525
 7974SOL     OW35554   2.492   0.789   7.631  0.1040  0.1860  0.3876
 7974SOL    HW135555   2.448   0.829   7.556  2.4360 -0.0801 -1.1009
 7974SOL    HW235556   2.421   0.733   7.664 -2.9488  2.9102 -1.6260
 7975SOL     OW35557   3.885   4.170  12.595 -1.0055  0.7384 -0.4342
 7975SOL    HW135558   3.951   4.239  12.588 -0.6073  0.3871 -0.1279
 7975SOL    HW235559   3.927   4.129  12.670  0.5686  1.1828 -1.0808
 7976SOL     OW35560   2.515   2.655   8.344 -0.0733 -0.1383  0.2099
 7976SOL    HW135561   2.607   2.647   8.367 -0.1864 -1.7397  0.1295
 7976SOL    HW235562   2.519   2.693   8.256 -1.2918 -2.4789 -0.8679
 7977SOL     OW35563   3.740   0.593   8.599 -0.0376 -0.2221 -0.0317
 7977SOL    HW135564   3.782   0.547   8.672 -2.5077 -3.3188 -0.5308
 7977SOL    HW235565   3.738   0.523   8.533 -1.3030 -0.5010  0.2918
 7978SOL     OW35566   1.219   2.278   8.003 -0.1063 -0.6458  0.0935
 7978SOL    HW135567   1.297   2.331   8.016  0.0478 -0.6836 -0.6853
 7978SOL    HW235568   1.159   2.338   7.957  0.0983  0.5188  1.3610
 7979SOL     OW35569   4.662   0.953   2.486 -0.1434  0.2659  0.3529
 7979SOL    HW135570   4.581   0.930   2.531  0.3082  1.1069  1.5858
 7979SOL    HW235571   4.648   0.921   2.397  1.0590  0.4553  0.0969
 7980SOL     OW35572   1.126   3.412   6.227 -0.2909 -0.1491 -0.1190
 7980SOL    HW135573   1.137   3.488   6.285 -1.3107  0.4106 -0.6704
 7980SOL    HW235574   1.198   3.358   6.261 -0.9274 -0.9493 -0.0492
 7981SOL     OW35575   1.919   2.361   2.975  0.7414 -1.0079 -0.4909
 7981SOL    HW135576   1.833   2.402   2.989  1.4820  0.2772  0.2581
 7981SOL    HW235577   1.962   2.435   2.932 -0.7647  1.3824  2.0860
 7982SOL     OW35578   3.858   1.538   6.112  0.0002 -0.1030 -0.1478
 7982SOL    HW135579   3.798   1.584   6.171 -0.7113 -1.1880 -0.0165
 7982SOL    HW235580   3.877   1.464   6.169 -0.1910  1.1767  1.5640
 7983SOL     OW35581   0.361   0.927   7.861 -0.2536 -0.1866  0.1845
 7983SOL    HW135582   0.296   0.920   7.931 -2.2676  1.3104 -1.5590
 7983SOL    HW235583   0.402   0.841   7.867 -1.1948 -0.5422  1.5611
 7984SOL     OW35584   4.178   1.659   6.931  0.2745 -0.1518 -0.3698
 7984SOL    HW135585   4.132   1.743   6.932  1.4488  0.4778  0.6955
 7984SOL    HW235586   4.107   1.595   6.925 -1.6413  1.4056  5.2877
 7985SOL     OW35587   0.882   2.689   0.842 -0.1578  0.1152 -0.4845
 7985SOL    HW135588   0.809   2.739   0.878 -0.1018 -1.4469  1.8030
 7985SOL    HW235589   0.886   2.728   0.755 -0.8678 -0.9675 -1.0082
 7986SOL     OW35590   3.147   3.567   5.276 -0.1235 -0.5186 -0.7638
 7986SOL    HW135591   3.148   3.649   5.325  4.4224  0.1807 -2.0507
 7986SOL    HW235592   3.142   3.598   5.185  0.5318  1.8778  0.0188
 7987SOL     OW35593   4.436   2.309   6.473 -0.5171  0.1401  0.1433
 7987SOL    HW135594   4.391   2.231   6.508  1.8632 -0.9491  0.7781
 7987SOL    HW235595   4.463   2.359   6.550 -1.0570  0.9163 -0.1718
 7988SOL     OW35596   4.317   3.985  13.470 -0.4292  0.8127 -0.2312
 7988SOL    HW135597   4.261   3.949  13.539  1.8558 -0.0940  1.1280
 7988SOL    HW235598   4.303   3.924  13.398 -0.1722 -0.5555  0.8909
 7989SOL     OW35599   2.045   4.612  14.455 -0.0204 -0.6578 -0.0926
 7989SOL    HW135600   1.981   4.545  14.430 -2.7923  1.6867  0.8575
 7989SOL    HW235601   1.989   4.671  14.504  0.1483  0.9038 -1.7695
 7990SOL     OW35602   1.946   3.631   5.137  0.3358 -0.0387 -0.0722
 7990SOL    HW135603   1.924   3.579   5.060  2.3659 -0.7904 -0.1453
 7990SOL    HW235604   1.992   3.565   5.189 -1.3450  0.1691  1.6771
 7991SOL     OW35605   2.488   0.019   9.321 -0.0396  0.1701  0.1346
 7991SOL    HW135606   2.488   0.111   9.346  0.1721  0.0916  0.4311
 7991SOL    HW235607   2.415   4.725   9.375 -3.4730  1.0735 -4.0037
 7992SOL     OW35608   0.215   4.339   4.670  0.5098 -0.4526 -0.0739
 7992SOL    HW135609   0.297   4.352   4.623 -0.7573 -2.3826 -2.8317
 7992SOL    HW235610   0.204   4.254   4.628 -0.6696 -0.4947  0.3051
 7993SOL     OW35611   1.388   4.432  15.965 -0.5442 -0.8808 -0.0635
 7993SOL    HW135612   1.331   4.444  16.041 -1.6800  0.1493 -1.0605
 7993SOL    HW235613   1.323   4.423  15.896  0.3806  3.2970 -1.4949
 7994SOL     OW35614   1.881   0.251   7.307 -0.0354 -0.0389 -0.1451
 7994SOL    HW135615   1.920   0.316   7.249 -1.0519  1.6156  1.0255
 7994SOL    HW235616   1.792   0.254   7.273 -0.1972  1.4903  0.4294
 7995SOL     OW35617   3.885   1.772   2.427 -0.1209 -0.0058  0.1273
 7995SOL    HW135618   3.928   1.752   2.345 -0.5014 -1.3514  0.2531
 7995SOL    HW235619   3.824   1.698   2.423 -2.5415  2.1290 -1.9905
 7996SOL     OW35620   0.342   0.465   3.501 -0.2485  0.0191  0.3459
 7996SOL    HW135621   0.403   0.503   3.565  0.9244  0.0359 -0.7727
 7996SOL    HW235622   0.289   0.541   3.478  0.8028 -0.3613 -3.3405
 7997SOL     OW35623   4.700   4.595  16.667  0.3084  0.1897  0.3183
 7997SOL    HW135624   4.629   4.564  16.723  2.0206 -0.3575  2.1774
 7997SOL    HW235625   0.024   4.521  16.660 -0.4254 -0.0114 -4.0484
 7998SOL     OW35626   0.023   0.311   9.636 -0.8538 -0.2902  0.0309
 7998SOL    HW135627   0.025   0.296   9.730  0.6552 -1.5643 -0.2023
 7998SOL    HW235628   4.681   0.262   9.614 -0.5547 -0.7415 -0.0212
 7999SOL     OW35629   1.052   0.458   6.938 -0.1523  0.3442  0.2412
 7999SOL    HW135630   0.978   0.433   6.882 -0.6936  3.7067 -0.5270
 7999SOL    HW235631   1.035   0.414   7.021  0.2928  2.4179  1.4292
 8000SOL     OW35632   3.975   0.319  13.873  0.0494  0.1892 -0.1865
 8000SOL    HW135633   3.968   0.401  13.923 -2.0367 -1.3073  1.9734
 8000SOL    HW235634   4.062   0.346  13.843  0.6774 -1.3985  0.2164
 8001SOL     OW35635   3.918   4.656   6.022  0.0471  0.5041 -0.3357
 8001SOL    HW135636   3.981   4.587   5.999 -1.9087 -1.9530  1.7157
 8001SOL    HW235637   3.965   4.696   6.095 -0.8428  0.1541  0.4304
 8002SOL     OW35638   0.562   2.764   7.257  0.1624 -0.4526  0.5620
 8002SOL    HW135639   0.563   2.754   7.352  0.0093  2.5613  0.9076
 8002SOL    HW235640   0.473   2.794   7.243  0.1528 -0.5106  0.4959
 8003SOL     OW35641   1.851   2.358   5.713 -0.1740  0.2697  0.5945
 8003SOL    HW135642   1.931   2.307   5.717  1.2650  2.6263  1.7344
 8003SOL    HW235643   1.807   2.297   5.653 -0.8332  0.6710  0.6683
 8004SOL     OW35644   4.526   2.886   1.469  0.0504 -0.4158 -0.0236
 8004SOL    HW135645   4.556   2.972   1.497  0.6350 -0.1066 -1.5984
 8004SOL    HW235646   4.432   2.884   1.489  0.2933 -1.3689  1.0445
 8005SOL     OW35647   4.099   1.769  12.608  0.4594 -0.4280  0.1998
 8005SOL    HW135648   4.027   1.749  12.667 -1.1644 -1.5096 -2.1416
 8005SOL    HW235649   4.127   1.852  12.646 -2.0278  0.4700  0.0874
 8006SOL     OW35650   3.283   3.381   9.099 -0.3689 -0.3151  0.6445
 8006SOL    HW135651   3.274   3.445   9.029 -0.8747  0.0144  1.0126
 8006SOL    HW235652   3.356   3.330   9.063  0.0681  2.9237 -3.0396
 8007SOL     OW35653   4.451   4.624   6.704  0.4687 -0.2921  0.3526
 8007SOL    HW135654   4.376   4.566   6.689 -0.6716  0.6340  2.5108
 8007SOL    HW235655   4.441   4.644   6.797  1.6482  0.6273  0.2777
 8008SOL     OW35656   3.012   0.372   6.277  0.2471 -0.1326  0.1320
 8008SOL    HW135657   2.923   0.349   6.302  1.0021  0.0377  2.9703
 8008SOL    HW235658   3.009   0.411   6.189  0.8077 -1.4367 -0.4696
 8009SOL     OW35659   2.257   4.378   2.169  0.2220 -0.1445 -0.2493
 8009SOL    HW135660   2.211   4.332   2.239 -1.3239  0.6011 -0.7848
 8009SOL    HW235661   2.250   4.470   2.194  0.1999  0.0961 -1.1678
 8010SOL     OW35662   1.769   4.544   2.643  0.3377  0.1372  0.0879
 8010SOL    HW135663   1.799   4.504   2.725  0.0191  1.2831  0.7785
 8010SOL    HW235664   1.739   4.631   2.671 -1.2594 -0.3969  0.0498
 8011SOL     OW35665   2.493   3.588   4.916 -0.2075 -0.0633  0.8709
 8011SOL    HW135666   2.481   3.625   5.003 -1.0620  0.1816  0.6495
 8011SOL    HW235667   2.476   3.658   4.853  0.4847 -0.3255  0.3822
 8012SOL     OW35668   3.887   1.233   8.769  0.0731 -0.6929  0.3797
 8012SOL    HW135669   3.807   1.211   8.818 -1.1389  0.5912 -0.9996
 8012SOL    HW235670   3.955   1.185   8.815 -0.5305 -1.1056  0.8385
 8013SOL     OW35671   4.627   2.790   0.933 -0.4503  0.2925 -0.4603
 8013SOL    HW135672   4.714   2.783   0.895  0.6638  1.4024  1.8270
 8013SOL    HW235673   4.577   2.813   0.855  0.0907 -1.0315 -1.1940
 8014SOL     OW35674   1.214   2.302  12.187  0.0339 -0.1236  0.2711
 8014SOL    HW135675   1.236   2.342  12.272 -5.2410  0.0045  1.5636
 8014SOL    HW235676   1.132   2.264  12.219 -0.3677 -0.3574 -1.0333
 8015SOL     OW35677   0.798   2.986   0.117 -0.0785  0.2174  0.6222
 8015SOL    HW135678   0.734   3.057   0.113 -0.9883 -0.6334  0.3390
 8015SOL    HW235679   0.861   3.017   0.052 -0.3234  0.8579  0.6916
 8016SOL     OW35680   1.462   2.224   5.372  0.4800 -0.4022  0.1077
 8016SOL    HW135681   1.380   2.186   5.340  2.1546 -3.0240 -1.0701
 8016SOL    HW235682   1.453   2.206   5.465  2.7548 -1.2824  0.1443
 8017SOL     OW35683   3.633   3.025   1.248 -0.1485 -0.0701  0.3029
 8017SOL    HW135684   3.668   3.088   1.312 -3.1852  2.8932 -0.9355
 8017SOL    HW235685   3.572   2.982   1.308  0.5496  1.3218  2.0347
 8018SOL     OW35686   2.958   2.169   4.801  0.3250 -0.6965 -0.2678
 8018SOL    HW135687   2.911   2.245   4.836 -0.0445 -1.1609  0.2411
 8018SOL    HW235688   2.890   2.103   4.789 -0.4127 -0.0385  0.2370
 8019SOL     OW35689   0.266   0.191   4.544  0.1764 -0.3245 -0.2405
 8019SOL    HW135690   0.180   0.205   4.505  0.2298 -1.2288 -0.6756
 8019SOL    HW235691   0.311   0.271   4.518 -0.4180  0.0807 -0.0228
 8020SOL     OW35692   2.157   1.067   3.462 -0.1878  1.0059  0.2917
 8020SOL    HW135693   2.081   1.119   3.487 -0.7782  1.0898 -1.7130
 8020SOL    HW235694   2.206   1.141   3.426  0.5812  0.4186  0.1156
 8021SOL     OW35695   1.039   2.306   9.106  0.1170 -0.6721 -0.3183
 8021SOL    HW135696   1.125   2.304   9.064 -1.1099  1.3074 -2.9736
 8021SOL    HW235697   1.022   2.215   9.128 -0.3810  0.1032  2.4674
 8022SOL     OW35698   1.501   1.784   8.944 -0.0154 -0.4443  0.4060
 8022SOL    HW135699   1.566   1.715   8.954 -0.4279 -0.7498  0.9895
 8022SOL    HW235700   1.552   1.861   8.968  1.6732 -1.6405  0.6827
 8023SOL     OW35701   2.838   0.651   2.005 -0.1422 -0.5278 -0.1649
 8023SOL    HW135702   2.842   0.593   1.928 -2.5956 -0.3078 -0.4390
 8023SOL    HW235703   2.788   0.594   2.063  0.6813 -2.2906 -1.1699
 8024SOL     OW35704   3.956   0.430  11.990 -0.1163  0.1040 -0.0979
 8024SOL    HW135705   3.936   0.524  11.991 -0.6854 -0.0085 -0.9114
 8024SOL    HW235706   3.916   0.397  11.910  2.0677 -2.2720 -0.2037
 8025SOL     OW35707   1.200   1.308  17.668 -0.0007 -0.5252  0.4582
 8025SOL    HW135708   1.214   1.251  17.592 -0.5922  2.7598 -2.1050
 8025SOL    HW235709   1.242   1.388  17.638 -1.5769 -0.4589 -1.5579
 8026SOL     OW35710   0.636   1.865  16.512  0.0336 -0.1740  0.9367
 8026SOL    HW135711   0.554   1.896  16.550  1.2867 -1.3214  4.5910
 8026SOL    HW235712   0.605   1.795  16.455 -1.3308  1.0589  0.1635
 8027SOL     OW35713   0.857   0.938  10.896  0.2780  0.1133 -0.0252
 8027SOL    HW135714   0.904   1.000  10.951  1.9615  0.1430 -1.4918
 8027SOL    HW235715   0.790   0.912  10.959 -0.5534 -1.9127 -1.7195
 8028SOL     OW35716   1.719   4.211   2.194  0.2106  0.4116 -0.4287
 8028SOL    HW135717   1.805   4.180   2.165 -0.0449  0.7996 -1.6298
 8028SOL    HW235718   1.675   4.246   2.116  3.9174  0.9582 -2.3126
 8029SOL     OW35719   2.967   2.373   6.376  0.2538 -0.3517  0.1030
 8029SOL    HW135720   2.995   2.388   6.285  0.2862  0.4371  0.2449
 8029SOL    HW235721   3.024   2.298   6.393  1.9568  0.7269 -0.8942
 8030SOL     OW35722   2.741   3.931   7.266 -0.1478  0.1756  0.1505
 8030SOL    HW135723   2.711   3.843   7.245  1.0629  0.1457 -1.4817
 8030SOL    HW235724   2.685   3.986   7.210  0.7688  0.3786 -0.5678
 8031SOL     OW35725   0.056   4.155   2.178 -0.2718  0.0610 -0.1205
 8031SOL    HW135726   4.700   4.136   2.183 -0.3702  0.3478 -0.8577
 8031SOL    HW235727   0.089   4.082   2.230  0.0003 -0.0637 -0.4656
 8032SOL     OW35728   0.769   4.004   7.008 -0.5653  0.0961 -0.0763
 8032SOL    HW135729   0.778   4.090   7.049 -2.3701  0.4129 -0.3282
 8032SOL    HW235730   0.861   3.993   6.987 -0.5680  3.1917 -1.6752
 8033SOL     OW35731   4.038   3.610   6.618 -0.2964 -0.6954 -0.2738
 8033SOL    HW135732   4.076   3.592   6.704  1.2650  0.0333 -0.8157
 8033SOL    HW235733   4.104   3.577   6.557  0.7355 -0.2292  0.5963
 8034SOL     OW35734   0.136   2.067  13.395  0.2339  0.6628  0.1518
 8034SOL    HW135735   0.144   2.108  13.309 -1.3845  0.1328 -0.2624
 8034SOL    HW235736   0.042   2.050  13.407  0.4406 -1.3280 -0.9947
 8035SOL     OW35737   3.397   1.520   2.213 -0.3347 -0.2063 -0.2468
 8035SOL    HW135738   3.409   1.435   2.172 -1.3736 -2.3422  3.8768
 8035SOL    HW235739   3.314   1.555   2.180 -0.5806  0.9691  1.5820
 8036SOL     OW35740   0.919   2.362  17.185 -0.2170  0.4128 -0.2353
 8036SOL    HW135741   0.923   2.457  17.192  1.6822  0.2784  0.5288
 8036SOL    HW235742   0.921   2.346  17.091  2.2385 -1.1010  0.0832
 8037SOL     OW35743   3.131   4.137  16.562 -0.0609 -0.1176  0.6143
 8037SOL    HW135744   3.227   4.142  16.568  0.2928 -4.6717 -1.5684
 8037SOL    HW235745   3.125   4.217  16.614  1.8863  0.1609  0.4440
 8038SOL     OW35746   2.737   0.208   9.107 -0.5419 -0.4374 -0.6168
 8038SOL    HW135747   2.794   0.254   9.045 -1.2974 -0.4213 -1.3005
 8038SOL    HW235748   2.801   0.139   9.125 -0.4963  0.2281  1.7455
 8039SOL     OW35749   3.278   2.776   3.310 -0.7142  1.1615  0.4798
 8039SOL    HW135750   3.258   2.849   3.369  0.3812  0.9365  1.1301
 8039SOL    HW235751   3.325   2.817   3.237 -1.1541 -2.3988 -1.8087
 8040SOL     OW35752   0.104   4.068  15.304  0.3476  0.6255  0.6267
 8040SOL    HW135753   0.136   4.066  15.394 -1.3003 -2.2834  1.1582
 8040SOL    HW235754   0.027   4.120  15.327  0.1913  0.5746  0.2213
 8041SOL     OW35755   4.077   1.253   3.615  0.4515  0.2970  0.2046
 8041SOL    HW135756   3.997   1.209   3.585 -0.2016  0.5336  1.6169
 8041SOL    HW235757   4.137   1.245   3.541 -1.5167  0.3204 -1.4179
 8042SOL     OW35758   1.571   2.821   7.736 -0.4864 -0.4431 -0.4335
 8042SOL    HW135759   1.631   2.889   7.767 -0.5124 -1.4476  1.8069
 8042SOL    HW235760   1.608   2.782   7.656 -0.6696 -1.8270  0.1545
 8043SOL     OW35761   4.169   2.187   8.682  0.3189 -0.2427  0.2695
 8043SOL    HW135762   4.201   2.141   8.604 -2.3082 -1.6767  0.0764
 8043SOL    HW235763   4.236   2.158   8.744 -0.0109  2.1827  1.7435
 8044SOL     OW35764   0.982   3.357   5.338 -0.1418  0.7127  0.5574
 8044SOL    HW135765   1.026   3.348   5.423 -0.5882  3.1896  1.0682
 8044SOL    HW235766   0.971   3.452   5.337  0.2467  0.7628  1.2790
 8045SOL     OW35767   2.210   0.450  14.157 -0.1352  0.2803 -0.1723
 8045SOL    HW135768   2.276   0.478  14.220  0.2575  0.3830 -0.6304
 8045SOL    HW235769   2.268   0.401  14.100 -1.1747  0.3061 -1.2494
 8046SOL     OW35770   0.060   1.785   5.396  0.1545  0.2537  0.3059
 8046SOL    HW135771   4.730   1.809   5.333 -0.0152 -2.1979 -0.4594
 8046SOL    HW235772   0.139   1.808   5.347 -0.2401  0.5378 -0.1884
 8047SOL     OW35773   2.771   2.023   0.462  0.0083 -0.1243  0.5181
 8047SOL    HW135774   2.714   2.001   0.388 -0.6344 -0.5507  1.1397
 8047SOL    HW235775   2.750   2.114   0.479 -1.9212 -0.5986  0.6689
 8048SOL     OW35776   1.467   0.623   7.507 -0.4467  0.2573  0.0437
 8048SOL    HW135777   1.557   0.611   7.479 -1.1258  1.0819 -2.4486
 8048SOL    HW235778   1.441   0.697   7.453 -0.9367 -0.7998 -1.1679
 8049SOL     OW35779   1.757   0.792   3.860  0.1748  0.3714  0.3634
 8049SOL    HW135780   1.753   0.789   3.764  0.1857  1.4424  0.3320
 8049SOL    HW235781   1.853   0.794   3.867  0.0999  2.1071  0.9013
 8050SOL     OW35782   1.795   2.618   3.328 -0.5632  0.1991 -0.6921
 8050SOL    HW135783   1.860   2.683   3.352  2.1333 -2.9927  0.6343
 8050SOL    HW235784   1.839   2.534   3.345 -0.7967  0.2845  0.3497
 8051SOL     OW35785   2.411   3.312   1.138  0.0366 -0.4348  0.2155
 8051SOL    HW135786   2.345   3.346   1.199 -0.3480  0.4898 -0.7082
 8051SOL    HW235787   2.392   3.218   1.137 -3.6542  0.2809  1.7360
 8052SOL     OW35788   3.885   4.390  10.316 -0.0582  0.3675  0.0301
 8052SOL    HW135789   3.861   4.328  10.247 -2.1012 -0.8304  1.7655
 8052SOL    HW235790   3.938   4.338  10.377  2.4577  1.0714 -1.5665
 8053SOL     OW35791   4.298   3.215   1.430 -0.2388  0.4377  0.2404
 8053SOL    HW135792   4.388   3.243   1.413 -0.7438  2.4703  1.0074
 8053SOL    HW235793   4.292   3.156   1.355 -1.0591  2.4094 -1.2273
 8054SOL     OW35794   4.050   3.836   5.082 -0.0047 -0.1762 -0.1353
 8054SOL    HW135795   3.957   3.819   5.067 -0.2589  1.3891 -0.3150
 8054SOL    HW235796   4.084   3.746   5.083  0.6161  0.0506 -0.7315
 8055SOL     OW35797   4.082   1.431   3.083 -0.4864  0.0669  0.3965
 8055SOL    HW135798   4.098   1.509   3.137 -0.3137  0.6215 -0.4562
 8055SOL    HW235799   4.096   1.476   3.000  0.2831 -2.5443 -0.8829
 8056SOL     OW35800   0.018   1.382   4.043  0.2402 -0.3210  0.0451
 8056SOL    HW135801   0.049   1.414   3.959 -1.5142  1.1103 -0.0773
 8056SOL    HW235802   0.079   1.314   4.069 -0.2915  0.2179  2.7295
 8057SOL     OW35803   3.140   2.208  14.867 -0.3280  0.5839 -0.6773
 8057SOL    HW135804   3.123   2.300  14.887 -0.5379  0.3835  0.0398
 8057SOL    HW235805   3.095   2.166  14.940 -1.1681 -0.5576 -1.8316
 8058SOL     OW35806   4.234   0.725   3.404  0.6304 -0.1123  0.2004
 8058SOL    HW135807   4.235   0.779   3.483  0.3986 -2.2859  1.6950
 8058SOL    HW235808   4.139   0.732   3.392  0.6810  0.3752  0.0951
 8059SOL     OW35809   1.063   1.745  16.858  0.8392  0.6820 -1.0896
 8059SOL    HW135810   1.152   1.776  16.878  0.4720  0.9480  0.1908
 8059SOL    HW235811   1.081   1.667  16.806 -0.7632 -0.2838 -0.1967
 8060SOL     OW35812   0.289   1.651   4.501  0.1877  0.3929  0.1034
 8060SOL    HW135813   0.265   1.687   4.587  0.2124  0.6090  0.0185
 8060SOL    HW235814   0.340   1.574   4.527 -0.5024  0.5985  2.1266
 8061SOL     OW35815   4.191   0.802   9.956 -0.0038 -0.1053 -0.4560
 8061SOL    HW135816   4.102   0.812   9.991 -1.0304 -0.3139 -2.9868
 8061SOL    HW235817   4.192   0.709   9.934 -2.5537  0.0606 -1.2913
 8062SOL     OW35818   1.375   0.776   4.672  0.2199  0.5338 -0.1154
 8062SOL    HW135819   1.380   0.699   4.729 -2.9783  1.2298  1.0865
 8062SOL    HW235820   1.414   0.841   4.730  2.3598  1.6157 -2.7435
 8063SOL     OW35821   0.278   3.421   7.283  0.0947 -0.3375  0.1691
 8063SOL    HW135822   0.351   3.469   7.323 -1.4334  1.4913  0.8224
 8063SOL    HW235823   0.327   3.353   7.237  0.2203 -0.7162  0.8656
 8064SOL     OW35824   3.609   3.100   7.292 -0.2145  0.2669  0.4114
 8064SOL    HW135825   3.595   3.194   7.281 -1.4904 -0.1842 -1.6808
 8064SOL    HW235826   3.525   3.074   7.256  0.9468 -0.9817 -1.4076
 8065SOL     OW35827   0.049   2.329   1.923  0.4108  0.4057  0.0821
 8065SOL    HW135828   0.040   2.238   1.895  0.4523  0.1409  0.9220
 8065SOL    HW235829   0.122   2.321   1.984  1.0336  0.8918 -0.6014
 8066SOL     OW35830   2.290   0.226   5.893  0.3374 -0.2841 -0.7312
 8066SOL    HW135831   2.379   0.198   5.870  0.1379  1.3712 -3.6375
 8066SOL    HW235832   2.318   0.313   5.923  0.7348 -1.1188  1.2946
 8067SOL     OW35833   3.086   4.696   6.430  0.4610 -0.2344  0.6754
 8067SOL    HW135834   3.014   4.689   6.493  0.2885 -1.4699  0.3265
 8067SOL    HW235835   3.103   4.603   6.418  0.9238 -0.0005 -0.4859
 8068SOL     OW35836   0.787   3.914   8.335  0.1290  0.1949  0.1497
 8068SOL    HW135837   0.821   3.983   8.393 -1.3311  1.1810 -0.1756
 8068SOL    HW235838   0.869   3.867   8.319  0.3310  1.2429 -1.9304
 8069SOL     OW35839   1.377   2.276  13.529  0.0618 -0.0401  0.0258
 8069SOL    HW135840   1.362   2.333  13.454  1.2431 -0.7053 -0.7043
 8069SOL    HW235841   1.372   2.189  13.488 -2.5980  0.0693  0.0688
 8070SOL     OW35842   0.286   2.418   6.748  0.1044  0.8702  0.2792
 8070SOL    HW135843   0.304   2.341   6.802 -0.4049 -0.9186 -2.1099
 8070SOL    HW235844   0.212   2.447   6.801 -1.1563 -0.2646 -0.8846
 8071SOL     OW35845   2.370   2.233   4.730 -0.3439  0.0731 -0.3546
 8071SOL    HW135846   2.369   2.138   4.721 -0.8331  0.0666 -0.2325
 8071SOL    HW235847   2.450   2.248   4.679 -1.7423  1.0482 -2.2657
 8072SOL     OW35848   3.167   0.014   7.045  0.2803  0.0505 -0.0447
 8072SOL    HW135849   3.189   0.084   6.983 -0.8221  2.0293  1.8095
 8072SOL    HW235850   3.098   4.698   7.005  1.3082 -0.6889 -0.8585
 8073SOL     OW35851   4.598   1.068  11.934 -0.0971 -0.4731 -0.4473
 8073SOL    HW135852   4.657   1.126  11.886 -2.8965  1.9609 -0.9469
 8073SOL    HW235853   4.642   1.045  12.016 -1.3629 -2.1833 -0.2442
 8074SOL     OW35854   0.882   0.346   3.671  0.4626 -0.0144 -0.1198
 8074SOL    HW135855   0.921   0.267   3.634  1.1022 -0.8518  2.3109
 8074SOL    HW235856   0.817   0.310   3.733  1.3446  0.1592  0.9049
 8075SOL     OW35857   3.820   2.009   6.317  0.3201  0.5577 -0.5929
 8075SOL    HW135858   3.894   1.951   6.336 -0.8250 -0.7775 -0.2236
 8075SOL    HW235859   3.823   2.068   6.392 -0.0381  2.7675 -2.3290
 8076SOL     OW35860   1.696   0.116   9.786  0.1001  0.4108  0.3764
 8076SOL    HW135861   1.769   0.157   9.741  1.0200 -2.4259 -0.7179
 8076SOL    HW235862   1.740   0.041   9.826  1.3550  0.4077 -1.0320
 8077SOL     OW35863   3.610   4.451   7.358  0.6635  0.1707 -0.5806
 8077SOL    HW135864   3.631   4.438   7.265  2.7293  1.2515 -0.2585
 8077SOL    HW235865   3.598   4.361   7.387 -0.7821  1.2829  2.2120
 8078SOL     OW35866   2.652   0.224   3.750  0.6163 -0.4668  0.1051
 8078SOL    HW135867   2.566   0.265   3.734  0.9848 -0.2841 -1.4080
 8078SOL    HW235868   2.660   0.173   3.669 -0.8850  0.1248 -0.4273
 8079SOL     OW35869   2.180   2.339  14.394 -0.4727 -0.2459 -0.3720
 8079SOL    HW135870   2.202   2.258  14.347  3.8711  0.6380  0.1152
 8079SOL    HW235871   2.270   2.359  14.420 -1.8867  3.7303  1.4468
 8080SOL     OW35872   2.894   4.683  10.043 -0.0235 -0.0030  0.0384
 8080SOL    HW135873   2.826   4.676  10.111  1.0179 -1.4301  0.9417
 8080SOL    HW235874   2.953   4.612  10.071  1.9365  1.2280 -0.9804
 8081SOL     OW35875   0.874   0.202   9.770  0.5811 -0.1603 -0.1441
 8081SOL    HW135876   0.954   0.190   9.820  1.3687  0.3963 -1.2737
 8081SOL    HW235877   0.882   0.125   9.714 -1.6118 -0.9780  0.6343
 8082SOL     OW35878   2.075   1.400   6.459  0.1547  0.3033  0.0975
 8082SOL    HW135879   1.984   1.400   6.489 -0.3291 -3.0798 -1.4074
 8082SOL    HW235880   2.072   1.438   6.371 -0.8942  1.3576  0.5784
 8083SOL     OW35881   0.921   4.655  13.084  0.3244  0.3852 -0.5819
 8083SOL    HW135882   0.896   4.701  13.163 -1.9197 -1.8020 -0.0101
 8083SOL    HW235883   0.941   4.568  13.120 -0.7690  0.8460  1.1147
 8084SOL     OW35884   3.572   2.482  11.949  0.1823 -0.3102  0.5354
 8084SOL    HW135885   3.645   2.528  11.991 -0.5586 -1.1551  2.7508
 8084SOL    HW235886   3.604   2.460  11.862 -2.3137 -0.8775 -0.2346
 8085SOL     OW35887   1.720   2.313   7.945 -0.0119  0.6668  0.6724
 8085SOL    HW135888   1.780   2.278   7.880  1.0858  2.3966  0.7558
 8085SOL    HW235889   1.722   2.403   7.913  2.9115  0.1799 -0.4301
 8086SOL     OW35890   4.671   4.341   4.604  0.4628  0.3232 -0.4912
 8086SOL    HW135891   0.011   4.337   4.661 -0.0679 -0.3618  0.1661
 8086SOL    HW235892   4.713   4.375   4.525 -2.5537  1.3023 -1.7148
 8087SOL     OW35893   3.259   4.597   3.328  0.1783 -0.0484  0.0369
 8087SOL    HW135894   3.279   4.518   3.279 -0.7911 -0.6740  0.6395
 8087SOL    HW235895   3.217   4.559   3.405 -0.0531  2.3939  1.1168
 8088SOL     OW35896   3.203   3.318   8.670  0.1385 -0.4741  0.8207
 8088SOL    HW135897   3.236   3.229   8.683 -1.4468 -1.2790 -0.6534
 8088SOL    HW235898   3.111   3.310   8.644  1.1808 -2.1679 -2.4582
 8089SOL     OW35899   2.146   1.121   8.952  0.0002 -0.1370  0.0318
 8089SOL    HW135900   2.122   1.030   8.934 -0.8525 -0.1730  1.3282
 8089SOL    HW235901   2.220   1.139   8.894 -0.2919  0.5881 -0.1008
 8090SOL     OW35902   1.975   0.205   7.842  0.1446 -0.3652 -0.4987
 8090SOL    HW135903   1.979   0.112   7.819  0.4704 -0.1412 -1.3400
 8090SOL    HW235904   2.058   0.228   7.884 -0.3953  1.4315 -0.4268
 8091SOL     OW35905   0.855   1.360   3.782 -0.0951  0.0333 -0.4494
 8091SOL    HW135906   0.849   1.323   3.870 -1.9054  0.8171 -0.2378
 8091SOL    HW235907   0.904   1.437   3.807 -1.3696 -0.2496  2.8540
 8092SOL     OW35908   0.213   2.198   7.453  0.6086 -0.0340  0.4263
 8092SOL    HW135909   0.274   2.130   7.426  0.6624  0.0843  0.2491
 8092SOL    HW235910   0.158   2.145   7.511 -0.7278  2.7169  1.6877
 8093SOL     OW35911   0.064   0.065   1.830  0.2449  0.4315 -0.3511
 8093SOL    HW135912   0.038   0.155   1.811  0.2366  0.0292 -2.2285
 8093SOL    HW235913   0.128   0.050   1.761  2.4854  1.1338  1.5558
 8094SOL     OW35914   3.886   4.378   7.961  0.2366  0.0185 -0.2154
 8094SOL    HW135915   3.972   4.404   7.996  0.3673 -0.9199  0.1567
 8094SOL    HW235916   3.841   4.364   8.044 -0.4924  1.8146 -0.2901
 8095SOL     OW35917   2.201   3.233   3.300 -0.6034  0.3607 -0.7074
 8095SOL    HW135918   2.131   3.269   3.355 -1.4834 -2.5624  0.0696
 8095SOL    HW235919   2.157   3.162   3.255 -0.3618 -0.4308  0.3082
 8096SOL     OW35920   0.165   3.158   8.186 -0.0327  0.3303 -0.1952
 8096SOL    HW135921   0.106   3.146   8.112  1.1334  1.6513 -1.3186
 8096SOL    HW235922   0.209   3.239   8.159  0.2083  0.2975  0.0943
 8097SOL     OW35923   0.709   2.050   0.010 -0.0624 -0.5770  0.4336
 8097SOL    HW135924   0.761   2.100  17.693 -0.4491 -0.2663  0.3611
 8097SOL    HW235925   0.619   2.053  17.724 -0.1769  1.9480  1.0578
 8098SOL     OW35926   2.672   0.831   3.020  0.0734 -0.8413 -0.0546
 8098SOL    HW135927   2.681   0.791   3.106 -3.5261  1.3109  1.3151
 8098SOL    HW235928   2.693   0.759   2.960 -0.3363 -0.2063 -0.9727
 8099SOL     OW35929   2.686   3.010   5.869 -0.3196  0.3902 -0.4214
 8099SOL    HW135930   2.609   3.012   5.812 -0.1108  3.5546 -0.5421
 8099SOL    HW235931   2.750   3.009   5.798 -0.6103 -0.1503 -0.6783
 8100SOL     OW35932   1.587   2.416  17.589 -0.5332  0.3003  0.5604
 8100SOL    HW135933   1.652   2.388  17.654 -0.0233 -1.8102 -0.8608
 8100SOL    HW235934   1.605   2.510  17.586 -0.2134  0.3423  3.1653
 8101SOL     OW35935   3.233   3.058   5.281 -0.0971  0.1916 -0.2182
 8101SOL    HW135936   3.308   3.015   5.240  0.7280 -0.5911  2.1140
 8101SOL    HW235937   3.186   3.096   5.207  0.5664  0.9537 -0.2425
 8102SOL     OW35938   2.823   2.950   8.664 -0.0116  0.4106  0.3164
 8102SOL    HW135939   2.799   2.927   8.754 -0.1764 -0.2475  0.1041
 8102SOL    HW235940   2.755   3.016   8.654  0.5588  0.9921  0.3042
 8103SOL     OW35941   0.507   1.966   8.231  0.1311  0.0450 -0.1201
 8103SOL    HW135942   0.436   1.927   8.180 -0.7418  0.4504  0.7722
 8103SOL    HW235943   0.584   1.924   8.194  0.0871 -1.1425  1.1363
 8104SOL     OW35944   3.798   4.599   3.896 -0.4902 -0.0052  0.4490
 8104SOL    HW135945   3.739   4.545   3.843 -2.5452  1.8398  0.8720
 8104SOL    HW235946   3.751   4.594   3.979 -1.7374  1.9021 -0.1368
 8105SOL     OW35947   2.027   1.565   7.561 -0.1070 -0.0227 -0.4255
 8105SOL    HW135948   1.931   1.563   7.556 -0.1104 -2.2466  0.4758
 8105SOL    HW235949   2.034   1.581   7.655 -1.4704 -2.7413  0.1690
 8106SOL     OW35950   3.278   0.063   6.174 -0.3948 -0.0368  0.1803
 8106SOL    HW135951   3.240   0.099   6.254 -0.4715 -1.6713  0.8804
 8106SOL    HW235952   3.212   0.086   6.109  0.6369 -0.3095 -0.9516
 8107SOL     OW35953   2.795   2.333   7.205  0.5536 -0.0382 -0.4139
 8107SOL    HW135954   2.771   2.395   7.274  0.9784  1.2263 -1.4161
 8107SOL    HW235955   2.755   2.258   7.250  0.4538  0.8038  0.9010
 8108SOL     OW35956   3.309   2.528   2.215  0.2867 -0.4280 -0.0464
 8108SOL    HW135957   3.214   2.529   2.228  0.5708 -1.9335  2.0954
 8108SOL    HW235958   3.317   2.524   2.120  1.8224  0.9950  0.0389
 8109SOL     OW35959   4.428   0.567  15.420 -0.0583 -0.2063  0.4001
 8109SOL    HW135960   4.458   0.595  15.507  0.7017 -3.1623  1.0983
 8109SOL    HW235961   4.454   0.645  15.371  1.0030  0.0520  1.3678
 8110SOL     OW35962   2.806   2.874   0.798 -0.8094  0.7109 -0.3117
 8110SOL    HW135963   2.812   2.970   0.797  1.4602  0.5600 -2.5558
 8110SOL    HW235964   2.874   2.860   0.731 -1.8664 -0.6541 -1.0932
 8111SOL     OW35965   3.818   0.560  11.469 -0.1240 -0.0294  0.1677
 8111SOL    HW135966   3.839   0.640  11.517 -0.1880  1.1641 -1.8008
 8111SOL    HW235967   3.855   0.570  11.382 -0.3681  1.7908  0.2713
 8112SOL     OW35968   2.123   1.913  11.473  0.5327  0.2838  0.1732
 8112SOL    HW135969   2.074   1.875  11.400  3.0387 -2.6055 -0.0117
 8112SOL    HW235970   2.213   1.913  11.439  0.3597 -0.3316 -0.2933
 8113SOL     OW35971   1.047   3.870  10.835  0.0603  0.4618  0.2201
 8113SOL    HW135972   1.131   3.892  10.795  1.7342 -1.3226  2.7092
 8113SOL    HW235973   1.013   3.955  10.863 -0.1611  0.1829  0.8046
 8114SOL     OW35974   0.882   2.138   0.287  0.1651  0.3190 -0.7319
 8114SOL    HW135975   0.827   2.174   0.218 -1.1388  1.2212  0.7707
 8114SOL    HW235976   0.872   2.043   0.276 -1.9306  0.2618  1.5154
 8115SOL     OW35977   2.883   1.038   7.165  0.0823 -0.0014  0.4392
 8115SOL    HW135978   2.924   1.116   7.203 -0.7395  0.0733  1.1740
 8115SOL    HW235979   2.797   1.042   7.208 -0.2549  0.8965 -0.3104
 8116SOL     OW35980   0.428   2.521   8.336 -0.4716  0.0883 -0.0215
 8116SOL    HW135981   0.430   2.500   8.429  1.1085 -0.2347 -0.1163
 8116SOL    HW235982   0.343   2.564   8.339  0.1312  1.1031  1.9733
 8117SOL     OW35983   1.880   3.363  13.419  0.6657 -0.2576  0.2199
 8117SOL    HW135984   1.875   3.455  13.393  1.3265 -0.2028  0.2993
 8117SOL    HW235985   1.931   3.369  13.500 -2.0046 -0.2911  1.9388
 8118SOL     OW35986   3.590   0.360   6.646  0.1627  0.0185 -0.5388
 8118SOL    HW135987   3.663   0.422   6.642  0.6184 -0.4299  0.9902
 8118SOL    HW235988   3.511   0.414   6.641 -0.2513 -0.5925 -0.5763
 8119SOL     OW35989   2.337   3.265   8.125 -0.1915 -0.0401 -0.2677
 8119SOL    HW135990   2.417   3.311   8.151 -1.9091  0.9870  3.2680
 8119SOL    HW235991   2.365   3.222   8.044  1.5810  1.5539 -0.4956
 8120SOL     OW35992   4.345   1.044   9.687  0.3208  0.3178 -0.2011
 8120SOL    HW135993   4.423   1.024   9.740 -0.5033  0.0987  0.9326
 8120SOL    HW235994   4.289   1.080   9.757 -0.4876  3.0887 -2.2838
 8121SOL     OW35995   0.510   3.376   6.447 -0.1243  0.2179 -0.0991
 8121SOL    HW135996   0.552   3.458   6.423  0.9565 -0.0441  0.9136
 8121SOL    HW235997   0.562   3.346   6.522 -0.5124  0.9045  0.4528
 8122SOL     OW35998   1.114   1.616   4.063  0.3485  0.2903 -0.0927
 8122SOL    HW135999   1.054   1.657   4.125 -2.3349 -1.1126 -1.7907
 8122SOL    HW236000   1.088   1.524   4.064  1.9610 -0.1737 -0.2592
 8123SOL     OW36001   3.455   3.202   8.985  0.1194 -0.1822 -0.2889
 8123SOL    HW136002   3.483   3.161   9.067 -3.0284 -0.8084  0.4783
 8123SOL    HW236003   3.430   3.128   8.929  1.3436 -0.8264  0.0308
 8124SOL     OW36004   3.004   3.614   8.742  0.0320  0.2248  0.0636
 8124SOL    HW136005   2.952   3.684   8.702  2.3195  1.3875 -0.8739
 8124SOL    HW236006   3.083   3.667   8.751  1.0064 -1.2985  0.5663
 8125SOL     OW36007   2.598   2.067   6.026  0.6914  0.3258  0.2468
 8125SOL    HW136008   2.647   2.056   5.944  2.2396  2.1084  0.9253
 8125SOL    HW236009   2.507   2.068   5.996  0.8295 -3.1774 -0.3511
 8126SOL     OW36010   0.483   2.975  16.418 -0.7469  0.3656  0.5665
 8126SOL    HW136011   0.534   2.995  16.339 -1.1975 -0.6802  0.0120
 8126SOL    HW236012   0.538   2.903  16.449  0.3205  1.0514  0.2801
 8127SOL     OW36013   1.771   0.506   3.566  0.0710 -0.1878 -0.4179
 8127SOL    HW136014   1.724   0.582   3.601  2.8635  0.7511  1.2878
 8127SOL    HW236015   1.793   0.533   3.477  1.5776  0.3199  0.1046
 8128SOL     OW36016   1.257   2.448   1.653 -0.4984  0.0990  0.1003
 8128SOL    HW136017   1.207   2.373   1.685  0.2985  0.2764  1.7614
 8128SOL    HW236018   1.199   2.481   1.584 -1.6235 -1.5681  0.2572
 8129SOL     OW36019   4.289   0.336  16.684  0.3256 -0.5241 -0.4189
 8129SOL    HW136020   4.280   0.328  16.589 -1.0256  0.5335 -0.3789
 8129SOL    HW236021   4.384   0.341  16.691  0.3171 -2.7690  1.4249
 8130SOL     OW36022   0.109   3.275  14.768 -0.1644 -0.3050  0.4442
 8130SOL    HW136023   0.032   3.219  14.776  0.9387 -1.9065 -0.1326
 8130SOL    HW236024   0.173   3.205  14.753  0.3113  0.2355 -0.0538
 8131SOL     OW36025   2.309   0.719   9.549  0.0025 -0.2377 -0.3340
 8131SOL    HW136026   2.287   0.630   9.575 -1.3105  0.2442  0.1880
 8131SOL    HW236027   2.277   0.772   9.622  2.3815  1.3240 -0.4166
 8132SOL     OW36028   0.740   3.631   2.863 -1.0820 -0.0828  0.4008
 8132SOL    HW136029   0.831   3.625   2.893 -1.5225 -0.5677  1.6584
 8132SOL    HW236030   0.735   3.562   2.796 -1.4053 -0.1993  0.5449
 8133SOL     OW36031   2.846   3.557   9.179 -0.2069 -0.0645  0.0092
 8133SOL    HW136032   2.885   3.567   9.092 -1.7445  0.0195 -0.6628
 8133SOL    HW236033   2.782   3.488   9.165 -0.0134 -0.1634 -0.3671
 8134SOL     OW36034   1.021   2.232   5.273 -0.0948 -0.1965  0.9727
 8134SOL    HW136035   1.011   2.171   5.199  1.7172  0.3991  0.2479
 8134SOL    HW236036   1.113   2.255   5.265  0.0168 -0.2356  2.1292
 8135SOL     OW36037   2.589   1.147  10.991 -0.1528  0.2424  0.8037
 8135SOL    HW136038   2.613   1.171  10.902  0.1920 -2.6082  0.1426
 8135SOL    HW236039   2.512   1.097  10.964  0.3787  0.6678 -1.4877
 8136SOL     OW36040   3.472   3.449   0.018  0.9735 -0.2619  0.4411
 8136SOL    HW136041   3.509   3.401  17.690  1.7567  0.9016  0.0724
 8136SOL    HW236042   3.385   3.410   0.017  0.7856  0.1654  0.0149
 8137SOL     OW36043   2.612   3.189   1.615  0.3120 -0.2029  0.0632
 8137SOL    HW136044   2.529   3.195   1.567  0.9873  0.4251 -1.0304
 8137SOL    HW236045   2.599   3.116   1.675  1.2223  0.1976  0.7442
 8138SOL     OW36046   1.544   3.005  14.487 -0.3776 -0.1818 -0.4906
 8138SOL    HW136047   1.554   3.033  14.395 -0.1287  1.4721  0.0349
 8138SOL    HW236048   1.466   2.952  14.476  0.3966 -1.3415 -0.3676
 8139SOL     OW36049   1.625   3.459   9.565 -0.7928 -0.0265 -0.1958
 8139SOL    HW136050   1.623   3.554   9.565 -2.1596 -0.0651 -4.3556
 8139SOL    HW236051   1.585   3.431   9.482 -2.7126  1.4572  0.2371
 8140SOL     OW36052   2.913   3.878  12.836 -0.4607 -0.5164  0.1531
 8140SOL    HW136053   2.864   3.852  12.914  3.0844 -0.8933  2.2163
 8140SOL    HW236054   2.849   3.844  12.773 -1.8887 -1.5363  2.1492
 8141SOL     OW36055   3.695   1.535   5.302  0.2228  0.0072 -0.2426
 8141SOL    HW136056   3.756   1.593   5.348  0.2615  0.1258 -0.4439
 8141SOL    HW236057   3.762   1.492   5.249 -0.6418 -0.0399 -1.2932
 8142SOL     OW36058   3.039   0.620   7.618  0.5304 -0.1051  0.0930
 8142SOL    HW136059   3.021   0.526   7.627 -1.2167  0.2647  0.5066
 8142SOL    HW236060   3.047   0.646   7.710  2.1969  0.8586 -0.3157
 8143SOL     OW36061   3.708   3.229   8.778  0.1523  0.1500 -0.5988
 8143SOL    HW136062   3.705   3.312   8.824  0.1668  0.6761 -1.5471
 8143SOL    HW236063   3.623   3.190   8.796  1.5950 -2.6554  0.2457
 8144SOL     OW36064   1.293   0.108   3.913 -0.1699 -0.1701 -0.2665
 8144SOL    HW136065   1.208   0.104   3.958  0.8736 -1.5907  1.5953
 8144SOL    HW236066   1.306   0.201   3.894  0.9503 -0.8195 -2.5782
 8145SOL     OW36067   2.299   1.831   5.364  0.3661  0.2040  0.0518
 8145SOL    HW136068   2.257   1.758   5.318  1.1118 -1.0194  1.2861
 8145SOL    HW236069   2.304   1.895   5.293 -1.3916 -1.1638 -1.2936
 8146SOL     OW36070   1.798   2.909   8.307 -0.0530 -0.0502 -0.3831
 8146SOL    HW136071   1.719   2.951   8.273  0.3391  0.5703 -0.5386
 8146SOL    HW236072   1.858   2.945   8.242 -2.4148 -0.4139 -2.7287
 8147SOL     OW36073   0.481   2.905   6.593  0.0372 -0.0372  0.3873
 8147SOL    HW136074   0.510   2.879   6.505  0.6595  1.8422  0.0408
 8147SOL    HW236075   0.481   2.829   6.651  1.1977  0.0191  0.4581
 8148SOL     OW36076   2.635   1.556   1.499 -0.2822  0.0140 -0.3142
 8148SOL    HW136077   2.590   1.525   1.578  0.8621  2.3615  1.2755
 8148SOL    HW236078   2.693   1.626   1.529 -0.9926  0.6146 -0.3273
 8149SOL     OW36079   0.110   0.522  17.653 -0.0597  0.1812 -0.1254
 8149SOL    HW136080   0.167   0.462  17.702 -0.3370 -0.8784 -1.1115
 8149SOL    HW236081   0.088   0.583  17.724  0.0795 -0.8334  0.7997
 8150SOL     OW36082   3.781   3.814   7.257  0.3702 -0.1202  0.0599
 8150SOL    HW136083   3.840   3.855   7.321 -0.4241  2.1935 -0.7107
 8150SOL    HW236084   3.703   3.848   7.301 -0.0481 -0.7460 -0.2011
 8151SOL     OW36085   1.222   2.422   1.093 -0.0138 -0.6347  0.0051
 8151SOL    HW136086   1.172   2.503   1.109  0.3464 -0.3488 -0.3278
 8151SOL    HW236087   1.208   2.410   0.999 -0.3813 -1.7353  0.2007
 8152SOL     OW36088   2.811   4.599   8.905  0.0867 -0.0456 -0.2087
 8152SOL    HW136089   2.734   4.656   8.915  1.5446  1.7953  0.5654
 8152SOL    HW236090   2.807   4.554   8.989 -2.5779  3.1868  1.4169
 8153SOL     OW36091   0.199   3.968   7.252  0.2246  0.0784 -0.1809
 8153SOL    HW136092   0.135   3.899   7.238  1.1770 -1.1004  1.3067
 8153SOL    HW236093   0.255   3.964   7.174  1.1008  0.0322  0.4617
 8154SOL     OW36094   3.918   1.595   9.928  0.0597 -0.0938 -0.3565
 8154SOL    HW136095   3.945   1.587  10.020  1.7827  1.6728 -0.7145
 8154SOL    HW236096   3.929   1.502   9.905  0.2118 -0.3205  0.6016
 8155SOL     OW36097   2.423   1.317  11.496 -0.5195  0.0732 -0.6711
 8155SOL    HW136098   2.476   1.378  11.445  0.2547 -1.0398 -1.2053
 8155SOL    HW236099   2.475   1.242  11.526  1.6296  2.0021  0.4388
 8156SOL     OW36100   1.982   3.682   8.866 -0.0212 -0.7072 -0.0043
 8156SOL    HW136101   2.016   3.756   8.815  2.2168 -3.1758 -2.1065
 8156SOL    HW236102   2.065   3.666   8.911 -0.6322 -0.4905  1.1961
 8157SOL     OW36103   3.365   1.023   9.228  0.4657  0.4773 -0.3094
 8157SOL    HW136104   3.309   1.021   9.306  0.9671  0.2761  0.0482
 8157SOL    HW236105   3.340   0.947   9.175 -4.8722  1.0638  1.3480
 8158SOL     OW36106   3.424   0.102   6.466 -0.1568  0.1667 -0.5237
 8158SOL    HW136107   3.348   0.155   6.441 -1.0739 -0.7330  0.3552
 8158SOL    HW236108   3.477   0.127   6.390  0.4089  0.0944 -0.1552
 8159SOL     OW36109   0.782   2.152   2.950  0.2748 -0.0555  0.7062
 8159SOL    HW136110   0.867   2.190   2.926 -0.4717  0.2871 -1.3402
 8159SOL    HW236111   0.795   2.061   2.921 -0.8209  0.0018  0.0708
 8160SOL     OW36112   3.218   0.432   5.893  0.0276 -0.0674  0.5643
 8160SOL    HW136113   3.258   0.345   5.899  1.4850  0.5786  0.2021
 8160SOL    HW236114   3.172   0.426   5.810 -0.1158  0.7658  0.5803
 8161SOL     OW36115   4.473   0.788   4.917 -0.6183  0.0341 -0.1640
 8161SOL    HW136116   4.534   0.762   4.848 -0.2189 -1.9371  0.9275
 8161SOL    HW236117   4.475   0.715   4.979  1.3130  0.5918  0.4360
 8162SOL     OW36118   0.048   4.003   1.728 -0.3085 -0.2801 -0.8049
 8162SOL    HW136119   0.094   4.053   1.660  2.2581  0.4701  1.4877
 8162SOL    HW236120   4.695   4.036   1.723 -0.0574  0.7212  1.4978
 8163SOL     OW36121   0.722   2.228   5.331  0.3292 -0.0421  0.0432
 8163SOL    HW136122   0.674   2.147   5.349 -0.7466  0.6292  0.1809
 8163SOL    HW236123   0.817   2.216   5.332  0.2529 -0.6081  0.6454
 8164SOL     OW36124   1.666   1.497  16.820 -0.2054 -0.0678  0.1728
 8164SOL    HW136125   1.695   1.406  16.815  0.4099  0.1665 -0.4724
 8164SOL    HW236126   1.751   1.541  16.820  0.3442 -1.1584 -3.7788
 8165SOL     OW36127   0.146   1.682   0.856  0.0011 -0.3969  0.3742
 8165SOL    HW136128   0.128   1.623   0.929  1.1071 -2.0084 -0.6622
 8165SOL    HW236129   0.145   1.614   0.788  1.4595  1.6191 -1.6518
 8166SOL     OW36130   1.614   1.998   4.775 -0.2235 -0.0956  0.0559
 8166SOL    HW136131   1.582   2.002   4.865  3.7277  1.3062  1.4018
 8166SOL    HW236132   1.527   2.010   4.736 -0.5045 -2.3561  0.0119
 8167SOL     OW36133   1.804   0.132   5.102 -0.0221  0.1477 -0.1172
 8167SOL    HW136134   1.790   0.203   5.164 -1.3173  1.0184 -1.3778
 8167SOL    HW236135   1.743   0.070   5.141 -0.4721  0.4200 -0.3869
 8168SOL     OW36136   4.127   0.091   8.719 -0.0202  0.6593  0.1293
 8168SOL    HW136137   4.179   0.133   8.650 -1.6789 -0.0705 -1.5825
 8168SOL    HW236138   4.183   0.030   8.767  0.8441 -0.4887 -2.3262
 8169SOL     OW36139   3.761   1.623  14.450 -0.4126  0.6229  0.1023
 8169SOL    HW136140   3.735   1.577  14.530 -0.1676 -0.1546 -0.2698
 8169SOL    HW236141   3.852   1.595  14.440 -0.9346 -1.6671  1.8973
 8170SOL     OW36142   4.694   4.241  15.444 -0.0449  0.4749 -0.5448
 8170SOL    HW136143   4.602   4.233  15.469 -0.1142  0.7724 -0.7189
 8170SOL    HW236144   4.711   4.334  15.433  1.1545  0.5201  1.7087
 8171SOL     OW36145   3.986   3.215  12.116  0.2427  0.6570  0.1040
 8171SOL    HW136146   3.919   3.283  12.116  1.5984  1.9781 -0.0373
 8171SOL    HW236147   3.975   3.177  12.029 -0.5709 -1.5698  1.1592
 8172SOL     OW36148   3.690   4.416   5.302 -0.1591 -0.3450  0.4961
 8172SOL    HW136149   3.757   4.483   5.288 -0.0669 -0.5267  0.0616
 8172SOL    HW236150   3.669   4.440   5.392 -2.5759  1.2908 -0.5175
 8173SOL     OW36151   2.512   0.634   8.646 -0.2287 -0.0540 -0.1703
 8173SOL    HW136152   2.448   0.678   8.591 -1.6208 -2.3663 -0.3921
 8173SOL    HW236153   2.478   0.548   8.669  0.9797  0.1048  2.2906
 8174SOL     OW36154   1.821   0.108   7.562 -0.3268 -0.4383  0.4322
 8174SOL    HW136155   1.727   0.111   7.548 -0.2389 -1.5236 -0.3548
 8174SOL    HW236156   1.851   0.187   7.516  0.6247 -1.6663 -1.0633
 8175SOL     OW36157   3.402   0.579   7.579 -0.3170  0.0607  0.2478
 8175SOL    HW136158   3.325   0.528   7.553 -0.0488  0.0333 -0.5181
 8175SOL    HW236159   3.432   0.532   7.656  0.2817  0.6011  0.3397
 8176SOL     OW36160   2.824   2.235  15.158 -0.0202 -0.5502  0.1550
 8176SOL    HW136161   2.788   2.204  15.240  0.2263 -0.8687  0.1448
 8176SOL    HW236162   2.832   2.326  15.184  0.3541 -0.9791  1.5103
 8177SOL     OW36163   1.134   4.098   3.526 -0.2665  0.3864 -0.6602
 8177SOL    HW136164   1.135   4.089   3.431  1.4568 -2.1239 -0.4134
 8177SOL    HW236165   1.171   4.186   3.535  0.1852  0.2620 -1.3018
 8178SOL     OW36166   3.264   4.516   9.682 -0.2095  0.5978 -0.0402
 8178SOL    HW136167   3.310   4.446   9.634  0.4732  1.3608 -0.4980
 8178SOL    HW236168   3.173   4.490   9.664 -0.1121 -0.9507  1.7623
 8179SOL     OW36169   1.518   2.609  14.292  0.4292 -1.0820  0.2815
 8179SOL    HW136170   1.448   2.660  14.333  1.3973 -0.3531  1.0159
 8179SOL    HW236171   1.544   2.669  14.221 -1.0889 -1.7756 -0.8638
 8180SOL     OW36172   3.968   2.139   2.830 -0.3145 -0.0760  0.1947
 8180SOL    HW136173   3.976   2.080   2.756  0.8117 -1.0117  1.0665
 8180SOL    HW236174   3.889   2.191   2.814  0.1985  1.1739  1.6505
 8181SOL     OW36175   2.523   4.563  10.960 -0.4860  0.1006  0.0899
 8181SOL    HW136176   2.506   4.519  11.043 -1.4770 -0.2212 -0.2865
 8181SOL    HW236177   2.492   4.501  10.894  0.5125 -0.0002 -0.2885
 8182SOL     OW36178   1.706   1.289  15.276 -0.4213 -0.1790  0.4580
 8182SOL    HW136179   1.742   1.207  15.309  0.2753 -0.6740 -1.5219
 8182SOL    HW236180   1.755   1.304  15.195  2.3934  1.8430  2.5365
 8183SOL     OW36181   3.048   4.474   5.949 -0.1322  0.8457 -0.1257
 8183SOL    HW136182   3.017   4.511   6.032  1.4704  2.1673 -0.1137
 8183SOL    HW236183   2.967   4.441   5.911 -0.4649  2.2757 -0.6727
 8184SOL     OW36184   2.909   3.964   8.263 -0.3869 -0.1822 -0.0724
 8184SOL    HW136185   3.003   3.977   8.270 -0.3635  1.1880 -2.8979
 8184SOL    HW236186   2.878   4.039   8.314 -0.3120 -0.4120  0.3072
 8185SOL     OW36187   3.014   0.694  13.145  0.4765 -0.2788  0.1768
 8185SOL    HW136188   3.010   0.784  13.177 -0.1604  0.1926 -1.2747
 8185SOL    HW236189   3.107   0.673  13.140 -0.3432 -3.7943  0.0136
 8186SOL     OW36190   0.902   4.422   4.572 -0.1534  0.1136 -0.3754
 8186SOL    HW136191   0.979   4.368   4.555 -1.4924 -1.0922 -2.6418
 8186SOL    HW236192   0.886   4.465   4.489 -1.6892 -0.5530 -0.4228
 8187SOL     OW36193   2.735   2.879   4.296 -0.4726  0.2802  0.3886
 8187SOL    HW136194   2.733   2.950   4.232 -3.1261  0.8207  1.0420
 8187SOL    HW236195   2.717   2.803   4.240  1.7571  0.3488 -0.3799
 8188SOL     OW36196   2.922   1.098   6.533 -0.2854  0.1264  0.4381
 8188SOL    HW136197   2.905   1.005   6.519 -1.9086  0.3606  0.9380
 8188SOL    HW236198   2.835   1.136   6.545 -0.5786 -0.8072  1.3059
 8189SOL     OW36199   1.506   2.777  16.913 -0.5058 -0.0676 -0.4302
 8189SOL    HW136200   1.468   2.756  16.999 -0.2314  1.2550  0.0219
 8189SOL    HW236201   1.431   2.793  16.856 -2.2149  1.0148  2.0901
 8190SOL     OW36202   1.200   1.078   6.320  0.5832 -0.2590  0.1847
 8190SOL    HW136203   1.283   1.099   6.364  0.3034 -0.6665  0.9192
 8190SOL    HW236204   1.200   0.983   6.311 -2.5314 -0.1329 -1.1243
 8191SOL     OW36205   1.346   3.417   8.333 -0.1700  0.0904  0.1329
 8191SOL    HW136206   1.361   3.368   8.414 -0.3423 -2.5293 -1.4233
 8191SOL    HW236207   1.348   3.507   8.366  0.5836 -0.2152  0.9284
 8192SOL     OW36208   0.660   4.604   6.950 -0.4858 -0.0069  0.0290
 8192SOL    HW136209   0.709   4.686   6.943 -2.4367  0.9660 -1.9814
 8192SOL    HW236210   0.578   4.627   6.906 -2.3161 -4.1036  1.3426
 8193SOL     OW36211   1.644   2.101   3.688  0.1676 -0.0851 -0.5396
 8193SOL    HW136212   1.725   2.053   3.701  0.4621  0.9926  1.4509
 8193SOL    HW236213   1.636   2.148   3.770 -0.5186  0.1869 -0.7599
 8194SOL     OW36214   4.124   3.970   8.896 -0.1197  0.0007  0.1046
 8194SOL    HW136215   4.087   4.050   8.933 -0.4256  1.9105 -4.3215
 8194SOL    HW236216   4.060   3.902   8.914  2.2914 -2.5883 -1.0883
 8195SOL     OW36217   0.769   1.496  10.074 -0.3025  0.4207 -0.0408
 8195SOL    HW136218   0.823   1.418  10.091 -0.9995 -0.1966 -0.6332
 8195SOL    HW236219   0.687   1.461  10.039  1.1747 -2.8154 -0.2690
 8196SOL     OW36220   1.283   1.252   7.601 -0.1633 -0.7735 -0.1869
 8196SOL    HW136221   1.328   1.322   7.553 -3.0297  1.8651  0.9709
 8196SOL    HW236222   1.195   1.285   7.618 -0.1157 -1.1508  0.7875
 8197SOL     OW36223   3.289   1.252   8.191  0.2704  0.0994  0.9404
 8197SOL    HW136224   3.267   1.317   8.258 -0.5832 -1.5166  2.2268
 8197SOL    HW236225   3.366   1.209   8.229  0.2407  0.6023  1.5814
 8198SOL     OW36226   3.095   3.129   7.365 -0.1500  0.2401  0.3953
 8198SOL    HW136227   3.170   3.077   7.335 -0.6440 -1.1513  1.5414
 8198SOL    HW236228   3.129   3.168   7.446  2.3241  0.1990 -0.6113
 8199SOL     OW36229   3.065   3.834  10.360 -0.2844 -0.8188  0.4979
 8199SOL    HW136230   3.111   3.822  10.277  0.4602 -1.1521  0.9612
 8199SOL    HW236231   3.134   3.864  10.419  0.0406  0.0985 -0.3394
 8200SOL     OW36232   3.534   1.101   8.293  0.8322  0.0672 -0.4563
 8200SOL    HW136233   3.616   1.083   8.340 -0.1348 -1.4617  0.6856
 8200SOL    HW236234   3.522   1.012   8.261  0.4344 -1.5483  4.1252
 8201SOL     OW36235   3.581   4.027   6.065  0.2426 -0.2284 -0.2633
 8201SOL    HW136236   3.598   4.012   6.158 -0.0246 -1.0452 -0.3420
 8201SOL    HW236237   3.579   4.122   6.074  1.7106 -0.3261  1.2678
 8202SOL     OW36238   0.261   1.532   1.271 -0.1086  0.2543  0.0033
 8202SOL    HW136239   0.328   1.593   1.303 -1.0015 -0.5061  3.3236
 8202SOL    HW236240   0.304   1.458   1.227  0.0583  0.1912  0.2732
 8203SOL     OW36241   1.842   1.421   5.593 -0.2418 -0.8156  0.5339
 8203SOL    HW136242   1.757   1.458   5.566  0.5347  0.2876 -0.4425
 8203SOL    HW236243   1.873   1.485   5.657  0.8319 -1.5583  0.7500
 8204SOL     OW36244   0.404   4.411   7.361  0.3490  0.0153 -0.2412
 8204SOL    HW136245   0.447   4.406   7.446  1.5699  0.0979 -0.8572
 8204SOL    HW236246   0.321   4.453   7.384  2.2228  3.2897  0.5147
 8205SOL     OW36247   0.286   0.692   4.444 -0.1508 -0.2920 -0.1983
 8205SOL    HW136248   0.252   0.709   4.532 -1.0486 -2.0707 -0.1864
 8205SOL    HW236249   0.204   0.652   4.414 -1.0875  1.3207  0.1805
 8206SOL     OW36250   2.557   3.988   9.862 -0.4300  0.1768  0.6393
 8206SOL    HW136251   2.651   3.979   9.853 -0.4547  1.2899 -0.7446
 8206SOL    HW236252   2.547   3.986   9.957 -1.1770  0.3123  0.5696
 8207SOL     OW36253   4.104   1.088   2.338  0.1377 -0.0236 -0.0288
 8207SOL    HW136254   4.080   1.156   2.400  0.7822 -1.5854  1.9349
 8207SOL    HW236255   4.019   1.085   2.294 -0.4828 -2.2593  1.2926
 8208SOL     OW36256   2.539   4.016   4.853 -0.2636 -0.2168  0.2397
 8208SOL    HW136257   2.557   4.108   4.835  0.8359 -0.2339  1.2798
 8208SOL    HW236258   2.500   4.029   4.939 -1.4145  1.3861 -0.5164
 8209SOL     OW36259   3.401   4.173   4.766  0.0275 -0.1132  0.2546
 8209SOL    HW136260   3.353   4.214   4.694  0.5521 -0.6961 -0.4220
 8209SOL    HW236261   3.357   4.213   4.842  0.5792  2.7288 -0.8989
 8210SOL     OW36262   0.947   4.171   6.874 -0.0556 -0.2278  0.4751
 8210SOL    HW136263   0.855   4.198   6.868  0.5822  1.4823 -1.9164
 8210SOL    HW236264   0.985   4.259   6.881  0.7909 -0.5363 -0.2404
 8211SOL     OW36265   0.746   3.443   8.881  0.5296  0.2613  1.0034
 8211SOL    HW136266   0.669   3.446   8.824  0.1109 -2.1337  1.4334
 8211SOL    HW236267   0.769   3.350   8.879  1.5343  0.5349 -0.3522
 8212SOL     OW36268   2.782   1.054   6.900 -0.8205 -0.7275  0.3329
 8212SOL    HW136269   2.741   1.140   6.890  0.4651 -0.2774 -1.1203
 8212SOL    HW236270   2.830   1.073   6.980  0.2433  0.5139 -0.5873
 8213SOL     OW36271   1.691   0.436   2.922 -0.1587  0.2103 -0.1991
 8213SOL    HW136272   1.651   0.504   2.976 -1.9827 -1.4600  0.5661
 8213SOL    HW236273   1.777   0.437   2.963 -0.0949  1.2490 -0.3725
 8214SOL     OW36274   1.383   1.194  13.251  0.2698  0.3496  0.4281
 8214SOL    HW136275   1.353   1.252  13.181 -1.2865 -1.8868 -0.7178
 8214SOL    HW236276   1.310   1.136  13.272 -0.1314  0.9513  0.6853
 8215SOL     OW36277   0.461   3.242  16.120 -0.1344  0.4555  0.2781
 8215SOL    HW136278   0.402   3.250  16.045  0.8664  1.3630 -0.4101
 8215SOL    HW236279   0.444   3.321  16.171 -1.6266  0.5645 -0.3831
 8216SOL     OW36280   1.902   1.982   3.616 -0.2551 -0.2655  0.6329
 8216SOL    HW136281   1.928   2.066   3.577  1.5673  0.0849  2.5861
 8216SOL    HW236282   1.969   1.968   3.683  0.7039  1.0106 -0.0671
 8217SOL     OW36283   0.034   4.380   8.815 -0.1912 -0.2172  0.4394
 8217SOL    HW136284   0.094   4.450   8.789 -0.9129 -0.2561 -1.2995
 8217SOL    HW236285   4.706   4.365   8.747 -1.2118  1.4270  1.0771
 8218SOL     OW36286   0.573   2.309  17.113  0.4001  0.7014 -0.4202
 8218SOL    HW136287   0.490   2.310  17.162  0.1987 -0.3451 -0.7408
 8218SOL    HW236288   0.571   2.399  17.079 -1.3873  0.3147 -1.3285
 8219SOL     OW36289   4.369   2.591  14.901 -0.0293 -0.2824 -0.1995
 8219SOL    HW136290   4.357   2.585  14.806 -2.6225 -1.5711  0.2103
 8219SOL    HW236291   4.426   2.515  14.904 -1.7471 -1.4861  1.5429
 8220SOL     OW36292   0.404   0.991   9.037 -0.1017  0.5448 -0.1739
 8220SOL    HW136293   0.394   1.081   9.067  3.5208  1.1259 -0.6618
 8220SOL    HW236294   0.439   1.002   8.949  0.2383  1.1777  0.0398
 8221SOL     OW36295   3.168   4.673   5.291 -0.0681  0.1412 -0.2345
 8221SOL    HW136296   3.137   4.589   5.257 -1.3512 -0.3601  2.1413
 8221SOL    HW236297   3.233   4.650   5.358  1.1923  1.3074 -1.0522
 8222SOL     OW36298   1.419   1.646   5.520 -0.1652 -0.0494 -0.0949
 8222SOL    HW136299   1.349   1.582   5.511  0.6598 -0.8369 -0.9388
 8222SOL    HW236300   1.390   1.698   5.445 -1.0147 -0.0816  0.2043
 8223SOL     OW36301   2.509   1.885   1.145 -0.1052  0.1413 -0.0180
 8223SOL    HW136302   2.502   1.971   1.105 -0.6199  0.3093  0.4379
 8223SOL    HW236303   2.601   1.885   1.171  0.3181  2.9549 -1.5167
 8224SOL     OW36304   3.016   2.997  16.463  0.3780  0.2484 -0.1778
 8224SOL    HW136305   3.019   3.078  16.515 -2.4166  0.0919  0.2234
 8224SOL    HW236306   3.087   2.938  16.487  0.5795  0.4058 -0.3901
 8225SOL     OW36307   3.961   2.758   6.637  1.0160 -0.2351 -0.5303
 8225SOL    HW136308   3.999   2.821   6.576  0.5373  1.4536  0.9099
 8225SOL    HW236309   3.894   2.733   6.573  1.0549 -2.4266  0.2794
 8226SOL     OW36310   1.583   0.251   5.458  0.2073  0.0168  0.2606
 8226SOL    HW136311   1.543   0.312   5.520  1.2049 -1.5760  2.4635
 8226SOL    HW236312   1.556   0.170   5.500 -1.5864  0.4739 -0.0147
 8227SOL     OW36313   1.849   1.405   1.736  0.5354 -0.2114  0.6072
 8227SOL    HW136314   1.902   1.384   1.813  1.8380  0.8303 -0.0001
 8227SOL    HW236315   1.795   1.470   1.779 -0.5556 -0.8193  0.1434
 8228SOL     OW36316   1.239   3.268   9.531 -0.1892  0.2633  0.3286
 8228SOL    HW136317   1.321   3.227   9.503  0.9955  2.3228  0.7229
 8228SOL    HW236318   1.211   3.326   9.460  0.7760 -1.3726 -1.3794
 8229SOL     OW36319   2.085   1.344   4.839 -0.0141  0.3867  0.4966
 8229SOL    HW136320   2.132   1.305   4.765 -0.5769 -1.3692  1.0613
 8229SOL    HW236321   1.998   1.303   4.842  0.3985 -0.5300 -0.2147
 8230SOL     OW36322   2.989   0.488   2.221 -0.3632 -0.6140  0.0273
 8230SOL    HW136323   2.928   0.436   2.169  0.3585 -1.2211 -0.2185
 8230SOL    HW236324   3.053   0.420   2.243 -2.7652 -2.7708  0.2668
 8231SOL     OW36325   4.145   1.503   4.676  0.0864 -0.3694 -0.5193
 8231SOL    HW136326   4.236   1.527   4.695 -0.8797  1.8947  1.2717
 8231SOL    HW236327   4.112   1.447   4.746 -1.9226  0.9598 -0.3997
 8232SOL     OW36328   3.858   2.540   3.618  0.5814  0.1150  0.1119
 8232SOL    HW136329   3.881   2.448   3.635 -0.5388  0.2950  2.6360
 8232SOL    HW236330   3.849   2.574   3.707 -0.4854  0.6014 -0.1875
 8233SOL     OW36331   3.834   3.153   3.817 -0.5613  0.0083  0.5077
 8233SOL    HW136332   3.813   3.207   3.741  0.3413  1.7795  1.5166
 8233SOL    HW236333   3.913   3.199   3.845 -0.0922 -1.1498  1.0941
 8234SOL     OW36334   2.236   0.282  13.924 -0.3772 -0.3214  0.3757
 8234SOL    HW136335   2.149   0.322  13.917  0.0982  0.9562  1.8952
 8234SOL    HW236336   2.275   0.313  13.842  1.9817 -1.0755  1.2326
 8235SOL     OW36337   2.268   4.251   2.453 -0.0620  0.2032  0.0955
 8235SOL    HW136338   2.262   4.182   2.519  2.1051 -3.2345 -3.3560
 8235SOL    HW236339   2.319   4.204   2.388  1.3614  0.1287  1.2542
 8236SOL     OW36340   2.785   0.394   5.198 -0.2808  0.4661 -0.0739
 8236SOL    HW136341   2.765   0.452   5.124 -1.8501  2.3827  1.8554
 8236SOL    HW236342   2.836   0.460   5.244  0.1795 -0.6448  1.0057
 8237SOL     OW36343   1.430   1.666   3.035 -0.0144 -0.5109  0.1148
 8237SOL    HW136344   1.484   1.622   2.970 -0.9254  1.7009 -2.1387
 8237SOL    HW236345   1.491   1.695   3.103 -0.0671 -1.9533  0.7827
 8238SOL     OW36346   1.649   0.283  11.990  0.7818 -0.6227 -0.0809
 8238SOL    HW136347   1.584   0.268  12.059  1.8902  0.6987  1.2603
 8238SOL    HW236348   1.704   0.352  12.028 -1.1196  0.6432  0.3812
 8239SOL     OW36349   1.816   0.221   9.148 -0.5297  0.2685 -0.2417
 8239SOL    HW136350   1.793   0.143   9.198 -1.5893 -0.1672 -1.4150
 8239SOL    HW236351   1.821   0.288   9.217  1.0118 -0.5649  0.4282
 8240SOL     OW36352   4.392   1.640   3.944  0.0053  0.7043 -0.0245
 8240SOL    HW136353   4.477   1.655   3.984  0.1173 -1.5339  0.5751
 8240SOL    HW236354   4.356   1.563   3.988  1.4959 -0.3934 -0.7572
 8241SOL     OW36355   3.159   2.604   6.390  0.1414 -0.8318  0.0876
 8241SOL    HW136356   3.079   2.606   6.442  1.0513 -0.4682  1.4780
 8241SOL    HW236357   3.219   2.592   6.464  1.5425 -1.0441 -1.0908
 8242SOL     OW36358   3.668   1.149   4.192 -0.0009  0.3911  0.3523
 8242SOL    HW136359   3.637   1.236   4.165 -0.8003 -1.2261 -3.9139
 8242SOL    HW236360   3.584   1.104   4.198  0.2415 -0.0995  0.0693
 8243SOL     OW36361   4.526   3.043   5.424 -0.4571 -1.0188 -0.5053
 8243SOL    HW136362   4.595   2.977   5.414  2.7650  2.4324 -1.1853
 8243SOL    HW236363   4.506   3.042   5.517 -1.0241  0.5683 -0.6128
 8244SOL     OW36364   2.856   0.127   5.114 -0.7601 -0.1094  0.0359
 8244SOL    HW136365   2.856   0.218   5.143  2.5201 -0.0819 -0.0192
 8244SOL    HW236366   2.809   0.079   5.183  0.6041 -1.1519  0.2380
 8245SOL     OW36367   1.646   2.798  17.298 -0.3023  0.5165  0.7575
 8245SOL    HW136368   1.651   2.845  17.214 -2.1158  0.2352  0.4913
 8245SOL    HW236369   1.737   2.771  17.310  0.4192  1.3459 -2.7094
 8246SOL     OW36370   0.839   4.446   0.843 -0.7672 -0.3917  0.5387
 8246SOL    HW136371   0.777   4.482   0.779  1.1675  0.2734 -0.9703
 8246SOL    HW236372   0.883   4.526   0.872  0.0451 -0.4072 -0.6697
 8247SOL     OW36373   2.657   4.204   8.906 -0.1264 -0.3244 -0.0080
 8247SOL    HW136374   2.602   4.178   8.979  1.1349 -0.9268  0.7229
 8247SOL    HW236375   2.727   4.249   8.954  0.3625 -1.5901  0.4489
 8248SOL     OW36376   0.176   0.201   8.849  0.6653 -0.1017 -0.1144
 8248SOL    HW136377   0.188   0.234   8.760 -0.5040  0.9976  0.1325
 8248SOL    HW236378   0.107   0.136   8.836  0.8103 -0.4308  0.7567
 8249SOL     OW36379   3.376   2.224   5.904  0.1255 -0.0582 -0.3266
 8249SOL    HW136380   3.471   2.233   5.897  0.3980 -1.6605  1.2077
 8249SOL    HW236381   3.364   2.168   5.827  0.9969  0.7269 -1.0282
 8250SOL     OW36382   0.699   1.596   2.049 -0.0120 -0.0616 -0.0366
 8250SOL    HW136383   0.754   1.613   2.126 -1.4637  1.6753  0.6135
 8250SOL    HW236384   0.714   1.502   2.037  1.6378  0.6307 -3.2531
 8251SOL     OW36385   3.815   0.199  10.848  0.1124 -0.1159  0.0913
 8251SOL    HW136386   3.761   0.191  10.927 -0.1506  0.6903 -0.0008
 8251SOL    HW236387   3.900   0.176  10.885  1.6719  2.1720 -2.0554
 8252SOL     OW36388   4.693   1.462   9.747  0.5168  0.3144  0.2421
 8252SOL    HW136389   4.617   1.436   9.800  0.4238  3.7042  1.8009
 8252SOL    HW236390   4.652   1.520   9.683  0.1196  0.7446  0.8787
 8253SOL     OW36391   4.018   4.244  10.480 -0.0164  0.0270 -0.5461
 8253SOL    HW136392   4.045   4.260  10.571  2.2289 -0.8850 -1.0672
 8253SOL    HW236393   4.092   4.200  10.439 -0.3466 -1.5183  0.4997
 8254SOL     OW36394   0.153   3.166  11.834 -0.2530  0.0752 -0.5329
 8254SOL    HW136395   0.110   3.215  11.764 -1.0692  2.8577  1.8939
 8254SOL    HW236396   0.239   3.134  11.809 -0.4886 -0.1740 -1.0357
 8255SOL     OW36397   1.483   2.434  14.495 -0.6837  0.0410  0.3488
 8255SOL    HW136398   1.532   2.468  14.419  0.4297 -2.0012  0.1669
 8255SOL    HW236399   1.464   2.522  14.529 -1.3253  0.3562 -0.8317
 8256SOL     OW36400   0.275   2.356   5.094  0.1154 -0.5357 -0.2848
 8256SOL    HW136401   0.281   2.448   5.071  1.3511 -0.8863 -1.3665
 8256SOL    HW236402   0.181   2.351   5.110  0.0651  0.2144 -0.3489
 8257SOL     OW36403   3.700   2.962  11.455 -0.0782  0.1964  0.4453
 8257SOL    HW136404   3.689   2.891  11.391  0.2899  0.8418 -0.3373
 8257SOL    HW236405   3.614   3.005  11.447 -0.0510 -0.1086 -1.5923
 8258SOL     OW36406   3.765   0.609   0.259 -0.8704 -0.5808 -0.0104
 8258SOL    HW136407   3.699   0.661   0.213 -0.1140  0.6762  0.2992
 8258SOL    HW236408   3.807   0.672   0.318  0.9042  0.6998 -2.6313
 8259SOL     OW36409   4.242   4.635   8.894  0.3645  0.0790 -0.1638
 8259SOL    HW136410   4.190   4.558   8.870  1.6246  0.2238 -3.3674
 8259SOL    HW236411   4.314   4.589   8.938  0.7402 -1.1644 -2.0871
 8260SOL     OW36412   3.294   4.045   3.580 -0.1136 -0.2356 -0.5259
 8260SOL    HW136413   3.232   4.021   3.650  0.1274  2.7583  0.7211
 8260SOL    HW236414   3.376   4.030   3.627 -0.5761 -0.6934  0.1477
 8261SOL     OW36415   0.910   3.914  16.097  0.0984  0.3458 -0.4571
 8261SOL    HW136416   0.967   3.871  16.160 -0.9215 -0.9013 -0.3928
 8261SOL    HW236417   0.968   3.926  16.022  0.7633 -0.0924 -0.0106
 8262SOL     OW36418   2.609   2.069   2.009  0.2645 -0.3777 -0.3273
 8262SOL    HW136419   2.614   2.095   2.101  2.2399  1.1143 -0.8464
 8262SOL    HW236420   2.542   2.130   1.977 -0.0508 -0.9655 -0.7791
 8263SOL     OW36421   0.913   2.643   0.527 -0.3598 -0.0327 -0.4983
 8263SOL    HW136422   0.890   2.571   0.469 -0.3030  0.3011 -0.9319
 8263SOL    HW236423   1.008   2.638   0.540 -0.5571 -0.7786  0.6488
 8264SOL     OW36424   4.354   0.407   7.136  0.1772  0.6313 -0.7066
 8264SOL    HW136425   4.438   0.368   7.111  0.8257  1.3253  0.4353
 8264SOL    HW236426   4.348   0.371   7.224 -2.2373  0.6994 -0.8368
 8265SOL     OW36427   4.484   1.755   3.395 -0.3985  0.1650 -0.2802
 8265SOL    HW136428   4.473   1.785   3.305 -0.3515  1.7741  0.2403
 8265SOL    HW236429   4.396   1.720   3.410 -0.7406  1.6939  1.3031
 8266SOL     OW36430   2.244   0.966  15.774 -0.1320  0.5481 -0.1874
 8266SOL    HW136431   2.291   1.041  15.812  0.6856 -0.4105  0.7067
 8266SOL    HW236432   2.296   0.961  15.694 -1.8659  1.0707 -1.3382
 8267SOL     OW36433   3.681   2.277   4.903 -0.0337 -0.4820 -0.3451
 8267SOL    HW136434   3.591   2.250   4.923  0.0729 -0.8412 -0.3613
 8267SOL    HW236435   3.713   2.219   4.835 -0.2713  1.0969 -1.7990
 8268SOL     OW36436   4.636   0.217  15.767 -0.4869 -0.0317 -0.2829
 8268SOL    HW136437   4.630   0.240  15.860  4.8721 -1.0341  0.3425
 8268SOL    HW236438   4.548   0.237  15.735 -1.4286 -2.7358  0.6362
 8269SOL     OW36439   3.403   3.284   2.420 -0.2560  0.6137 -0.0521
 8269SOL    HW136440   3.399   3.363   2.475 -0.1180  1.1274 -0.7863
 8269SOL    HW236441   3.434   3.218   2.482  1.7020  1.3757 -0.2401
 8270SOL     OW36442   4.665   1.907  14.433 -0.2621 -0.0369 -0.0803
 8270SOL    HW136443   4.642   1.820  14.401  1.8668  0.4902 -3.0174
 8270SOL    HW236444   4.691   1.901  14.525 -1.7803 -0.2558  0.3252
 8271SOL     OW36445   1.131   1.024   5.151  0.1711  0.2296 -0.2091
 8271SOL    HW136446   1.172   0.938   5.161 -2.0031 -0.6398  1.0581
 8271SOL    HW236447   1.101   1.049   5.238 -1.5605 -0.4484 -0.6259
 8272SOL     OW36448   4.527   1.433   2.032  0.1468 -0.0470 -0.1252
 8272SOL    HW136449   4.471   1.357   2.016  0.2255 -0.5041  1.7723
 8272SOL    HW236450   4.583   1.410   2.106 -0.4752  0.5998  0.5571
 8273SOL     OW36451   1.162   0.990   2.846  0.3698  0.0565  0.3858
 8273SOL    HW136452   1.118   0.915   2.886  2.6791 -2.0266 -1.0009
 8273SOL    HW236453   1.082   1.023   2.803  0.3889  0.0275  0.3271
 8274SOL     OW36454   0.436   1.354  17.709  0.6232 -0.2557  0.6363
 8274SOL    HW136455   0.462   1.310   0.044  2.6927 -0.5663 -0.2096
 8274SOL    HW236456   0.492   1.432  17.715  0.9593 -0.1874 -2.9788
 8275SOL     OW36457   4.073   1.665  13.418  0.0251 -0.3597 -0.3495
 8275SOL    HW136458   4.099   1.602  13.351  2.1445  0.7765 -0.6028
 8275SOL    HW236459   3.978   1.655  13.420 -0.0387 -0.4685 -3.9892
 8276SOL     OW36460   1.170   3.287   3.150  0.3414 -0.1583 -0.3508
 8276SOL    HW136461   1.116   3.249   3.082  1.3181  1.0944 -1.8312
 8276SOL    HW236462   1.139   3.241   3.228 -0.5443  0.5370 -0.2935
 8277SOL     OW36463   1.350   3.656   8.466  0.4997  0.6293 -0.1154
 8277SOL    HW136464   1.304   3.725   8.514  0.3869  1.0753 -0.8679
 8277SOL    HW236465   1.390   3.613   8.542 -0.5233 -1.7713 -0.9455
 8278SOL     OW36466   1.850   4.304   1.454  0.3049 -0.0046 -0.5229
 8278SOL    HW136467   1.757   4.296   1.475 -0.1918 -1.2960 -3.1372
 8278SOL    HW236468   1.874   4.374   1.513  1.6064 -0.5981 -0.3547
 8279SOL     OW36469   0.412   1.560  12.391 -0.0961 -0.0326  0.4073
 8279SOL    HW136470   0.344   1.627  12.387 -0.1182 -0.0890 -0.0910
 8279SOL    HW236471   0.438   1.552  12.300 -2.4433 -1.8178 -0.0798
 8280SOL     OW36472   3.649   4.675  15.480 -0.5678 -0.3612  0.7347
 8280SOL    HW136473   3.715   4.731  15.441 -0.4340 -2.5407 -2.2168
 8280SOL    HW236474   3.575   4.707  15.427 -1.0890 -2.0467  0.4353
 8281SOL     OW36475   2.903   4.518   5.045 -0.3422 -0.2023  0.1764
 8281SOL    HW136476   2.974   4.537   5.106 -0.7232  1.6883  0.0333
 8281SOL    HW236477   2.915   4.426   5.022  4.1642  0.6879 -0.9419
 8282SOL     OW36478   0.693   2.431   2.041 -0.4430  0.0659  0.1106
 8282SOL    HW136479   0.782   2.401   2.022 -0.1767  0.0280  1.3705
 8282SOL    HW236480   0.687   2.510   1.986  0.5566 -1.3861 -2.0489
 8283SOL     OW36481   3.040   3.115   8.412 -0.1556  0.0055 -0.4253
 8283SOL    HW136482   3.032   3.191   8.469  0.5819 -1.0987  1.1325
 8283SOL    HW236483   3.092   3.063   8.473 -1.0813 -0.2691  0.1326
 8284SOL     OW36484   4.356   3.209   7.514  0.1285 -0.5194 -0.1137
 8284SOL    HW136485   4.327   3.284   7.566  1.0855 -0.0004 -0.3441
 8284SOL    HW236486   4.311   3.241   7.435 -0.4485 -2.9082 -0.7690
 8285SOL     OW36487   2.600   1.919   3.362 -0.1308 -0.1251 -0.0983
 8285SOL    HW136488   2.545   1.932   3.440 -0.7718 -0.3680 -0.5072
 8285SOL    HW236489   2.664   1.856   3.392 -0.0041 -0.8677 -1.9127
 8286SOL     OW36490   1.248   0.883  16.591 -0.1375 -0.4451  0.2247
 8286SOL    HW136491   1.270   0.818  16.524  1.0968  0.7625 -0.5529
 8286SOL    HW236492   1.334   0.902  16.630 -0.3743  1.5499 -0.2661
 8287SOL     OW36493   0.246   1.180   3.803 -0.3438 -0.2238  1.0851
 8287SOL    HW136494   0.303   1.256   3.816  0.8316 -1.0324  0.5970
 8287SOL    HW236495   0.196   1.211   3.728 -0.8388 -2.0846  0.6453
 8288SOL     OW36496   2.514   2.296   9.372 -0.2728 -0.2535 -0.4081
 8288SOL    HW136497   2.554   2.209   9.372  0.3194  0.0192 -0.6720
 8288SOL    HW236498   2.437   2.290   9.428 -1.0813  0.5537 -1.4246
 8289SOL     OW36499   1.843   0.657  15.762  0.2082 -0.3198 -0.1278
 8289SOL    HW136500   1.868   0.747  15.743  0.7061 -0.6195 -0.8730
 8289SOL    HW236501   1.888   0.639  15.845 -0.8371  0.0920  0.5405
 8290SOL     OW36502   1.469   3.416   4.837 -0.0248 -0.0080 -0.1664
 8290SOL    HW136503   1.494   3.451   4.923 -0.6214  0.5674 -0.2202
 8290SOL    HW236504   1.459   3.495   4.783 -2.1620 -0.0476  0.1620
 8291SOL     OW36505   4.170   4.048   2.880  0.0371 -0.4851  0.6196
 8291SOL    HW136506   4.250   4.071   2.927 -0.2991  1.6271  0.1780
 8291SOL    HW236507   4.193   4.054   2.788 -2.2111  1.6208  0.1873
 8292SOL     OW36508   4.578   0.427  13.259 -0.3320 -0.0646  0.5273
 8292SOL    HW136509   4.505   0.455  13.314 -0.1764 -1.4382  1.4641
 8292SOL    HW236510   4.651   0.439  13.320 -1.0176  1.2479  1.0779
 8293SOL     OW36511   3.759   2.679   7.402  0.0709  0.2770  0.1059
 8293SOL    HW136512   3.793   2.679   7.491 -1.4349 -1.3348  0.6856
 8293SOL    HW236513   3.689   2.742   7.415  0.2643  0.6575 -0.6875
 8294SOL     OW36514   3.438   3.737   6.540  0.2706 -0.1046  0.1858
 8294SOL    HW136515   3.346   3.721   6.523  0.8090 -0.4100 -2.3504
 8294SOL    HW236516   3.450   3.648   6.575  0.2762  0.0343  0.5403
 8295SOL     OW36517   3.689   4.230   7.120  0.0451  0.3888 -0.6680
 8295SOL    HW136518   3.680   4.300   7.056  1.0828  0.6509 -0.5305
 8295SOL    HW236519   3.768   4.261   7.165  1.3247  0.3606 -2.8906
 8296SOL     OW36520   3.200   2.188   7.305  0.6663 -0.3857  1.1866
 8296SOL    HW136521   3.169   2.277   7.318  1.6344  0.1023  0.1565
 8296SOL    HW236522   3.231   2.194   7.214  0.0395  1.1627  1.0824
 8297SOL     OW36523   2.773   1.334   6.877  0.1622  0.3700 -0.1453
 8297SOL    HW136524   2.866   1.357   6.874  0.0784  0.8455  0.9407
 8297SOL    HW236525   2.727   1.393   6.817 -0.0008  0.9205  0.5325
 8298SOL     OW36526   2.264   3.519   7.975 -0.1925 -0.6149  0.2831
 8298SOL    HW136527   2.345   3.531   7.926 -0.3397 -0.6165  0.0368
 8298SOL    HW236528   2.292   3.501   8.065 -1.0387 -0.8423  0.5066
 8299SOL     OW36529   3.279   3.765  14.804 -0.2797  0.0132 -0.3501
 8299SOL    HW136530   3.367   3.800  14.816 -0.4394 -0.0396  0.9522
 8299SOL    HW236531   3.232   3.843  14.832 -1.6529 -1.3585  1.1026
 8300SOL     OW36532   3.102   2.038  16.045  0.1360  0.0999 -0.3285
 8300SOL    HW136533   3.065   2.083  16.121  1.7164  1.5554 -0.4341
 8300SOL    HW236534   3.190   2.073  16.033  0.4356 -1.2213 -1.9396
 8301SOL     OW36535   4.359   3.405   9.178  0.0559 -0.0059 -0.9637
 8301SOL    HW136536   4.306   3.413   9.258 -0.7705  0.9523 -1.6004
 8301SOL    HW236537   4.340   3.485   9.129 -0.5950  0.8606  0.6810
 8302SOL     OW36538   3.930   0.804  13.614 -0.0419  0.3693 -0.3108
 8302SOL    HW136539   3.973   0.876  13.569  1.7028  0.3058  1.2555
 8302SOL    HW236540   3.950   0.732  13.554 -1.3041 -0.1061 -0.1615
 8303SOL     OW36541   2.189   2.752  15.233 -0.3293  0.0424 -0.0263
 8303SOL    HW136542   2.277   2.768  15.199 -0.1334 -0.1289  0.3967
 8303SOL    HW236543   2.152   2.744  15.145  0.1771 -0.0322 -0.2312
 8304SOL     OW36544   0.597   4.558   6.293  0.6803 -0.7968 -0.4256
 8304SOL    HW136545   0.645   4.477   6.309  1.5404 -0.1504  0.2760
 8304SOL    HW236546   0.656   4.606   6.235  0.2491 -0.4066 -0.5450
 8305SOL     OW36547   0.196   1.306   0.904 -0.0223 -0.2837 -0.4770
 8305SOL    HW136548   0.177   1.368   0.834  0.0091  0.1861 -0.0637
 8305SOL    HW236549   0.292   1.309   0.910 -0.1685  1.1204  1.0256
 8306SOL     OW36550   0.991   0.131   7.210  0.3910  0.3049  0.7679
 8306SOL    HW136551   0.938   0.143   7.131  1.5764  0.0645 -0.0743
 8306SOL    HW236552   0.926   0.142   7.280 -1.6299 -0.7179 -0.9495
 8307SOL     OW36553   1.124   4.083   3.265  0.0083  0.0435 -0.4091
 8307SOL    HW136554   1.175   4.016   3.219  1.1014  0.6105 -0.0032
 8307SOL    HW236555   1.152   4.161   3.218 -0.9277  1.8897  2.1217
 8308SOL     OW36556   2.654   2.340   2.182 -0.7212 -0.0418 -0.2503
 8308SOL    HW136557   2.693   2.254   2.197 -1.6070 -0.2149  1.0156
 8308SOL    HW236558   2.679   2.383   2.264 -1.3082 -0.1658 -0.0111
 8309SOL     OW36559   3.222   1.938   6.300 -0.3291  0.2427 -0.6626
 8309SOL    HW136560   3.230   1.962   6.207 -0.1021 -1.9077 -1.2032
 8309SOL    HW236561   3.134   1.967   6.324 -0.6228 -1.2389  0.0626
 8310SOL     OW36562   0.554   4.536  10.104 -0.0685 -0.0285 -0.4282
 8310SOL    HW136563   0.616   4.486  10.050  2.0360 -0.2582  2.2096
 8310SOL    HW236564   0.591   4.541  10.192 -0.4878 -0.1075 -0.2446
 8311SOL     OW36565   3.433   0.363  12.308  0.3581  0.1288 -0.0241
 8311SOL    HW136566   3.375   0.354  12.233  0.7242 -1.1670 -0.1567
 8311SOL    HW236567   3.502   0.299  12.290 -0.4901 -0.6308 -0.5949
 8312SOL     OW36568   1.618   1.263  16.145  0.0890 -0.1826  0.1237
 8312SOL    HW136569   1.583   1.179  16.113 -1.2289  0.1140  0.7964
 8312SOL    HW236570   1.593   1.250  16.236 -3.3449 -2.8935 -1.1899
 8313SOL     OW36571   1.686   2.918   4.499 -0.0836  0.8528  0.0049
 8313SOL    HW136572   1.648   2.842   4.454 -2.3129  2.3767 -0.6345
 8313SOL    HW236573   1.627   2.922   4.574 -0.1825  0.4825 -0.0507
 8314SOL     OW36574   1.496   0.417   5.932  0.1516 -0.0397  0.5333
 8314SOL    HW136575   1.429   0.485   5.923 -0.0686 -0.4469 -0.8703
 8314SOL    HW236576   1.448   0.336   5.913  1.7148 -1.2207  1.5756
 8315SOL     OW36577   1.444   0.031   7.216 -0.1810  0.7026 -0.2937
 8315SOL    HW136578   1.463   4.718   7.137 -0.3047 -0.1633  0.2214
 8315SOL    HW236579   1.359   4.728   7.235  1.2076 -1.6278  1.0338
 8316SOL     OW36580   1.593   1.151   6.627 -0.4798 -0.2775  0.1809
 8316SOL    HW136581   1.554   1.093   6.562 -0.5838  1.3855 -1.2646
 8316SOL    HW236582   1.611   1.096   6.703 -2.1526 -0.4759  0.4190
 8317SOL     OW36583   0.258   0.428   5.357  0.1381 -0.2184 -0.9863
 8317SOL    HW136584   0.304   0.430   5.441  1.0961  2.9545 -1.5810
 8317SOL    HW236585   0.250   0.334   5.342  1.7618 -0.4717 -0.2276
 8318SOL     OW36586   4.440   2.853  16.477  0.4775  0.0787  0.1495
 8318SOL    HW136587   4.524   2.900  16.480  1.3086 -1.2592 -1.8884
 8318SOL    HW236588   4.393   2.896  16.548  2.2424  2.2371  0.0236
 8319SOL     OW36589   2.911   3.876  14.983  0.7175 -0.4946  0.1624
 8319SOL    HW136590   2.916   3.782  14.965  1.2465 -0.5798  0.7454
 8319SOL    HW236591   2.984   3.904  14.927 -0.1680 -1.9725 -1.7326
 8320SOL     OW36592   3.495   2.365   7.775  0.0085  0.2193  0.0241
 8320SOL    HW136593   3.452   2.450   7.766 -2.2929 -1.3501 -3.3333
 8320SOL    HW236594   3.476   2.347   7.867 -1.8034  0.5736 -0.2927
 8321SOL     OW36595   4.157   0.922   8.467 -0.1405  0.5430 -0.2911
 8321SOL    HW136596   4.128   0.986   8.532 -1.0390 -0.2334  0.0744
 8321SOL    HW236597   4.086   0.858   8.472 -0.8681  1.4452  0.9694
 8322SOL     OW36598   4.077   4.173   1.079 -0.1515  0.4450 -0.5672
 8322SOL    HW136599   4.069   4.119   1.000  1.3527  0.8634 -1.0186
 8322SOL    HW236600   4.101   4.107   1.144 -1.3638  2.0315  1.4696
 8323SOL     OW36601   2.580   4.029   5.372 -0.2627 -0.3218 -0.1427
 8323SOL    HW136602   2.626   3.968   5.429 -0.5263  0.4766  0.9317
 8323SOL    HW236603   2.520   4.058   5.441 -2.8736  1.8232 -3.2763
 8324SOL     OW36604   3.725   1.431   2.102 -0.4841 -0.0193 -0.6677
 8324SOL    HW136605   3.789   1.362   2.122  0.8167  1.7650  1.3193
 8324SOL    HW236606   3.740   1.437   2.007  4.8557 -0.2556  0.1385
 8325SOL     OW36607   2.712   4.286   5.642 -0.2699  0.1811  0.2622
 8325SOL    HW136608   2.707   4.193   5.620  0.4196 -0.0721  1.1629
 8325SOL    HW236609   2.623   4.316   5.626  0.0531  0.3677 -1.1501
 8326SOL     OW36610   1.319   1.003  15.840  0.8141 -0.0147  0.5331
 8326SOL    HW136611   1.261   1.077  15.823 -0.3714 -1.8690 -3.6659
 8326SOL    HW236612   1.326   0.965  15.752 -0.0513 -1.5414  1.1156
 8327SOL     OW36613   2.125   0.915   5.792 -0.4615  0.4049 -0.1532
 8327SOL    HW136614   2.087   0.827   5.784  0.2165  0.2140 -1.2547
 8327SOL    HW236615   2.109   0.958   5.708 -2.2070  1.2014  0.5861
 8328SOL     OW36616   3.046   0.219   3.711  0.1085 -0.0619  0.5551
 8328SOL    HW136617   3.049   0.291   3.649 -1.5015 -0.7124 -0.2822
 8328SOL    HW236618   3.048   0.274   3.789 -0.8710 -0.5318  0.9110
 8329SOL     OW36619   0.682   2.135  11.706 -0.0678  0.3561  0.2192
 8329SOL    HW136620   0.691   2.122  11.611  1.0033  2.1316  0.0724
 8329SOL    HW236621   0.587   2.136  11.713 -0.1812 -1.2497 -1.0320
 8330SOL     OW36622   0.105   0.288   4.219  0.5981  0.1048 -0.5234
 8330SOL    HW136623   0.063   0.367   4.185  0.4206 -0.2080 -1.0367
 8330SOL    HW236624   0.059   0.268   4.300 -0.8353  1.1800 -1.0742
 8331SOL     OW36625   0.562   1.385  17.083 -0.6113  0.3169 -0.2588
 8331SOL    HW136626   0.474   1.353  17.059 -1.2926  2.0432 -0.0692
 8331SOL    HW236627   0.608   1.356  17.004 -0.1095  0.4590 -0.0163
 8332SOL     OW36628   3.859   4.527   8.435 -0.1343  0.0811 -0.4370
 8332SOL    HW136629   3.918   4.451   8.438  1.2644  1.1735 -0.4892
 8332SOL    HW236630   3.925   4.594   8.426  1.7614 -1.7508 -0.1561
 8333SOL     OW36631   4.241   1.960   6.856  0.2696  0.1288  0.6191
 8333SOL    HW136632   4.277   1.983   6.942 -1.1854  3.0682  0.4402
 8333SOL    HW236633   4.205   2.043   6.825 -0.8611 -0.4623  0.3584
 8334SOL     OW36634   0.724   1.987   1.086  0.3364  0.1724 -0.0808
 8334SOL    HW136635   0.639   2.013   1.051  0.7594 -0.8602 -1.9199
 8334SOL    HW236636   0.744   1.916   1.024  1.6387 -0.3438  0.9037
 8335SOL     OW36637   1.776   2.600  13.902  0.2739 -0.0689  0.2933
 8335SOL    HW136638   1.740   2.555  13.826  2.6456  0.0048 -0.8992
 8335SOL    HW236639   1.797   2.687  13.867 -3.2501  0.1383 -1.2392
 8336SOL     OW36640   1.164   4.498   9.048  0.3131  0.1412  0.3331
 8336SOL    HW136641   1.232   4.504   8.981 -0.8101  0.0370 -0.8389
 8336SOL    HW236642   1.223   4.481   9.121 -1.3535 -0.7651  1.4791
 8337SOL     OW36643   4.676   4.340   3.557 -0.4310  0.2869 -0.4895
 8337SOL    HW136644   4.728   4.418   3.540 -1.4523  1.4260  1.5731
 8337SOL    HW236645   4.733   4.300   3.623 -1.1433  0.8010  0.4408
 8338SOL     OW36646   2.598   1.763   3.113  0.3557  0.1918  0.3831
 8338SOL    HW136647   2.647   1.841   3.139 -2.9588  0.8870  4.4296
 8338SOL    HW236648   2.626   1.737   3.025 -1.2178 -0.0267 -0.0436
 8339SOL     OW36649   1.992   4.206  12.377  0.2488  0.1756 -0.2495
 8339SOL    HW136650   1.917   4.244  12.331  0.4942 -0.4609 -1.1912
 8339SOL    HW236651   1.980   4.111  12.371  1.1947  0.0972 -0.9487
 8340SOL     OW36652   2.912   0.397  13.593 -0.2979  0.0246 -0.3800
 8340SOL    HW136653   2.852   0.322  13.587  0.5359 -0.7067  0.3001
 8340SOL    HW236654   2.959   0.397  13.510 -1.0691  0.6459 -0.8087
 8341SOL     OW36655   3.272   4.325   8.812  0.0008  0.3983 -0.3726
 8341SOL    HW136656   3.240   4.410   8.841  2.2641  1.6643 -1.6133
 8341SOL    HW236657   3.283   4.334   8.717  2.3107 -0.5232 -0.1809
 8342SOL     OW36658   3.304   3.551   9.322  0.2670 -0.3142 -0.1842
 8342SOL    HW136659   3.287   3.501   9.242  0.3644 -1.9142  0.8115
 8342SOL    HW236660   3.391   3.587   9.305  0.5136 -0.6037  0.4817
 8343SOL     OW36661   3.112   3.757   9.324  0.2213 -0.3408 -0.0445
 8343SOL    HW136662   3.050   3.690   9.354 -0.1724 -0.2111 -0.5713
 8343SOL    HW236663   3.188   3.700   9.335  2.1638  2.1192 -0.8018
 8344SOL     OW36664   1.162   4.091   5.872  0.5782 -0.6195  0.0249
 8344SOL    HW136665   1.229   4.116   5.936 -1.4259  1.7063  1.1826
 8344SOL    HW236666   1.187   3.998   5.870  0.5792 -0.6259  0.4475
 8345SOL     OW36667   2.412   1.677  16.325  0.0078 -0.0073  1.0180
 8345SOL    HW136668   2.330   1.669  16.374  0.0379  0.1773  1.0973
 8345SOL    HW236669   2.388   1.754  16.273  2.3552 -0.4711 -0.7183
 8346SOL     OW36670   0.528   2.366   0.416 -0.1357  0.2413  0.0825
 8346SOL    HW136671   0.481   2.321   0.487 -0.3452  0.0051 -0.2026
 8346SOL    HW236672   0.540   2.293   0.356  1.0536 -0.2985  0.9826
 8347SOL     OW36673   3.514   4.589   8.924 -0.0809  0.1119 -0.1395
 8347SOL    HW136674   3.550   4.640   8.851 -1.7632  1.8737  0.2537
 8347SOL    HW236675   3.428   4.630   8.924  0.2248  0.7481 -0.7287
 8348SOL     OW36676   4.309   4.192   7.554  0.1030  0.0402  0.0281
 8348SOL    HW136677   4.365   4.213   7.629  0.5697 -0.9905 -0.0409
 8348SOL    HW236678   4.223   4.177   7.594 -0.1172 -2.9188 -1.6302
 8349SOL     OW36679   1.599   0.914  14.727  0.9533  0.2208  0.2956
 8349SOL    HW136680   1.611   0.974  14.653 -0.7068  0.2064  0.0197
 8349SOL    HW236681   1.505   0.899  14.717  1.1600 -1.3858  0.8494
 8350SOL     OW36682   2.979   4.714   4.437  0.7427  0.0966  0.4137
 8350SOL    HW136683   2.980   4.653   4.511  1.2351  0.8902  1.0604
 8350SOL    HW236684   2.990   0.058   4.487  2.0541  0.3526 -0.2941
 8351SOL     OW36685   1.474   3.254   7.962  0.3078  0.5868 -0.3889
 8351SOL    HW136686   1.536   3.195   8.005 -0.2322  0.0899 -0.2767
 8351SOL    HW236687   1.516   3.336   7.985 -4.0374  1.9637  2.7397
 8352SOL     OW36688   0.663   3.595   6.368  0.5605  0.0239  0.8986
 8352SOL    HW136689   0.653   3.673   6.314 -0.4175 -0.8976 -0.2571
 8352SOL    HW236690   0.668   3.635   6.454  0.9064  1.2014  0.3290
 8353SOL     OW36691   0.533   1.081   6.657  0.2941  0.0915  0.4704
 8353SOL    HW136692   0.510   1.113   6.744 -1.2651 -1.6644  0.7124
 8353SOL    HW236693   0.480   1.130   6.593  0.5862 -0.6928 -0.3570
 8354SOL     OW36694   2.916   0.663   2.401  0.6839 -0.0213 -0.6184
 8354SOL    HW136695   2.959   0.606   2.337 -2.1371 -1.4333 -1.2545
 8354SOL    HW236696   2.880   0.742   2.359 -1.5709  0.3638  2.0254
 8355SOL     OW36697   2.869   3.701   6.190 -0.0118  0.2329  0.4510
 8355SOL    HW136698   2.839   3.611   6.185  1.3759 -0.3226  2.4147
 8355SOL    HW236699   2.953   3.692   6.146 -0.0232  0.7531  0.3131
 8356SOL     OW36700   3.410   2.023   4.313  0.0816 -0.1407  0.3224
 8356SOL    HW136701   3.380   2.027   4.222  0.6183  1.0040  0.1964
 8356SOL    HW236702   3.356   1.954   4.353 -0.2820  0.7914  1.4496
 8357SOL     OW36703   0.904   0.112   3.476  0.1211  0.1087 -0.2461
 8357SOL    HW136704   0.983   0.150   3.438  0.6995  1.0053  1.8509
 8357SOL    HW236705   0.954   0.059   3.537 -0.9830 -0.2602  0.3489
 8358SOL     OW36706   2.348   2.906  15.507 -0.0651 -0.1097 -0.2311
 8358SOL    HW136707   2.402   2.918  15.584 -1.9866 -1.1123  1.2682
 8358SOL    HW236708   2.402   2.846  15.455  1.5186 -0.7913  2.1944
 8359SOL     OW36709   1.010   2.330   7.267  0.2092  0.1369 -0.4536
 8359SOL    HW136710   0.986   2.269   7.337 -2.7117 -0.0842 -1.6408
 8359SOL    HW236711   1.039   2.262   7.206  0.3061  1.9512 -2.4506
 8360SOL     OW36712   1.650   4.576   7.526 -0.1332 -0.3767 -0.5258
 8360SOL    HW136713   1.609   4.660   7.506 -0.2404  0.0603  1.4961
 8360SOL    HW236714   1.738   4.575   7.488  0.4400  0.5326  0.7725
 8361SOL     OW36715   4.002   3.699   9.153 -1.0280  0.1596 -0.0196
 8361SOL    HW136716   4.083   3.726   9.197 -2.0091 -0.7236  2.3510
 8361SOL    HW236717   3.960   3.668   9.233 -1.2935 -1.4596 -0.7972
 8362SOL     OW36718   3.398   3.725   4.218  0.4099  0.5073  0.3465
 8362SOL    HW136719   3.321   3.672   4.239  0.7534 -0.5588 -1.1159
 8362SOL    HW236720   3.402   3.736   4.123 -1.1527 -0.9727  0.0986
 8363SOL     OW36721   4.309   3.692   1.870 -0.2513  0.0769 -0.1111
 8363SOL    HW136722   4.396   3.702   1.831 -1.5114 -1.5825 -3.3555
 8363SOL    HW236723   4.328   3.638   1.947 -0.1799 -2.1838 -1.6939
 8364SOL     OW36724   1.534   2.776   3.774 -1.1421 -0.0813 -0.9882
 8364SOL    HW136725   1.522   2.868   3.753  0.4695  0.3976  0.1957
 8364SOL    HW236726   1.552   2.742   3.687  0.9756 -1.0786 -0.1714
 8365SOL     OW36727   2.570   3.930   9.448 -0.0522 -0.4938 -0.6478
 8365SOL    HW136728   2.548   3.865   9.381 -1.0694 -1.6626  0.8060
 8365SOL    HW236729   2.517   4.007   9.426  0.8207  0.1125 -0.6012
 8366SOL     OW36730   2.087   1.963   8.383 -0.1365 -0.1875  0.2604
 8366SOL    HW136731   2.086   1.953   8.288 -0.8437  1.7226  0.0615
 8366SOL    HW236732   2.122   1.879   8.414 -0.9729 -0.7176 -0.2512
 8367SOL     OW36733   3.682   4.263   3.840 -0.1346  0.6338  0.2285
 8367SOL    HW136734   3.595   4.242   3.873  0.4285 -0.2008  1.1838
 8367SOL    HW236735   3.733   4.268   3.922  0.0075  2.3917  0.0445
 8368SOL     OW36736   4.615   1.241   2.757 -0.2583 -0.6005 -0.2878
 8368SOL    HW136737   4.597   1.334   2.771 -3.3267 -1.3744  0.8297
 8368SOL    HW236738   4.690   1.225   2.814 -1.3950 -0.4977  1.2143
 8369SOL     OW36739   3.156   3.366   3.627 -0.1027 -0.1730 -0.1244
 8369SOL    HW136740   3.135   3.335   3.539 -0.4283 -1.5947  0.4652
 8369SOL    HW236741   3.242   3.326   3.640  0.2831  1.0282  1.0015
 8370SOL     OW36742   4.108   0.040   6.709 -0.0752 -0.1071 -1.1834
 8370SOL    HW136743   4.085   4.706   6.648  1.6358 -1.3104 -0.4264
 8370SOL    HW236744   4.038   0.103   6.689 -1.3777 -0.6119  1.7509
 8371SOL     OW36745   3.445   0.011  15.067 -0.1753  0.1988  0.0572
 8371SOL    HW136746   3.440   0.007  15.163  1.2352 -2.8025  0.0054
 8371SOL    HW236747   3.393   4.670  15.049  0.7825 -0.9795  2.3485
 8372SOL     OW36748   3.429   0.411   2.171  0.0553  0.7813  0.2322
 8372SOL    HW136749   3.412   0.318   2.189 -0.8049  1.0641  0.9161
 8372SOL    HW236750   3.524   0.410   2.166  0.1433 -1.4086  2.2298
 8373SOL     OW36751   0.995   1.628   6.953  0.6260  0.3887 -0.3709
 8373SOL    HW136752   0.968   1.643   6.863  0.0612 -0.4160 -0.3306
 8373SOL    HW236753   1.069   1.689   6.955  0.3019  0.7481  0.4485
 8374SOL     OW36754   0.454   4.006  11.141 -0.1819 -0.2728  0.2356
 8374SOL    HW136755   0.461   3.924  11.190 -1.4816  0.2626  1.3305
 8374SOL    HW236756   0.379   3.979  11.088  0.1515 -0.4668 -0.1349
 8375SOL     OW36757   1.799   0.943   8.984  0.1512  0.5933  0.0254
 8375SOL    HW136758   1.842   1.020   9.021 -1.8509  0.7718  1.9389
 8375SOL    HW236759   1.858   0.869   8.994  1.9223  2.2059  1.4302
 8376SOL     OW36760   1.528   3.247  16.344  0.4868 -0.3403 -0.1392
 8376SOL    HW136761   1.608   3.260  16.394  1.3864 -1.6135 -1.2119
 8376SOL    HW236762   1.553   3.210  16.259  0.4832 -2.7070  0.8910
 8377SOL     OW36763   3.647   2.026   7.592 -0.4365 -0.0493 -0.2513
 8377SOL    HW136764   3.661   2.120   7.584 -1.6443  0.3831  2.7384
 8377SOL    HW236765   3.694   1.981   7.522  1.7780  0.3015  0.9986
 8378SOL     OW36766   1.140   1.310   2.412  0.3274  0.6262 -0.6925
 8378SOL    HW136767   1.153   1.346   2.500  3.0740  2.7421 -1.9594
 8378SOL    HW236768   1.195   1.233   2.429 -0.7367 -0.1389 -0.7032
 8379SOL     OW36769   2.701   4.367   4.309  0.7170 -0.3042 -0.6370
 8379SOL    HW136770   2.623   4.329   4.350 -0.2150 -0.8349 -2.8877
 8379SOL    HW236771   2.762   4.365   4.383 -0.1118 -1.8265  0.0239
 8380SOL     OW36772   2.309   3.677   6.789 -0.3393 -0.2497  0.1663
 8380SOL    HW136773   2.339   3.639   6.706 -2.1130  1.6356 -1.3620
 8380SOL    HW236774   2.332   3.768   6.769  0.8461 -0.6799 -0.4648
 8381SOL     OW36775   2.054   0.141   6.000 -0.3387 -0.4628  0.3243
 8381SOL    HW136776   2.066   0.089   6.080 -1.4441 -1.3235 -0.0639
 8381SOL    HW236777   2.144   0.158   5.973  0.0722 -0.7996  1.4605
 8382SOL     OW36778   0.775   2.970   4.919  0.6779 -0.5265 -0.6610
 8382SOL    HW136779   0.834   3.017   4.860  0.8118  1.9649  1.4957
 8382SOL    HW236780   0.786   3.009   5.005 -0.9652 -1.0534 -0.2218
 8383SOL     OW36781   0.330   0.454   2.675 -0.3540 -0.2797 -0.1849
 8383SOL    HW136782   0.253   0.496   2.638 -1.0232  1.9550  3.6640
 8383SOL    HW236783   0.294   0.366   2.674  1.3761 -0.9864 -0.4325
 8384SOL     OW36784   3.678   1.132   8.923  0.2877 -0.5560  1.0644
 8384SOL    HW136785   3.674   1.104   9.014 -2.1240  0.3669  1.2255
 8384SOL    HW236786   3.654   1.051   8.878  0.2333  0.0072  0.0730
 8385SOL     OW36787   0.169   1.764  17.386  0.1832 -0.2837  0.3205
 8385SOL    HW136788   0.123   1.825  17.329 -0.6485  1.7473  3.1343
 8385SOL    HW236789   0.194   1.692  17.327 -1.0502 -0.1830 -0.3154
 8386SOL     OW36790   3.558   4.298   2.845 -0.0185  0.6597  0.0774
 8386SOL    HW136791   3.534   4.352   2.920 -2.4938 -0.7863  0.3330
 8386SOL    HW236792   3.474   4.285   2.802  0.7851 -0.6838 -1.0817
 8387SOL     OW36793   4.681   3.492  11.907 -0.2110 -0.6971 -0.1958
 8387SOL    HW136794   4.587   3.474  11.915 -0.1854  0.1243  2.0429
 8387SOL    HW236795   4.703   3.466  11.818  2.5498  3.0651 -0.5985
 8388SOL     OW36796   2.638   4.181  13.610 -0.2252 -0.2010  0.2952
 8388SOL    HW136797   2.546   4.193  13.586  0.2881  2.0547 -0.5598
 8388SOL    HW236798   2.641   4.086  13.623 -0.8405 -0.4504 -1.4476
 8389SOL     OW36799   0.032   0.005   7.000  0.5989 -0.3744  0.1212
 8389SOL    HW136800   4.712   4.678   7.042 -0.5625  0.7158  0.2247
 8389SOL    HW236801   0.025   4.718   6.908 -0.9758  0.4153  0.0247
 8390SOL     OW36802   2.088   3.893   6.527 -0.0288 -0.9582 -0.0738
 8390SOL    HW136803   2.111   3.927   6.441  1.5375  1.9915  1.5077
 8390SOL    HW236804   2.056   3.978   6.556 -1.4903 -1.7490  0.6048
 8391SOL     OW36805   0.481   2.944   8.179 -0.5929 -0.0984 -0.7157
 8391SOL    HW136806   0.494   3.035   8.154  1.3324 -0.3994 -0.8079
 8391SOL    HW236807   0.464   2.896   8.098 -0.0815 -0.1324 -0.8024
 8392SOL     OW36808   1.587   1.304  12.007 -0.3045  0.3799 -0.1167
 8392SOL    HW136809   1.595   1.218  12.049 -0.9652 -0.0871 -0.9558
 8392SOL    HW236810   1.667   1.303  11.955 -1.1138  1.0246 -1.3635
 8393SOL     OW36811   4.628   0.678   5.840 -0.0477 -0.7935 -0.2744
 8393SOL    HW136812   4.636   0.686   5.745 -0.5898 -0.9197 -0.3298
 8393SOL    HW236813   4.650   0.584   5.842 -0.9810 -1.0008  0.2422
 8394SOL     OW36814   3.138   0.884  15.426  0.2684 -0.4033  0.1407
 8394SOL    HW136815   3.097   0.913  15.345  1.1048 -0.3610 -0.2708
 8394SOL    HW236816   3.155   0.792  15.406  1.1289  0.0409 -1.1263
 8395SOL     OW36817   1.547   1.911   1.952  0.2151 -0.0152  0.2080
 8395SOL    HW136818   1.639   1.931   1.970  0.3757  0.3643 -1.0008
 8395SOL    HW236819   1.524   1.866   2.034 -0.2695  0.5560  0.3824
 8396SOL     OW36820   0.453   0.059   1.821 -0.1243 -0.1535 -0.4508
 8396SOL    HW136821   0.382   0.066   1.757  1.9308 -2.4246 -2.9904
 8396SOL    HW236822   0.414   4.731   1.879 -4.4505  1.7729 -1.1462
 8397SOL     OW36823   0.496   1.384   7.510  0.2708  0.0864 -0.0545
 8397SOL    HW136824   0.431   1.352   7.448  0.6868  0.1527 -0.5185
 8397SOL    HW236825   0.437   1.422   7.576 -0.8673 -3.1621  0.8160
 8398SOL     OW36826   4.519   2.456   1.491  0.4832 -0.1749 -0.3070
 8398SOL    HW136827   4.595   2.451   1.549  1.0129 -0.9505 -1.0498
 8398SOL    HW236828   4.562   2.441   1.406 -1.7345  0.0194 -1.4555
 8399SOL     OW36829   0.277   0.862  16.470 -0.2598  0.0992  0.1661
 8399SOL    HW136830   0.358   0.820  16.500 -0.8396 -1.8987 -1.0483
 8399SOL    HW236831   0.324   0.893  16.392 -0.4851 -0.7743 -0.3199
 8400SOL     OW36832   1.536   4.376   9.418  0.2476  0.0596 -0.2584
 8400SOL    HW136833   1.552   4.397   9.510 -0.0758 -0.6158 -0.0534
 8400SOL    HW236834   1.457   4.423   9.392 -1.5214 -2.3772  0.8162
 8401SOL     OW36835   3.042   2.507   9.375 -0.2768  0.0105  0.0118
 8401SOL    HW136836   3.105   2.437   9.393  0.5307  0.6228 -0.3729
 8401SOL    HW236837   3.028   2.497   9.281  2.5096  0.5789 -0.4788
 8402SOL     OW36838   3.811   0.616   3.684  0.1433  0.2075  0.0479
 8402SOL    HW136839   3.741   0.570   3.730 -0.8110  1.2185 -0.4095
 8402SOL    HW236840   3.873   0.545   3.666  1.6800  1.3649  0.7011
 8403SOL     OW36841   2.162   0.518   9.684  0.2337  0.2603 -0.0003
 8403SOL    HW136842   2.126   0.486   9.602 -1.7439  1.6279  0.3210
 8403SOL    HW236843   2.091   0.568   9.725 -0.3177 -0.3711 -0.1888
 8404SOL     OW36844   3.830   4.160   0.091  0.4224  0.8075 -0.2951
 8404SOL    HW136845   3.791   4.073   0.087  2.3064 -0.0550  0.1238
 8404SOL    HW236846   3.755   4.219   0.095 -1.3599 -1.5324  0.6561
 8405SOL     OW36847   3.607   1.060  16.824  0.0931 -0.6875  0.1459
 8405SOL    HW136848   3.604   0.978  16.775  0.0226  1.1260 -2.8684
 8405SOL    HW236849   3.603   1.019  16.911  0.3149 -0.0416  0.4603
 8406SOL     OW36850   2.008   3.354   0.590  0.3765 -0.0464  0.0831
 8406SOL    HW136851   2.093   3.334   0.628 -0.1081 -1.4587  0.4360
 8406SOL    HW236852   1.983   3.430   0.642 -0.3804 -1.7078  2.1440
 8407SOL     OW36853   0.766   0.435   8.376  0.1058  0.2865  0.3091
 8407SOL    HW136854   0.761   0.529   8.397 -0.3012  0.4581 -0.5645
 8407SOL    HW236855   0.857   0.427   8.347 -0.1445 -0.2857 -0.2961
 8408SOL     OW36856   3.471   3.360  11.581  0.0731  0.1804  0.4468
 8408SOL    HW136857   3.383   3.371  11.546 -0.7983 -0.3580  2.4968
 8408SOL    HW236858   3.485   3.444  11.625 -0.6696  1.2811 -1.4004
 8409SOL     OW36859   4.345   3.561   9.712 -0.1217 -0.4256 -0.5419
 8409SOL    HW136860   4.346   3.639   9.767 -0.4335  0.5274 -1.9072
 8409SOL    HW236861   4.302   3.497   9.769  1.5594 -2.0047 -1.0418
 8410SOL     OW36862   2.237   3.811  16.910  0.4605 -0.0508  0.0653
 8410SOL    HW136863   2.238   3.900  16.947 -0.5293 -0.0443  0.0725
 8410SOL    HW236864   2.322   3.813  16.866 -0.4569 -1.7233 -1.7824
 8411SOL     OW36865   2.472   2.703  15.390  0.3205  0.5537 -0.4175
 8411SOL    HW136866   2.457   2.652  15.469 -0.1950  0.5990 -0.4870
 8411SOL    HW236867   2.447   2.650  15.314 -0.8513 -1.7252  1.5999
 8412SOL     OW36868   4.340   4.040   6.960  0.1481 -0.0948  0.0420
 8412SOL    HW136869   4.388   4.085   6.890  0.2761 -0.0710  0.1452
 8412SOL    HW236870   4.267   3.994   6.917  0.4809  0.9613 -1.6701
 8413SOL     OW36871   0.822   4.341  15.756 -0.0531  0.3524 -0.8045
 8413SOL    HW136872   0.730   4.337  15.732 -0.3924  0.7670  0.4137
 8413SOL    HW236873   0.844   4.433  15.740  4.4359 -0.2799  1.7228
 8414SOL     OW36874   3.632   0.976  12.634 -0.0708  0.1675  0.3154
 8414SOL    HW136875   3.650   0.902  12.693 -0.4518 -1.1207 -1.1814
 8414SOL    HW236876   3.542   0.995  12.658 -0.2381  0.0155 -0.1943
 8415SOL     OW36877   1.494   0.196  12.205 -0.0780  0.3083  0.6855
 8415SOL    HW136878   1.422   0.142  12.238  0.6041  0.9343  3.2463
 8415SOL    HW236879   1.526   0.234  12.287  1.6241  0.1376  0.1032
 8416SOL     OW36880   1.746   4.533   7.023 -0.3825  0.4232 -0.2110
 8416SOL    HW136881   1.818   4.481   6.989  0.2390 -1.0138  3.3126
 8416SOL    HW236882   1.722   4.486   7.103  2.0288  3.2019  2.1388
 8417SOL     OW36883   2.359   4.579   8.784 -0.4119  0.8590 -0.2520
 8417SOL    HW136884   2.450   4.604   8.768 -0.2666  0.0850 -0.6783
 8417SOL    HW236885   2.349   4.621   8.869 -1.6196  0.7753 -0.3528
 8418SOL     OW36886   2.902   4.239   1.728  0.1983 -0.3929 -0.2923
 8418SOL    HW136887   2.818   4.230   1.774  0.0150  2.2015 -0.1246
 8418SOL    HW236888   2.924   4.328   1.754 -0.3580 -0.2809 -0.1954
 8419SOL     OW36889   3.617   3.577   9.588  0.6765 -0.0496 -0.2881
 8419SOL    HW136890   3.665   3.509   9.635  1.0537  1.6698  1.8024
 8419SOL    HW236891   3.590   3.636   9.658  2.0126  1.1761 -0.8051
 8420SOL     OW36892   0.469   1.223  16.385  0.5308 -0.0212  0.1819
 8420SOL    HW136893   0.478   1.294  16.322 -0.3527  0.3422  0.4647
 8420SOL    HW236894   0.481   1.267  16.469 -0.0784 -2.0446  1.3298
 8421SOL     OW36895   2.062   1.179   0.081  0.1060 -0.0423 -0.4574
 8421SOL    HW136896   2.040   1.237   0.154  0.0266  1.1029 -1.3923
 8421SOL    HW236897   1.981   1.161   0.034  0.3761  0.4907 -1.1144
 8422SOL     OW36898   4.400   1.146   2.974  0.1073 -0.5153 -0.6587
 8422SOL    HW136899   4.390   1.229   2.926 -2.5985  1.5515  3.4912
 8422SOL    HW236900   4.477   1.165   3.028 -1.2195 -0.4953  1.1985
 8423SOL     OW36901   0.219   1.257   3.521  0.0095  0.0168 -0.3049
 8423SOL    HW136902   0.214   1.275   3.427  0.7349  3.3702  0.2758
 8423SOL    HW236903   0.278   1.182   3.520 -1.9991 -1.5444 -0.6960
 8424SOL     OW36904   2.700   2.622  10.437 -0.2128 -0.2522  0.1827
 8424SOL    HW136905   2.771   2.670  10.479  1.5585 -3.2439  0.6633
 8424SOL    HW236906   2.680   2.556  10.503 -0.6780  1.1511  1.4254
 8425SOL     OW36907   2.705   3.935   2.220 -0.6289 -0.3602 -0.3869
 8425SOL    HW136908   2.708   3.944   2.315 -0.2006  0.8767 -0.5139
 8425SOL    HW236909   2.799   3.930   2.202 -0.3384  0.3906  0.9085
 8426SOL     OW36910   4.705   4.673   3.667  0.3827 -0.1335  0.2881
 8426SOL    HW136911   0.050   4.703   3.629  1.8858 -2.1986  1.9076
 8426SOL    HW236912   4.642   4.716   3.608 -0.4339  0.7025  1.7609
 8427SOL     OW36913   0.645   3.721   9.099  0.5283  0.4559  0.5741
 8427SOL    HW136914   0.590   3.781   9.150 -0.8090  0.1204 -0.4876
 8427SOL    HW236915   0.577   3.700   9.035  1.8704  0.4687 -0.8386
 8428SOL     OW36916   4.018   2.694  17.248  0.1324  0.5517  0.5119
 8428SOL    HW136917   4.002   2.754  17.321  0.2084  0.7708  0.3504
 8428SOL    HW236918   4.056   2.618  17.290  0.6492  0.6898  0.3008
 8429SOL     OW36919   1.621   0.549   2.468  0.1798  0.3877 -0.1980
 8429SOL    HW136920   1.572   0.588   2.540  1.0733 -1.9170  1.6440
 8429SOL    HW236921   1.686   0.615   2.441 -0.0643  1.0592  0.8799
 8430SOL     OW36922   3.362   4.381   5.567  0.0235  0.7759  0.2681
 8430SOL    HW136923   3.368   4.469   5.529 -2.4340  0.6849 -0.3351
 8430SOL    HW236924   3.350   4.404   5.660  0.2321  0.6639  0.3220
 8431SOL     OW36925   2.264   2.282   8.451  0.2314  0.1691 -0.3993
 8431SOL    HW136926   2.190   2.221   8.458 -1.7554  2.7730  1.5520
 8431SOL    HW236927   2.285   2.307   8.541  1.3585 -2.3353  0.0602
 8432SOL     OW36928   1.572   0.173  17.471  0.6794 -0.3050 -0.3290
 8432SOL    HW136929   1.666   0.184  17.486  0.4403 -0.7431  1.5239
 8432SOL    HW236930   1.579   0.121  17.390  0.9049 -2.8603  1.3260
 8433SOL     OW36931   2.568   1.237   3.766  0.1685 -0.1437  0.4394
 8433SOL    HW136932   2.544   1.189   3.845 -1.9372  0.4744  0.1674
 8433SOL    HW236933   2.495   1.233   3.704 -1.5665  1.8016  2.3505
 8434SOL     OW36934   4.333   0.820  16.144 -0.1685 -0.7185  0.0317
 8434SOL    HW136935   4.248   0.794  16.108 -0.5605 -0.7611  0.9849
 8434SOL    HW236936   4.350   0.899  16.093  2.5789 -1.1442  0.3238
 8435SOL     OW36937   2.688   0.710   1.700 -0.1623  0.0537 -0.8904
 8435SOL    HW136938   2.780   0.683   1.692 -0.3434 -0.5745 -0.8961
 8435SOL    HW236939   2.666   0.689   1.791  3.6370  0.9404  0.2510
 8436SOL     OW36940   3.438   2.194   5.005  0.5340 -0.4316 -0.5130
 8436SOL    HW136941   3.399   2.192   5.092  1.5008 -1.6040 -0.1000
 8436SOL    HW236942   3.367   2.235   4.956  1.7986 -0.5471 -2.4442
 8437SOL     OW36943   4.058   3.061   8.229 -0.7658  0.1951 -0.6933
 8437SOL    HW136944   4.021   2.977   8.202 -1.9487  0.8044 -0.9713
 8437SOL    HW236945   4.120   3.038   8.298 -1.9373 -1.3887 -0.1651
 8438SOL     OW36946   1.640   4.052  14.595 -0.6700  0.2716  0.0568
 8438SOL    HW136947   1.619   3.959  14.596 -0.3580  0.2051  0.8307
 8438SOL    HW236948   1.683   4.072  14.512  0.4801  0.3649  0.6782
 8439SOL     OW36949   1.596   3.887   6.273 -0.1593  0.0556 -0.1809
 8439SOL    HW136950   1.637   3.801   6.286  0.5390  0.4230  0.0359
 8439SOL    HW236951   1.604   3.913   6.365  0.2526 -0.0112 -0.1997
 8440SOL     OW36952   0.624   0.654  15.967 -0.2157  0.3312  0.3825
 8440SOL    HW136953   0.710   0.668  16.005  0.2431 -0.1256 -0.4933
 8440SOL    HW236954   0.573   0.667  16.048  0.2324  1.0913  0.5478
 8441SOL     OW36955   3.453   4.094   8.399 -0.1064  0.5503  0.0508
 8441SOL    HW136956   3.546   4.116   8.392 -0.5254  2.7266  1.0478
 8441SOL    HW236957   3.437   4.044   8.319  0.4920  1.3947 -0.5997
 8442SOL     OW36958   0.733   3.856  10.838 -0.1791  0.1643 -0.7696
 8442SOL    HW136959   0.730   3.944  10.874  0.2512 -0.8436  1.7412
 8442SOL    HW236960   0.643   3.847  10.809  0.2005  0.6366 -2.1169
 8443SOL     OW36961   2.924   3.361   3.774  0.1113 -0.7144  0.0142
 8443SOL    HW136962   2.882   3.377   3.689 -2.4182  1.1369  1.6140
 8443SOL    HW236963   3.010   3.400   3.760 -0.5231  0.8139  0.3403
 8444SOL     OW36964   4.708   4.073  16.815  0.0848 -0.3105 -0.7719
 8444SOL    HW136965   4.664   4.157  16.825  0.5200 -0.2092  0.2220
 8444SOL    HW236966   0.062   4.094  16.795 -0.2476  1.4913 -0.3208
 8445SOL     OW36967   1.638   4.297  10.871  0.0036 -0.7540  0.2238
 8445SOL    HW136968   1.610   4.255  10.953 -0.7211 -2.2234 -0.7889
 8445SOL    HW236969   1.640   4.388  10.902 -2.2883 -1.1281  1.4376
 8446SOL     OW36970   3.346   1.971  12.841 -0.0211  0.2830 -0.0052
 8446SOL    HW136971   3.274   2.001  12.786  0.1421  0.8372  0.0815
 8446SOL    HW236972   3.402   2.049  12.840  1.0628 -0.4964 -0.3937
 8447SOL     OW36973   0.342   2.078  17.197 -0.0617  1.4061 -0.2837
 8447SOL    HW136974   0.398   2.080  17.275  1.0013  1.2651 -1.0523
 8447SOL    HW236975   0.343   1.986  17.172  0.7754  0.7839  2.0186
 8448SOL     OW36976   1.420   1.071   8.249 -0.0043 -0.5651  0.3217
 8448SOL    HW136977   1.414   1.158   8.288  2.0385 -1.6546  3.0479
 8448SOL    HW236978   1.468   1.091   8.168 -1.1999 -1.8959 -0.7321
 8449SOL     OW36979   2.815   4.548  15.265 -0.1412 -0.4519 -0.3739
 8449SOL    HW136980   2.739   4.584  15.220 -0.5178 -0.4794  0.2358
 8449SOL    HW236981   2.785   4.501  15.343  1.5828  0.4237  0.8152
 8450SOL     OW36982   1.809   3.352   3.223  0.4760  0.0932  0.1166
 8450SOL    HW136983   1.899   3.382   3.231  1.0619 -1.9030  0.8019
 8450SOL    HW236984   1.761   3.433   3.241 -0.8700 -0.2197 -2.1016
 8451SOL     OW36985   0.428   2.108  17.694 -0.3815 -0.4968 -0.1804
 8451SOL    HW136986   0.380   2.084   0.027 -0.4344  1.2776  0.3302
 8451SOL    HW236987   0.366   2.073  17.630 -1.2738 -0.4731  0.6785
 8452SOL     OW36988   3.957   2.496   2.386 -0.5126 -0.0009  0.2025
 8452SOL    HW136989   3.999   2.570   2.430  1.1937 -0.5618 -0.4793
 8452SOL    HW236990   3.966   2.515   2.293 -1.3593 -1.8657 -0.2509
 8453SOL     OW36991   4.163   1.541   7.761 -0.4316 -0.3213 -0.1287
 8453SOL    HW136992   4.146   1.481   7.688  0.0494 -0.1981 -0.3430
 8453SOL    HW236993   4.077   1.583   7.766 -0.2797  0.2533 -2.0623
 8454SOL     OW36994   3.404   3.928   6.977 -0.7775  0.1486  0.0359
 8454SOL    HW136995   3.390   3.968   6.892  0.4263 -1.0359 -0.7236
 8454SOL    HW236996   3.497   3.905   6.976 -0.7139  0.5019 -1.1581
 8455SOL     OW36997   4.498   3.094  15.045 -0.0326  0.0397 -0.5043
 8455SOL    HW136998   4.591   3.114  15.040 -0.1608  0.5361 -0.9898
 8455SOL    HW236999   4.475   3.185  15.022  2.8840  0.0837 -3.1947
 8456SOL     OW37000   4.079   4.437   7.701 -0.5489  0.4051 -0.7722
 8456SOL    HW137001   4.102   4.458   7.791  1.5615 -0.9315 -0.9995
 8456SOL    HW237002   4.092   4.342   7.699  2.3316  0.7770  1.2853
 8457SOL     OW37003   1.862   2.616   4.985 -0.6295 -0.3899  0.0398
 8457SOL    HW137004   1.844   2.635   5.077  1.8030 -0.5948  0.5415
 8457SOL    HW237005   1.863   2.520   4.986 -1.4073 -0.3902  0.5944
 8458SOL     OW37006   2.430   0.238   6.355  0.1247 -0.1346 -0.7075
 8458SOL    HW137007   2.349   0.198   6.385  0.1747 -0.1413 -0.5799
 8458SOL    HW237008   2.417   0.249   6.261  0.1675 -1.1320 -0.8382
 8459SOL     OW37009   2.650   3.525   7.542 -0.0864  0.0073 -0.1787
 8459SOL    HW137010   2.730   3.476   7.560  0.4294  1.7196  2.2349
 8459SOL    HW237011   2.607   3.483   7.468 -1.8552 -1.8789  1.8828
 8460SOL     OW37012   0.283   0.591   3.071 -0.1150 -0.6717 -0.4060
 8460SOL    HW137013   0.318   0.520   3.124  1.4906  0.5962  0.2392
 8460SOL    HW237014   0.216   0.550   3.017  0.0717 -2.0046  0.3876
 8461SOL     OW37015   3.161   2.057   4.575 -0.3736  0.2029  0.2790
 8461SOL    HW137016   3.107   2.107   4.637  1.4877  1.6424  0.7456
 8461SOL    HW237017   3.116   2.086   4.496 -1.2566 -2.3464 -0.1663
 8462SOL     OW37018   4.184   2.785   8.757  0.0686  0.1526  0.1211
 8462SOL    HW137019   4.194   2.772   8.662  2.5087  0.6210  0.3175
 8462SOL    HW237020   4.272   2.816   8.780  0.6871 -0.8271 -0.8808
 8463SOL     OW37021   4.653   2.689   8.395  0.2217  0.0637 -0.0844
 8463SOL    HW137022   4.680   2.648   8.477 -1.4353 -0.6917  0.0891
 8463SOL    HW237023   0.001   2.711   8.356 -1.2178  0.7874 -2.7875
 8464SOL     OW37024   2.118   0.617   6.486 -0.0097  0.1292 -0.0560
 8464SOL    HW137025   2.196   0.567   6.464  0.4469  1.1475 -0.7694
 8464SOL    HW237026   2.060   0.541   6.492 -0.6818  0.5487 -1.1255
 8465SOL     OW37027   0.748   2.253   5.690 -0.1300  0.7822  0.2346
 8465SOL    HW137028   0.714   2.198   5.619  0.8135  0.6812 -0.1333
 8465SOL    HW237029   0.668   2.267   5.741  0.0890 -1.7840  1.2813
 8466SOL     OW37030   0.069   2.214   6.610 -0.2351 -0.1407  0.0743
 8466SOL    HW137031   0.109   2.195   6.695 -1.4282  0.8042  0.8413
 8466SOL    HW237032   0.024   2.134   6.583  0.3180 -0.0005 -1.2510
 8467SOL     OW37033   4.212   0.313  11.196  0.1450 -0.2474  0.2728
 8467SOL    HW137034   4.257   0.378  11.142 -1.6903  0.5293 -0.3587
 8467SOL    HW237035   4.260   0.315  11.278  3.5835 -2.5352 -1.7036
 8468SOL     OW37036   4.568   1.930   2.929 -0.0416  0.2606 -0.2649
 8468SOL    HW137037   4.509   1.865   2.892 -0.0243  1.0365 -1.6586
 8468SOL    HW237038   4.643   1.877   2.955 -0.9854 -1.8830 -1.9686
 8469SOL     OW37039   1.165   0.432  12.494 -0.0652  0.6628 -0.1090
 8469SOL    HW137040   1.236   0.484  12.531 -0.1542 -1.5144  3.0415
 8469SOL    HW237041   1.129   0.385  12.569  0.6587  2.1879  1.1778
 8470SOL     OW37042   4.450   3.287   1.697  0.2302 -0.2639 -0.3271
 8470SOL    HW137043   4.469   3.271   1.789  0.4444 -1.1403 -0.5322
 8470SOL    HW237044   4.363   3.327   1.699  0.3944  0.0450  0.6323
 8471SOL     OW37045   4.531   0.077   9.619 -0.4795  0.1149 -0.0961
 8471SOL    HW137046   4.488   0.106   9.538  1.7927 -0.5953 -1.5712
 8471SOL    HW237047   4.510   4.722   9.602 -3.9485  1.0470 -0.7826
 8472SOL     OW37048   0.412   3.799   3.389 -0.1681  0.4603  0.3745
 8472SOL    HW137049   0.373   3.743   3.457 -2.3394  0.3282 -0.9460
 8472SOL    HW237050   0.352   3.782   3.316 -1.4469  0.9101  1.3162
 8473SOL     OW37051   1.412   0.461   7.897  0.7918 -0.0135 -0.3409
 8473SOL    HW137052   1.358   0.384   7.916 -1.0561  0.8419 -2.1997
 8473SOL    HW237053   1.357   0.506   7.834  0.2212 -0.6923 -0.3265
 8474SOL     OW37054   1.906   1.666   3.187 -0.0083  0.1458 -0.1399
 8474SOL    HW137055   1.935   1.592   3.134 -1.2193 -0.8335  0.5519
 8474SOL    HW237056   1.893   1.612   3.266 -1.0539  0.6376  0.0282
 8475SOL     OW37057   1.154   3.337   2.179 -0.1314 -0.0239 -0.1994
 8475SOL    HW137058   1.108   3.256   2.202 -0.9652  0.8815  1.3027
 8475SOL    HW237059   1.094   3.381   2.119  3.1171  2.2056 -1.7968
 8476SOL     OW37060   1.237   1.741   1.914  0.2976 -0.5232 -0.0859
 8476SOL    HW137061   1.166   1.688   1.878  1.6474 -2.3243 -0.0865
 8476SOL    HW237062   1.195   1.822   1.886 -0.5073 -1.6856 -2.3106
 8477SOL     OW37063   0.885   0.422   6.010 -0.0892 -0.6292 -0.4458
 8477SOL    HW137064   0.881   0.331   6.040  1.9199 -0.3858  0.5886
 8477SOL    HW237065   0.925   0.464   6.086 -0.0349 -0.1450 -0.7436
 8478SOL     OW37066   4.629   0.998   9.088  0.4070 -0.0388  0.4478
 8478SOL    HW137067   4.690   0.985   9.160 -1.9622  0.7658  2.5868
 8478SOL    HW237068   4.633   1.092   9.068  1.4988 -0.4306 -1.1516
 8479SOL     OW37069   1.331   0.922   5.649  0.2489  0.5172 -0.2589
 8479SOL    HW137070   1.249   0.971   5.648 -1.2212 -1.9573 -0.6766
 8479SOL    HW237071   1.294   0.834   5.648 -0.0760  0.6421  1.5250
 8480SOL     OW37072   1.663   3.339   6.386 -0.2458  0.1312 -0.0418
 8480SOL    HW137073   1.680   3.432   6.371 -0.9566  0.5516  1.7012
 8480SOL    HW237074   1.622   3.323   6.301 -0.5920  0.5116  0.0527
 8481SOL     OW37075   3.151   2.497   9.090 -0.1734  0.0731 -0.5288
 8481SOL    HW137076   3.157   2.418   9.035 -1.2094 -0.5790  0.2905
 8481SOL    HW237077   3.212   2.472   9.159 -1.4603 -2.5626 -0.3332
 8482SOL     OW37078   1.761   4.472   5.478 -0.3296 -0.3448  0.3420
 8482SOL    HW137079   1.780   4.562   5.452 -2.9476  0.2372  0.3827
 8482SOL    HW237080   1.826   4.468   5.547 -1.2521  0.4986  1.2668
 8483SOL     OW37081   3.977   0.635   5.474  0.6075 -0.4365 -0.2242
 8483SOL    HW137082   3.902   0.584   5.444 -0.0590  0.5279 -0.1760
 8483SOL    HW237083   4.028   0.560   5.506  1.4434 -1.0000 -2.8176
 8484SOL     OW37084   1.270   2.549   8.592 -0.0565  0.5329  0.3078
 8484SOL    HW137085   1.203   2.593   8.644  0.2073  1.1489  0.1271
 8484SOL    HW237086   1.244   2.592   8.511 -0.1221  1.2854  0.7228
 8485SOL     OW37087   3.293   0.837   9.820 -0.4897  0.0151  0.0624
 8485SOL    HW137088   3.365   0.815   9.879 -0.4717  1.0072  0.3983
 8485SOL    HW237089   3.241   0.894   9.877  0.5333 -0.6998  1.7054
 8486SOL     OW37090   0.410   3.808   8.679  0.1371 -0.8026 -0.8667
 8486SOL    HW137091   0.484   3.801   8.618  0.7616 -2.9975  0.1247
 8486SOL    HW237092   0.444   3.798   8.768 -0.8188  0.1961 -0.4005
 8487SOL     OW37093   0.048   2.841  17.322 -0.1024  0.1990  0.5475
 8487SOL    HW137094   0.030   2.779  17.393  0.5367  0.5240  0.9991
 8487SOL    HW237095   0.140   2.866  17.330 -0.2631  1.4188 -1.4609
 8488SOL     OW37096   3.308   2.236   8.658 -0.0701 -0.1828 -0.5739
 8488SOL    HW137097   3.327   2.149   8.691  2.0815  0.6705  0.4209
 8488SOL    HW237098   3.399   2.267   8.657  0.0063 -0.4053 -0.4820
 8489SOL     OW37099   2.891   4.663   6.619  0.5475 -0.2339  0.4772
 8489SOL    HW137100   2.818   4.701   6.669 -0.3268 -0.7851 -0.3963
 8489SOL    HW237101   2.870   4.570   6.627  1.3050 -0.2842  1.9945
 8490SOL     OW37102   1.022   4.602  16.929 -0.7825 -0.1514 -0.1699
 8490SOL    HW137103   0.939   4.554  16.933 -0.8154  0.0177  1.1870
 8490SOL    HW237104   1.075   4.546  16.872  1.4094 -1.3165  3.0032
 8491SOL     OW37105   3.016   2.409  16.805 -0.3949 -0.0807  0.5445
 8491SOL    HW137106   2.982   2.473  16.742 -0.4400 -0.8355 -0.1905
 8491SOL    HW237107   2.995   2.446  16.891  2.2828  1.5165  0.5256
 8492SOL     OW37108   3.277   2.279   7.604 -0.1937 -0.0237  0.7982
 8492SOL    HW137109   3.366   2.311   7.618  0.2334 -0.4029 -1.0490
 8492SOL    HW237110   3.287   2.292   7.509  0.0857 -0.1631  0.8101
 8493SOL     OW37111   0.341   0.753   6.514 -0.1915 -0.4591  0.9361
 8493SOL    HW137112   0.257   0.743   6.470  0.9652 -1.6401 -1.0057
 8493SOL    HW237113   0.386   0.683   6.468  0.4960  1.9148 -2.0160
 8494SOL     OW37114   0.774   3.802   3.686  0.9623  0.0479 -0.1038
 8494SOL    HW137115   0.775   3.893   3.656  1.7821  1.0185  2.9202
 8494SOL    HW237116   0.759   3.758   3.603 -0.5520  2.2486 -1.0067
 8495SOL     OW37117   2.186   3.329   6.639 -0.1887  0.0551 -0.4314
 8495SOL    HW137118   2.124   3.385   6.591  1.4859  1.6098 -0.7811
 8495SOL    HW237119   2.151   3.245   6.610  1.6736 -1.2744  1.2106
 8496SOL     OW37120   1.807   0.144   9.532 -0.1291  0.8580  0.0950
 8496SOL    HW137121   1.714   0.159   9.515  0.2956  2.3779 -0.9191
 8496SOL    HW237122   1.851   0.222   9.496  0.7469 -0.1722 -1.0662
 8497SOL     OW37123   1.040   3.126   6.838 -0.1230 -0.3139  0.3043
 8497SOL    HW137124   1.131   3.141   6.811  0.3146  0.7060  2.2942
 8497SOL    HW237125   1.048   3.120   6.933  3.2860  2.0287  0.2042
 8498SOL     OW37126   3.220   1.330   7.455 -0.2721 -0.8340  0.3518
 8498SOL    HW137127   3.263   1.394   7.399 -1.6324 -0.3794 -0.1707
 8498SOL    HW237128   3.285   1.264   7.478  0.8541  0.5242  1.0235
 8499SOL     OW37129   1.849   1.305   1.477 -0.4934 -0.4259 -0.4297
 8499SOL    HW137130   1.767   1.333   1.437 -0.6083 -0.3277 -0.1245
 8499SOL    HW237131   1.843   1.339   1.566  0.0574 -1.1054 -0.1262
 8500SOL     OW37132   0.608   4.021   3.363 -0.0757 -0.0220  0.1310
 8500SOL    HW137133   0.567   3.988   3.283  0.3783 -0.1530 -0.0505
 8500SOL    HW237134   0.538   4.023   3.428 -0.2628 -5.5543  0.1465
 8501SOL     OW37135   3.915   0.647   9.798  0.0677 -0.3082  0.1715
 8501SOL    HW137136   3.919   0.729   9.748 -1.4620  0.0427  0.6051
 8501SOL    HW237137   3.821   0.626   9.799  0.6030 -3.0132 -5.2467
 8502SOL     OW37138   0.967   0.154  17.651  0.1622  1.0235  0.0489
 8502SOL    HW137139   1.056   0.164  17.686  0.9239 -0.5959 -1.4745
 8502SOL    HW237140   0.974   0.071  17.604 -3.6386  1.7979 -1.9085
 8503SOL     OW37141   2.804   4.379   5.865 -0.1743 -0.4326  0.4354
 8503SOL    HW137142   2.761   4.353   5.784  0.0748 -1.1706  0.5468
 8503SOL    HW237143   2.758   4.330   5.934  2.6390 -3.2350  0.2948
 8504SOL     OW37144   2.418   4.088   5.603  0.5925  0.1934  0.2400
 8504SOL    HW137145   2.441   4.178   5.626  3.2244 -0.7753  1.4109
 8504SOL    HW237146   2.437   4.045   5.686 -0.9518 -2.2180 -0.6423
 8505SOL     OW37147   3.268   4.171   5.164 -0.2387  0.5413  0.1561
 8505SOL    HW137148   3.355   4.209   5.174 -0.1904  0.7097 -0.8502
 8505SOL    HW237149   3.246   4.144   5.253 -1.2140  1.5662  0.2268
 8506SOL     OW37150   0.832   1.458  15.497 -0.0096 -0.0557  0.4561
 8506SOL    HW137151   0.834   1.480  15.404 -0.7066  1.1896  0.7412
 8506SOL    HW237152   0.746   1.415  15.498  0.3596 -0.8024  0.2450
 8507SOL     OW37153   0.056   1.937   0.923  0.7035  0.1977  0.3090
 8507SOL    HW137154   0.104   1.863   0.886 -0.9016 -0.9565  0.5348
 8507SOL    HW237155   4.724   1.945   0.857  0.2969  1.0622  0.8309
 8508SOL     OW37156   3.388   2.677  13.586  0.2345  0.0118 -0.0511
 8508SOL    HW137157   3.405   2.707  13.676  0.6002  1.5007 -0.6291
 8508SOL    HW237158   3.315   2.617  13.600 -2.3082  3.1115  0.0899
 8509SOL     OW37159   1.082   0.935   4.034  0.1265 -0.2180  0.0888
 8509SOL    HW137160   1.084   1.025   4.066 -1.7827 -0.3224  0.4910
 8509SOL    HW237161   1.041   0.940   3.948  0.3061 -0.3282 -0.0040
 8510SOL     OW37162   0.329   4.089  10.034  0.5241  0.5634  0.3455
 8510SOL    HW137163   0.375   4.024   9.982  1.2334 -0.0212  1.6882
 8510SOL    HW237164   0.310   4.042  10.115  0.5448  0.9608  0.5860
 8511SOL     OW37165   0.389   2.612   3.972 -0.2589 -0.1864  0.4043
 8511SOL    HW137166   0.392   2.573   3.885  0.5260  1.6526 -0.3876
 8511SOL    HW237167   0.370   2.703   3.950 -1.9035 -0.9060 -1.0816
 8512SOL     OW37168   0.797   1.940  17.460  0.1779 -0.4274 -0.0980
 8512SOL    HW137169   0.861   1.895  17.405 -0.3226 -1.3138  0.0252
 8512SOL    HW237170   0.826   2.026  17.488  1.7974 -1.0123 -0.0183
 8513SOL     OW37171   1.319   0.620   4.906 -0.0068 -0.2315  0.3738
 8513SOL    HW137172   1.406   0.658   4.889  0.0859  0.4136  2.2898
 8513SOL    HW237173   1.269   0.701   4.898 -0.9574 -0.7333  1.3665
 8514SOL     OW37174   2.410   2.281  13.325 -0.0512  0.0626 -0.2876
 8514SOL    HW137175   2.503   2.287  13.307 -0.6332  1.3073 -2.7573
 8514SOL    HW237176   2.390   2.196  13.365 -0.6908 -0.9400 -2.7260
 8515SOL     OW37177   0.694   2.241   8.968  0.1610 -0.3383 -0.0741
 8515SOL    HW137178   0.720   2.281   9.051 -2.9263  1.2112  0.1839
 8515SOL    HW237179   0.605   2.276   8.959  0.8994  1.7541  0.5919
 8516SOL     OW37180   2.105   0.092   7.358 -0.1654 -0.0326  0.2466
 8516SOL    HW137181   2.024   0.140   7.342  0.2684 -0.1078 -2.0996
 8516SOL    HW237182   2.108   0.077   7.453 -0.0631 -0.6518  0.1501
 8517SOL     OW37183   3.988   1.150   0.354 -0.0170  0.3567  0.5165
 8517SOL    HW137184   3.955   1.137   0.444 -1.4874  0.4028 -0.0119
 8517SOL    HW237185   4.021   1.239   0.362 -0.1727  0.5774 -1.3351
 8518SOL     OW37186   1.088   1.846   3.173  0.4735 -0.4993  0.6321
 8518SOL    HW137187   1.167   1.883   3.135  1.3769 -0.9219  2.0961
 8518SOL    HW237188   1.063   1.916   3.233 -1.1531 -0.4174 -0.1533
 8519SOL     OW37189   2.475   4.653  15.418 -0.1040  0.2126  0.3253
 8519SOL    HW137190   2.410   4.583  15.429  1.6096 -1.3523  0.4020
 8519SOL    HW237191   2.513   4.628  15.334  0.1909  0.6357  0.3366
 8520SOL     OW37192   1.328   0.515  10.005  0.7856 -0.2606 -0.1053
 8520SOL    HW137193   1.357   0.592   9.956 -2.0677 -0.4629 -2.1199
 8520SOL    HW237194   1.233   0.504   9.993  0.7481  1.5153 -1.4912
 8521SOL     OW37195   1.802   0.062   4.637  0.3164  0.0364  0.1821
 8521SOL    HW137196   1.821   4.715   4.679 -0.7757  0.4342  1.4593
 8521SOL    HW237197   1.741   0.040   4.566 -0.2568 -1.3534  1.1081
 8522SOL     OW37198   4.211   0.463   8.341 -0.1572  0.6071 -0.1860
 8522SOL    HW137199   4.177   0.535   8.288 -0.7097  0.5643  0.1114
 8522SOL    HW237200   4.298   0.497   8.365  0.0095  0.6588 -0.8523
 8523SOL     OW37201   3.682   1.701   2.063 -0.2746 -0.4111 -0.0231
 8523SOL    HW137202   3.730   1.624   2.093 -0.6603 -0.6967 -0.1330
 8523SOL    HW237203   3.609   1.648   2.030 -0.0008  0.1428 -1.5227
 8524SOL     OW37204   0.890   2.569   4.525 -0.4882  0.1825  0.3363
 8524SOL    HW137205   0.822   2.575   4.458  2.2624 -1.9516 -2.6416
 8524SOL    HW237206   0.965   2.614   4.487  0.3820 -0.0538  1.7845
 8525SOL     OW37207   3.015   4.659   8.732  0.4163 -0.9314 -0.3691
 8525SOL    HW137208   3.069   4.599   8.784  1.0106 -0.4915 -0.4881
 8525SOL    HW237209   2.931   4.635   8.773  0.5929 -0.3614  0.3303
 8526SOL     OW37210   0.251   1.784  12.471  0.0304  0.3463  0.8509
 8526SOL    HW137211   0.343   1.792  12.494 -0.0041 -0.5228  1.2745
 8526SOL    HW237212   0.224   1.818  12.556  2.7157  0.6706  1.5498
 8527SOL     OW37213   1.654   3.900  13.310 -0.0738  0.0641 -0.1557
 8527SOL    HW137214   1.706   3.978  13.329 -1.8192  1.5500 -1.5047
 8527SOL    HW237215   1.570   3.943  13.296 -0.5850 -1.3563 -1.4281
 8528SOL     OW37216   3.718   0.202   5.746 -0.6241  0.0219 -0.4473
 8528SOL    HW137217   3.729   0.292   5.778 -0.4587 -0.3872  0.6501
 8528SOL    HW237218   3.799   0.181   5.700  0.2663  2.1217  0.1476
 8529SOL     OW37219   2.479   1.677  17.243  0.3205 -1.0665 -0.4604
 8529SOL    HW137220   2.518   1.598  17.206  1.4983 -0.1607 -1.1760
 8529SOL    HW237221   2.450   1.721  17.163 -1.4741  0.5794  1.1026
 8530SOL     OW37222   0.678   1.851  17.116 -0.1320 -0.7352 -0.4396
 8530SOL    HW137223   0.717   1.929  17.155  0.7316 -0.1370 -2.4855
 8530SOL    HW237224   0.637   1.805  17.190 -2.5662 -0.1041 -1.4084
 8531SOL     OW37225   2.614   1.058   8.661 -0.4249 -0.4284 -0.1156
 8531SOL    HW137226   2.695   1.083   8.617 -0.9546  0.9543 -0.3010
 8531SOL    HW237227   2.639   0.996   8.730  1.7561 -1.8431 -2.2162
 8532SOL     OW37228   3.501   4.074   1.684 -0.5768 -0.0837 -0.2168
 8532SOL    HW137229   3.443   4.147   1.705  0.4162  0.3226  1.0654
 8532SOL    HW237230   3.491   4.024   1.764 -1.3411  1.8505  0.8935
 8533SOL     OW37231   1.512   0.369   7.005 -0.3587 -0.4837  0.2542
 8533SOL    HW137232   1.493   0.455   7.045 -0.4539 -0.9934  1.3098
 8533SOL    HW237233   1.567   0.332   7.074  1.5416  0.9830 -0.4487
 8534SOL     OW37234   2.618   0.888   6.016 -0.2771  0.0432 -0.1395
 8534SOL    HW137235   2.674   0.848   5.949  1.4767  1.7003  0.3571
 8534SOL    HW237236   2.541   0.897   5.959 -0.0524  0.3363 -0.3939
 8535SOL     OW37237   1.451   4.237  13.161  0.2075 -0.0257 -1.0903
 8535SOL    HW137238   1.510   4.271  13.229 -1.2721 -1.8639  1.0740
 8535SOL    HW237239   1.396   4.314  13.146  2.8269  1.9721 -0.5460
 8536SOL     OW37240   4.514   0.390   1.344 -0.6963 -0.2336 -0.2240
 8536SOL    HW137241   4.527   0.444   1.422 -3.5515  1.1732 -0.7147
 8536SOL    HW237242   4.564   0.322   1.389 -1.7327 -1.2869 -0.6622
 8537SOL     OW37243   0.223   2.059   0.149 -0.2191  0.1619  0.2180
 8537SOL    HW137244   0.168   2.131   0.177  1.3040  1.2284  0.4599
 8537SOL    HW237245   0.155   2.001   0.113  1.4696 -2.3282  1.0316
 8538SOL     OW37246   3.785   0.310  17.318  0.1668  0.1057 -0.3211
 8538SOL    HW137247   3.851   0.244  17.296 -0.2389 -0.8553  1.3200
 8538SOL    HW237248   3.731   0.323  17.240 -2.1353  0.2626  1.3032
 8539SOL     OW37249   2.252   0.033   8.537  0.0237  0.0569 -0.2043
 8539SOL    HW137250   2.187   0.004   8.600  1.5062 -1.3929  0.6676
 8539SOL    HW237251   2.331   0.026   8.591  0.5278  0.7876 -0.8568
 8540SOL     OW37252   2.304   2.242   2.861 -0.1506 -0.2073  0.0075
 8540SOL    HW137253   2.346   2.280   2.784 -3.5014 -0.5297 -2.0008
 8540SOL    HW237254   2.236   2.185   2.824  0.9005 -0.8580 -0.9452
 8541SOL     OW37255   0.169   3.883   2.708 -0.0121  0.6427  0.5767
 8541SOL    HW137256   0.263   3.884   2.690 -0.8846  2.1744 -3.8640
 8541SOL    HW237257   0.175   3.898   2.803 -2.4642  2.0349  0.5074
 8542SOL     OW37258   0.355   3.613   2.917  0.0043 -0.0292  0.1698
 8542SOL    HW137259   0.432   3.557   2.922  0.6893  0.8007 -0.9377
 8542SOL    HW237260   0.371   3.686   2.856  0.0195 -0.9628 -0.9387
 8543SOL     OW37261   0.722   3.452   2.442 -0.9837  0.2276 -0.2888
 8543SOL    HW137262   0.651   3.409   2.490 -1.4118  1.2464 -0.0195
 8543SOL    HW237263   0.766   3.373   2.410 -2.4579 -1.1052  0.9608
 8544SOL     OW37264   0.880   2.302  16.454  0.2017 -0.6120  0.3950
 8544SOL    HW137265   0.869   2.326  16.362  0.9916 -0.5147  0.3299
 8544SOL    HW237266   0.795   2.264  16.478 -0.2650 -0.4757 -0.9875
 8545SOL     OW37267   1.878   1.710   3.584 -0.0594 -0.1287 -0.3605
 8545SOL    HW137268   1.861   1.804   3.586  2.0517  0.2863 -2.0759
 8545SOL    HW237269   1.872   1.692   3.678 -4.4379 -1.1674 -0.8326
 8546SOL     OW37270   1.273   4.501   9.304  0.6381 -0.5059 -0.2328
 8546SOL    HW137271   1.225   4.423   9.333  0.2172 -0.5197 -0.9471
 8546SOL    HW237272   1.242   4.578   9.352  2.7562 -0.3087  0.8217
 8547SOL     OW37273   0.042   3.840   9.229  0.6098  0.0962  0.1197
 8547SOL    HW137274   0.071   3.788   9.154  0.6698  0.6428 -0.2410
 8547SOL    HW237275   4.733   3.907   9.178 -1.7902  0.1808  2.3819
 8548SOL     OW37276   4.371   0.201   2.735 -0.8868  0.8072 -0.2737
 8548SOL    HW137277   4.280   0.228   2.728 -1.3115 -0.5447  0.0302
 8548SOL    HW237278   4.418   0.260   2.676  2.9434 -0.5062  1.4300
 8549SOL     OW37279   4.355   4.489  17.219  0.4360  0.4895  0.4395
 8549SOL    HW137280   4.435   4.469  17.170 -0.5194  0.0522 -0.9555
 8549SOL    HW237281   4.285   4.473  17.155  1.0292 -2.9603  0.6479
 8550SOL     OW37282   0.716   1.750   9.127 -0.2677 -0.1600 -0.3390
 8550SOL    HW137283   0.738   1.827   9.075  1.3358 -1.5410 -1.7140
 8550SOL    HW237284   0.759   1.674   9.087  2.6938  1.2653  0.1217
 8551SOL     OW37285   1.463   0.561  15.661 -0.0778 -0.5469  0.0634
 8551SOL    HW137286   1.442   0.484  15.608  2.3105 -0.5988 -0.8098
 8551SOL    HW237287   1.390   0.551  15.722  1.2104  1.1471  1.9034
 8552SOL     OW37288   4.267   1.597   0.483 -0.6896  0.5868  0.5562
 8552SOL    HW137289   4.288   1.607   0.576  0.0935 -0.7035  0.5245
 8552SOL    HW237290   4.315   1.666   0.438  1.6685 -0.9186  0.7716
 8553SOL     OW37291   0.266   3.421   8.190 -0.3868  0.2083 -0.6063
 8553SOL    HW137292   0.180   3.424   8.147 -0.2336  1.7319 -0.7902
 8553SOL    HW237293   0.325   3.433   8.116  0.0781 -0.1998 -0.3019
 8554SOL     OW37294   1.657   3.291   8.383 -0.1467  0.6442 -0.6096
 8554SOL    HW137295   1.730   3.257   8.434  2.4017  2.5276 -2.9539
 8554SOL    HW237296   1.579   3.283   8.438 -0.2933  0.3636 -0.8518
 8555SOL     OW37297   1.854   2.057   5.772  0.3585  0.1546 -0.0371
 8555SOL    HW137298   1.764   2.044   5.800 -0.0858 -0.3986 -1.7449
 8555SOL    HW237299   1.885   2.098   5.852 -2.3884 -2.0962  2.1840
 8556SOL     OW37300   0.332   2.026   2.682  0.4918  0.0962 -0.3750
 8556SOL    HW137301   0.249   2.013   2.728  0.5664 -1.7483 -0.7403
 8556SOL    HW237302   0.309   2.072   2.601 -1.3378 -1.9184 -1.0090
 8557SOL     OW37303   4.534   3.252  15.479 -0.1922  0.0627 -0.3099
 8557SOL    HW137304   4.610   3.309  15.467 -1.3789  1.8226  0.5477
 8557SOL    HW237305   4.481   3.261  15.400 -0.2638  0.9795 -0.1578
 8558SOL     OW37306   1.109   3.774  16.216  0.0283 -0.3552  0.0361
 8558SOL    HW137307   1.142   3.708  16.155 -0.0863 -0.5224  0.1556
 8558SOL    HW237308   1.147   3.762  16.304  3.5114  2.1303 -1.1179
 8559SOL     OW37309   0.848   1.363   5.324  0.4079 -0.6206 -0.2257
 8559SOL    HW137310   0.777   1.324   5.273 -0.7973  2.2326 -0.7600
 8559SOL    HW237311   0.798   1.388   5.402 -1.5755  0.8858 -1.9615
 8560SOL     OW37312   3.094   2.816  15.680 -0.0257 -0.0670  0.0829
 8560SOL    HW137313   3.143   2.774  15.609  2.4972  2.0334  0.5811
 8560SOL    HW237314   3.130   2.779  15.760 -2.1303 -1.1751  0.4995
 8561SOL     OW37315   3.420   1.950   8.057  0.5358  0.5082 -0.4537
 8561SOL    HW137316   3.355   2.018   8.072 -0.3182  0.3613 -3.3757
 8561SOL    HW237317   3.415   1.922   7.965 -1.8163  0.4080 -0.3062
 8562SOL     OW37318   4.161   2.894   7.497 -0.4599 -0.5185  0.5191
 8562SOL    HW137319   4.091   2.919   7.437 -0.1624 -2.3885 -0.5990
 8562SOL    HW237320   4.113   2.926   7.574  1.5964  1.4551  1.0039
 8563SOL     OW37321   4.024   1.113  17.062 -0.5578 -0.2778 -0.0824
 8563SOL    HW137322   3.973   1.057  17.121  0.0275  0.6824  1.3455
 8563SOL    HW237323   4.112   1.076  17.054  0.4994  2.3418 -0.6066
 8564SOL     OW37324   2.300   1.894  16.200 -0.3327 -0.2641  0.6281
 8564SOL    HW137325   2.327   1.985  16.187 -2.1671  0.3055  0.7826
 8564SOL    HW237326   2.207   1.907  16.184 -0.0432  0.2273 -0.7092
 8565SOL     OW37327   2.899   4.683   6.958  0.5666 -0.6244  0.1658
 8565SOL    HW137328   2.815   4.666   6.915  0.3279  0.1293  0.3416
 8565SOL    HW237329   2.893   4.634   7.040  2.0873 -0.5203  0.3496
 8566SOL     OW37330   1.987   2.660   2.093 -0.2487 -0.2167  0.0829
 8566SOL    HW137331   1.963   2.753   2.086  1.8571  0.3725  0.7297
 8566SOL    HW237332   2.049   2.651   2.021 -0.7585  0.6044 -0.4633
 8567SOL     OW37333   1.780   4.052  11.042 -0.5658  0.0518  0.3663
 8567SOL    HW137334   1.800   4.018  11.129 -0.7942 -0.3460  0.2619
 8567SOL    HW237335   1.834   4.131  11.041 -1.4772  0.7006  2.0249
 8568SOL     OW37336   3.293   3.936  15.915 -0.4751 -0.1992  0.5128
 8568SOL    HW137337   3.254   3.917  16.000  0.6062  3.1193  1.7327
 8568SOL    HW237338   3.242   3.877  15.858  0.8379  0.0875 -0.9619
 8569SOL     OW37339   3.227   4.701   7.954 -0.1454 -0.0770  0.0340
 8569SOL    HW137340   3.245   4.697   8.048  0.2524  0.4781 -0.0197
 8569SOL    HW237341   3.239   4.608   7.932 -1.5192 -0.3466  0.3990
 8570SOL     OW37342   0.185   0.142   6.516 -0.2216 -0.0244  0.2575
 8570SOL    HW137343   0.097   0.108   6.499 -0.7101  0.5141  1.6517
 8570SOL    HW237344   0.231   0.059   6.523  1.3503  0.9021  0.8074
 8571SOL     OW37345   2.394   1.855   9.484  0.1761  0.4580  0.8518
 8571SOL    HW137346   2.449   1.890   9.414 -0.6856  0.6343  0.2697
 8571SOL    HW237347   2.446   1.889   9.557  1.7759  1.4771 -0.7602
 8572SOL     OW37348   0.853   0.841  16.427 -0.4600  0.1925  0.3675
 8572SOL    HW137349   0.927   0.872  16.374 -1.2378  0.7615 -0.4021
 8572SOL    HW237350   0.802   0.921  16.439 -0.8578 -0.1158  0.7116
 8573SOL     OW37351   3.929   4.566   0.343 -0.0213  0.2805  0.3393
 8573SOL    HW137352   3.931   4.622   0.266  1.4634 -1.1267 -0.6590
 8573SOL    HW237353   3.913   4.629   0.413  1.7278 -1.2496  2.1213
 8574SOL     OW37354   1.610   1.411   1.412  0.2034  0.6353 -0.1144
 8574SOL    HW137355   1.605   1.495   1.458 -1.8474  1.0620 -1.1391
 8574SOL    HW237356   1.553   1.345   1.451 -0.6605  1.2337 -0.3691
 8575SOL     OW37357   2.549   4.164  17.123 -0.6957  0.5865  0.7426
 8575SOL    HW137358   2.601   4.143  17.046  0.5349 -0.8520  1.9826
 8575SOL    HW237359   2.545   4.257  17.100 -4.5698  0.7376  1.9092
 8576SOL     OW37360   4.267   0.051  13.558 -0.1243 -0.0486 -0.2122
 8576SOL    HW137361   4.348   0.019  13.597 -0.5543  0.4988  1.1656
 8576SOL    HW237362   4.230   4.714  13.511 -0.8880  0.4824 -0.4561
 8577SOL     OW37363   4.272   3.421   9.978 -0.4290  0.5279 -0.6651
 8577SOL    HW137364   4.307   3.366  10.048  1.2854  0.8317 -1.2809
 8577SOL    HW237365   4.188   3.379   9.961  1.4493 -3.9541  1.2357
 8578SOL     OW37366   3.303   1.464   2.473 -0.3629  0.1375  0.3427
 8578SOL    HW137367   3.365   1.423   2.533 -0.7605  1.2878  1.5537
 8578SOL    HW237368   3.363   1.460   2.399 -0.6285 -1.0878  0.1909
 8579SOL     OW37369   2.309   2.443   5.744 -0.5481 -0.3769  0.0661
 8579SOL    HW137370   2.234   2.500   5.758  0.3730  0.9951 -0.4849
 8579SOL    HW237371   2.375   2.505   5.712 -1.4254  1.7726  2.4368
 8580SOL     OW37372   3.446   1.459   5.460  0.1713  0.4637  0.1377
 8580SOL    HW137373   3.536   1.473   5.432  0.2199  1.9400  1.0073
 8580SOL    HW237374   3.450   1.459   5.556  2.4417 -0.1815  0.0516
 8581SOL     OW37375   2.376   2.722   4.385  0.1354  0.5901 -0.3722
 8581SOL    HW137376   2.444   2.786   4.407 -0.3317  1.2270 -0.8096
 8581SOL    HW237377   2.439   2.652   4.367  0.6807  1.2136 -0.9155
 8582SOL     OW37378   1.834   1.402  14.516  0.2408  0.2945 -0.3316
 8582SOL    HW137379   1.919   1.400  14.558 -0.4096  1.4192  1.0455
 8582SOL    HW237380   1.863   1.432  14.430 -1.5925 -3.1234 -2.1455
 8583SOL     OW37381   0.807   3.112  17.394 -0.4013 -0.1103 -0.6889
 8583SOL    HW137382   0.801   3.098  17.300 -1.4538 -0.4352 -0.5811
 8583SOL    HW237383   0.739   3.177  17.414 -2.8496 -2.4062 -1.5272
 8584SOL     OW37384   2.182   1.700   3.385  0.2452 -0.0905 -0.7226
 8584SOL    HW137385   2.231   1.688   3.303 -0.8401  2.4077 -1.7270
 8584SOL    HW237386   2.248   1.694   3.454  0.9688 -2.0410 -1.5803
 8585SOL     OW37387   2.371   3.315   0.655 -0.3002  0.6800 -0.5508
 8585SOL    HW137388   2.342   3.260   0.582 -0.3784 -1.0064  0.7360
 8585SOL    HW237389   2.463   3.288   0.649 -0.4125 -0.2629  1.7056
 8586SOL     OW37390   0.426   0.917  11.223 -0.1050 -0.1990  0.0543
 8586SOL    HW137391   0.355   0.875  11.273 -0.5402  1.6053  0.9668
 8586SOL    HW237392   0.465   0.976  11.288  3.3967 -0.6254 -1.6776
 8587SOL     OW37393   1.570   4.212   6.736 -0.0924  0.6322  1.1297
 8587SOL    HW137394   1.510   4.170   6.797 -2.6866  1.1329 -1.0552
 8587SOL    HW237395   1.547   4.302   6.760  0.8206  0.1756  3.6603
 8588SOL     OW37396   3.464   0.614   1.508  0.2745  0.0367  0.1798
 8588SOL    HW137397   3.469   0.578   1.596 -0.3016  1.7350  0.9089
 8588SOL    HW237398   3.445   0.533   1.460 -0.3688  0.0232  0.4526
 8589SOL     OW37399   4.187   3.829   5.380  0.7721  0.6529 -0.2684
 8589SOL    HW137400   4.173   3.923   5.372 -1.5619  0.2028 -1.4290
 8589SOL    HW237401   4.106   3.796   5.342  1.1265  0.2527 -0.6659
 8590SOL     OW37402   2.976   0.098   3.272  0.3896 -0.2358 -0.5596
 8590SOL    HW137403   2.978   0.025   3.334 -2.5597 -0.2920 -0.5615
 8590SOL    HW237404   3.066   0.129   3.284  0.3537  1.0031 -3.4989
 8591SOL     OW37405   2.620   0.147   4.462  0.1553 -0.3194 -0.2271
 8591SOL    HW137406   2.546   0.104   4.420  0.9988 -0.9010 -1.1057
 8591SOL    HW237407   2.645   0.077   4.522 -0.6512 -0.6774 -0.3099
 8592SOL     OW37408   3.571   4.706   5.715  0.0477 -0.2684  0.2367
 8592SOL    HW137409   3.618   0.052   5.727  0.9157 -0.6979 -0.1618
 8592SOL    HW237410   3.598   4.657   5.793  0.8187 -0.5257 -0.1846
 8593SOL     OW37411   3.207   2.094  12.126 -1.0114  0.3790  0.1267
 8593SOL    HW137412   3.271   2.155  12.164 -0.8509 -1.5701  3.0111
 8593SOL    HW237413   3.263   2.053  12.060 -0.4046 -0.1360  0.9607
 8594SOL     OW37414   3.737   0.679  13.785  0.1877 -0.8657 -0.3777
 8594SOL    HW137415   3.794   0.648  13.855  1.0655 -0.5585 -0.9685
 8594SOL    HW237416   3.784   0.742  13.731 -0.2132  0.7997  1.2055
 8595SOL     OW37417   3.044   2.258   6.150 -0.2574 -0.4970 -0.2809
 8595SOL    HW137418   2.964   2.222   6.189 -1.5152  1.1283 -1.4014
 8595SOL    HW237419   3.025   2.225   6.062  1.7216 -0.6812 -0.6288
 8596SOL     OW37420   0.756   4.550  16.962 -0.2996 -0.3341  0.4041
 8596SOL    HW137421   0.746   4.550  16.867  1.9395 -1.0428  0.1878
 8596SOL    HW237422   0.686   4.612  16.984  2.2514  2.4922  0.6810
 8597SOL     OW37423   1.890   0.483   6.856  0.6558  0.2879  0.0542
 8597SOL    HW137424   1.830   0.557   6.855 -1.2360 -1.2969 -2.1333
 8597SOL    HW237425   1.841   0.414   6.812  2.1277  0.7807 -2.3701
 8598SOL     OW37426   0.555   2.504   7.651 -0.4423 -0.9033 -0.2431
 8598SOL    HW137427   0.566   2.432   7.588  1.6858 -1.1682  0.4371
 8598SOL    HW237428   0.622   2.491   7.718  1.3656 -0.6362 -1.9841
 8599SOL     OW37429   3.569   0.676  12.484  0.1277 -0.2158 -0.6069
 8599SOL    HW137430   3.623   0.644  12.411 -1.3574 -3.4773 -0.3089
 8599SOL    HW237431   3.515   0.740  12.439  2.4221  1.5921 -0.7948
 8600SOL     OW37432   2.564   3.776   4.725 -0.3688 -0.0055  0.0279
 8600SOL    HW137433   2.537   3.800   4.637 -3.3109  3.1355  1.7815
 8600SOL    HW237434   2.572   3.862   4.766 -0.3703 -0.2196  0.4852
 8601SOL     OW37435   3.329   1.769   8.562  0.2110 -0.4769  0.1307
 8601SOL    HW137436   3.332   1.697   8.625  2.0009 -0.1421  0.4535
 8601SOL    HW237437   3.336   1.723   8.479  1.9930  0.9767 -0.5406
 8602SOL     OW37438   1.410   0.951   8.619  0.5898 -0.5195 -0.2233
 8602SOL    HW137439   1.319   0.960   8.650  0.8972  0.3393  0.4443
 8602SOL    HW237440   1.414   1.036   8.575  0.9899 -0.5912 -0.3171
 8603SOL     OW37441   4.000   3.073   5.506 -0.2893  0.4798  0.1549
 8603SOL    HW137442   4.029   3.151   5.553 -0.4516  1.2873 -1.0796
 8603SOL    HW237443   3.998   3.111   5.418 -1.0844  2.3099  0.9633
 8604SOL     OW37444   1.638   0.035  13.744  0.1338  0.7453 -0.3936
 8604SOL    HW137445   1.722   0.072  13.770 -0.9418  2.5470  0.4744
 8604SOL    HW237446   1.666   4.684  13.716  0.8504  1.0478 -0.6325
 8605SOL     OW37447   4.239   1.846  13.549 -0.6745 -0.3253  0.1744
 8605SOL    HW137448   4.182   1.778  13.513 -0.7943 -0.2866  0.2917
 8605SOL    HW237449   4.255   1.896  13.469 -0.4230  0.7709  0.9141
 8606SOL     OW37450   1.426   3.056   4.906  0.6467  0.5462  0.3226
 8606SOL    HW137451   1.384   3.008   4.977  1.4354 -0.4224  0.1307
 8606SOL    HW237452   1.499   3.098   4.952  0.9640 -0.4590  0.7257
 8607SOL     OW37453   2.901   1.500   4.324  0.5323  0.5872  0.0607
 8607SOL    HW137454   2.823   1.551   4.346  0.1851 -0.7703  2.0539
 8607SOL    HW237455   2.870   1.411   4.343 -0.1301  0.9377  0.6155
 8608SOL     OW37456   3.963   1.927  17.703 -0.0186  0.8614  0.5432
 8608SOL    HW137457   3.990   2.016  17.724  1.6836  0.4572  0.0741
 8608SOL    HW237458   4.004   1.878   0.029  0.0052 -0.9278 -0.6815
 8609SOL     OW37459   2.483   1.492   4.882  0.8937  0.1372  0.0940
 8609SOL    HW137460   2.389   1.493   4.863  1.0454  1.0464 -0.5995
 8609SOL    HW237461   2.481   1.493   4.978 -0.2842 -1.4243  0.0808
 8610SOL     OW37462   1.700   2.595   1.865 -0.4590  0.0330 -1.1690
 8610SOL    HW137463   1.694   2.644   1.947  1.3825  0.1670 -1.1141
 8610SOL    HW237464   1.609   2.569   1.854 -0.7805  0.7968 -0.3193
 8611SOL     OW37465   0.930   2.567   3.427  0.1824  0.0201  0.4541
 8611SOL    HW137466   1.006   2.549   3.483  1.7287  0.0069 -1.6476
 8611SOL    HW237467   0.949   2.513   3.350 -1.5628  2.1269 -1.4564
 8612SOL     OW37468   4.035   1.550  15.965  0.4897  0.3333 -0.0175
 8612SOL    HW137469   4.030   1.519  16.056 -0.3310 -0.1942 -0.2436
 8612SOL    HW237470   3.977   1.483  15.929  1.3734 -0.1037 -0.6259
 8613SOL     OW37471   0.273   1.498  15.308 -0.0558 -0.0059  0.3377
 8613SOL    HW137472   0.197   1.463  15.261  0.6055  0.8682 -1.4088
 8613SOL    HW237473   0.308   1.573  15.259 -1.1864  1.1324  1.2676
 8614SOL     OW37474   4.423   0.392   9.544  0.8758 -0.7206  0.4224
 8614SOL    HW137475   4.370   0.338   9.603  0.0612 -0.6490 -0.2458
 8614SOL    HW237476   4.445   0.323   9.481  0.6679 -1.2619  0.9437
 8615SOL     OW37477   3.978   0.632  15.593  0.1981 -0.2787  0.4260
 8615SOL    HW137478   3.942   0.544  15.596 -2.7423  0.7769 -4.1622
 8615SOL    HW237479   3.972   0.647  15.498 -1.2783 -0.0215  0.5627
 8616SOL     OW37480   0.959   3.326   2.719  0.3546  0.0152  0.2378
 8616SOL    HW137481   1.004   3.397   2.765  0.9857  0.7759 -1.5762
 8616SOL    HW237482   0.872   3.362   2.733  0.7927  1.8127 -1.7407
 8617SOL     OW37483   2.608   2.471   5.461 -0.6200 -0.3216  0.3150
 8617SOL    HW137484   2.598   2.541   5.526  1.7774 -0.0488  0.3989
 8617SOL    HW237485   2.527   2.478   5.412  1.7001 -0.8727 -3.6256
 8618SOL     OW37486   0.786   3.443   9.351  0.5136  0.1708 -0.6753
 8618SOL    HW137487   0.841   3.428   9.429  1.8675  0.0287 -1.6529
 8618SOL    HW237488   0.842   3.399   9.288  0.3731  0.5060 -1.0306
 8619SOL     OW37489   2.324   1.301   5.588 -0.0459  0.3908 -0.3700
 8619SOL    HW137490   2.419   1.300   5.598  0.0431 -0.5646 -1.3946
 8619SOL    HW237491   2.287   1.370   5.643  1.8954  0.4865  0.8148
 8620SOL     OW37492   0.603   3.998   1.893  0.1232  0.3387  0.1457
 8620SOL    HW137493   0.610   4.005   1.797  1.8205 -0.7179  0.1976
 8620SOL    HW237494   0.577   4.086   1.919 -1.6129 -0.3787  0.8388
 8621SOL     OW37495   3.080   0.747   0.843 -0.0644 -0.7453 -0.1237
 8621SOL    HW137496   3.051   0.702   0.923  1.0728 -1.2452  0.0044
 8621SOL    HW237497   3.128   0.675   0.802  1.2230 -0.4823  0.9416
 8622SOL     OW37498   3.128   0.727   8.748 -0.3806  0.2615  0.4032
 8622SOL    HW137499   3.207   0.781   8.743 -0.4391  0.2355 -0.8170
 8622SOL    HW237500   3.065   0.794   8.772 -0.0918  1.1248 -1.2197
 8623SOL     OW37501   2.284   4.663  14.329  0.2490 -0.1387 -0.2619
 8623SOL    HW137502   2.218   4.629  14.390 -0.6978  0.1192 -1.1357
 8623SOL    HW237503   2.238   0.002  14.294  0.4828  1.2919  2.5746
 8624SOL     OW37504   2.947   4.349   2.442  0.1494 -0.4671 -0.0809
 8624SOL    HW137505   2.988   4.270   2.479 -0.8502 -0.7567  0.3876
 8624SOL    HW237506   2.972   4.344   2.350 -2.5048  0.1963 -0.8272
 8625SOL     OW37507   2.255   2.031   7.724 -0.0702  0.1633 -0.0185
 8625SOL    HW137508   2.176   1.978   7.713 -1.2696  1.3670  2.7691
 8625SOL    HW237509   2.312   1.988   7.660  0.0147  1.3043 -0.7055
 8626SOL     OW37510   1.306   1.529  17.540 -0.1332 -0.6389  0.1652
 8626SOL    HW137511   1.238   1.585  17.502  0.0966 -0.3772  0.1459
 8626SOL    HW237512   1.375   1.530  17.475  0.5798  1.9025  0.9539
 8627SOL     OW37513   3.571   0.114   7.689 -0.6594  0.0868 -0.4850
 8627SOL    HW137514   3.636   0.183   7.673  1.2247 -1.8383 -0.9942
 8627SOL    HW237515   3.578   0.066   7.607  0.3976  2.3167 -1.6885
 8628SOL     OW37516   1.657   3.173   3.922  0.6250 -0.4615  0.1374
 8628SOL    HW137517   1.695   3.223   3.994 -0.1958 -0.7946  0.8054
 8628SOL    HW237518   1.584   3.145   3.977 -0.8863 -1.5497 -2.4286
 8629SOL     OW37519   4.502   4.152   4.469 -0.1301 -0.3551  0.0246
 8629SOL    HW137520   4.452   4.086   4.515 -1.9133  1.6252  0.9249
 8629SOL    HW237521   4.546   4.208   4.533  0.1791 -1.0287  0.3988
 8630SOL     OW37522   3.407   1.990   9.839 -0.1513  0.3246  0.0162
 8630SOL    HW137523   3.471   2.061   9.840  1.4182 -1.0654 -1.5463
 8630SOL    HW237524   3.458   1.911   9.823  0.8002  0.4221  2.6540
 8631SOL     OW37525   2.457   3.514   7.771  0.5390  0.4073 -0.9637
 8631SOL    HW137526   2.537   3.475   7.737 -0.6038 -0.8792 -2.1579
 8631SOL    HW237527   2.387   3.465   7.729  0.7884 -1.6251  0.9598
 8632SOL     OW37528   2.535   3.831  16.913 -0.1540 -0.5962 -0.2816
 8632SOL    HW137529   2.584   3.834  16.995 -0.5541 -2.6690  0.0505
 8632SOL    HW237530   2.605   3.810  16.852 -2.0122 -2.0458 -1.9414
 8633SOL     OW37531   1.033   2.028   2.477 -0.4819  0.0740  0.0167
 8633SOL    HW137532   0.970   2.021   2.549  1.3676 -1.9875  1.4178
 8633SOL    HW237533   1.090   1.952   2.469  0.7656  1.1774 -1.4474
 8634SOL     OW37534   1.514   4.140  17.544  0.1087 -0.0121 -0.3814
 8634SOL    HW137535   1.448   4.090  17.496 -1.3474  1.0669  0.4514
 8634SOL    HW237536   1.593   4.098  17.512  0.7858 -0.1684  1.4682
 8635SOL     OW37537   4.440   0.206   5.573  0.0060 -0.3231  0.1377
 8635SOL    HW137538   4.404   0.273   5.631  0.4582 -0.3843  0.4907
 8635SOL    HW237539   4.504   0.176   5.638 -0.0594 -2.6183 -0.8556
 8636SOL     OW37540   2.909   0.821   8.472  0.1351  0.3569 -0.2636
 8636SOL    HW137541   2.861   0.751   8.516 -1.1225 -0.4783 -2.9591
 8636SOL    HW237542   2.913   0.799   8.378 -1.0605  2.3570 -0.7732
 8637SOL     OW37543   2.624   2.083   5.018 -0.2055 -0.0703  0.0553
 8637SOL    HW137544   2.545   2.097   4.964  0.8759 -2.1742 -2.1078
 8637SOL    HW237545   2.681   2.054   4.947  3.0451  0.8233  2.3447
 8638SOL     OW37546   3.028   3.581   7.831 -0.7435 -0.3589 -0.4085
 8638SOL    HW137547   3.011   3.661   7.782 -3.0885 -0.4299  0.2995
 8638SOL    HW237548   3.119   3.568   7.805 -0.1108  0.3754  1.3720
 8639SOL     OW37549   0.354   4.284  11.206  0.3757  0.4114 -0.3950
 8639SOL    HW137550   0.267   4.274  11.245 -0.4604 -0.2295 -2.4220
 8639SOL    HW237551   0.388   4.199  11.177 -2.0120 -0.4983 -0.4875
 8640SOL     OW37552   2.873   0.893   9.692  0.1450 -0.6265 -0.2097
 8640SOL    HW137553   2.909   0.963   9.747 -1.3701  1.6677 -2.1585
 8640SOL    HW237554   2.956   0.846   9.683 -0.8496 -2.7935  1.9913
 8641SOL     OW37555   1.317   0.056   4.999 -0.3206 -0.0986 -0.3788
 8641SOL    HW137556   1.307   0.054   5.094 -0.6847 -0.8256 -0.4328
 8641SOL    HW237557   1.356   0.142   4.980 -1.0605  0.4364  0.5074
 8642SOL     OW37558   1.134   1.314   3.936 -0.2411  0.5492  0.1174
 8642SOL    HW137559   1.044   1.288   3.952 -0.1925 -1.2891 -2.6552
 8642SOL    HW237560   1.184   1.265   4.001 -1.9483  1.3255  1.9990
 8643SOL     OW37561   1.865   4.229   6.273  0.5391  0.1695 -0.0289
 8643SOL    HW137562   1.856   4.212   6.367  1.8685 -1.6061 -0.2116
 8643SOL    HW237563   1.950   4.273   6.271 -0.6501  2.4536 -0.3568
 8644SOL     OW37564   3.344   1.685   6.024  0.5628  0.6217  0.2315
 8644SOL    HW137565   3.318   1.776   6.011 -0.5553  0.0492 -1.5307
 8644SOL    HW237566   3.311   1.665   6.112  1.3554  0.4317  0.4808
 8645SOL     OW37567   1.368   3.163   5.886 -0.5079 -0.6409  0.5371
 8645SOL    HW137568   1.308   3.087   5.888  0.8474 -1.6444  3.1082
 8645SOL    HW237569   1.444   3.117   5.921 -1.1197 -0.3422  2.2783
 8646SOL     OW37570   3.445   2.935   5.151 -0.3959 -0.4567 -0.3620
 8646SOL    HW137571   3.520   2.978   5.110 -0.8049  2.1273  1.5869
 8646SOL    HW237572   3.494   2.871   5.203 -2.2014 -1.1267  0.5040
 8647SOL     OW37573   2.080   4.479   9.676  0.2135  0.0327 -0.5158
 8647SOL    HW137574   2.136   4.519   9.742 -0.8895  0.3533  0.2313
 8647SOL    HW237575   2.061   4.555   9.621 -2.1838  1.3169  2.1041
 8648SOL     OW37576   1.327   1.767   1.594 -0.2096 -0.4543  0.0550
 8648SOL    HW137577   1.363   1.827   1.660 -1.7961 -0.2787  0.7710
 8648SOL    HW237578   1.326   1.829   1.521 -1.2636  0.3913  0.7749
 8649SOL     OW37579   1.515   4.638   9.637  0.2310 -0.2854 -0.1446
 8649SOL    HW137580   1.542   4.550   9.663  2.3442  0.5670  0.5181
 8649SOL    HW237581   1.600   4.679   9.621 -1.0629  1.8070 -1.5987
 8650SOL     OW37582   2.827   2.770  13.720  0.1222  0.0391  0.3583
 8650SOL    HW137583   2.917   2.759  13.749  0.4378  1.6633 -0.0084
 8650SOL    HW237584   2.810   2.858  13.752 -0.1163 -0.6228  2.0880
 8651SOL     OW37585   2.710   2.082   2.955 -0.4350  0.2805 -0.4113
 8651SOL    HW137586   2.694   2.151   3.020  2.0931 -0.9006  1.4304
 8651SOL    HW237587   2.630   2.083   2.903 -1.3550  0.6579  0.9801
 8652SOL     OW37588   1.557   3.395   5.232 -0.0251  0.0897 -0.0118
 8652SOL    HW137589   1.468   3.430   5.224  0.7248  1.1870 -3.6662
 8652SOL    HW237590   1.541   3.304   5.209 -0.4596  0.5362 -1.4854
 8653SOL     OW37591   3.823   0.249   7.120  0.0795  0.3596 -0.1185
 8653SOL    HW137592   3.778   0.184   7.066  0.1140 -1.9038  2.5548
 8653SOL    HW237593   3.763   0.252   7.195  0.7146 -1.3152  0.4675
 8654SOL     OW37594   2.561   3.714   3.791  0.5099  0.9213 -0.1513
 8654SOL    HW137595   2.624   3.782   3.815 -0.2543  1.9641 -1.0588
 8654SOL    HW237596   2.483   3.770   3.784 -0.2428  0.0683  1.2661
 8655SOL     OW37597   0.011   0.671   5.585 -0.3799  0.3270  0.6996
 8655SOL    HW137598   0.106   0.685   5.583 -0.6256  1.6623 -2.0469
 8655SOL    HW237599   4.723   0.641   5.498 -0.1652  1.1010  0.3698
 8656SOL     OW37600   3.876   0.386  15.570 -0.3484  0.7491  0.4973
 8656SOL    HW137601   3.872   0.292  15.556  0.2805  0.8574 -0.3877
 8656SOL    HW237602   3.788   0.412  15.600 -0.2966  2.4556 -0.7929
 8657SOL     OW37603   0.141   0.250   3.233 -0.2859  0.0575 -0.4870
 8657SOL    HW137604   0.221   0.232   3.281 -0.1284  2.8364  0.3244
 8657SOL    HW237605   0.169   0.260   3.142  1.9566 -2.3473 -0.0364
 8658SOL     OW37606   3.427   2.787   9.473  0.3040 -0.1393 -0.4843
 8658SOL    HW137607   3.475   2.811   9.393 -0.0525  1.2970 -0.2641
 8658SOL    HW237608   3.500   2.749   9.522  2.3165  1.5453 -2.1683
 8659SOL     OW37609   4.659   1.674   7.000 -0.2355 -0.5151  0.6721
 8659SOL    HW137610   4.577   1.706   7.035 -0.4981 -1.9561  1.3551
 8659SOL    HW237611   4.709   1.750   7.030  1.7262 -1.0886 -1.0831
 8660SOL     OW37612   1.072   4.416  14.877 -0.1221 -0.5002 -0.1709
 8660SOL    HW137613   1.145   4.355  14.889 -0.9017 -1.7730 -1.9653
 8660SOL    HW237614   1.110   4.504  14.876 -0.7248 -0.2418 -0.3024
 8661SOL     OW37615   0.729   1.782   0.879 -0.2853  0.5383 -0.4028
 8661SOL    HW137616   0.666   1.776   0.807 -0.7073  1.5602 -0.1135
 8661SOL    HW237617   0.808   1.751   0.834  0.7653  3.0118 -0.3022
 8662SOL     OW37618   1.973   2.377   5.991 -0.3436  0.1438 -0.1471
 8662SOL    HW137619   2.058   2.417   6.011 -0.7763  0.0026  2.0197
 8662SOL    HW237620   1.984   2.344   5.902 -0.2798 -1.6028  0.5131
 8663SOL     OW37621   2.251   4.589   1.884 -0.5656  0.9013  0.2197
 8663SOL    HW137622   2.270   4.496   1.892 -0.3447  0.9980  0.8294
 8663SOL    HW237623   2.277   4.615   1.796 -1.0328  0.1760 -0.1338
 8664SOL     OW37624   4.059   3.419   2.667 -0.5722  0.2831  0.6690
 8664SOL    HW137625   4.132   3.480   2.653  0.6732 -0.3933  4.0834
 8664SOL    HW237626   3.990   3.471   2.626 -1.4911 -2.1276 -0.8150
 8665SOL     OW37627   3.904   0.277   5.005 -0.2637  0.1441 -0.5198
 8665SOL    HW137628   3.878   0.188   4.980  3.0368 -1.4503  1.7556
 8665SOL    HW237629   3.820   0.315   5.031 -0.4308  0.1789 -1.1204
 8666SOL     OW37630   0.329   0.344  17.681 -1.0031 -0.0369  0.1214
 8666SOL    HW137631   0.352   0.253  17.700 -1.0536 -0.2991 -1.0684
 8666SOL    HW237632   0.401   0.392  17.721  0.6575 -1.4383 -1.1904
 8667SOL     OW37633   1.393   2.301   9.231 -0.5394  0.3198  0.2853
 8667SOL    HW137634   1.324   2.300   9.298 -0.8868 -0.7767 -0.0808
 8667SOL    HW237635   1.440   2.383   9.247 -1.3139  0.4219  2.0445
 8668SOL     OW37636   0.629   2.777   0.959  0.2691  0.2219  0.5535
 8668SOL    HW137637   0.600   2.843   1.023 -1.3903 -1.7350  1.8491
 8668SOL    HW237638   0.563   2.793   0.892  1.0808  0.8733 -0.0875
 8669SOL     OW37639   1.857   3.563   3.812  0.7251 -0.6014 -0.0289
 8669SOL    HW137640   1.870   3.514   3.893 -1.0502  1.5564  1.5418
 8669SOL    HW237641   1.775   3.605   3.835  1.5241  2.0149 -1.9007
 8670SOL     OW37642   0.070   1.883   4.637  0.2113  0.1384  0.3601
 8670SOL    HW137643   4.722   1.846   4.614  0.9018  1.2751 -3.9294
 8670SOL    HW237644   0.049   1.975   4.654  2.8270  0.6971  0.5838
 8671SOL     OW37645   0.261   0.319   7.437 -0.6283 -0.2575  0.1914
 8671SOL    HW137646   0.256   0.264   7.515 -2.8980  0.1240  0.3213
 8671SOL    HW237647   0.307   0.394   7.476 -0.1182 -0.2902 -0.3386
 8672SOL     OW37648   2.371   0.015   3.478 -0.0501  0.2787  0.5226
 8672SOL    HW137649   2.357   4.684   3.544 -3.3343  0.5573  0.1122
 8672SOL    HW237650   2.303   4.721   3.418  2.3426 -0.6165 -1.7044
 8673SOL     OW37651   3.549   3.619   9.847 -0.1822 -0.2375  0.0015
 8673SOL    HW137652   3.610   3.602   9.919  0.0049 -0.7766 -0.2807
 8673SOL    HW237653   3.471   3.648   9.894  1.1127  0.5937  1.6368
 8674SOL     OW37654   0.873   1.147   1.488  0.1510 -0.5476  0.1162
 8674SOL    HW137655   0.932   1.080   1.454  2.4043  0.9761  1.0433
 8674SOL    HW237656   0.885   1.135   1.582  0.7357  0.5433  0.1801
 8675SOL     OW37657   2.561   2.005   9.329 -0.4545  0.1863  0.1886
 8675SOL    HW137658   2.631   1.946   9.301  0.3675  1.4841 -0.5035
 8675SOL    HW237659   2.509   2.028   9.252 -2.3981 -1.9608  0.8490
 8676SOL     OW37660   0.068   4.215   2.605 -0.7912  0.1336 -0.4144
 8676SOL    HW137661   0.025   4.130   2.616  0.8979 -0.8535 -1.4647
 8676SOL    HW237662   0.028   4.264   2.677 -2.3288 -0.2634 -0.9991
 8677SOL     OW37663   4.419   4.266   3.193 -0.2180 -0.6771  0.1665
 8677SOL    HW137664   4.397   4.347   3.147  0.9442 -0.5084 -0.0899
 8677SOL    HW237665   4.512   4.276   3.214 -0.3674 -0.6756  0.8427
 8678SOL     OW37666   0.209   1.768  14.970 -0.0253 -0.6042  0.5554
 8678SOL    HW137667   0.233   1.764  15.063  1.4155 -1.4439  0.1584
 8678SOL    HW237668   0.189   1.861  14.963 -1.0699 -1.0041 -1.7776
 8679SOL     OW37669   0.837   4.035   6.185 -0.2798  0.3910 -0.1539
 8679SOL    HW137670   0.883   4.016   6.103  1.1783  1.4426  0.4249
 8679SOL    HW237671   0.746   4.037   6.155 -0.1451  1.6058 -0.4715
 8680SOL     OW37672   0.972   2.113   7.404 -0.0562 -0.6095  0.5746
 8680SOL    HW137673   0.961   2.121   7.498 -1.6875  1.9763  0.1545
 8680SOL    HW237674   0.943   2.022   7.397 -1.9830  0.0468  0.1851
 8681SOL     OW37675   4.322   3.676   9.157  0.3718  0.2586  0.1264
 8681SOL    HW137676   4.352   3.723   9.079  0.2272  1.4867  0.8246
 8681SOL    HW237677   4.374   3.724   9.222  2.0163 -1.3135 -0.0220
 8682SOL     OW37678   3.222   4.621   2.386 -0.0744  0.3431 -0.4132
 8682SOL    HW137679   3.154   4.645   2.323 -0.2557  1.4753  0.2118
 8682SOL    HW237680   3.174   4.604   2.466  1.0199 -0.6476  0.0317
 8683SOL     OW37681   2.721   0.094   9.879  0.0372  0.4028 -0.1155
 8683SOL    HW137682   2.765   0.068   9.798 -0.7711 -1.4269  0.0370
 8683SOL    HW237683   2.763   0.038   9.944  1.0467 -1.0127 -1.9798
 8684SOL     OW37684   4.552   2.490   9.113  0.2306  0.0120  0.0569
 8684SOL    HW137685   4.637   2.493   9.068  0.2534 -0.3533  0.0763
 8684SOL    HW237686   4.580   2.472   9.203 -0.6776 -2.3190 -0.1281
 8685SOL     OW37687   1.542   3.892   8.977  0.1903 -0.0816 -0.2686
 8685SOL    HW137688   1.637   3.902   8.975 -0.0633  1.8972 -2.7055
 8685SOL    HW237689   1.520   3.804   8.948 -0.8739  0.8628 -2.3244
 8686SOL     OW37690   3.323   1.173  16.792  0.4409 -0.1312 -0.3255
 8686SOL    HW137691   3.306   1.198  16.701  0.0166 -3.2460 -1.1083
 8686SOL    HW237692   3.413   1.140  16.795  0.1760 -0.7986  0.4503
 8687SOL     OW37693   0.664   3.938  16.980 -0.1820  0.3111  0.1572
 8687SOL    HW137694   0.717   4.012  17.009  0.3213 -0.3030  0.8124
 8687SOL    HW237695   0.639   3.896  17.062  0.4848 -1.7596 -0.6867
 8688SOL     OW37696   1.115   0.828   8.513 -0.1614 -0.0422  0.5447
 8688SOL    HW137697   1.103   0.914   8.554 -0.3222 -0.2617  0.9580
 8688SOL    HW237698   1.120   0.853   8.421  0.1310 -0.2222  0.5118
 8689SOL     OW37699   2.972   1.762  12.951  0.4110 -0.3759  0.3467
 8689SOL    HW137700   3.058   1.795  12.978 -0.3494  1.3589  0.6558
 8689SOL    HW237701   2.986   1.736  12.860 -1.3374  1.1680 -0.3664
 8690SOL     OW37702   0.148   1.000   5.995  0.1188 -0.1690 -0.0370
 8690SOL    HW137703   0.055   1.002   5.972  0.0090  1.1767  0.5413
 8690SOL    HW237704   0.160   0.906   5.977  0.3981 -0.1351 -0.0186
 8691SOL     OW37705   4.009   2.234  11.535  0.3994  0.0497 -0.5984
 8691SOL    HW137706   3.915   2.251  11.533  0.1550 -0.9919  1.9995
 8691SOL    HW237707   4.009   2.176  11.612 -0.2892  0.7071 -0.1076
 8692SOL     OW37708   0.220   3.960  15.523 -0.1609  0.4884  0.1995
 8692SOL    HW137709   0.261   3.883  15.564  0.6594  0.1733 -1.2158
 8692SOL    HW237710   0.300   4.001  15.490  0.6341 -1.1712  0.0200
 8693SOL     OW37711   1.100   0.257  10.462  0.1845  0.3829 -0.2410
 8693SOL    HW137712   1.070   0.277  10.551 -1.3378 -1.7823 -0.2584
 8693SOL    HW237713   1.016   0.243  10.419 -0.7200  1.1634  1.2676
 8694SOL     OW37714   3.708   3.489   6.771  0.3992  0.4800 -0.2628
 8694SOL    HW137715   3.613   3.485   6.778  0.4823  1.0841  1.1764
 8694SOL    HW237716   3.726   3.583   6.780  1.1622  0.2785  0.3563
 8695SOL     OW37717   3.229   0.360   7.608  1.0598  0.3233  0.1148
 8695SOL    HW137718   3.134   0.347   7.602  0.7254  2.0993  1.6553
 8695SOL    HW237719   3.261   0.310   7.683 -2.2953 -1.0028  0.6796
 8696SOL     OW37720   4.354   1.404   5.237  0.6352  0.2002 -0.1611
 8696SOL    HW137721   4.414   1.330   5.230  0.6577  0.3152 -1.2404
 8696SOL    HW237722   4.327   1.395   5.328  0.1323  0.6441 -0.2692
 8697SOL     OW37723   1.786   1.267  16.893 -0.6755  0.0130 -0.0966
 8697SOL    HW137724   1.803   1.190  16.946  0.8325  1.1779  1.1089
 8697SOL    HW237725   1.823   1.334  16.950  1.5557 -0.1190 -1.3497
 8698SOL     OW37726   2.048   0.821  11.099 -0.3831  0.1633 -0.0367
 8698SOL    HW137727   2.134   0.791  11.127 -0.5047  1.4968  1.8242
 8698SOL    HW237728   2.072   0.912  11.083  0.6465 -0.1605 -0.2777
 8699SOL     OW37729   3.834   0.555   5.122 -0.0310  0.0679  0.1519
 8699SOL    HW137730   3.796   0.627   5.172 -0.2883  0.3398 -0.4374
 8699SOL    HW237731   3.873   0.507   5.195  2.2317  0.9071 -0.4813
 8700SOL     OW37732   2.767   1.485   8.249  0.1060  0.4181  0.5930
 8700SOL    HW137733   2.707   1.520   8.184  0.7791  0.4367 -0.0131
 8700SOL    HW237734   2.742   1.393   8.258  0.3554  0.4508  1.5864
 8701SOL     OW37735   0.753   3.256   7.961 -0.3631 -0.1060 -0.1759
 8701SOL    HW137736   0.837   3.282   7.923 -0.2761  0.1764  0.2122
 8701SOL    HW237737   0.759   3.306   8.042  2.1612  2.4053 -1.9336
 8702SOL     OW37738   1.855   4.483  13.276  0.0750  0.3805 -0.5367
 8702SOL    HW137739   1.884   4.571  13.296 -0.8172  0.7986 -1.0670
 8702SOL    HW237740   1.933   4.448  13.233 -0.5407  0.1620 -1.4925
 8703SOL     OW37741   2.930   0.946   4.236 -0.3713 -0.1699 -0.1032
 8703SOL    HW137742   2.919   1.024   4.181  0.1556 -0.0005  0.0295
 8703SOL    HW237743   3.025   0.939   4.222 -0.4027 -1.8986  0.6350
 8704SOL     OW37744   1.271   2.389  12.429  0.1073 -0.1089 -0.2313
 8704SOL    HW137745   1.298   2.480  12.445 -0.7640 -0.0990  1.2298
 8704SOL    HW237746   1.236   2.369  12.516 -0.8735 -0.2571 -0.6564
 8705SOL     OW37747   0.468   4.203  16.035  0.3955 -0.5534  0.0986
 8705SOL    HW137748   0.502   4.119  16.067 -0.3873 -1.4923 -1.5080
 8705SOL    HW237749   0.550   4.250  16.026  1.3291 -1.8764  1.6492
 8706SOL     OW37750   3.483   2.455   6.148 -0.0131  0.3768 -0.1203
 8706SOL    HW137751   3.427   2.392   6.192 -0.1929 -0.1636 -1.1133
 8706SOL    HW237752   3.427   2.530   6.129 -1.2111 -0.2118  1.0976
 8707SOL     OW37753   3.998   1.038   8.935 -0.1926 -0.1590 -1.0867
 8707SOL    HW137754   3.994   0.943   8.922  2.5003 -0.7740  2.6789
 8707SOL    HW237755   4.030   1.049   9.024 -1.9703  0.3971 -0.5219
 8708SOL     OW37756   2.908   1.019   3.004  0.1096 -0.1690  0.1096
 8708SOL    HW137757   2.823   0.976   2.992 -0.0175  1.1616 -3.6460
 8708SOL    HW237758   2.907   1.106   2.964 -1.7353 -0.1959  0.0799
 8709SOL     OW37759   2.962   2.499   5.843  0.8680 -0.2695 -0.0264
 8709SOL    HW137760   2.912   2.431   5.889  1.4170 -1.4161 -1.1321
 8709SOL    HW237761   3.048   2.491   5.884  1.6272  2.1824 -1.1488
 8710SOL     OW37762   3.693   2.453   2.060  0.0676 -0.0646 -0.1169
 8710SOL    HW137763   3.656   2.366   2.071 -0.3005 -0.0532 -1.3160
 8710SOL    HW237764   3.651   2.496   2.135  2.0117  0.2928  0.7720
 8711SOL     OW37765   3.868   1.928   7.787  0.2497  0.1228 -0.4102
 8711SOL    HW137766   3.832   2.016   7.776 -0.0646 -0.0077 -0.4294
 8711SOL    HW237767   3.808   1.902   7.857  1.4290  0.7705  0.8149
 8712SOL     OW37768   2.947   4.284   7.680  0.4304  0.1639  0.2348
 8712SOL    HW137769   2.874   4.223   7.670 -1.0751  1.9451  0.2581
 8712SOL    HW237770   2.987   4.245   7.757  1.0622 -1.1351 -0.7543
 8713SOL     OW37771   1.265   1.543  15.249  0.2594 -0.1945  0.2643
 8713SOL    HW137772   1.215   1.469  15.213  0.8580 -0.4889  0.0327
 8713SOL    HW237773   1.347   1.494  15.251  0.3204 -0.0809  0.5905
 8714SOL     OW37774   1.480   0.577   4.021  0.3447  0.2670  0.2275
 8714SOL    HW137775   1.485   0.669   3.995  2.6198 -0.2692 -1.2246
 8714SOL    HW237776   1.464   0.570   4.115 -1.5920 -1.1094 -0.2121
 8715SOL     OW37777   1.308   2.697   9.433 -0.2014  0.6061 -0.5661
 8715SOL    HW137778   1.342   2.714   9.345  0.1571 -0.9494 -0.7128
 8715SOL    HW237779   1.321   2.603   9.428  1.1461  0.8477 -1.6626
 8716SOL     OW37780   0.061   1.869   0.510 -0.3022  0.6819  0.0988
 8716SOL    HW137781   0.024   1.883   0.423 -0.2554 -1.7149 -0.2978
 8716SOL    HW237782   0.145   1.911   0.489  0.1775  0.2729  1.1897
 8717SOL     OW37783   3.016   3.452   4.460  0.0026 -0.4124  0.7873
 8717SOL    HW137784   2.982   3.363   4.453  0.8173 -0.4969 -2.2934
 8717SOL    HW237785   2.940   3.508   4.477  1.3975  1.7300 -0.0069
 8718SOL     OW37786   0.561   1.895   5.761  0.1124  0.1525 -0.2844
 8718SOL    HW137787   0.499   1.959   5.725  1.9939  1.4480 -1.1823
 8718SOL    HW237788   0.529   1.901   5.851  1.8946 -1.4485  0.4612
 8719SOL     OW37789   4.532   2.590  16.942 -0.1311  0.0761 -0.1464
 8719SOL    HW137790   4.600   2.580  16.876  0.8468 -1.4705  1.1235
 8719SOL    HW237791   4.461   2.584  16.878 -0.4601  1.1495  0.1178
 8720SOL     OW37792   4.015   0.504   4.316  0.2092 -0.4410  0.8385
 8720SOL    HW137793   3.964   0.427   4.292  0.9665 -0.4141 -0.8432
 8720SOL    HW237794   4.097   0.492   4.269 -0.6550 -1.3220 -0.4468
 8721SOL     OW37795   1.704   3.880   3.500 -0.6288  0.1464  0.4754
 8721SOL    HW137796   1.679   3.845   3.415 -0.5737 -0.1682  0.5916
 8721SOL    HW237797   1.640   3.831   3.551 -1.0998 -1.0100 -1.2093
 8722SOL     OW37798   0.915   1.871   7.309  0.3988  0.8514  0.3999
 8722SOL    HW137799   0.992   1.824   7.342 -0.6275 -0.9070  0.2872
 8722SOL    HW237800   0.876   1.804   7.252 -0.2027  0.4023  1.3456
 8723SOL     OW37801   0.617   3.839  12.957  0.3234 -0.5293  0.0432
 8723SOL    HW137802   0.545   3.894  12.923 -0.0235 -1.2269 -0.3487
 8723SOL    HW237803   0.688   3.860  12.896  0.5991 -0.3288  0.4317
 8724SOL     OW37804   2.659   1.850   1.831 -0.1189 -0.0618 -0.0467
 8724SOL    HW137805   2.641   1.938   1.865  1.5699 -0.2347  1.3058
 8724SOL    HW237806   2.676   1.812   1.918  2.7924  1.7223  0.1866
 8725SOL     OW37807   1.096   2.457   0.842 -0.1045  0.5273 -0.3161
 8725SOL    HW137808   1.017   2.499   0.809 -0.3868 -1.4406 -2.2274
 8725SOL    HW237809   1.113   2.396   0.770 -1.6878  0.5898 -0.7492
 8726SOL     OW37810   4.159   0.200   3.528  0.5753  0.0621  0.0716
 8726SOL    HW137811   4.128   0.110   3.540  0.9230 -0.1534 -0.6101
 8726SOL    HW237812   4.142   0.225   3.437 -0.9477 -1.6317 -0.1058
 8727SOL     OW37813   1.862   2.736  15.375 -0.6867  0.3076  0.1276
 8727SOL    HW137814   1.945   2.716  15.418 -1.0674 -1.5936 -0.0043
 8727SOL    HW237815   1.889   2.811  15.322  0.1930 -1.1805 -1.5742
 8728SOL     OW37816   0.017   0.015   4.947  0.0930  0.3850 -0.5244
 8728SOL    HW137817   0.071   4.688   4.902 -0.7508  0.5776 -1.8162
 8728SOL    HW237818   4.665   4.723   4.923  0.9756 -3.2221  0.5644
 8729SOL     OW37819   4.377   1.065   8.332  0.1164  0.4733  0.0543
 8729SOL    HW137820   4.357   1.048   8.240 -1.2805  0.1286  0.4245
 8729SOL    HW237821   4.306   1.009   8.362  0.3875  0.1312  0.0534
 8730SOL     OW37822   2.867   0.629   5.308  0.8075  0.1036  0.3795
 8730SOL    HW137823   2.787   0.682   5.305  1.4279  1.0079  0.0861
 8730SOL    HW237824   2.917   0.663   5.235 -1.8148 -0.6752 -1.7863
 8731SOL     OW37825   3.342   4.437   7.871  0.2986  0.4076 -0.5020
 8731SOL    HW137826   3.305   4.381   7.802  2.1389 -0.1181 -1.0671
 8731SOL    HW237827   3.433   4.409   7.880  0.2640  0.5061  0.1507
 8732SOL     OW37828   1.280   1.905  16.403  0.1774  0.1293 -0.1754
 8732SOL    HW137829   1.187   1.920  16.386  0.4841  3.4620  1.0027
 8732SOL    HW237830   1.321   1.947  16.327  0.1320  2.6291  1.2006
 8733SOL     OW37831   1.672   1.768   8.036 -0.1480 -0.4915  0.1846
 8733SOL    HW137832   1.589   1.758   8.083  0.4991  2.1298  1.9413
 8733SOL    HW237833   1.665   1.863   8.021 -1.6312 -0.5664  0.3908
 8734SOL     OW37834   4.226   0.700   5.789  0.4585 -0.3843 -0.0723
 8734SOL    HW137835   4.242   0.651   5.708  0.1917 -3.1746  1.5464
 8734SOL    HW237836   4.164   0.766   5.758  0.0612 -0.5555  0.3571
 8735SOL     OW37837   3.890   0.784   0.445  0.0657  0.0343  0.6942
 8735SOL    HW137838   3.877   0.861   0.499  1.6228  2.3242 -2.2056
 8735SOL    HW237839   3.890   0.716   0.513 -3.7397 -0.7355 -0.0969
 8736SOL     OW37840   2.883   4.077  16.750 -0.5952 -0.0916 -0.3892
 8736SOL    HW137841   2.959   4.132  16.730 -0.1243 -0.8707 -0.7331
 8736SOL    HW237842   2.895   3.995  16.702  0.3896 -0.0616 -0.1859
 8737SOL     OW37843   2.094   3.141   9.879 -0.0099 -0.3628  0.4348
 8737SOL    HW137844   2.127   3.156   9.967  3.2512  4.2015 -1.6192
 8737SOL    HW237845   2.095   3.230   9.843 -0.4771  0.0797  1.5077
 8738SOL     OW37846   4.378   0.209   3.276  0.0191 -0.3784  0.4596
 8738SOL    HW137847   4.284   0.187   3.273 -0.5067  1.4902  3.3346
 8738SOL    HW237848   4.396   0.277   3.211  1.7715 -1.0736  0.2200
 8739SOL     OW37849   1.602   0.303  12.458 -0.5585  0.3767 -0.1475
 8739SOL    HW137850   1.548   0.378  12.482 -1.9735 -0.0087 -2.0863
 8739SOL    HW237851   1.603   0.243  12.533 -0.6729  1.6302  0.8369
 8740SOL     OW37852   4.164   2.306   2.756 -0.3258  0.0786  0.3329
 8740SOL    HW137853   4.094   2.265   2.808  0.7147 -2.2896 -0.1347
 8740SOL    HW237854   4.121   2.375   2.706 -1.4881 -2.0148 -1.5464
 8741SOL     OW37855   0.956   0.085   3.150 -0.4327  0.4140 -0.3559
 8741SOL    HW137856   0.908   0.146   3.206  0.2656  0.0859  0.5959
 8741SOL    HW237857   1.041   0.130   3.152  0.6215 -1.5938  0.4993
 8742SOL     OW37858   3.848   0.652   0.689  0.0413 -0.4919 -0.1315
 8742SOL    HW137859   3.794   0.722   0.727 -1.0978 -1.4447  0.0203
 8742SOL    HW237860   3.930   0.662   0.737  1.5297 -3.0201 -2.1642
 8743SOL     OW37861   3.421   0.106   2.790 -0.1369 -0.2967  0.6052
 8743SOL    HW137862   3.355   0.130   2.855  0.6717  1.0896  0.9120
 8743SOL    HW237863   3.441   0.188   2.744  0.5026 -0.0218  1.3743
 8744SOL     OW37864   0.296   3.335   6.890  0.8030  0.5573  0.0078
 8744SOL    HW137865   0.247   3.314   6.970  2.2213 -0.1171  0.7125
 8744SOL    HW237866   0.289   3.253   6.842 -0.8960  1.2829 -0.9334
 8745SOL     OW37867   1.029   2.700   5.037 -0.3150  0.1577 -0.0609
 8745SOL    HW137868   1.024   2.704   4.941 -2.7189 -1.0582 -0.0026
 8745SOL    HW237869   0.990   2.613   5.050  1.1460 -0.3373  1.0543
 8746SOL     OW37870   3.128   3.111   4.248 -0.0620 -0.2728  0.8099
 8746SOL    HW137871   3.221   3.126   4.232  0.1465 -0.5149  1.8223
 8746SOL    HW237872   3.101   3.158   4.169  0.6142 -2.0245 -0.4693
 8747SOL     OW37873   1.287   2.602   7.389 -0.0791  0.3625 -0.1126
 8747SOL    HW137874   1.256   2.672   7.331 -1.3815 -1.3868 -1.5551
 8747SOL    HW237875   1.352   2.561   7.333 -0.8975  1.6812 -2.0539
 8748SOL     OW37876   0.653   2.978   0.661 -0.0611 -0.4639 -0.9707
 8748SOL    HW137877   0.675   2.952   0.572  0.8516 -1.1091 -0.5526
 8748SOL    HW237878   0.580   2.921   0.685  0.1089 -0.3374 -0.1288
 8749SOL     OW37879   0.890   3.014   3.530  0.0863  0.1071 -0.4720
 8749SOL    HW137880   0.932   2.954   3.592  2.3164  1.5924 -0.5156
 8749SOL    HW237881   0.852   3.073   3.595  1.6320  1.8030 -1.1042
 8750SOL     OW37882   4.409   2.809   5.050 -0.1228  0.2792  0.2057
 8750SOL    HW137883   4.479   2.823   4.985 -0.4839  1.9953  0.1898
 8750SOL    HW237884   4.335   2.827   4.991  0.2188  0.1664 -0.2631
 8751SOL     OW37885   3.725   1.167   6.131  0.7974 -0.4735 -0.1359
 8751SOL    HW137886   3.696   1.224   6.201 -0.5682 -0.5110 -0.6648
 8751SOL    HW237887   3.640   1.129   6.108  0.9564 -1.0429  0.2326
 8752SOL     OW37888   0.935   0.629   2.826 -0.4629 -0.1938  0.5448
 8752SOL    HW137889   0.935   0.695   2.757 -0.3504  0.1563  0.8798
 8752SOL    HW237890   1.013   0.581   2.797  0.5185  1.6151  0.1657
 8753SOL     OW37891   0.125   2.778   2.913 -0.3775  0.1060 -0.2037
 8753SOL    HW137892   0.065   2.745   2.846  1.4348 -0.5883 -1.5145
 8753SOL    HW237893   0.208   2.737   2.887  0.5831  1.7244  0.2818
 8754SOL     OW37894   0.656   3.523   0.284 -0.2538 -0.0618 -0.2125
 8754SOL    HW137895   0.598   3.446   0.289  2.2782 -1.7894  2.5789
 8754SOL    HW237896   0.728   3.497   0.341  0.2822  1.3188 -0.2808
 8755SOL     OW37897   3.132   1.504  16.536  0.1753 -0.8208  0.5633
 8755SOL    HW137898   3.144   1.584  16.486 -0.1007 -0.2946  1.3383
 8755SOL    HW237899   3.090   1.544  16.612  1.7292 -1.2350  1.6542
 8756SOL     OW37900   0.957   2.707   5.675 -0.3174  0.4065  0.4228
 8756SOL    HW137901   0.967   2.787   5.727 -0.1434  0.9824 -0.4934
 8756SOL    HW237902   0.964   2.640   5.743 -2.0945 -1.6484 -1.4206
 8757SOL     OW37903   1.148   3.176   2.642 -0.0010 -0.2317  0.5024
 8757SOL    HW137904   1.070   3.227   2.663 -0.2490  1.0938 -3.6222
 8757SOL    HW237905   1.111   3.088   2.649 -0.6847 -0.1438 -2.4354
 8758SOL     OW37906   3.059   3.080   7.941  1.0840  0.0143  0.0384
 8758SOL    HW137907   3.086   2.988   7.952  1.1560 -0.0512 -0.7114
 8758SOL    HW237908   3.101   3.109   8.022 -0.0052  0.8742  0.2803
 8759SOL     OW37909   4.233   3.202   4.283 -0.2776  0.2704  0.3468
 8759SOL    HW137910   4.159   3.253   4.315 -0.6504 -0.7471  1.1146
 8759SOL    HW237911   4.186   3.140   4.227  0.7879 -1.6909  1.6300
 8760SOL     OW37912   3.080   3.811   3.050 -0.4523  0.0974 -0.1596
 8760SOL    HW137913   2.987   3.829   3.033 -0.8865 -1.9178  0.1394
 8760SOL    HW237914   3.071   3.758   3.130 -2.2949  1.4910  0.5639
 8761SOL     OW37915   4.635   2.804   4.831  0.6564 -0.1519 -0.0041
 8761SOL    HW137916   4.719   2.791   4.875  1.9216 -1.0852 -2.7196
 8761SOL    HW237917   4.621   2.714   4.801 -0.2762  0.7435 -2.2000
 8762SOL     OW37918   2.913   0.033   2.699 -0.0126 -0.4265 -0.7573
 8762SOL    HW137919   2.993   0.063   2.741 -0.9311  2.4280 -1.0464
 8762SOL    HW237920   2.851   0.015   2.770  0.1046 -1.6940 -0.9750
 8763SOL     OW37921   4.078   4.546   5.323 -0.3335  0.4316 -0.3995
 8763SOL    HW137922   4.052   4.463   5.282 -0.2008 -0.0304  0.4637
 8763SOL    HW237923   4.123   4.595   5.254  1.1315 -0.4552 -0.0723
 8764SOL     OW37924   2.500   4.678  13.346 -0.0707  0.1884 -0.0947
 8764SOL    HW137925   2.555   4.712  13.416  0.4143 -0.2056 -0.2875
 8764SOL    HW237926   2.536   4.591  13.330  0.7476  0.0452  2.4424
 8765SOL     OW37927   0.713   4.215  15.468 -0.1380 -0.0619 -0.5686
 8765SOL    HW137928   0.795   4.168  15.479  1.1774  1.8901 -2.0583
 8765SOL    HW237929   0.720   4.250  15.379  1.1995  2.1055  0.3967
 8766SOL     OW37930   2.604   4.345   8.663 -0.1551 -0.2321 -0.3969
 8766SOL    HW137931   2.544   4.301   8.724  0.0571 -2.2967 -1.6644
 8766SOL    HW237932   2.668   4.377   8.727 -1.2522 -1.2375  1.2097
 8767SOL     OW37933   0.932   3.932   6.753 -0.3230 -0.2366 -0.3548
 8767SOL    HW137934   0.970   4.009   6.797 -1.2384  0.3342 -0.5555
 8767SOL    HW237935   0.940   3.970   6.665  0.5423 -1.3416 -0.7619
 8768SOL     OW37936   3.320   3.669   8.351 -0.3527  0.3151 -0.2846
 8768SOL    HW137937   3.353   3.726   8.281  1.2834 -0.5094 -0.1928
 8768SOL    HW237938   3.365   3.704   8.427  1.3399  0.3760 -1.3132
 8769SOL     OW37939   3.583   2.531   1.387  0.0356 -0.9687 -0.4294
 8769SOL    HW137940   3.644   2.533   1.461  0.9251  3.5779 -1.2651
 8769SOL    HW237941   3.556   2.623   1.377 -0.0070 -0.9299  0.0280
 8770SOL     OW37942   3.957   4.042   3.829 -1.1424  0.4925  0.2772
 8770SOL    HW137943   3.988   3.978   3.766 -0.2231  1.6874 -0.4834
 8770SOL    HW237944   3.940   4.120   3.775 -1.2208 -0.2009 -0.6921
 8771SOL     OW37945   1.898   4.496   1.672 -0.0254 -0.0606  0.4969
 8771SOL    HW137946   1.967   4.561   1.681 -1.2218  1.1583  0.8503
 8771SOL    HW237947   1.840   4.552   1.724  0.7402 -0.4190  1.7519
 8772SOL     OW37948   2.541   0.831   9.122  0.3811  0.8822 -0.1339
 8772SOL    HW137949   2.466   0.853   9.178  0.0328  0.5333 -0.4622
 8772SOL    HW237950   2.598   0.894   9.165  0.3536  1.6546 -1.2242
 8773SOL     OW37951   3.445   1.488   3.603 -0.7303 -0.1154  0.1294
 8773SOL    HW137952   3.439   1.538   3.684  0.0761  0.6514 -0.2794
 8773SOL    HW237953   3.359   1.448   3.592 -1.0049  0.2558  0.9331
 8774SOL     OW37954   4.670   3.342  12.701  0.1104  0.3942 -0.2032
 8774SOL    HW137955   4.593   3.338  12.645 -1.1556  0.4338  1.5184
 8774SOL    HW237956   0.006   3.349  12.639  1.3314 -3.2087  0.8498
 8775SOL     OW37957   3.199   2.509  16.572 -0.5524  0.0116  0.0594
 8775SOL    HW137958   3.225   2.541  16.485 -0.2455 -0.1786  0.0794
 8775SOL    HW237959   3.108   2.499  16.547 -0.7815  0.7455  0.5943
 8776SOL     OW37960   3.985   3.306   4.006  0.3320 -0.6869 -0.2924
 8776SOL    HW137961   3.985   3.374   4.073 -0.8921  0.2960 -1.2992
 8776SOL    HW237962   4.003   3.360   3.928 -0.5157 -0.2759 -0.1988
 8777SOL     OW37963   4.231   0.745   8.786  0.3798 -0.0473 -0.0319
 8777SOL    HW137964   4.284   0.783   8.856 -0.4781 -1.5058  1.4154
 8777SOL    HW237965   4.290   0.752   8.711  0.7174 -0.2795  0.2109
 8778SOL     OW37966   2.241   3.620   7.104  0.5959 -0.2325 -0.9841
 8778SOL    HW137967   2.190   3.701   7.102  0.9947  0.0373 -0.3446
 8778SOL    HW237968   2.330   3.656   7.104  0.8276 -0.8165 -0.9380
 8779SOL     OW37969   2.402   4.632   7.038 -0.1723  0.0391 -0.0071
 8779SOL    HW137970   2.398   4.708   6.980  0.2353  0.6050  0.7000
 8779SOL    HW237971   2.490   4.639   7.075 -0.5900 -2.2269  1.3985
 8780SOL     OW37972   3.758   4.444   4.308 -0.0296  0.1879 -0.1142
 8780SOL    HW137973   3.815   4.421   4.381 -2.3365  0.4173  1.7728
 8780SOL    HW237974   3.720   4.520   4.352  0.3572 -0.1751  0.8529
 8781SOL     OW37975   1.989   2.383   3.255  0.2009  0.2342 -0.3993
 8781SOL    HW137976   2.075   2.415   3.226  1.2337 -1.7253  0.4633
 8781SOL    HW237977   1.940   2.387   3.173 -0.8335  1.9756  0.2894
 8782SOL     OW37978   1.315   3.364   0.271 -0.1201 -0.2984 -0.3864
 8782SOL    HW137979   1.225   3.336   0.290 -0.4123  1.2969  0.5537
 8782SOL    HW237980   1.358   3.341   0.353  0.7068  0.9714 -0.4677
 8783SOL     OW37981   4.135   1.691   5.628 -0.1201 -0.1359  0.0305
 8783SOL    HW137982   4.082   1.770   5.631 -0.5556 -0.4375  0.3645
 8783SOL    HW237983   4.122   1.657   5.717 -0.8452 -0.5980 -0.2570
 8784SOL     OW37984   0.200   2.380   1.204 -0.2103  0.2597 -0.2800
 8784SOL    HW137985   0.176   2.381   1.112  0.2046  0.1436 -0.3928
 8784SOL    HW237986   0.296   2.372   1.198 -0.3284 -1.6777  0.3947
 8785SOL     OW37987   0.680   1.205  11.182  0.2089 -0.1088  0.1195
 8785SOL    HW137988   0.662   1.299  11.175  0.2198 -0.0888  0.3665
 8785SOL    HW237989   0.636   1.177  11.262 -1.6408 -1.9145 -1.5181
 8786SOL     OW37990   3.260   3.420   4.988  0.3601  0.1532  0.4964
 8786SOL    HW137991   3.317   3.481   5.035  0.7598  0.0094  0.2040
 8786SOL    HW237992   3.245   3.480   4.916 -1.6239  1.8180  2.3016
 8787SOL     OW37993   0.001   2.018   5.210 -0.0345 -0.3236 -0.2077
 8787SOL    HW137994   0.036   2.106   5.221  0.4869 -0.5270 -0.2458
 8787SOL    HW237995   4.659   2.011   5.263  2.6720 -0.2118  3.8517
 8788SOL     OW37996   2.633   1.589   5.329 -0.3260 -0.2292  0.0084
 8788SOL    HW137997   2.705   1.639   5.291 -1.2109  0.1796 -1.1085
 8788SOL    HW237998   2.670   1.540   5.403  1.5960 -0.2048 -0.9472
 8789SOL     OW37999   4.320   2.173   9.800 -0.1223  0.0869  0.0223
 8789SOL    HW138000   4.322   2.266   9.824 -2.6953  0.4984 -1.3998
 8789SOL    HW238001   4.414   2.155   9.802 -0.2593 -0.6851 -0.6607
 8790SOL     OW38002   0.231   3.793   3.604 -0.1422 -0.0727 -0.8563
 8790SOL    HW138003   0.158   3.820   3.548  0.3440  1.7122 -0.6266
 8790SOL    HW238004   0.205   3.702   3.620  0.7451 -0.0176  0.8771
 8791SOL     OW38005   1.748   0.318   6.050  0.4611  0.8022 -0.0635
 8791SOL    HW138006   1.754   0.337   6.144  2.0570  1.5638 -0.3141
 8791SOL    HW238007   1.671   0.371   6.030 -0.4719 -1.2210 -1.8149
 8792SOL     OW38008   2.374   0.305   3.480  0.4677  0.6596  0.1158
 8792SOL    HW138009   2.411   0.220   3.457 -0.3903  0.6410 -1.2083
 8792SOL    HW238010   2.286   0.288   3.446  0.5480 -0.8403  0.6626
 8793SOL     OW38011   1.028   0.356   7.831  0.3612  0.1626  0.0402
 8793SOL    HW138012   1.092   0.298   7.872 -0.3431  0.4353  1.5452
 8793SOL    HW238013   1.017   0.328   7.740 -1.5170 -1.5203  0.7717
 8794SOL     OW38014   3.667   2.316   3.776  0.4564 -0.0478 -0.4088
 8794SOL    HW138015   3.645   2.338   3.867 -1.1327 -0.2229 -0.7404
 8794SOL    HW238016   3.584   2.282   3.743 -1.1256 -0.3902  3.8480
 8795SOL     OW38017   3.748   2.314  16.482  0.4132 -0.0074  0.1269
 8795SOL    HW138018   3.672   2.266  16.514  1.0709 -2.0494 -1.3902
 8795SOL    HW238019   3.707   2.353  16.404 -1.4162 -1.1315  0.5255
 8796SOL     OW38020   2.940   1.448   2.677 -0.1508  0.0152  0.3207
 8796SOL    HW138021   2.938   1.417   2.586  0.3981  1.0627 -0.0461
 8796SOL    HW238022   2.968   1.539   2.669 -0.4034  0.0839  0.1866
 8797SOL     OW38023   3.608   4.632  12.306 -0.1213  0.2132 -0.1834
 8797SOL    HW138024   3.571   4.614  12.220 -1.5539  1.0324  0.2609
 8797SOL    HW238025   3.666   4.558  12.319  1.4211  1.4695  0.1216
 8798SOL     OW38026   4.514   1.824  15.316  0.2568  0.8739  0.2882
 8798SOL    HW138027   4.562   1.898  15.278  1.6314  0.8892  2.0627
 8798SOL    HW238028   4.439   1.835  15.257 -0.9900  0.0885  1.7409
 8799SOL     OW38029   1.123   3.923   2.914  0.0544 -0.0599  0.1959
 8799SOL    HW138030   1.201   3.977   2.905  0.3076 -0.5778 -0.8268
 8799SOL    HW238031   1.147   3.876   2.994  1.7523 -0.4029 -0.5072
 8800SOL     OW38032   4.167   3.621   8.323 -0.4433  0.0923 -0.0783
 8800SOL    HW138033   4.195   3.536   8.356  1.7927  0.6091 -0.6340
 8800SOL    HW238034   4.183   3.670   8.404 -0.6610 -0.0620  0.0575
 8801SOL     OW38035   2.172   1.096   4.421  0.2140 -0.0913 -0.1655
 8801SOL    HW138036   2.199   1.025   4.362 -0.3707 -1.9062  1.7295
 8801SOL    HW238037   2.079   1.089   4.442  0.2374 -0.3798 -0.1495
 8802SOL     OW38038   1.206   3.691  16.483 -0.0968 -0.1037 -0.2470
 8802SOL    HW138039   1.261   3.613  16.493 -1.3461 -1.1290 -1.5575
 8802SOL    HW238040   1.127   3.671  16.533 -0.6806  4.3061  0.5785
 8803SOL     OW38041   2.083   0.855  15.958 -0.0075 -0.5591 -0.6887
 8803SOL    HW138042   2.033   0.920  16.007  1.4917 -0.0210  0.1605
 8803SOL    HW238043   2.124   0.921  15.903 -0.5710  0.1012 -0.3065
 8804SOL     OW38044   2.266   3.843  11.298 -0.9120  0.2669  0.2426
 8804SOL    HW138045   2.325   3.824  11.371 -0.8640 -0.9991 -0.1332
 8804SOL    HW238046   2.265   3.759  11.252 -1.1889 -1.0669  2.6553
 8805SOL     OW38047   0.059   2.700   6.505  0.3532  0.6184  0.1198
 8805SOL    HW138048   4.719   2.644   6.496  1.0876 -0.1765 -1.3039
 8805SOL    HW238049   0.124   2.636   6.535 -0.8572 -0.0333  1.3340
 8806SOL     OW38050   4.637   3.877   1.411 -0.2437 -0.3339  0.1373
 8806SOL    HW138051   4.555   3.835   1.386  0.4566 -1.3462 -0.4665
 8806SOL    HW238052   4.678   3.810   1.465  0.6623  0.1176  0.0220
 8807SOL     OW38053   0.158   4.186  11.547 -0.1001  0.3815 -0.3663
 8807SOL    HW138054   0.249   4.172  11.575 -1.0903 -1.9658  1.6297
 8807SOL    HW238055   0.122   4.098  11.554  2.0756 -0.4967 -0.1134
 8808SOL     OW38056   0.293   0.294   2.036 -0.0928  0.5768 -0.2008
 8808SOL    HW138057   0.351   0.239   1.983 -1.7796 -0.4758 -0.9195
 8808SOL    HW238058   0.251   0.230   2.093 -0.5714  2.2345  1.3145
 8809SOL     OW38059   0.129   3.973  14.060  0.3020  0.2554 -0.4680
 8809SOL    HW138060   0.182   3.929  14.126 -3.3980  0.4317  2.6711
 8809SOL    HW238061   0.048   3.960  14.110 -1.4714  3.3379 -2.5320
 8810SOL     OW38062   0.300   2.393   9.215  0.2419  0.0786  0.2484
 8810SOL    HW138063   0.214   2.354   9.228  0.3012 -0.3232 -0.5664
 8810SOL    HW238064   0.288   2.453   9.142 -1.1835  0.1339  0.5331
 8811SOL     OW38065   1.885   4.263   4.415  0.7928  0.1524 -0.0115
 8811SOL    HW138066   1.816   4.318   4.377  0.2669 -1.5329 -1.5071
 8811SOL    HW238067   1.840   4.184   4.445  1.2562 -0.8391 -1.9652
 8812SOL     OW38068   0.364   0.614   8.318 -0.7062  0.2314 -0.7507
 8812SOL    HW138069   0.382   0.630   8.410 -0.8172  2.0710 -1.0423
 8812SOL    HW238070   0.443   0.638   8.269 -0.3466 -1.6130 -1.0976
 8813SOL     OW38071   2.448   0.201   5.144  0.3477  0.2363 -0.2094
 8813SOL    HW138072   2.403   0.237   5.221  1.6513 -1.5663  1.3897
 8813SOL    HW238073   2.373   0.152   5.109  1.7040 -3.0062  1.4094
 8814SOL     OW38074   3.971   3.488   4.203  0.0467  0.2435 -0.0180
 8814SOL    HW138075   3.887   3.528   4.184 -0.0249 -0.8455 -2.0077
 8814SOL    HW238076   4.012   3.558   4.254  0.1564  1.8138 -2.2654
 8815SOL     OW38077   1.966   3.484   7.533  0.1740 -1.3308 -0.0645
 8815SOL    HW138078   2.014   3.560   7.564 -1.8787 -0.7167  1.6026
 8815SOL    HW238079   1.971   3.428   7.611 -1.6060 -0.2673  0.8091
 8816SOL     OW38080   2.935   4.301   8.944 -0.8609 -0.3658 -0.0653
 8816SOL    HW138081   3.016   4.339   8.978  0.6127 -2.7758 -0.8248
 8816SOL    HW238082   2.878   4.313   9.019  0.0335 -2.2831  0.9249
 8817SOL     OW38083   1.292   1.470   0.220 -0.3189 -0.0770 -0.4761
 8817SOL    HW138084   1.280   1.543   0.160  0.1684 -0.3549 -0.9122
 8817SOL    HW238085   1.243   1.396   0.184  0.6103 -1.3505  0.8376
 8818SOL     OW38086   3.173   4.193   9.898  0.6431  0.0228 -0.2067
 8818SOL    HW138087   3.171   4.289   9.897  1.0159  0.0267 -0.8776
 8818SOL    HW238088   3.125   4.166   9.820 -1.1569 -1.0610  1.2835
 8819SOL     OW38089   1.393   2.054   7.930  0.4010 -0.5784  0.3775
 8819SOL    HW138090   1.434   2.072   8.014 -1.5360  2.1418  0.7657
 8819SOL    HW238091   1.313   2.108   7.929 -0.9442 -2.5862 -0.6002
 8820SOL     OW38092   2.736   3.796   7.791  0.1957  0.7734 -0.1346
 8820SOL    HW138093   2.648   3.801   7.829 -0.4638 -0.3203 -1.5120
 8820SOL    HW238094   2.712   3.757   7.707  1.8490 -1.0852  0.2573
 8821SOL     OW38095   4.715   1.741   8.398 -0.4286 -1.2642  0.6176
 8821SOL    HW138096   0.010   1.828   8.378 -0.1930 -1.8270 -1.3971
 8821SOL    HW238097   0.030   1.701   8.329 -0.3129 -0.7857  0.4360
 8822SOL     OW38098   3.034   0.626   1.084 -0.0356 -0.1540 -0.3199
 8822SOL    HW138099   3.084   0.588   1.157  1.4891 -1.2371 -1.9434
 8822SOL    HW238100   2.949   0.582   1.096 -0.9083  1.3543 -1.0342
 8823SOL     OW38101   4.289   2.039   1.500 -0.6204  0.2109 -0.6759
 8823SOL    HW138102   4.380   2.030   1.470 -0.5576  0.3441 -0.5264
 8823SOL    HW238103   4.294   2.000   1.587  4.1009  0.3083 -0.8878
 8824SOL     OW38104   0.175   4.533   0.098 -0.0687 -0.9002 -0.6681
 8824SOL    HW138105   0.237   4.548   0.169  0.0812 -2.5407 -0.4653
 8824SOL    HW238106   0.166   4.439   0.109  2.4659 -0.9290  1.1449
 8825SOL     OW38107   1.215   1.262   2.892 -0.1250 -0.0557  0.2661
 8825SOL    HW138108   1.201   1.168   2.903 -2.3682  0.5909  2.9964
 8825SOL    HW238109   1.142   1.293   2.946 -1.4968  0.0767 -1.6501
 8826SOL     OW38110   3.803   3.793   5.012  0.0512  0.2231 -0.1871
 8826SOL    HW138111   3.722   3.843   5.021  0.9007  1.8362 -1.5955
 8826SOL    HW238112   3.790   3.717   5.068  0.2873 -0.8909 -1.6447
 8827SOL     OW38113   0.672   3.122   6.783  0.2264 -0.0845  0.0550
 8827SOL    HW138114   0.622   3.093   6.858  0.1742  1.6580  0.6802
 8827SOL    HW238115   0.621   3.080   6.713  1.1294  0.4377 -0.9276
 8828SOL     OW38116   2.253   3.156   7.033  0.3533  0.1255  0.3146
 8828SOL    HW138117   2.197   3.229   7.007  0.8616 -0.4196 -2.3121
 8828SOL    HW238118   2.189   3.085   7.042 -1.2527  1.2108 -2.5077
 8829SOL     OW38119   3.733   1.748   1.735  0.4307  0.4959 -0.1112
 8829SOL    HW138120   3.674   1.700   1.792  0.6432 -1.7926 -1.8632
 8829SOL    HW238121   3.725   1.839   1.764 -1.6531  0.8238 -1.7220
 8830SOL     OW38122   4.131   0.270   1.516  0.2980  0.8790  0.0830
 8830SOL    HW138123   4.205   0.213   1.499 -2.3320 -2.0427 -1.5940
 8830SOL    HW238124   4.167   0.352   1.550 -1.6973  0.8066  2.3960
 8831SOL     OW38125   1.754   3.880   9.992 -0.9009  0.2820  0.5234
 8831SOL    HW138126   1.814   3.936  10.042 -0.2088 -0.6995  0.7920
 8831SOL    HW238127   1.676   3.882  10.047 -1.7704  0.7468 -0.7234
 8832SOL     OW38128   0.359   0.955   2.371 -0.0595  0.5903  0.0126
 8832SOL    HW138129   0.316   0.943   2.456 -0.4877 -1.1848 -0.4528
 8832SOL    HW238130   0.303   1.020   2.328 -0.3105  1.8701  2.2398
 8833SOL     OW38131   1.364   2.645   0.018  0.3463  0.4638 -0.0257
 8833SOL    HW138132   1.390   2.729   0.057 -1.3849  1.8222 -1.7823
 8833SOL    HW238133   1.435   2.626  17.703  0.2720 -1.0195  0.3568
 8834SOL     OW38134   3.288   0.084   7.417 -0.4974  0.0207 -0.0818
 8834SOL    HW138135   3.298   0.030   7.496  1.0346  0.7484  0.2235
 8834SOL    HW238136   3.219   0.027   7.382  0.1939 -0.9567  0.1292
 8835SOL     OW38137   4.442   2.388   4.487 -0.1457  0.0213 -0.4182
 8835SOL    HW138138   4.411   2.472   4.452 -1.8442 -0.0287  0.9836
 8835SOL    HW238139   4.459   2.406   4.579 -1.2032 -0.4892 -0.1215
 8836SOL     OW38140   4.689   4.685   6.004  0.5503 -0.6113 -0.5339
 8836SOL    HW138141   4.715   4.596   6.031 -0.0969 -0.9551 -1.0648
 8836SOL    HW238142   4.608   4.672   5.957 -0.0116 -2.3399  0.8845
 8837SOL     OW38143   0.251   2.563   5.515  0.2448 -0.3373 -0.2677
 8837SOL    HW138144   0.261   2.654   5.543 -2.5466  0.5463 -2.1160
 8837SOL    HW238145   0.333   2.562   5.467  0.7142  2.2489  0.4523
 8838SOL     OW38146   2.202   0.988   7.640  0.2331  0.5652 -0.0420
 8838SOL    HW138147   2.175   1.079   7.653 -0.6552  0.2444  0.3408
 8838SOL    HW238148   2.274   0.979   7.703 -0.5859  2.8947  1.2516
 8839SOL     OW38149   2.219   3.048   3.054 -0.1942 -0.3178  0.1081
 8839SOL    HW138150   2.125   3.029   3.056 -0.5988  1.9023  2.7095
 8839SOL    HW238151   2.211   3.143   3.057 -3.2385 -0.4630 -3.0707
 8840SOL     OW38152   3.336   2.176   5.286  0.6063  0.1706 -0.1715
 8840SOL    HW138153   3.284   2.256   5.278 -0.0090 -0.6096 -3.7358
 8840SOL    HW238154   3.411   2.211   5.334 -0.7326  1.5539  0.9104
 8841SOL     OW38155   1.860   0.014   3.648  0.5067 -0.3260  0.2876
 8841SOL    HW138156   1.786   0.074   3.645  0.5896 -0.1291  2.1985
 8841SOL    HW238157   1.905   0.041   3.728  0.2605 -0.9906  0.6467
 8842SOL     OW38158   1.242   2.015   2.157 -0.3843  0.3644  0.1093
 8842SOL    HW138159   1.155   1.977   2.153 -0.0981 -0.5266  2.2416
 8842SOL    HW238160   1.275   1.986   2.072 -2.5826 -2.0091  0.0622
 8843SOL     OW38161   2.675   2.378  17.046 -0.4037  0.3426  0.4135
 8843SOL    HW138162   2.723   2.343  17.121  0.4448  2.6067  0.9398
 8843SOL    HW238163   2.608   2.311  17.033 -1.2693  1.1005  0.9421
 8844SOL     OW38164   4.482   2.604   4.666  0.2401 -0.7384  0.2534
 8844SOL    HW138165   4.436   2.583   4.747  1.0419  2.5524  1.5518
 8844SOL    HW238166   4.419   2.664   4.626  1.1479 -0.5465 -0.9213
 8845SOL     OW38167   1.598   4.294  14.054  0.4648 -0.2399  0.0578
 8845SOL    HW138168   1.548   4.341  14.121  0.5533 -2.1145  1.4736
 8845SOL    HW238169   1.547   4.326  13.980  0.5648 -1.4712 -0.5461
 8846SOL     OW38170   0.190   2.026   4.110 -0.3163 -0.2959  1.1802
 8846SOL    HW138171   0.114   1.994   4.061 -2.0277  4.0004  0.9939
 8846SOL    HW238172   0.171   2.001   4.200  0.0582 -2.3236  0.6846
 8847SOL     OW38173   3.942   3.931   8.156  0.8569 -0.3820 -0.4518
 8847SOL    HW138174   4.019   3.874   8.152 -0.9783 -3.0012  1.6841
 8847SOL    HW238175   3.894   3.878   8.219  2.6370  2.2115  3.0694
 8848SOL     OW38176   2.962   0.342  12.445  0.4070 -0.3430  0.1658
 8848SOL    HW138177   3.045   0.384  12.424 -0.2713 -0.0926 -1.9748
 8848SOL    HW238178   2.918   0.395  12.511 -1.1649 -0.0270 -1.1442
 8849SOL     OW38179   0.764   1.637   8.030 -0.5013  0.3253 -0.1518
 8849SOL    HW138180   0.835   1.577   8.053 -0.5675 -0.4893 -2.0872
 8849SOL    HW238181   0.802   1.722   8.054  0.2565 -0.6805  2.2461
 8850SOL     OW38182   4.333   1.295   6.421 -0.0908  0.2219  0.1226
 8850SOL    HW138183   4.350   1.369   6.479 -1.4673 -0.6323  1.5913
 8850SOL    HW238184   4.325   1.223   6.483  0.1660  0.6965  0.7020
 8851SOL     OW38185   4.248   1.401   7.110  0.2857 -0.1266 -0.5671
 8851SOL    HW138186   4.301   1.409   7.189 -2.1337  1.2950  0.9100
 8851SOL    HW238187   4.259   1.315   7.070  0.7985  0.0764 -0.8618
 8852SOL     OW38188   2.947   4.665   1.161  0.0880 -0.2854 -0.0632
 8852SOL    HW138189   2.891   4.606   1.111 -2.6848  0.8416  1.7548
 8852SOL    HW238190   2.951   4.618   1.245  1.9988  0.5212  0.3056
 8853SOL     OW38191   3.360   2.034  14.857  0.3292 -0.0898 -0.5157
 8853SOL    HW138192   3.301   2.106  14.837  1.2043  0.4292 -1.2311
 8853SOL    HW238193   3.298   1.979  14.905 -1.2950  1.6164 -0.6590
 8854SOL     OW38194   0.343   0.187   3.385 -0.2852 -0.3208 -0.9173
 8854SOL    HW138195   0.433   0.156   3.398 -0.0957  1.1086  1.1167
 8854SOL    HW238196   0.342   0.251   3.456  1.9147  0.0668 -1.2563
 8855SOL     OW38197   4.192   3.396   7.644  0.3808 -0.0107 -0.5096
 8855SOL    HW138198   4.125   3.409   7.711 -0.9212 -1.5383 -1.5402
 8855SOL    HW238199   4.188   3.481   7.600  1.8848  0.7514  0.8013
 8856SOL     OW38200   2.942   4.086  10.253 -0.3599  0.6105  0.7190
 8856SOL    HW138201   3.019   4.075  10.197 -2.4107 -1.0922 -1.7488
 8856SOL    HW238202   2.978   4.051  10.335 -0.3197 -3.3966 -1.0048
 8857SOL     OW38203   1.519   1.407  11.262  0.3046 -0.3618 -0.2877
 8857SOL    HW138204   1.566   1.456  11.329 -0.2745 -0.8268  0.4467
 8857SOL    HW238205   1.589   1.347  11.236  0.7208  1.0065 -2.3736
 8858SOL     OW38206   2.327   0.731   3.098  0.8932  0.5929  0.0767
 8858SOL    HW138207   2.374   0.814   3.088  1.0259  0.6621  1.2498
 8858SOL    HW238208   2.295   0.736   3.188  0.4608 -1.0302  0.0242
 8859SOL     OW38209   1.507   2.822   7.467  0.4015  0.3065 -0.0437
 8859SOL    HW138210   1.480   2.856   7.552 -1.3832  0.5277 -0.6966
 8859SOL    HW238211   1.439   2.855   7.408  0.0469 -1.2671 -0.4951
 8860SOL     OW38212   4.125   3.740  15.128 -0.8208  0.1826 -0.1086
 8860SOL    HW138213   4.192   3.724  15.061  2.2226  3.0296  2.2807
 8860SOL    HW238214   4.070   3.662  15.126 -0.3112 -0.1930  0.8830
 8861SOL     OW38215   2.630   3.336   0.931  0.4173  0.8709  0.3436
 8861SOL    HW138216   2.576   3.315   1.007  1.1752 -1.4312  0.2313
 8861SOL    HW238217   2.716   3.347   0.970 -0.3297  3.4181  1.2728
 8862SOL     OW38218   4.602   4.036   2.658  0.4341  0.2290 -0.0637
 8862SOL    HW138219   4.510   4.059   2.655  0.5934  0.7698 -0.8261
 8862SOL    HW238220   4.604   3.951   2.701 -0.3877  0.1899 -0.1042
 8863SOL     OW38221   3.305   2.538   3.458 -0.0698  0.3589 -0.1037
 8863SOL    HW138222   3.399   2.542   3.441  0.0490 -0.3500  0.3951
 8863SOL    HW238223   3.274   2.623   3.426 -0.4476  0.0834 -0.4579
 8864SOL     OW38224   1.541   4.677   6.473  0.3316 -0.0320  0.0547
 8864SOL    HW138225   1.500   4.715   6.395  2.7334 -0.4142 -1.3784
 8864SOL    HW238226   1.628   4.651   6.442  0.9330  2.2058 -0.0952
 8865SOL     OW38227   2.005   1.081   1.585  0.4863  0.4061 -0.1785
 8865SOL    HW138228   1.972   1.155   1.533  3.0843  1.2770 -0.5635
 8865SOL    HW238229   2.004   1.012   1.518  0.5246 -0.8020  1.0711
 8866SOL     OW38230   3.414   2.064  13.989 -0.4287  0.3350  0.0565
 8866SOL    HW138231   3.353   2.079  14.062 -1.7915 -0.7810 -0.8589
 8866SOL    HW238232   3.383   2.133  13.931  0.0119  0.0203 -0.5431
 8867SOL     OW38233   0.755   4.152   9.314  0.5788  0.2812  0.6578
 8867SOL    HW138234   0.686   4.117   9.371 -0.8209  1.5905 -0.2355
 8867SOL    HW238235   0.810   4.074   9.304  2.0393  1.2600  1.1758
 8868SOL     OW38236   4.291   1.893   2.552  0.5781 -0.0097  0.0287
 8868SOL    HW138237   4.331   1.979   2.563 -2.1356  1.4672 -1.7882
 8868SOL    HW238238   4.258   1.906   2.463  0.5773  0.4530  0.0969
 8869SOL     OW38239   4.010   3.005   7.684  0.1101 -0.1364 -0.0776
 8869SOL    HW138240   4.022   3.011   7.779  1.6870 -1.8815 -0.1655
 8869SOL    HW238241   3.994   3.096   7.661 -1.6655  0.0459  1.8578
 8870SOL     OW38242   4.477   0.734   8.621 -0.1201 -0.2496 -0.1592
 8870SOL    HW138243   4.548   0.745   8.684  0.7926 -0.1130 -1.2059
 8870SOL    HW238244   4.501   0.812   8.571  1.0547  0.7742  1.9830
 8871SOL     OW38245   2.879   3.404   7.641  0.1607 -0.0886 -0.0987
 8871SOL    HW138246   2.915   3.493   7.639 -0.9202  0.3630 -0.1088
 8871SOL    HW238247   2.956   3.352   7.622 -0.5612 -1.3205  0.3512
 8872SOL     OW38248   1.536   3.652   1.491 -0.2845  0.1694  0.2873
 8872SOL    HW138249   1.613   3.642   1.546  0.0465  0.1862 -0.1810
 8872SOL    HW238250   1.476   3.694   1.553  0.1735 -0.6702  1.2985
 8873SOL     OW38251   0.702   1.712   7.160  0.4177 -0.6676  0.2633
 8873SOL    HW138252   0.697   1.617   7.164  2.2956 -0.6772  2.4263
 8873SOL    HW238253   0.700   1.727   7.065  0.0373 -0.5851  0.2834
 8874SOL     OW38254   4.373   3.829   7.131  0.2154  0.4014  0.0080
 8874SOL    HW138255   4.373   3.905   7.072  1.9242  0.9838  0.7531
 8874SOL    HW238256   4.437   3.849   7.200  0.1843 -1.8603  0.7023
 8875SOL     OW38257   3.376   3.674   0.489  0.6150 -0.5785  0.1491
 8875SOL    HW138258   3.413   3.591   0.520  0.0432 -0.8780  0.0448
 8875SOL    HW238259   3.284   3.648   0.479  1.0044 -1.9554  0.1405
 8876SOL     OW38260   4.364   0.194   5.035 -0.0078 -0.8282 -0.0722
 8876SOL    HW138261   4.319   0.176   4.952 -3.0565 -1.2291  1.6848
 8876SOL    HW238262   4.441   0.241   5.001 -0.5714  0.9556  1.1793
 8877SOL     OW38263   0.140   3.078   0.994  0.0857  0.5832  0.3396
 8877SOL    HW138264   0.087   3.155   1.010 -0.1420  0.6160 -0.5425
 8877SOL    HW238265   0.208   3.091   1.061 -0.0426 -0.4597  0.6696
 8878SOL     OW38266   0.473   0.167   2.678  0.0128  0.1261 -0.4130
 8878SOL    HW138267   0.547   0.215   2.641  0.6205 -0.8491 -0.4855
 8878SOL    HW238268   0.485   0.165   2.773 -0.3797  0.6792 -0.3525
 8879SOL     OW38269   1.460   3.706   8.078  0.0277 -0.7404  0.0561
 8879SOL    HW138270   1.475   3.750   8.162 -0.1144  1.6510 -1.1585
 8879SOL    HW238271   1.366   3.690   8.085 -0.0459  0.9081  2.6303
 8880SOL     OW38272   3.138   1.664   9.125 -0.0272  0.0638  0.0680
 8880SOL    HW138273   3.119   1.758   9.124  1.8740  0.4370 -0.7414
 8880SOL    HW238274   3.191   1.651   9.204  0.3901 -1.6264 -0.4947
 8881SOL     OW38275   0.297   3.150   1.953  0.5129 -0.6928  0.3244
 8881SOL    HW138276   0.250   3.200   1.885 -1.5025 -0.8378  1.6049
 8881SOL    HW238277   0.327   3.217   2.015  1.5447  0.0001 -0.9232
 8882SOL     OW38278   0.223   1.086   6.241  0.0058 -0.0632  0.1228
 8882SOL    HW138279   0.144   1.057   6.287 -2.2223  2.5089 -2.0896
 8882SOL    HW238280   0.198   1.065   6.151  2.9815 -0.7387 -0.5371
 8883SOL     OW38281   0.647   3.564  10.034 -0.3159 -0.3496 -0.0989
 8883SOL    HW138282   0.557   3.542  10.009 -0.1990  0.4322 -1.2293
 8883SOL    HW238283   0.686   3.478  10.046 -0.7149 -0.6542 -0.9338
 8884SOL     OW38284   2.772   0.684   1.377 -0.4652  0.0362 -0.5921
 8884SOL    HW138285   2.821   0.756   1.336  0.2355  0.3018  0.6807
 8884SOL    HW238286   2.717   0.727   1.443  1.6801 -2.3795  2.7418
 8885SOL     OW38287   4.349   4.385   4.340 -0.2966  0.5686 -0.6900
 8885SOL    HW138288   4.425   4.332   4.363 -0.4166  0.4657 -0.5315
 8885SOL    HW238289   4.301   4.360   4.419  1.2358 -0.7946 -0.1919
 8886SOL     OW38290   2.590   0.701   7.992 -0.3468  0.0449  0.1502
 8886SOL    HW138291   2.647   0.696   7.915  0.3421 -1.3505  0.7616
 8886SOL    HW238292   2.616   0.631   8.052 -0.0606  0.0730  0.0615
 8887SOL     OW38293   0.839   2.223  17.582 -0.5952  0.2656 -0.5578
 8887SOL    HW138294   0.932   2.228  17.558  0.0138  0.3492  1.8178
 8887SOL    HW238295   0.797   2.236  17.497  0.2159  1.8983 -0.7112
 8888SOL     OW38296   3.631   1.047   9.165 -0.2930 -0.0545  0.1540
 8888SOL    HW138297   3.680   1.075   9.242  1.0977 -0.7146 -0.4766
 8888SOL    HW238298   3.542   1.064   9.196 -0.5125 -1.4730  0.3331
 8889SOL     OW38299   3.600   2.342   0.175  0.7134  0.1025  0.5122
 8889SOL    HW138300   3.678   2.360   0.121  0.7374 -2.3002 -0.2369
 8889SOL    HW238301   3.577   2.255   0.142  0.8903  0.6559 -1.0942
 8890SOL     OW38302   3.134   4.527   8.987 -0.3716 -0.2285 -0.1422
 8890SOL    HW138303   3.057   4.557   9.035  1.6989  2.8616  1.3013
 8890SOL    HW238304   3.204   4.530   9.052 -0.4433 -0.5449 -0.0513
 8891SOL     OW38305   0.959   4.437   7.237 -0.6179  0.3390 -0.2248
 8891SOL    HW138306   0.893   4.507   7.241 -0.5801  0.3908 -0.4820
 8891SOL    HW238307   0.903   4.359   7.240 -1.2186  0.8145  0.9947
 8892SOL     OW38308   0.884   3.945   3.285 -0.0722  0.3824 -0.0724
 8892SOL    HW138309   0.937   4.024   3.288  2.4289 -1.4034  2.4588
 8892SOL    HW238310   0.801   3.981   3.253  0.0994 -0.3259 -1.2763
 8893SOL     OW38311   0.693   0.709   8.910 -0.3179  0.2099 -0.0373
 8893SOL    HW138312   0.680   0.804   8.918  0.7642  0.4029 -0.6745
 8893SOL    HW238313   0.605   0.673   8.900 -0.0950  0.0919 -1.5598
 8894SOL     OW38314   3.534   1.253   6.988  0.0560  0.2231  0.3153
 8894SOL    HW138315   3.558   1.245   6.895 -0.2601  1.0796  0.1635
 8894SOL    HW238316   3.535   1.161   7.014 -0.2936  0.1857  0.2001
 8895SOL     OW38317   3.046   2.945   6.457  0.4790  0.2832  0.3109
 8895SOL    HW138318   2.968   2.902   6.493  0.0756 -0.1190 -1.0641
 8895SOL    HW238319   3.015   2.985   6.376 -0.0018 -0.0028  0.3557
 8896SOL     OW38320   2.150   3.555   4.922  0.5234  0.0472  0.3950
 8896SOL    HW138321   2.153   3.497   4.845 -0.6017 -0.9525  1.1088
 8896SOL    HW238322   2.145   3.642   4.882 -1.2203  0.0274  0.5973
 8897SOL     OW38323   1.399   0.976   3.122 -0.1471 -0.2562  0.0366
 8897SOL    HW138324   1.310   0.969   3.086 -0.9368  0.8935  1.7595
 8897SOL    HW238325   1.380   0.957   3.213 -0.5241  2.9785  0.6416
 8898SOL     OW38326   3.219   1.646   3.319 -0.3987  0.3954 -0.0474
 8898SOL    HW138327   3.254   1.643   3.230  0.7696 -1.1738  0.4595
 8898SOL    HW238328   3.292   1.688   3.366  0.2705  0.1146 -0.8363
 8899SOL     OW38329   2.305   2.776  11.982 -0.3539  0.1402 -0.2330
 8899SOL    HW138330   2.271   2.826  12.055  1.8136  0.6752  0.3991
 8899SOL    HW238331   2.317   2.851  11.924  0.9435  1.1649  1.3787
 8900SOL     OW38332   3.697   4.655   4.116  0.2079 -0.2312  0.3239
 8900SOL    HW138333   3.651   4.736   4.140  0.3643  0.1540 -0.6748
 8900SOL    HW238334   3.707   4.617   4.204  1.3731 -1.2378 -0.2438
 8901SOL     OW38335   0.761   2.655  10.128  0.4109 -0.0443  0.4260
 8901SOL    HW138336   0.718   2.721  10.182  0.5814  0.8789 -0.5708
 8901SOL    HW238337   0.769   2.579  10.185 -0.4464  0.3177  1.0143
 8902SOL     OW38338   3.805   2.867   4.567  0.0849 -0.1338 -0.2658
 8902SOL    HW138339   3.822   2.779   4.536  0.5831 -0.5247  1.1017
 8902SOL    HW238340   3.729   2.844   4.621 -0.1284 -1.3166 -1.0835
 8903SOL     OW38341   2.047   2.286   7.944  0.2633 -0.0615  0.1450
 8903SOL    HW138342   2.012   2.271   7.856  0.2372  0.2639  0.0992
 8903SOL    HW238343   2.101   2.210   7.965 -1.4341 -1.3259 -0.0788
 8904SOL     OW38344   0.208   1.618   9.126  0.2643  0.0080  0.0993
 8904SOL    HW138345   0.200   1.577   9.040  0.2095  0.1812  0.0225
 8904SOL    HW238346   0.300   1.601   9.146 -0.0043 -1.2199  0.2744
 8905SOL     OW38347   2.278   3.691   3.425  0.4224  0.4944  0.5502
 8905SOL    HW138348   2.237   3.641   3.495  0.6266 -1.7415 -0.9192
 8905SOL    HW238349   2.199   3.728   3.385  1.0267 -0.1105 -1.2317
 8906SOL     OW38350   2.706   3.583  13.981  0.5330  0.6785  0.0667
 8906SOL    HW138351   2.732   3.520  14.049  3.4839  3.1835  1.2436
 8906SOL    HW238352   2.671   3.529  13.910  0.9663 -0.2462  0.5559
 8907SOL     OW38353   2.630   4.067  10.866 -0.0639  0.6836  0.2189
 8907SOL    HW138354   2.574   4.024  10.930  0.3360 -0.3323 -0.1060
 8907SOL    HW238355   2.682   4.121  10.925 -1.5710 -0.8400  2.9158
 8908SOL     OW38356   0.581   2.503   6.455 -0.0690  0.5723  0.0779
 8908SOL    HW138357   0.627   2.552   6.387  2.5230 -1.6141  0.2768
 8908SOL    HW238358   0.515   2.465   6.397  0.3649  0.3612 -0.2766
 8909SOL     OW38359   3.243   1.727   5.645 -0.9119 -0.2297 -0.3839
 8909SOL    HW138360   3.244   1.696   5.554  0.5757  0.9110 -0.7395
 8909SOL    HW238361   3.276   1.816   5.633  1.1138 -0.9070  0.1314
 8910SOL     OW38362   0.785   3.782   2.635  0.5483 -0.2271 -1.0723
 8910SOL    HW138363   0.737   3.766   2.716  1.0584  2.5713 -0.2088
 8910SOL    HW238364   0.873   3.769   2.669  0.3985 -0.1992 -0.6757
 8911SOL     OW38365   2.687   0.837   8.805 -0.9091 -0.0499  0.1760
 8911SOL    HW138366   2.657   0.772   8.742 -1.6287 -0.8660  1.3473
 8911SOL    HW238367   2.631   0.810   8.878 -0.3527 -0.8296  0.3283
 8912SOL     OW38368   0.999   0.109   1.680  0.0839 -0.3611  0.3364
 8912SOL    HW138369   1.048   0.064   1.748  0.4911 -0.0643  0.2379
 8912SOL    HW238370   0.952   0.037   1.638  0.7772  0.1001 -1.2538
 8913SOL     OW38371   1.267   3.439  13.318 -0.9089  0.1624  0.4820
 8913SOL    HW138372   1.301   3.392  13.394 -0.0324 -0.4900 -0.3115
 8913SOL    HW238373   1.349   3.452  13.272 -0.0329 -0.5920  1.8430
 8914SOL     OW38374   0.196   1.882   2.096  0.2178 -0.3487  0.7998
 8914SOL    HW138375   0.135   1.947   2.059  0.4255  0.4336  1.8201
 8914SOL    HW238376   0.236   1.939   2.162  1.4738 -0.7628  0.3870
 8915SOL     OW38377   4.198   4.339  13.174  0.1676 -0.1604 -0.0074
 8915SOL    HW138378   4.130   4.406  13.162 -1.6871 -2.2276 -0.9460
 8915SOL    HW238379   4.243   4.364  13.255 -0.2790  0.0523  0.1792
 8916SOL     OW38380   0.316   3.073   1.560 -0.3521  0.0444 -0.5433
 8916SOL    HW138381   0.268   3.150   1.592  0.1972  0.3960 -0.5656
 8916SOL    HW238382   0.242   3.037   1.511 -1.6635  2.5293 -0.3887
 8917SOL     OW38383   3.383   0.604   5.161 -0.0545 -0.0212 -0.0936
 8917SOL    HW138384   3.437   0.683   5.168 -4.7079  3.0347  1.7139
 8917SOL    HW238385   3.329   0.606   5.082 -0.0539 -0.7578 -0.1127
 8918SOL     OW38386   2.673   0.474   2.170 -0.0701 -0.1793  0.0053
 8918SOL    HW138387   2.630   0.535   2.230 -1.4598 -0.5636 -0.6004
 8918SOL    HW238388   2.629   0.395   2.198 -1.2838 -0.1297 -1.7375
 8919SOL     OW38389   0.489   1.948   7.080 -0.8313 -0.2302 -0.1355
 8919SOL    HW138390   0.456   1.985   6.998  0.1746 -0.1254 -0.4984
 8919SOL    HW238391   0.418   1.962   7.142 -1.0916  0.6894 -0.6464
 8920SOL     OW38392   0.657   0.820   4.660 -0.6071 -0.0118 -0.0917
 8920SOL    HW138393   0.694   0.873   4.590 -0.4280  2.4365  1.8325
 8920SOL    HW238394   0.639   0.886   4.727  1.7652  0.6452 -0.1094
 8921SOL     OW38395   1.175   4.671   2.168  0.0905 -0.4809  0.0809
 8921SOL    HW138396   1.115   4.612   2.123 -0.6138 -0.0604  0.4580
 8921SOL    HW238397   1.117   4.730   2.216 -1.1573 -3.0071  1.7270
 8922SOL     OW38398   3.224   3.413  11.431  0.2331 -0.2720 -0.3394
 8922SOL    HW138399   3.181   3.331  11.453 -0.2410 -0.3305 -1.4832
 8922SOL    HW238400   3.148   3.467  11.410  0.7356  0.7955  0.6014
 8923SOL     OW38401   3.328   1.403   0.606  0.4968 -0.2748  0.1240
 8923SOL    HW138402   3.318   1.460   0.683  0.5253  2.5963 -1.9670
 8923SOL    HW238403   3.346   1.467   0.537 -2.4153 -2.6447 -2.7433
 8924SOL     OW38404   3.091   1.089   3.994  0.3498 -0.1982  0.3509
 8924SOL    HW138405   3.146   1.081   4.072  0.7755 -1.2585 -0.0567
 8924SOL    HW238406   3.166   1.094   3.935  1.2998 -3.7721  1.2321
 8925SOL     OW38407   4.657   4.581   5.512  0.2007  0.4388 -0.3030
 8925SOL    HW138408   4.712   4.629   5.449  0.5631  0.6122  0.1437
 8925SOL    HW238409   4.649   4.656   5.571 -0.3479  1.0436 -1.1595
 8926SOL     OW38410   0.440   2.394   4.278  0.0693 -0.6086  0.1751
 8926SOL    HW138411   0.412   2.482   4.253 -0.3787 -0.2965  1.7400
 8926SOL    HW238412   0.358   2.346   4.269 -0.0465 -0.1881 -0.9130
 8927SOL     OW38413   1.745   1.825   8.702 -0.1986 -0.2776 -0.1682
 8927SOL    HW138414   1.828   1.856   8.738 -0.7793 -0.7060  1.5563
 8927SOL    HW238415   1.728   1.754   8.765 -1.1427  0.9657  0.9975
 8928SOL     OW38416   0.814   0.497  16.647 -0.0261 -0.2513  0.3139
 8928SOL    HW138417   0.768   0.510  16.564  0.2666  1.4432  0.4210
 8928SOL    HW238418   0.899   0.541  16.634  0.9749 -1.6716  2.0688
 8929SOL     OW38419   2.645   2.420   3.374 -0.4220  0.4483 -0.7639
 8929SOL    HW138420   2.556   2.389   3.358  0.1399 -1.5758 -0.0366
 8929SOL    HW238421   2.698   2.344   3.349 -2.3572 -0.6042 -1.6398
 8930SOL     OW38422   2.208   3.828   7.910 -0.4489 -0.2552 -1.0580
 8930SOL    HW138423   2.130   3.772   7.914  0.6904 -1.7415  0.2775
 8930SOL    HW238424   2.182   3.887   7.839  1.1741  0.2884 -1.2012
 8931SOL     OW38425   0.909   2.773   8.204 -0.1428 -0.1392 -0.5011
 8931SOL    HW138426   0.874   2.838   8.144  1.2906  0.4873 -0.6731
 8931SOL    HW238427   0.844   2.703   8.204 -0.4226  0.1300  2.0059
 8932SOL     OW38428   4.703   3.565   1.212 -0.3089 -0.3213  0.0326
 8932SOL    HW138429   0.021   3.576   1.289 -1.5111 -0.2339  0.8879
 8932SOL    HW238430   4.612   3.579   1.240 -0.4432  0.2385 -0.6717
 8933SOL     OW38431   0.142   1.476   0.686 -0.3686  0.0562 -0.2492
 8933SOL    HW138432   0.098   1.397   0.654  0.3607 -0.5687  0.2900
 8933SOL    HW238433   0.145   1.521   0.602 -0.1253 -1.0790 -0.8441
 8934SOL     OW38434   1.488   3.905  11.073 -0.0339  0.0991 -0.5806
 8934SOL    HW138435   1.514   3.996  11.065 -0.6308  0.5226  2.2122
 8934SOL    HW238436   1.420   3.910  11.140 -0.2494  1.7512 -0.9410
 8935SOL     OW38437   1.050   2.426  16.110  0.0599  0.4138  0.1991
 8935SOL    HW138438   1.117   2.379  16.159 -0.9219 -0.5770  0.5794
 8935SOL    HW238439   0.973   2.382  16.144  0.4413  0.7262  1.4602
 8936SOL     OW38440   4.619   1.248   8.310  0.5190  0.6111  0.3278
 8936SOL    HW138441   4.579   1.162   8.302  2.5469 -0.2155 -0.8137
 8936SOL    HW238442   4.636   1.267   8.218 -0.7207 -1.1412 -0.2522
 8937SOL     OW38443   3.446   1.469  14.254  0.3301  0.0480  0.3643
 8937SOL    HW138444   3.503   1.545  14.240 -0.1319  0.6220  1.6510
 8937SOL    HW238445   3.416   1.455  14.164  1.5674  5.2044 -0.8900
 8938SOL     OW38446   1.952   3.707   6.143 -0.0137  0.5088  0.1359
 8938SOL    HW138447   2.023   3.644   6.130  1.2808  1.6576  1.6008
 8938SOL    HW238448   1.901   3.702   6.062  0.3526 -0.2325 -0.0488
 8939SOL     OW38449   3.666   4.422   5.594 -0.2998  0.1560  0.2046
 8939SOL    HW138450   3.745   4.440   5.646  0.1458 -0.4465 -0.2633
 8939SOL    HW238451   3.608   4.490   5.628  1.3102  1.5992  0.0950
 8940SOL     OW38452   4.396   0.031  16.478  0.6204 -0.3354  0.0836
 8940SOL    HW138453   4.411   0.084  16.400  1.2064 -1.7808 -0.7893
 8940SOL    HW238454   4.301   0.035  16.487  0.6432 -1.9600  1.2090
 8941SOL     OW38455   4.266   3.635  15.379  0.1798  0.0603 -0.3721
 8941SOL    HW138456   4.323   3.583  15.323 -1.0305 -0.3596 -1.2116
 8941SOL    HW238457   4.204   3.672  15.316 -2.1027 -0.0171  1.8419
 8942SOL     OW38458   1.451   1.628   9.325  0.0517 -0.3626 -0.4268
 8942SOL    HW138459   1.447   1.556   9.263  1.7976 -1.6332  0.9254
 8942SOL    HW238460   1.542   1.654   9.309 -0.8005  1.8743 -1.6361
 8943SOL     OW38461   1.201   4.447  16.800  0.7562 -0.0596 -0.0627
 8943SOL    HW138462   1.257   4.377  16.768 -0.3378  0.5270 -3.2260
 8943SOL    HW238463   1.231   4.519  16.745  1.1452  0.9534  1.4783
 8944SOL     OW38464   1.619   0.943   1.938  0.5853 -0.4513 -0.1296
 8944SOL    HW138465   1.558   0.900   1.998  1.2775 -1.8869 -0.4592
 8944SOL    HW238466   1.549   0.989   1.891  0.6637 -1.7154 -1.5096
 8945SOL     OW38467   3.533   1.101   5.290 -0.4968 -0.2217 -0.2999
 8945SOL    HW138468   3.603   1.144   5.338 -0.9717  0.8781 -0.5955
 8945SOL    HW238469   3.527   1.020   5.342 -3.0310  0.1866  0.0564
 8946SOL     OW38470   2.224   2.096  14.632 -0.0644  0.1510 -0.2846
 8946SOL    HW138471   2.302   2.055  14.594  0.0260 -0.8933  1.0396
 8946SOL    HW238472   2.239   2.186  14.604  0.4540 -0.0487 -0.6475
 8947SOL     OW38473   4.381   1.672   5.899 -0.2753  0.3088 -0.4017
 8947SOL    HW138474   4.324   1.612   5.851  0.9532 -1.5740  0.4858
 8947SOL    HW238475   4.359   1.761   5.872  0.8132  0.5858 -0.3649
 8948SOL     OW38476   3.085   2.795  17.608 -0.3522  0.1808  0.0692
 8948SOL    HW138477   3.174   2.830  17.609 -1.4852  3.0225  0.7209
 8948SOL    HW238478   3.058   2.772  17.519  2.0662  2.2476 -1.2103
 8949SOL     OW38479   4.273   1.052   2.150 -0.0674 -0.1210  0.2084
 8949SOL    HW138480   4.213   0.995   2.103  3.1183 -2.0288 -1.5195
 8949SOL    HW238481   4.215   1.087   2.218 -0.2799  0.4751 -0.2800
 8950SOL     OW38482   4.645   3.146   3.988 -0.0642  0.2174 -0.0089
 8950SOL    HW138483   4.591   3.178   4.060  1.1064  1.8893  0.1150
 8950SOL    HW238484   4.599   3.178   3.910  1.3644  2.4220  0.0517
 8951SOL     OW38485   3.284   1.329   9.109 -0.3332 -0.1834  0.0672
 8951SOL    HW138486   3.189   1.344   9.116 -0.3510  0.0697 -0.7536
 8951SOL    HW238487   3.283   1.233   9.112  1.5444 -0.1491  1.4768
 8952SOL     OW38488   1.763   4.540  13.966  0.4247 -0.5685  0.1364
 8952SOL    HW138489   1.697   4.507  13.905 -0.9023  1.8406  0.2612
 8952SOL    HW238490   1.710   4.575  14.038 -1.9201 -0.4063 -1.6508
 8953SOL     OW38491   3.304   2.093   9.229  0.1866  0.1570  0.0225
 8953SOL    HW138492   3.310   2.188   9.239 -0.5723  0.0890  1.0980
 8953SOL    HW238493   3.382   2.079   9.176  0.5664  0.7948  0.4184
 8954SOL     OW38494   4.331   2.274   6.238 -0.3147  0.4609 -0.1326
 8954SOL    HW138495   4.357   2.185   6.215 -1.3529  0.2439 -0.4922
 8954SOL    HW238496   4.372   2.289   6.323 -1.6228 -1.2686  0.8013
 8955SOL     OW38497   1.592   4.384   9.715 -0.4356 -0.0282  0.7439
 8955SOL    HW138498   1.650   4.388   9.791 -1.7406 -1.0678  1.7760
 8955SOL    HW238499   1.550   4.298   9.717  0.1337 -0.3733 -1.6577
 8956SOL     OW38500   0.266   3.729   3.153  1.3747 -0.3920 -0.0154
 8956SOL    HW138501   0.308   3.677   3.084  0.8390 -3.6848  2.1688
 8956SOL    HW238502   0.232   3.798   3.097  1.0316 -0.9575 -0.5007
 8957SOL     OW38503   0.630   3.573   5.843  0.3043 -0.2170  0.3175
 8957SOL    HW138504   0.724   3.590   5.836  0.4928 -1.1237  0.6626
 8957SOL    HW238505   0.625   3.513   5.917 -0.8693 -1.9578 -1.1638
 8958SOL     OW38506   0.102   4.610  13.378  0.1185 -0.1788 -0.4578
 8958SOL    HW138507   0.106   4.535  13.319  1.4514  0.4222 -1.1388
 8958SOL    HW238508   0.124   4.562  13.458  0.0182 -1.6137 -1.2944
 8959SOL     OW38509   4.474   0.450   7.715  0.2058 -0.3095  0.6698
 8959SOL    HW138510   4.480   0.542   7.739 -0.5275  0.6444 -2.7883
 8959SOL    HW238511   4.388   0.441   7.674  1.4892  0.4341 -2.1307
 8960SOL     OW38512   1.442   2.170   1.976 -0.0539  0.1244  0.0129
 8960SOL    HW138513   1.457   2.085   2.019  0.1697  0.0657 -0.1815
 8960SOL    HW238514   1.425   2.231   2.048 -1.3801  0.9604 -1.0203
 8961SOL     OW38515   2.750   1.409  11.191 -0.1247 -0.0427 -0.3898
 8961SOL    HW138516   2.796   1.492  11.204  1.4919 -0.7287 -1.7199
 8961SOL    HW238517   2.813   1.342  11.219 -0.0662  0.2381  0.1458
 8962SOL     OW38518   2.663   1.536   7.118  0.7564  0.6272  0.3262
 8962SOL    HW138519   2.740   1.538   7.061 -0.5524 -0.9447 -1.5069
 8962SOL    HW238520   2.691   1.488   7.195 -1.8428 -0.2947  0.6977
 8963SOL     OW38521   1.261   0.602   4.419 -0.3187  0.0283  0.1270
 8963SOL    HW138522   1.338   0.603   4.363 -1.2393 -0.2186 -1.1488
 8963SOL    HW238523   1.292   0.582   4.507 -0.6154 -2.2854 -0.2806
 8964SOL     OW38524   2.095   3.479  12.889 -0.0704 -0.0126  0.6079
 8964SOL    HW138525   2.043   3.498  12.968  0.3001  0.6295  0.7016
 8964SOL    HW238526   2.175   3.455  12.936  0.5320  0.2290 -0.3002
 8965SOL     OW38527   1.021   2.110   6.536  0.6037  0.0685 -0.0596
 8965SOL    HW138528   1.023   2.204   6.549  0.9898  0.1520 -0.7384
 8965SOL    HW238529   1.000   2.100   6.444  0.1102  0.4284  0.0196
 8966SOL     OW38530   3.938   0.911   1.031 -0.3899 -0.3851 -0.4785
 8966SOL    HW138531   3.898   0.903   1.117 -2.6358  3.0732 -1.1670
 8966SOL    HW238532   3.973   0.823   1.019 -0.6917 -0.7766  1.5719
 8967SOL     OW38533   0.537   1.617   8.236 -0.4861 -0.1401  0.0095
 8967SOL    HW138534   0.553   1.522   8.240 -1.4605 -0.2683  1.0299
 8967SOL    HW238535   0.528   1.629   8.142  1.2606 -1.0416 -0.2855
 8968SOL     OW38536   0.190   2.981   4.827  0.2455  0.1718 -0.0256
 8968SOL    HW138537   0.127   2.987   4.900 -0.0332  1.4540 -0.3665
 8968SOL    HW238538   0.170   2.899   4.782  3.4953 -1.2246  1.0807
 8969SOL     OW38539   4.303   4.496   1.894  0.1705  0.0885  0.3498
 8969SOL    HW138540   4.292   4.401   1.905 -1.2812  0.2858  0.5201
 8969SOL    HW238541   4.393   4.498   1.860  0.4204  2.3046  1.1525
 8970SOL     OW38542   2.879   2.567   3.356 -0.4772 -0.0694  0.1952
 8970SOL    HW138543   2.793   2.529   3.373  0.0804 -0.7801  1.4081
 8970SOL    HW238544   2.917   2.553   3.443  1.1466  0.0669 -0.4953
 8971SOL     OW38545   1.077   1.599   1.345  0.1625  0.2742  0.3555
 8971SOL    HW138546   1.083   1.687   1.310  1.0708  1.1900  2.8279
 8971SOL    HW238547   0.982   1.589   1.344  0.2995 -1.1067  0.8900
 8972SOL     OW38548   1.620   0.915   6.459 -0.0333  0.6452  0.2020
 8972SOL    HW138549   1.544   0.857   6.454  1.5135 -1.2102 -1.3271
 8972SOL    HW238550   1.674   0.845   6.494 -0.4964 -0.5195 -1.4586
 8973SOL     OW38551   3.104   2.741   6.973  0.2488  0.6498  0.1016
 8973SOL    HW138552   3.094   2.808   6.906 -0.4215  0.9355  0.4872
 8973SOL    HW238553   3.041   2.766   7.042 -0.3473 -0.3449 -0.0734
 8974SOL     OW38554   3.742   4.551   7.810 -0.2488 -0.5630  0.0684
 8974SOL    HW138555   3.736   4.604   7.889  0.4736 -2.4717  1.4101
 8974SOL    HW238556   3.784   4.475   7.850 -0.6450 -0.6411  0.3296
 8975SOL     OW38557   0.732   4.346   6.944  0.5932  0.4057  1.1050
 8975SOL    HW138558   0.665   4.302   6.995 -0.0161 -0.9929 -0.9386
 8975SOL    HW238559   0.708   4.437   6.964 -2.1918 -0.0103 -0.4330
 8976SOL     OW38560   0.394   4.284   6.190 -0.3165 -0.2635  0.2380
 8976SOL    HW138561   0.479   4.271   6.147  0.0744 -1.2046  1.3097
 8976SOL    HW238562   0.330   4.302   6.122  0.2419 -1.2629 -0.5374
 8977SOL     OW38563   0.111   4.359   4.995  0.0731 -0.4921 -0.0939
 8977SOL    HW138564   0.099   4.437   5.049 -1.0944 -1.3923  0.9476
 8977SOL    HW238565   0.088   4.289   5.057 -1.2649 -1.0250 -1.1742
 8978SOL     OW38566   1.931   4.005   4.070 -0.2157  0.0855  0.4890
 8978SOL    HW138567   1.909   3.914   4.091  1.0407 -0.8094 -2.0677
 8978SOL    HW238568   1.845   4.039   4.094 -0.5097  1.1458 -2.0151
 8979SOL     OW38569   0.795   3.427   4.107  0.2273 -0.3854 -0.2177
 8979SOL    HW138570   0.833   3.420   4.194 -2.2784 -1.1224  0.8002
 8979SOL    HW238571   0.761   3.516   4.104 -0.7458 -0.7445  0.2839
 8980SOL     OW38572   0.208   1.135   8.251 -0.3103  0.3748  0.5602
 8980SOL    HW138573   0.275   1.078   8.213  0.8978  0.1251  3.0654
 8980SOL    HW238574   0.134   1.118   8.191  1.3495 -1.3662 -1.0105
 8981SOL     OW38575   0.462   0.801   8.694 -0.2684  0.2535  0.0684
 8981SOL    HW138576   0.489   0.844   8.613  1.0808 -1.0073 -0.1404
 8981SOL    HW238577   0.431   0.876   8.746  2.6373  1.6112 -0.1649
 8982SOL     OW38578   4.249   2.312   3.803  0.5486  0.1284 -0.1423
 8982SOL    HW138579   4.178   2.250   3.788  0.8382 -0.0913 -0.6044
 8982SOL    HW238580   4.309   2.284   3.734 -0.2641 -0.5677 -0.5646
 8983SOL     OW38581   0.532   2.057   0.351 -0.0833  0.6566 -0.1604
 8983SOL    HW138582   0.616   2.020   0.378 -1.1141 -1.0672  0.7328
 8983SOL    HW238583   0.537   2.079   0.258  0.1311  0.4089 -0.2081
 8984SOL     OW38584   1.038   1.550   5.850 -0.1419 -0.7394 -0.1136
 8984SOL    HW138585   0.967   1.565   5.912  0.3602  0.0046  0.2785
 8984SOL    HW238586   1.027   1.625   5.792 -0.6527  0.2520  1.2567
 8985SOL     OW38587   2.964   0.333   7.622  0.2341 -0.0770 -0.1371
 8985SOL    HW138588   2.927   0.247   7.602 -0.6569  1.0042 -3.0738
 8985SOL    HW238589   2.938   0.333   7.715 -0.6823 -4.1359 -0.3585
 8986SOL     OW38590   1.245   2.346  16.289 -0.3221  0.2996 -0.9501
 8986SOL    HW138591   1.318   2.399  16.319  0.0221 -0.2941 -0.7410
 8986SOL    HW238592   1.283   2.268  16.249  1.7976 -0.4073  2.4681
 8987SOL     OW38593   2.350   0.251   5.416  0.2005  0.2466  0.3716
 8987SOL    HW138594   2.344   0.321   5.481 -1.3256 -0.5357  1.0723
 8987SOL    HW238595   2.266   0.259   5.370  0.7287  2.0478 -0.3002
 8988SOL     OW38596   0.471   1.206   1.663 -1.0626  0.4656 -0.3483
 8988SOL    HW138597   0.450   1.116   1.637  0.3789  0.1600 -0.5006
 8988SOL    HW238598   0.395   1.220   1.718  0.5530  0.2914  1.9336
 8989SOL     OW38599   1.158   0.935   6.570  0.1054  0.8705  0.2841
 8989SOL    HW138600   1.090   0.936   6.638 -1.2016  0.3098 -0.9945
 8989SOL    HW238601   1.168   1.027   6.546 -3.0947  0.5490 -2.3712
 8990SOL     OW38602   1.677   0.022   2.315 -0.1612 -0.3952 -0.2006
 8990SOL    HW138603   1.727   0.102   2.301  0.0363 -0.1939  1.7500
 8990SOL    HW238604   1.602   0.031   2.256 -1.4215  2.0031  1.8157
 8991SOL     OW38605   1.255   4.461   1.756 -0.5265 -0.5450 -0.2506
 8991SOL    HW138606   1.213   4.458   1.842 -1.1561 -1.2493 -0.5835
 8991SOL    HW238607   1.292   4.374   1.742 -0.9601 -0.5428 -1.4522
 8992SOL     OW38608   2.841   0.428  17.248 -0.7480  1.0039 -0.2623
 8992SOL    HW138609   2.910   0.413  17.313 -1.9177  0.4182  0.8259
 8992SOL    HW238610   2.879   0.413  17.162  1.1904  0.8483  0.6113
 8993SOL     OW38611   4.537   3.666   3.657 -0.2316 -0.3629  0.4597
 8993SOL    HW138612   4.513   3.582   3.618  2.0474 -1.1010  0.7049
 8993SOL    HW238613   4.463   3.710   3.614  0.0096  0.1606  0.5848
 8994SOL     OW38614   3.252   1.212  15.407 -0.1800 -0.3030  0.2831
 8994SOL    HW138615   3.179   1.265  15.374  1.2316  1.4879  0.0381
 8994SOL    HW238616   3.279   1.166  15.328 -1.0889 -0.1525 -0.1179
 8995SOL     OW38617   2.214   2.187   3.276  0.2878  0.4790  0.3835
 8995SOL    HW138618   2.272   2.122   3.236  1.3686  1.0837  0.9532
 8995SOL    HW238619   2.125   2.159   3.256  0.4894 -0.5405  0.9259
 8996SOL     OW38620   3.642   1.087  15.508 -0.6413 -0.3722  0.3764
 8996SOL    HW138621   3.553   1.064  15.535 -0.6648 -1.6382 -0.7770
 8996SOL    HW238622   3.682   1.026  15.570 -1.8737  0.5642  2.0831
 8997SOL     OW38623   0.345   1.829   1.202  0.3282 -0.0395  0.0120
 8997SOL    HW138624   0.333   1.923   1.191 -1.5113 -0.4275 -1.4828
 8997SOL    HW238625   0.251   1.808   1.196 -0.1134  2.1953 -1.0515
 8998SOL     OW38626   0.637   1.855   7.392 -0.1828  0.7957  0.2989
 8998SOL    HW138627   0.731   1.841   7.390 -0.4980 -1.3298  0.7934
 8998SOL    HW238628   0.621   1.832   7.301 -0.1827  0.4535  0.3851
 8999SOL     OW38629   2.697   3.474   0.641 -0.0767  0.6254  0.5152
 8999SOL    HW138630   2.646   3.442   0.715  2.7267 -1.2577  1.6531
 8999SOL    HW238631   2.784   3.437   0.654  0.0393  0.9687  0.7352
 9000SOL     OW38632   3.115   2.939   4.988 -0.1387  0.1452  0.3274
 9000SOL    HW138633   3.108   2.943   4.893 -1.1056 -1.3083  0.3389
 9000SOL    HW238634   3.178   3.009   5.009  1.0000 -0.6652 -0.3659
 9001SOL     OW38635   0.660   3.929   5.009  0.2049 -0.3336  0.1808
 9001SOL    HW138636   0.594   3.969   4.952 -0.6695 -1.9348  0.0760
 9001SOL    HW238637   0.721   3.905   4.939  1.5264  2.3218  0.4329
 9002SOL     OW38638   3.843   4.082  15.907 -0.5948 -0.4440 -0.1320
 9002SOL    HW138639   3.767   4.026  15.886  0.5514 -1.6272 -1.1052
 9002SOL    HW238640   3.809   4.116  15.990 -1.9724  0.9132 -1.2485
 9003SOL     OW38641   1.554   2.175  17.473  0.5108 -0.1079 -0.2964
 9003SOL    HW138642   1.517   2.250  17.521 -0.3818  0.3880 -1.7776
 9003SOL    HW238643   1.649   2.182  17.484  0.9325 -0.6759 -3.6063
 9004SOL     OW38644   0.961   0.977   7.340 -0.4107  0.1651 -0.1979
 9004SOL    HW138645   0.953   0.995   7.433  1.6175 -2.2352  0.4269
 9004SOL    HW238646   0.887   0.918   7.331 -0.8170  0.2737  2.5671
 9005SOL     OW38647   3.548   0.407   9.371  0.0414  0.2968 -0.0057
 9005SOL    HW138648   3.607   0.431   9.443  0.1822  0.3171 -0.1271
 9005SOL    HW238649   3.461   0.429   9.404 -0.5515  0.1409 -1.4875
 9006SOL     OW38650   3.864   3.066   7.039 -0.0469 -0.2393  0.3772
 9006SOL    HW138651   3.880   3.161   7.043  0.3897 -0.2812 -0.2194
 9006SOL    HW238652   3.867   3.041   7.131  0.7326  0.7863  0.6354
 9007SOL     OW38653   1.476   4.502   4.571 -0.1976  0.4969  0.2374
 9007SOL    HW138654   1.406   4.552   4.530  0.4929 -0.3696 -1.9676
 9007SOL    HW238655   1.435   4.470   4.651 -0.4161  1.1890  0.4032
 9008SOL     OW38656   2.743   0.413   3.014 -0.2001 -0.6283 -0.1240
 9008SOL    HW138657   2.676   0.445   3.074 -0.3074 -0.3926 -0.3698
 9008SOL    HW238658   2.736   0.318   3.008  1.3414 -0.7718  0.5121
 9009SOL     OW38659   3.430   4.657   5.467 -0.3161  0.4899 -0.7570
 9009SOL    HW138660   3.456   4.686   5.554  0.4632  1.5049 -1.3194
 9009SOL    HW238661   3.507   4.623   5.420  1.2680  0.6997  1.6797
 9010SOL     OW38662   3.013   2.167   8.038 -0.5685  0.2192 -0.6726
 9010SOL    HW138663   3.027   2.097   7.974  1.1592 -1.8070  1.8827
 9010SOL    HW238664   2.921   2.151   8.060 -0.5950 -1.6660 -2.1388
 9011SOL     OW38665   3.998   0.956   2.935  0.2275  0.5968 -0.3164
 9011SOL    HW138666   4.040   1.042   2.933 -0.1500  0.7597 -1.3673
 9011SOL    HW238667   3.918   0.970   2.883 -0.1502  0.6321  0.2718
 9012SOL     OW38668   0.887   2.312   2.519 -0.2939  0.4883  0.1270
 9012SOL    HW138669   0.923   2.282   2.602  0.5140 -2.0823 -1.1494
 9012SOL    HW238670   0.798   2.340   2.542 -0.5564  0.2703 -0.6116
 9013SOL     OW38671   2.566   2.870  12.309  0.1789 -0.3401 -0.2101
 9013SOL    HW138672   2.530   2.790  12.271 -0.8160 -0.5692  1.2159
 9013SOL    HW238673   2.496   2.885  12.372 -0.7519 -3.3351 -0.5381
 9014SOL     OW38674   4.083   3.205   3.101  0.5708  0.2404  0.3752
 9014SOL    HW138675   4.151   3.249   3.151 -2.1917  4.8606  0.0879
 9014SOL    HW238676   4.010   3.265   3.114 -0.2970 -0.4210 -1.3728
 9015SOL     OW38677   4.409   0.766   0.468 -0.0812  0.2482  0.0267
 9015SOL    HW138678   4.353   0.766   0.545 -1.1220 -2.0280 -0.7305
 9015SOL    HW238679   4.424   0.859   0.447  0.0135  0.2509  0.1070
 9016SOL     OW38680   2.419   0.968   7.831 -0.6590 -0.6379 -0.3245
 9016SOL    HW138681   2.470   0.912   7.773 -1.8306 -0.1266 -1.8597
 9016SOL    HW238682   2.464   1.048   7.802 -2.1035  0.6813  1.0299
 9017SOL     OW38683   4.381   2.890   4.659 -0.4307  0.0506 -0.1724
 9017SOL    HW138684   4.327   2.960   4.624 -0.8429  0.3678  1.0894
 9017SOL    HW238685   4.470   2.925   4.657 -0.8984  1.1872 -0.8759
 9018SOL     OW38686   2.138   0.910   6.414  0.0749  0.1695 -0.0802
 9018SOL    HW138687   2.060   0.908   6.358 -0.3473  2.1879  0.4470
 9018SOL    HW238688   2.132   0.832   6.468  0.1798 -0.5401 -1.0911
 9019SOL     OW38689   1.148   1.370   4.250 -0.0628  0.3243  0.1884
 9019SOL    HW138690   1.197   1.294   4.217 -2.2881 -1.3914  0.8454
 9019SOL    HW238691   1.206   1.379   4.326 -0.0284  2.2717 -0.0793
 9020SOL     OW38692   0.877   2.520   5.245 -0.3812 -0.2787  0.3833
 9020SOL    HW138693   0.859   2.573   5.322  0.7460 -1.1771  1.2550
 9020SOL    HW238694   0.895   2.434   5.282 -0.8813 -0.0549  1.1410
 9021SOL     OW38695   4.294   4.036  14.852 -0.2302  0.5887 -0.1367
 9021SOL    HW138696   4.310   3.945  14.826 -2.1400 -0.1180  1.1820
 9021SOL    HW238697   4.364   4.077  14.801 -1.3923  0.0174 -2.2348
 9022SOL     OW38698   1.345   2.719   1.175 -0.2751 -0.4286 -0.9080
 9022SOL    HW138699   1.330   2.779   1.248  2.3281 -1.5072  0.5419
 9022SOL    HW238700   1.254   2.702   1.149 -0.0976  1.6142 -2.8359
 9023SOL     OW38701   0.599   0.158   3.403 -0.1153 -0.7741 -0.2927
 9023SOL    HW138702   0.634   0.235   3.447 -2.4624 -0.1174  0.4031
 9023SOL    HW238703   0.654   0.147   3.326  0.2968 -0.5203 -0.0326
 9024SOL     OW38704   4.425   4.722   2.936  0.2848 -0.0553 -0.0902
 9024SOL    HW138705   4.469   4.671   2.868  0.2919  0.1768 -0.2632
 9024SOL    HW238706   4.405   0.068   2.891  0.3958 -0.0573 -0.1439
 9025SOL     OW38707   3.969   4.496  11.621  0.1883  0.1412  0.9753
 9025SOL    HW138708   4.025   4.430  11.582  0.8425 -0.0676  2.2589
 9025SOL    HW238709   3.886   4.456  11.598  1.4477 -0.0099 -3.2895
 9026SOL     OW38710   3.011   1.596  15.859  0.3875 -0.7133  0.3903
 9026SOL    HW138711   3.072   1.537  15.815  1.4687  1.9006 -1.6421
 9026SOL    HW238712   3.042   1.677  15.818 -0.1730 -0.9536 -0.5082
 9027SOL     OW38713   2.956   4.017   3.324  0.1459 -0.5859 -0.4067
 9027SOL    HW138714   2.927   3.952   3.388  1.9235 -0.0170  0.9657
 9027SOL    HW238715   3.038   3.980   3.290  0.5156  1.4977 -1.7875
 9028SOL     OW38716   1.391   2.478   8.944  0.0778  0.1153  0.1282
 9028SOL    HW138717   1.348   2.509   9.024  0.6543  1.4736 -0.0883
 9028SOL    HW238718   1.333   2.405   8.921 -0.1613  0.0219  1.0625
 9029SOL     OW38719   0.712   0.486   5.073 -0.1088 -0.2140 -0.2106
 9029SOL    HW138720   0.670   0.534   5.001  0.4442  0.2104 -0.2505
 9029SOL    HW238721   0.639   0.448   5.123  0.3021  2.5096  2.4562
 9030SOL     OW38722   4.578   3.452   7.166 -0.7386  0.2414  0.5515
 9030SOL    HW138723   4.578   3.528   7.225 -1.6622  2.1527 -1.8802
 9030SOL    HW238724   4.605   3.479   7.078 -1.5606 -1.2901 -0.1734
 9031SOL     OW38725   2.917   3.643  14.810  0.4416 -0.1501  0.3120
 9031SOL    HW138726   2.851   3.598  14.862  0.5200 -0.1090  0.4481
 9031SOL    HW238727   2.997   3.593  14.824  1.5317  2.1843  2.4737
 9032SOL     OW38728   2.384   4.466   3.833  0.2280  0.3495  0.0150
 9032SOL    HW138729   2.350   4.466   3.744 -2.4960  1.1954  1.0382
 9032SOL    HW238730   2.412   4.375   3.844  0.4684  0.3469 -0.6564
 9033SOL     OW38731   0.974   2.368   5.514 -0.2778 -0.2455  0.2023
 9033SOL    HW138732   0.992   2.309   5.441  0.7690  0.3685 -0.0422
 9033SOL    HW238733   0.996   2.314   5.590  0.6777 -0.1676 -0.0204
 9034SOL     OW38734   4.196   3.910   9.987  0.2314  0.3324 -0.5087
 9034SOL    HW138735   4.210   3.975   9.918  2.0761  1.2460  0.7441
 9034SOL    HW238736   4.283   3.873   9.996  1.0348  2.6691  1.3467
 9035SOL     OW38737   3.202   3.185   6.488  0.1907 -0.0473 -0.1103
 9035SOL    HW138738   3.183   3.094   6.463 -1.5502  0.0251  0.9402
 9035SOL    HW238739   3.198   3.228   6.403 -0.1661  2.3790  1.1506
 9036SOL     OW38740   3.696   3.811   6.461 -0.1892 -0.3503 -0.1942
 9036SOL    HW138741   3.616   3.759   6.475 -0.1266 -0.1058  1.0931
 9036SOL    HW238742   3.729   3.751   6.395 -1.1939 -1.4907  0.3315
 9037SOL     OW38743   4.447   3.626   8.707  0.0062 -0.1166  0.3192
 9037SOL    HW138744   4.418   3.686   8.776  2.8856 -0.6610  2.0279
 9037SOL    HW238745   4.385   3.649   8.638 -0.6506  2.3752  1.7344
 9038SOL     OW38746   1.812   4.529  16.527  0.4444  0.1106 -0.1406
 9038SOL    HW138747   1.782   4.617  16.548 -0.2989  0.2729 -1.9598
 9038SOL    HW238748   1.858   4.552  16.446 -1.4659  0.3589 -1.1477
 9039SOL     OW38749   2.887   2.605   9.568  0.1302 -0.4624  0.6009
 9039SOL    HW138750   2.948   2.564   9.508 -1.1029  0.7454 -1.4883
 9039SOL    HW238751   2.807   2.568   9.529 -2.3695  2.0835  3.2538
 9040SOL     OW38752   1.175   1.261   7.271 -0.3213 -0.5114 -0.4809
 9040SOL    HW138753   1.140   1.324   7.334 -0.9097 -1.5048  0.1961
 9040SOL    HW238754   1.141   1.291   7.187 -0.9229 -0.2432 -0.1440
 9041SOL     OW38755   3.900   3.787   1.102 -0.3330  0.6615 -0.2789
 9041SOL    HW138756   3.967   3.722   1.083 -1.9251 -1.3111  0.9225
 9041SOL    HW238757   3.870   3.820   1.017 -0.6348 -0.3584 -0.5579
 9042SOL     OW38758   3.821   2.200  12.995  0.3871 -0.2586 -0.5361
 9042SOL    HW138759   3.748   2.153  13.035 -0.1524  0.7303 -0.3639
 9042SOL    HW238760   3.768   2.264  12.948  0.4467  0.6544  0.6489
 9043SOL     OW38761   0.585   2.433  13.256 -0.0318 -0.6328  0.1210
 9043SOL    HW138762   0.664   2.394  13.219 -0.5932 -0.0945 -1.6393
 9043SOL    HW238763   0.519   2.379  13.212  0.9652 -2.2964  0.6580
 9044SOL     OW38764   0.510   3.889   0.225 -0.2044  0.1790  0.7200
 9044SOL    HW138765   0.518   3.984   0.219 -2.5840  0.4502  1.6585
 9044SOL    HW238766   0.475   3.863   0.139 -0.8913  0.4019  0.9324
 9045SOL     OW38767   2.018   1.443   3.071  0.7716  0.1557 -0.1658
 9045SOL    HW138768   2.106   1.452   3.109  0.0877  2.1505  0.9414
 9045SOL    HW238769   2.030   1.371   3.010  0.6209 -1.6789  1.9533
 9046SOL     OW38770   1.867   3.723   7.071  0.0329  0.4129  0.1446
 9046SOL    HW138771   1.865   3.642   7.121 -1.7760  0.5805  0.3401
 9046SOL    HW238772   1.776   3.731   7.043  1.4613  0.9971 -4.4278
 9047SOL     OW38773   0.331   2.643   4.532  0.3515 -0.2142  0.2540
 9047SOL    HW138774   0.309   2.627   4.440 -0.3890  3.5168 -0.2236
 9047SOL    HW238775   0.347   2.737   4.527  2.5440 -0.5794  0.3570
 9048SOL     OW38776   2.170   4.398   5.965 -0.8648 -0.3043  0.5534
 9048SOL    HW138777   2.075   4.395   5.953 -0.6740  1.6433 -1.4460
 9048SOL    HW238778   2.171   4.453   6.044 -1.5523  0.7760 -0.1924
 9049SOL     OW38779   3.461   1.870   6.393 -0.7039  1.0039  0.3123
 9049SOL    HW138780   3.371   1.892   6.369 -0.2521  1.5840 -0.8332
 9049SOL    HW238781   3.500   1.957   6.401 -0.7024  1.2597 -2.7381
 9050SOL     OW38782   1.882   4.353   3.449  0.4525 -0.3772 -0.5461
 9050SOL    HW138783   1.810   4.299   3.481  0.0624 -0.2740 -1.2512
 9050SOL    HW238784   1.874   4.342   3.354 -0.0714 -1.2270 -0.4040
 9051SOL     OW38785   0.850   1.732   2.801  0.3039 -0.8348 -0.2139
 9051SOL    HW138786   0.840   1.791   2.876  1.9982  0.7355 -1.2308
 9051SOL    HW238787   0.771   1.678   2.811 -0.1434 -0.4717 -1.6956
 9052SOL     OW38788   3.365   0.190   7.842 -0.0774 -0.5301  0.3953
 9052SOL    HW138789   3.427   0.162   7.775  0.6560 -1.0326  1.2879
 9052SOL    HW238790   3.307   0.115   7.852  0.0252 -0.8308 -1.3655
 9053SOL     OW38791   2.550   4.177   0.626 -0.4709  0.3927 -0.0402
 9053SOL    HW138792   2.527   4.086   0.644  1.1470 -0.3315 -1.5897
 9053SOL    HW238793   2.495   4.196   0.551 -0.2802  2.8542  0.4384
 9054SOL     OW38794   4.301   2.754   3.021 -0.1938  0.2605  0.1123
 9054SOL    HW138795   4.245   2.826   3.047  0.2144 -0.7213  3.6981
 9054SOL    HW238796   4.244   2.698   2.967  1.5690 -1.6868  0.2705
 9055SOL     OW38797   0.154   2.189  10.832  0.3691 -0.5000  0.0251
 9055SOL    HW138798   0.200   2.247  10.891 -1.0947  1.4410 -0.7470
 9055SOL    HW238799   0.092   2.156  10.898  1.0866 -1.4806  0.2112
 9056SOL     OW38800   4.207   4.376   9.535 -0.1284 -0.0871  0.1893
 9056SOL    HW138801   4.242   4.413   9.454 -0.2217 -1.3560 -0.4294
 9056SOL    HW238802   4.266   4.302   9.547  0.9515  0.7880  0.2826
 9057SOL     OW38803   2.331   2.434   3.313  0.4457 -0.0339  0.5732
 9057SOL    HW138804   2.357   2.458   3.224 -1.4236  0.0089  0.0496
 9057SOL    HW238805   2.281   2.353   3.307  0.1983  0.0661  1.3575
 9058SOL     OW38806   0.241   3.245   3.687 -0.3612 -0.2040 -0.3707
 9058SOL    HW138807   0.203   3.198   3.761 -1.2780 -0.1439 -0.8056
 9058SOL    HW238808   0.184   3.223   3.613 -0.2830  0.7376 -0.7033
 9059SOL     OW38809   4.465   0.496   6.756 -0.5147  0.4684  0.1962
 9059SOL    HW138810   4.455   0.576   6.807 -0.7826  0.6766 -0.1824
 9059SOL    HW238811   4.388   0.442   6.775 -0.3773 -0.2182 -1.2083
 9060SOL     OW38812   2.741   3.967   6.874  0.1669  0.4798  0.1718
 9060SOL    HW138813   2.694   4.031   6.928  0.1602  1.4933 -1.0231
 9060SOL    HW238814   2.823   4.014   6.857 -0.6436  2.2376  1.0338
 9061SOL     OW38815   0.032   4.494  16.290 -0.0618 -0.4159  0.4541
 9061SOL    HW138816   0.088   4.499  16.212  1.2455 -0.9518  1.3569
 9061SOL    HW238817   0.038   4.581  16.330 -0.0576 -0.6411  0.9442
 9062SOL     OW38818   3.375   0.168   6.805 -0.5208 -0.1501  0.1186
 9062SOL    HW138819   3.390   0.199   6.715  2.8581  0.8907  1.0532
 9062SOL    HW238820   3.361   0.250   6.852 -0.1060 -0.5126  0.8575
 9063SOL     OW38821   2.649   3.260   6.451 -0.0565  0.0255 -0.1905
 9063SOL    HW138822   2.695   3.219   6.525  0.1833 -0.5602 -0.6697
 9063SOL    HW238823   2.569   3.281   6.500  1.7606  4.6477  0.8417
 9064SOL     OW38824   0.563   3.309  12.819  0.0385  0.0223 -0.7244
 9064SOL    HW138825   0.538   3.369  12.749  3.1380 -0.0644 -1.9140
 9064SOL    HW238826   0.477   3.268  12.825 -0.0646  0.3719  0.1915
 9065SOL     OW38827   4.690   0.181   8.480 -0.8505 -0.3687  0.4341
 9065SOL    HW138828   4.666   0.198   8.571 -0.3943 -3.1360  1.0624
 9065SOL    HW238829   4.709   0.269   8.447  1.2357 -1.5877 -1.6927
 9066SOL     OW38830   1.591   3.984   6.000 -0.1984  0.0311  0.7437
 9066SOL    HW138831   1.676   4.027   5.990  0.1939 -1.5884 -2.8994
 9066SOL    HW238832   1.595   3.934   6.082  2.8238  0.0990  0.6382
 9067SOL     OW38833   2.314   2.442  16.873 -0.5020 -0.5245 -0.8468
 9067SOL    HW138834   2.231   2.396  16.884 -1.2331  0.7838 -0.9044
 9067SOL    HW238835   2.306   2.497  16.952 -3.0846  0.1457 -1.5627
 9068SOL     OW38836   4.230   4.141  10.361 -0.3348  0.2215 -0.1896
 9068SOL    HW138837   4.311   4.090  10.358  0.7639  1.9327  0.4598
 9068SOL    HW238838   4.190   4.115  10.277 -0.3059  1.0000 -0.4415
 9069SOL     OW38839   0.852   0.685  16.126  0.7504 -0.5441 -0.6369
 9069SOL    HW138840   0.902   0.732  16.193 -0.2242  0.4826 -0.6361
 9069SOL    HW238841   0.923   0.656  16.069  1.1454 -1.2617  0.2067
 9070SOL     OW38842   2.978   2.025   2.928  0.9075  0.2079 -0.0475
 9070SOL    HW138843   2.960   2.029   2.834  0.2748  3.3224  0.2185
 9070SOL    HW238844   2.887   2.045   2.950  0.8094 -0.4947  0.1736
 9071SOL     OW38845   2.479   3.726   5.153  0.3508 -0.3759 -0.0280
 9071SOL    HW138846   2.509   3.817   5.153  0.1860 -0.3282  2.1145
 9071SOL    HW238847   2.550   3.693   5.208 -0.0036 -0.3737  0.4330
 9072SOL     OW38848   1.355   2.740   5.993 -0.1840 -0.0214 -0.1509
 9072SOL    HW138849   1.320   2.682   5.925 -0.2908  0.4750 -0.5244
 9072SOL    HW238850   1.332   2.825   5.953  0.0362  0.7238  1.3169
 9073SOL     OW38851   4.722   0.552  16.674  0.2899  0.0762 -0.2916
 9073SOL    HW138852   4.659   0.600  16.729 -0.2176 -0.4224 -0.4351
 9073SOL    HW238853   4.689   0.462  16.680 -0.2370  0.2648 -0.3286
 9074SOL     OW38854   1.459   0.163   8.672 -0.0597  0.2583  0.0410
 9074SOL    HW138855   1.387   0.129   8.724 -1.0502  0.8466 -0.9335
 9074SOL    HW238856   1.505   0.081   8.657 -0.5506  0.1865 -1.0746
 9075SOL     OW38857   3.366   2.066   2.839  0.1280 -0.3246 -0.1279
 9075SOL    HW138858   3.384   2.111   2.756  2.8867  1.1380  1.2565
 9075SOL    HW238859   3.314   2.136   2.877  0.2368  0.7989 -2.0295
 9076SOL     OW38860   3.540   1.743   9.809  0.1691  0.1609 -0.2426
 9076SOL    HW138861   3.481   1.701   9.746 -1.0127 -0.4104  1.2707
 9076SOL    HW238862   3.614   1.765   9.752 -1.4869  2.2759 -1.5868
 9077SOL     OW38863   2.629   3.426   1.765  0.3313 -0.4618 -0.0156
 9077SOL    HW138864   2.635   3.373   1.685 -1.7076 -1.0481  0.2294
 9077SOL    HW238865   2.539   3.407   1.792  0.7423 -1.4936  0.5836
 9078SOL     OW38866   0.631   1.544   3.883 -0.6176 -0.5103  0.2600
 9078SOL    HW138867   0.589   1.627   3.905  2.8861  1.4452 -0.2850
 9078SOL    HW238868   0.705   1.576   3.832  0.6946 -0.8190  1.9442
 9079SOL     OW38869   1.545   0.097   7.514 -0.1184 -0.4087  0.3932
 9079SOL    HW138870   1.544   0.187   7.547 -1.9800 -0.6500  1.0082
 9079SOL    HW238871   1.459   0.098   7.473 -0.2294 -0.6331  0.6190
 9080SOL     OW38872   3.083   4.155   2.809 -0.3412 -0.6222  0.3984
 9080SOL    HW138873   3.147   4.109   2.863  0.3753  0.2238  0.2654
 9080SOL    HW238874   3.051   4.220   2.871 -1.9177  0.2940 -1.3508
 9081SOL     OW38875   1.108   2.768   6.888 -0.0241  0.8383 -0.4478
 9081SOL    HW138876   1.160   2.837   6.848  1.3397 -0.4784 -0.9305
 9081SOL    HW238877   1.172   2.717   6.937  0.1837 -1.0320 -2.6714
 9082SOL     OW38878   0.060   3.382   4.125 -0.3465 -0.3580 -0.1026
 9082SOL    HW138879   0.106   3.304   4.092  1.8157 -0.0519  2.1920
 9082SOL    HW238880   4.725   3.338   4.172 -0.4959  0.4894  0.4625
 9083SOL     OW38881   1.097   1.797   3.661  0.6431 -0.0608  1.0477
 9083SOL    HW138882   1.042   1.874   3.647  0.6350  0.0459  1.6947
 9083SOL    HW238883   1.182   1.833   3.686  0.0320  0.2601  2.6361
 9084SOL     OW38884   3.472   4.687   1.850 -0.6015  0.4038  0.2046
 9084SOL    HW138885   3.484   4.655   1.939 -0.3515 -0.0826 -0.0018
 9084SOL    HW238886   3.561   4.683   1.814  0.1079  1.4156  1.8496
 9085SOL     OW38887   1.429   1.742   6.528 -0.3564  0.6215  0.4234
 9085SOL    HW138888   1.430   1.711   6.618 -1.0212 -0.0225  0.2114
 9085SOL    HW238889   1.513   1.788   6.526  0.7847 -1.4507  0.4973
 9086SOL     OW38890   4.096   0.014   3.290 -0.1716 -0.0907 -0.5238
 9086SOL    HW138891   4.014   4.704   3.304 -0.0154 -0.0820  0.4234
 9086SOL    HW238892   4.110   0.004   3.196  0.3072  0.2863 -0.4933
 9087SOL     OW38893   3.549   0.672   1.985  0.3844 -0.2170 -1.1213
 9087SOL    HW138894   3.471   0.626   1.955 -1.8797  2.0242  1.3428
 9087SOL    HW238895   3.515   0.740   2.043 -1.5949 -1.5607 -0.7081
 9088SOL     OW38896   1.074   3.593   8.107 -0.2011  0.6003  0.4343
 9088SOL    HW138897   1.106   3.679   8.080  2.1096 -1.0200 -2.0835
 9088SOL    HW238898   1.137   3.532   8.067 -0.0894 -0.2296  1.8558
 9089SOL     OW38899   2.605   1.938   6.249  0.2598  0.1662  0.0404
 9089SOL    HW138900   2.684   1.892   6.219  0.7210  1.2644 -0.4358
 9089SOL    HW238901   2.591   2.000   6.178 -0.2523  0.9107  0.7949
 9090SOL     OW38902   0.905   2.286   1.712 -0.1291  0.8646  0.1737
 9090SOL    HW138903   0.971   2.240   1.660 -1.5559 -1.1859  0.1713
 9090SOL    HW238904   0.839   2.284   1.643 -1.2364 -0.2736  1.2698
 9091SOL     OW38905   3.202   0.237   6.390  0.2830 -0.0333  0.1127
 9091SOL    HW138906   3.139   0.281   6.333  0.7328  0.6065  0.1013
 9091SOL    HW238907   3.144   0.198   6.455  0.0372  0.9014  0.4527
 9092SOL     OW38908   1.072   2.168   3.037 -0.5460  0.4118  0.3892
 9092SOL    HW138909   1.082   2.098   3.102 -3.7701  0.0123  0.4615
 9092SOL    HW238910   1.162   2.175   3.006 -0.6743  0.3186 -0.0071
 9093SOL     OW38911   1.566   2.482   9.293  0.1640 -0.4421  0.0891
 9093SOL    HW138912   1.574   2.567   9.337  0.2536 -0.3764 -0.0546
 9093SOL    HW238913   1.595   2.505   9.205 -1.2405 -0.3638 -0.3607
 9094SOL     OW38914   2.449   0.009   5.464  0.1075 -0.3974 -0.1001
 9094SOL    HW138915   2.417   0.094   5.432  1.3376  0.2254  0.3507
 9094SOL    HW238916   2.366   4.703   5.486  0.9204 -2.9686 -2.0394
 9095SOL     OW38917   0.187   2.775  16.585 -0.0074  0.4631  0.0737
 9095SOL    HW138918   0.205   2.748  16.675  1.0270 -3.4849 -1.3029
 9095SOL    HW238919   0.121   2.843  16.596  0.8701  1.4008 -0.3573
 9096SOL     OW38920   3.599   2.103   0.047 -0.3466 -0.1278 -0.5232
 9096SOL    HW138921   3.592   2.030  17.731  1.0771 -0.5697 -0.1585
 9096SOL    HW238922   3.580   2.059   0.130  2.6982 -1.0805 -0.3440
 9097SOL     OW38923   3.503   1.133   7.923  0.0841 -0.3741  0.2803
 9097SOL    HW138924   3.512   1.227   7.908 -0.1056 -0.6146 -1.3862
 9097SOL    HW238925   3.408   1.122   7.921 -0.3283  2.8888  1.8002
 9098SOL     OW38926   0.013   1.704   5.111 -0.8543 -0.5162 -0.0987
 9098SOL    HW138927   4.673   1.737   5.157  0.8033  0.4931  1.9608
 9098SOL    HW238928   0.032   1.777   5.053 -1.1275 -0.0601  0.3830
 9099SOL     OW38929   3.332   4.202   4.500 -0.1407 -0.2958  0.6041
 9099SOL    HW138930   3.260   4.250   4.458 -0.6643 -1.4549  0.1795
 9099SOL    HW238931   3.306   4.114   4.473 -2.0810  0.0312  1.4162
 9100SOL     OW38932   3.266   2.806   7.187  0.2969  0.1852 -0.0818
 9100SOL    HW138933   3.233   2.766   7.107 -0.9865  2.7282 -0.8224
 9100SOL    HW238934   3.292   2.894   7.159  0.0407 -0.0400 -1.0341
 9101SOL     OW38935   4.417   2.183  11.656  0.7429  0.3973  0.2717
 9101SOL    HW138936   4.467   2.110  11.619  0.1564  1.4704 -2.6887
 9101SOL    HW238937   4.366   2.138  11.723 -0.1582 -0.0671 -0.7168
 9102SOL     OW38938   3.107   2.340  13.887 -0.8881 -0.2778  0.6407
 9102SOL    HW138939   3.082   2.281  13.958 -2.4510  0.9204  1.1007
 9102SOL    HW238940   3.174   2.289  13.843  1.6222  0.9460  3.0215
 9103SOL     OW38941   2.436   0.164  12.590  0.1959  0.2499 -0.3728
 9103SOL    HW138942   2.506   0.202  12.537  1.0081 -0.4279  0.2279
 9103SOL    HW238943   2.367   0.229  12.573  0.2568 -0.0339 -1.6674
 9104SOL     OW38944   4.293   1.186   1.238  0.5586  0.2424  0.1488
 9104SOL    HW138945   4.295   1.281   1.254  2.9553  0.2854 -0.4326
 9104SOL    HW238946   4.341   1.184   1.155 -1.6121 -1.4023 -1.0521
 9105SOL     OW38947   2.351   2.778  12.483  0.0246 -0.2803 -0.4559
 9105SOL    HW138948   2.361   2.711  12.551  2.0969  0.7496  0.2791
 9105SOL    HW238949   2.277   2.745  12.434 -1.3335  1.5505  0.3578
 9106SOL     OW38950   2.628   3.532   3.022 -0.1946  0.5091  0.0894
 9106SOL    HW138951   2.536   3.537   2.997 -0.8983 -2.5658  2.0323
 9106SOL    HW238952   2.673   3.572   2.948  0.1103  0.2215  0.1183
 9107SOL     OW38953   0.082   4.480   7.760 -0.8299 -0.6270  0.2424
 9107SOL    HW138954   0.176   4.501   7.757 -0.5765 -1.8832 -0.7534
 9107SOL    HW238955   0.043   4.561   7.792 -1.2393 -0.9265  0.5110
 9108SOL     OW38956   0.726   3.460  17.166  0.1227 -0.0119 -0.5907
 9108SOL    HW138957   0.730   3.386  17.106  0.3409  0.4329 -1.1243
 9108SOL    HW238958   0.667   3.511  17.110 -0.2251 -0.4885 -0.6561
 9109SOL     OW38959   1.696   4.528  13.608  0.8158 -0.1829  0.2369
 9109SOL    HW138960   1.685   4.580  13.529  0.3008 -0.7884 -0.0876
 9109SOL    HW238961   1.692   4.438  13.577  0.2585  0.0333 -0.3171
 9110SOL     OW38962   3.537   0.297  13.406 -0.2600 -0.2263 -0.1381
 9110SOL    HW138963   3.609   0.346  13.366 -0.3963  0.3092  0.2713
 9110SOL    HW238964   3.551   0.311  13.500  0.0320  0.6118 -0.3048
 9111SOL     OW38965   1.554   2.020  16.078 -0.1776 -0.5169  0.2875
 9111SOL    HW138966   1.529   1.987  15.991  3.0311  1.6869 -1.4341
 9111SOL    HW238967   1.645   2.042  16.058  0.9116 -1.9361  3.6753
 9112SOL     OW38968   3.449   2.828  16.537 -0.2867  0.3770 -0.1428
 9112SOL    HW138969   3.520   2.783  16.583  1.6161  2.5388 -0.9544
 9112SOL    HW238970   3.413   2.767  16.473  0.3723 -1.3213  1.0899
 9113SOL     OW38971   3.319   0.060  15.726 -0.0695  0.0812 -0.1679
 9113SOL    HW138972   3.342   4.735  15.657 -1.2649 -1.5688  0.9198
 9113SOL    HW238973   3.350   0.018  15.807  1.8709 -2.7954 -2.3919
 9114SOL     OW38974   4.195   0.521   7.927 -0.3052 -0.1528  0.1574
 9114SOL    HW138975   4.234   0.605   7.950 -0.3591  0.2923 -1.4016
 9114SOL    HW238976   4.213   0.524   7.833 -1.7479 -0.2842 -0.1379
 9115SOL     OW38977   4.284   0.637   3.052  0.0418  0.5363  0.1238
 9115SOL    HW138978   4.198   0.617   3.089  0.5281  0.2893  1.1216
 9115SOL    HW238979   4.286   0.731   3.068 -2.2956  0.7324 -0.7351
 9116SOL     OW38980   1.284   2.983   3.562 -0.2644 -0.6307 -0.5560
 9116SOL    HW138981   1.228   2.932   3.620 -0.6093  1.7558  1.2226
 9116SOL    HW238982   1.347   3.016   3.627  0.0969 -1.1962 -0.6250
 9117SOL     OW38983   2.231   4.521   5.526 -0.3250 -0.7198 -0.0215
 9117SOL    HW138984   2.194   4.539   5.440  0.7751  0.1423 -0.3068
 9117SOL    HW238985   2.231   4.611   5.560  0.4593 -0.5433 -0.5057
 9118SOL     OW38986   3.200   1.022   3.086 -0.1240  0.1971 -0.2002
 9118SOL    HW138987   3.239   0.934   3.091 -0.1333  0.2863  1.3890
 9118SOL    HW238988   3.112   1.007   3.054 -0.6812  0.1870  1.3194
 9119SOL     OW38989   1.628   3.469   8.087  0.6093  0.6748  0.3693
 9119SOL    HW138990   1.584   3.463   8.172 -1.8071 -1.5119 -1.0551
 9119SOL    HW238991   1.610   3.561   8.068 -2.9518 -0.0241  0.3764
 9120SOL     OW38992   3.835   4.326   5.972  0.0408 -0.3841 -0.1818
 9120SOL    HW138993   3.848   4.236   5.942 -1.3651 -0.8476  0.5840
 9120SOL    HW238994   3.793   4.301   6.054  0.5532  0.9352  0.4799
 9121SOL     OW38995   3.655   3.662   2.230  0.6054 -0.5880 -0.3841
 9121SOL    HW138996   3.684   3.587   2.282 -0.6120 -1.0454 -0.3567
 9121SOL    HW238997   3.723   3.727   2.243 -0.0905  0.5164 -2.2430
 9122SOL     OW38998   4.343   1.369   7.437 -0.6792  0.2792  0.6561
 9122SOL    HW138999   4.275   1.340   7.498 -0.4565  0.4807  0.9979
 9122SOL    HW239000   4.386   1.285   7.421 -1.0437  0.1830  0.1645
 9123SOL     OW39001   1.227   2.880   5.580  0.2563 -0.4144  0.2900
 9123SOL    HW139002   1.180   2.797   5.568 -2.1095  0.6617  1.9809
 9123SOL    HW239003   1.187   2.943   5.521  0.0893  0.2981  1.1681
 9124SOL     OW39004   3.474   0.825   8.301 -0.1954 -0.2728  0.4218
 9124SOL    HW139005   3.446   0.734   8.314 -0.0084 -0.8193 -3.1035
 9124SOL    HW239006   3.526   0.826   8.381 -0.6218  0.4802  0.6898
 9125SOL     OW39007   1.459   3.629   6.061  0.7553  0.4962  0.4180
 9125SOL    HW139008   1.399   3.557   6.083 -0.4661  1.0003 -1.3172
 9125SOL    HW239009   1.449   3.650   5.968 -0.3012  2.1460  0.9018
 9126SOL     OW39010   0.272   2.871   8.724 -0.0222  0.3347 -0.1160
 9126SOL    HW139011   0.189   2.905   8.688 -0.4575 -0.6176 -0.0225
 9126SOL    HW239012   0.339   2.931   8.693  2.1924 -2.5621 -0.9714
 9127SOL     OW39013   2.887   3.931  16.114 -0.4408 -0.4066  0.7834
 9127SOL    HW139014   2.922   3.981  16.188  2.4651 -2.2462  0.6764
 9127SOL    HW239015   2.946   3.856  16.100 -0.3156  0.0579 -1.1914
 9128SOL     OW39016   0.954   4.099  15.375 -0.2342  0.5185 -0.1091
 9128SOL    HW139017   0.956   4.025  15.315 -1.0506  1.1027 -0.8654
 9128SOL    HW239018   1.028   4.152  15.345  0.7596 -1.2335 -0.7127
 9129SOL     OW39019   1.978   2.424  12.392 -0.5717  0.4461  0.3719
 9129SOL    HW139020   1.887   2.444  12.416 -1.0092 -2.5403  1.1526
 9129SOL    HW239021   1.977   2.329  12.391 -0.9413  0.4438  1.2543
 9130SOL     OW39022   2.275   4.407   0.271 -0.5063  0.6285 -0.4643
 9130SOL    HW139023   2.222   4.329   0.287 -0.7925  1.2191  1.4994
 9130SOL    HW239024   2.304   4.435   0.358  3.5336  2.1465 -2.2877
 9131SOL     OW39025   3.614   3.203  17.705  0.9663  0.0806  0.1865
 9131SOL    HW139026   3.629   3.162   0.044 -2.0637 -0.0339  0.6525
 9131SOL    HW239027   3.599   3.131  17.644  0.6580 -1.7461  2.4393
 9132SOL     OW39028   2.441   2.825   8.764  0.1498 -0.1778  1.0111
 9132SOL    HW139029   2.422   2.790   8.677  1.0935  0.2185  0.6502
 9132SOL    HW239030   2.477   2.908   8.732 -2.8561  0.9437  0.5250
 9133SOL     OW39031   4.516   0.515  11.235  0.1646  0.4542  0.3446
 9133SOL    HW139032   4.496   0.424  11.257  0.7637 -0.3860 -2.5111
 9133SOL    HW239033   4.461   0.533  11.159  1.5139 -0.1628 -0.7849
 9134SOL     OW39034   0.062   1.845   9.798 -0.6248  0.6469  0.7002
 9134SOL    HW139035   0.120   1.919   9.783 -3.2401  2.8033  1.2814
 9134SOL    HW239036   0.094   1.811   9.881 -0.9761 -1.2442  0.0660
 9135SOL     OW39037   2.246   1.566  17.387 -0.1209 -0.3843  0.4148
 9135SOL    HW139038   2.302   1.572  17.465  0.2623  0.0453  0.1083
 9135SOL    HW239039   2.291   1.629  17.330  3.2364 -1.0030  2.3768
 9136SOL     OW39040   2.013   1.991  15.838 -0.4059  0.1381  0.1312
 9136SOL    HW139041   1.989   2.076  15.802  0.1399  0.5879  0.8451
 9136SOL    HW239042   2.107   1.994  15.818 -0.1548  0.0073  1.3108
 9137SOL     OW39043   1.492   2.737   5.631 -0.5979  0.5865  0.0682
 9137SOL    HW139044   1.535   2.817   5.660  0.9411 -0.1396 -0.2022
 9137SOL    HW239045   1.405   2.767   5.605 -1.0922 -0.8095  0.0867
 9138SOL     OW39046   3.185   0.203   5.390  0.0414 -0.0151  0.2802
 9138SOL    HW139047   3.177   0.142   5.317 -1.2718 -0.0175  0.4247
 9138SOL    HW239048   3.180   0.292   5.355  2.1703 -0.5011 -1.2711
 9139SOL     OW39049   4.039   0.283   9.921 -0.2474 -0.4719 -0.1163
 9139SOL    HW139050   4.085   0.242   9.994 -1.4637 -2.8494 -0.6808
 9139SOL    HW239051   4.058   0.225   9.847 -2.7411  0.0757 -1.1667
 9140SOL     OW39052   4.171   1.835  11.513 -1.0476 -0.7141 -0.5329
 9140SOL    HW139053   4.197   1.886  11.436  2.6008 -0.7444  0.7172
 9140SOL    HW239054   4.130   1.895  11.575  2.5263 -0.0720  1.2009
 9141SOL     OW39055   0.732   0.307  17.171 -0.5052  0.4863 -0.0677
 9141SOL    HW139056   0.710   0.399  17.158 -2.7507  0.0495  0.5936
 9141SOL    HW239057   0.647   0.265  17.155 -0.2266  0.2053 -0.7802
 9142SOL     OW39058   0.142   1.347   5.957 -0.2751  0.1442  0.6113
 9142SOL    HW139059   0.104   1.435   5.950 -1.4387 -0.3502  0.7771
 9142SOL    HW239060   0.100   1.318   6.038  0.8188  0.9570  1.4782
 9143SOL     OW39061   3.919   4.394   0.664 -0.5753 -0.6432 -0.0833
 9143SOL    HW139062   3.894   4.362   0.577 -0.2923 -0.4735 -0.2257
 9143SOL    HW239063   3.998   4.444   0.645 -1.9429  1.4088 -0.3624
 9144SOL     OW39064   2.752   2.178   3.301 -1.1255  0.0064 -0.2532
 9144SOL    HW139065   2.842   2.150   3.313 -1.0907 -0.0248 -0.5755
 9144SOL    HW239066   2.707   2.094   3.308 -1.0115  0.0452  0.9799
 9145SOL     OW39067   4.381   4.004   5.125  0.4079  0.4844 -0.3451
 9145SOL    HW139068   4.376   3.993   5.030  2.3134 -1.4591 -0.2298
 9145SOL    HW239069   4.374   3.911   5.146 -1.7608  1.2464  2.3152
 9146SOL     OW39070   1.770   1.760   1.246  0.2219 -0.0347 -0.3113
 9146SOL    HW139071   1.835   1.825   1.274  0.8106 -0.2149 -1.2329
 9146SOL    HW239072   1.707   1.766   1.318 -1.1730 -1.1172 -1.4531
 9147SOL     OW39073   4.370   2.210   4.697 -0.1605 -0.3192  0.1922
 9147SOL    HW139074   4.329   2.173   4.619 -2.1454  2.4926 -0.1193
 9147SOL    HW239075   4.441   2.148   4.712 -0.2328 -0.3821  0.2766
 9148SOL     OW39076   1.849   0.889  15.604 -0.0723 -0.0323 -0.1541
 9148SOL    HW139077   1.783   0.947  15.566  0.6463  0.7230 -0.2409
 9148SOL    HW239078   1.924   0.937  15.571 -0.0026  1.7450  2.5807
 9149SOL     OW39079   3.809   1.874  10.437  0.0960  0.1261  0.2140
 9149SOL    HW139080   3.748   1.822  10.385 -0.2149  0.7295 -0.0244
 9149SOL    HW239081   3.781   1.842  10.523  0.8972  0.4813  0.6148
 9150SOL     OW39082   2.050   4.344   4.131  0.5589 -0.3682  0.1202
 9150SOL    HW139083   1.995   4.297   4.194 -0.4630 -0.1244 -0.5919
 9150SOL    HW239084   2.139   4.327   4.162  0.9086 -0.5352 -0.9712
 9151SOL     OW39085   4.576   1.704   0.238  0.0015 -0.0714 -0.3721
 9151SOL    HW139086   4.589   1.787   0.284  2.4892 -1.6743  1.8310
 9151SOL    HW239087   4.501   1.719   0.181 -0.6058  0.4299  0.5558
 9152SOL     OW39088   0.346   3.991   6.779 -0.3073 -0.1333  0.0719
 9152SOL    HW139089   0.322   4.082   6.796  0.5713  0.3795 -1.4447
 9152SOL    HW239090   0.330   3.984   6.685  3.3967 -1.9523 -0.4235
 9153SOL     OW39091   4.311   4.712   5.486  0.2510 -0.0501  0.3799
 9153SOL    HW139092   4.277   0.010   5.405  0.7581  0.6799  0.4784
 9153SOL    HW239093   4.374   0.044   5.508 -0.5559  1.1288 -1.0523
 9154SOL     OW39094   0.460   2.178  16.885  0.1094 -0.3702 -0.3729
 9154SOL    HW139095   0.403   2.255  16.887  0.8831  0.2136 -0.7414
 9154SOL    HW239096   0.526   2.184  16.954  0.8265 -0.3976 -1.0593
 9155SOL     OW39097   0.473   3.735   6.011 -0.0682  0.3143  0.3821
 9155SOL    HW139098   0.383   3.703   6.017 -0.2578  0.1173 -3.3457
 9155SOL    HW239099   0.505   3.690   5.933 -1.7564 -0.2581  0.0203
 9156SOL     OW39100   2.539   2.616   0.247 -0.1650  0.9013  0.7667
 9156SOL    HW139101   2.510   2.548   0.308 -1.2706  0.0084 -0.7353
 9156SOL    HW239102   2.634   2.613   0.249 -0.1792 -1.4685 -1.4276
 9157SOL     OW39103   0.268   2.280   4.009 -0.1097 -0.2978 -0.1762
 9157SOL    HW139104   0.239   2.192   4.034 -1.1611  0.0848 -0.0546
 9157SOL    HW239105   0.180   2.318   4.003 -0.4865 -1.2072 -0.4730
 9158SOL     OW39106   2.642   0.869   4.747  0.0467 -0.4547 -0.2365
 9158SOL    HW139107   2.653   0.958   4.780 -0.5549 -0.7830  0.8696
 9158SOL    HW239108   2.554   0.843   4.776 -0.8804  0.0609 -2.5804
 9159SOL     OW39109   3.867   2.527   8.778 -0.1116 -0.2945 -0.2794
 9159SOL    HW139110   3.856   2.480   8.861  1.2627  0.4013  0.2920
 9159SOL    HW239111   3.962   2.525   8.765  0.0788  4.5429  0.6139
 9160SOL     OW39112   0.191   3.512   4.361 -0.2362 -0.5427 -0.3645
 9160SOL    HW139113   0.109   3.515   4.311 -0.1466  0.8463 -0.4292
 9160SOL    HW239114   0.191   3.598   4.404  0.1636 -1.0259  0.6079
 9161SOL     OW39115   1.811   3.383   3.557  0.1408  0.1503  0.6012
 9161SOL    HW139116   1.885   3.334   3.521  2.1547  3.8426 -0.2282
 9161SOL    HW239117   1.844   3.423   3.637 -0.7537 -1.7375  1.9160
 9162SOL     OW39118   0.929   0.885  16.966 -0.2750 -0.5148  0.3031
 9162SOL    HW139119   1.021   0.865  16.952 -0.1242  0.1704  0.3092
 9162SOL    HW239120   0.899   0.885  16.875  2.0156 -3.5359 -0.4271
 9163SOL     OW39121   2.684   3.628  13.553  0.1794 -0.2281 -0.0599
 9163SOL    HW139122   2.600   3.584  13.540 -1.7225  2.8695  1.7069
 9163SOL    HW239123   2.663   3.721  13.563 -0.6576 -0.3521 -0.6417
 9164SOL     OW39124   4.019   1.966  15.257 -0.4054 -0.5333  0.0501
 9164SOL    HW139125   3.934   1.980  15.214 -0.0988 -0.2760 -0.4608
 9164SOL    HW239126   4.029   2.048  15.306 -1.6966  0.3009 -1.0952
 9165SOL     OW39127   1.650   0.186  12.761  0.4570  0.3263 -0.4363
 9165SOL    HW139128   1.737   0.222  12.743 -0.2414  1.6028 -1.2050
 9165SOL    HW239129   1.668   0.131  12.838 -3.6502  0.1751  0.3839
 9166SOL     OW39130   3.543   0.823   5.061  0.1743  0.0240  0.4298
 9166SOL    HW139131   3.481   0.893   5.040  0.5574 -0.2787 -1.7274
 9166SOL    HW239132   3.590   0.825   4.977 -2.4226 -1.2287 -1.0517
 9167SOL     OW39133   3.681   1.935   6.886  0.6363 -0.5050  0.4445
 9167SOL    HW139134   3.701   2.006   6.948  1.7373  0.1573 -0.6610
 9167SOL    HW239135   3.629   1.978   6.818  2.4619  0.9936 -0.0142
 9168SOL     OW39136   4.623   1.923  13.676  0.7084 -0.1454 -0.2749
 9168SOL    HW139137   4.713   1.891  13.669  0.0364 -2.3664  1.3330
 9168SOL    HW239138   4.612   1.958  13.588  2.7959 -0.9333 -0.8602
 9169SOL     OW39139   2.742   2.535   7.404 -0.0724  0.1761  0.3120
 9169SOL    HW139140   2.751   2.599   7.474 -0.2150  1.8020 -1.1399
 9169SOL    HW239141   2.690   2.576   7.334  0.7539 -0.0613 -0.4460
 9170SOL     OW39142   2.660   2.725   4.668 -0.2473 -0.7318  0.5778
 9170SOL    HW139143   2.613   2.646   4.695  0.4053 -1.3042  0.0355
 9170SOL    HW239144   2.733   2.727   4.729 -0.3261  0.7692  0.6231
 9171SOL     OW39145   4.226   4.149  15.095  0.8230  0.1587  0.2521
 9171SOL    HW139146   4.136   4.148  15.061  2.0542 -1.3074 -3.0687
 9171SOL    HW239147   4.286   4.115  15.028 -0.9972 -2.1592 -0.2295
 9172SOL     OW39148   0.532   4.052   8.215 -0.9615  0.0156  0.6567
 9172SOL    HW139149   0.480   4.072   8.138  0.6688  1.6091 -0.0433
 9172SOL    HW239150   0.599   3.996   8.177 -2.4867 -0.1491 -1.7605
 9173SOL     OW39151   2.959   4.619   3.441  0.0703 -0.4287  0.7084
 9173SOL    HW139152   3.029   4.582   3.495 -0.5145 -0.7201  1.2644
 9173SOL    HW239153   2.915   4.659   3.516 -0.0606  0.5124  0.1425
 9174SOL     OW39154   2.660   3.262   3.834 -0.3806  0.3726 -0.5911
 9174SOL    HW139155   2.737   3.299   3.791  0.7881 -2.5199 -0.9828
 9174SOL    HW239156   2.601   3.324   3.793 -0.7996 -0.2705 -0.9658
 9175SOL     OW39157   2.846   2.557   1.741 -0.1414 -0.5697 -0.2552
 9175SOL    HW139158   2.783   2.513   1.685 -1.3751 -0.1303  0.7965
 9175SOL    HW239159   2.804   2.541   1.826  0.3828  0.9453  0.2947
 9176SOL     OW39160   3.475   3.246  17.409 -0.6861  0.4481 -0.2487
 9176SOL    HW139161   3.544   3.304  17.440  0.4711 -1.1412  0.1329
 9176SOL    HW239162   3.499   3.161  17.444 -1.2995  0.0006 -0.9092
 9177SOL     OW39163   3.011   1.215   7.327  0.4018  0.3050  0.7071
 9177SOL    HW139164   3.088   1.268   7.346  0.4136  0.6246 -0.2382
 9177SOL    HW239165   3.022   1.138   7.382 -0.2301 -0.5903 -0.4248
 9178SOL     OW39166   0.013   4.117   4.844 -0.0509  0.0904  0.0677
 9178SOL    HW139167   0.054   4.114   4.757 -1.0304  2.2391 -0.4531
 9178SOL    HW239168   0.064   4.187   4.884  2.0196  0.5326 -3.2990
 9179SOL     OW39169   2.375   3.361  11.226 -0.0831 -0.5794  0.6623
 9179SOL    HW139170   2.352   3.274  11.258 -1.2363 -0.4984  0.0442
 9179SOL    HW239171   2.431   3.383  11.301  1.7730  1.4520 -1.3226
 9180SOL     OW39172   4.642   3.120   1.544 -0.3837 -0.1233  0.3109
 9180SOL    HW139173   4.571   3.170   1.583 -0.6052 -1.3599  1.4653
 9180SOL    HW239174   4.708   3.125   1.613  1.3890 -1.0404 -1.3023
 9181SOL     OW39175   4.114   2.442   8.777  0.1763 -0.1176 -0.2016
 9181SOL    HW139176   4.135   2.354   8.744  2.2905 -0.4660  2.1064
 9181SOL    HW239177   4.179   2.452   8.846 -2.7964  2.4997  2.2125
 9182SOL     OW39178   3.253   3.470   2.221  0.0393 -0.4912  1.0769
 9182SOL    HW139179   3.214   3.406   2.280  0.4871  0.1726  2.0897
 9182SOL    HW239180   3.209   3.551   2.247  1.0109  0.2122  0.5247
 9183SOL     OW39181   1.476   0.338  17.270  0.6081 -0.3870 -0.2835
 9183SOL    HW139182   1.517   0.319  17.354 -1.2213  0.0519  0.7102
 9183SOL    HW239183   1.427   0.259  17.245 -1.3699  0.8798 -0.3622
 9184SOL     OW39184   2.920   2.533  17.055  0.2899 -0.1143  0.6359
 9184SOL    HW139185   2.829   2.523  17.029 -0.1706 -1.0467  2.5548
 9184SOL    HW239186   2.914   2.600  17.122 -2.6030  0.0297  0.2327
 9185SOL     OW39187   4.642   3.632   7.870  0.3173  0.2546 -0.2413
 9185SOL    HW139188   0.001   3.633   7.866  0.2900 -0.2687 -1.1724
 9185SOL    HW239189   4.614   3.724   7.876 -2.2017 -0.5093 -0.3183
 9186SOL     OW39190   2.243   1.368   2.672 -0.7951 -0.4058  0.3047
 9186SOL    HW139191   2.218   1.359   2.579 -0.3971  1.2596  0.0378
 9186SOL    HW239192   2.318   1.311   2.683 -1.1474 -0.9179  0.0555
 9187SOL     OW39193   2.597   2.850  13.894 -0.2013 -0.0785  0.1949
 9187SOL    HW139194   2.665   2.915  13.876 -0.8991  0.8755  1.0591
 9187SOL    HW239195   2.588   2.808  13.808  2.0292 -0.8525  0.3485
 9188SOL     OW39196   2.210   0.174  14.217 -0.1716 -0.2566 -0.0368
 9188SOL    HW139197   2.203   0.200  14.125  0.5744  2.5820  0.6873
 9188SOL    HW239198   2.192   0.259  14.258  0.5373  0.5028 -1.3178
 9189SOL     OW39199   0.924   2.845   5.930  0.0988 -0.2873 -0.1661
 9189SOL    HW139200   0.829   2.847   5.925  0.0625 -1.0970  0.2691
 9189SOL    HW239201   0.934   2.900   6.007  4.0114  2.9251 -2.9007
 9190SOL     OW39202   4.072   3.695   9.865  0.7016  0.5332  0.3571
 9190SOL    HW139203   4.055   3.765   9.802  2.6369  0.4484 -0.2728
 9190SOL    HW239204   4.107   3.740   9.941  0.2619  2.9105 -0.8668
 9191SOL     OW39205   4.654   0.220   9.856 -0.9627  0.5058 -0.4858
 9191SOL    HW139206   4.622   0.189   9.940  0.5691  0.9876  0.2634
 9191SOL    HW239207   4.609   0.160   9.796  0.6269  0.5967 -1.7635
 9192SOL     OW39208   0.208   2.163   8.329  0.2250  0.5089  0.4212
 9192SOL    HW139209   0.198   2.250   8.367  1.0368  0.1019  1.5603
 9192SOL    HW239210   0.272   2.187   8.261 -0.5107  1.0427 -0.0870
 9193SOL     OW39211   0.006   0.394  16.974  0.3671  0.1679 -0.1302
 9193SOL    HW139212   4.686   0.360  16.904  0.2849  2.1585 -1.0366
 9193SOL    HW239213   4.713   0.351  17.054 -1.5550 -0.3324 -1.1205
 9194SOL     OW39214   2.018   1.982   9.342 -0.1825  0.5990  0.1033
 9194SOL    HW139215   1.946   1.954   9.399 -0.2526 -1.5449 -1.0591
 9194SOL    HW239216   2.043   2.066   9.381 -0.2320  1.1045 -0.9579
 9195SOL     OW39217   3.229   1.792  16.678 -0.1922 -0.2243  0.0656
 9195SOL    HW139218   3.203   1.789  16.586  1.3866 -0.6274 -0.3670
 9195SOL    HW239219   3.180   1.719  16.717  0.5912 -0.6069  0.3252
 9196SOL     OW39220   1.025   3.350   7.915  0.3575  0.3387  0.1709
 9196SOL    HW139221   1.043   3.382   7.826 -1.5737 -0.4098 -0.4854
 9196SOL    HW239222   1.115   3.337   7.944 -0.0645  1.2342  1.8900
 9197SOL     OW39223   1.060   4.201  15.826 -0.3046  0.2236 -0.4300
 9197SOL    HW139224   1.117   4.278  15.818 -0.1654  0.1116 -0.5202
 9197SOL    HW239225   0.980   4.247  15.802 -0.4577 -0.0118 -0.3658
 9198SOL     OW39226   2.546   0.549   9.733  1.2348  0.4487  0.3678
 9198SOL    HW139227   2.487   0.507   9.796 -1.4671  2.5823 -0.7421
 9198SOL    HW239228   2.539   0.482   9.665  0.0838  0.2457  0.6832
 9199SOL     OW39229   1.530   0.919   7.070 -0.1096  0.3648  0.5027
 9199SOL    HW139230   1.448   0.966   7.085 -1.4538 -0.9311 -2.7320
 9199SOL    HW239231   1.557   0.923   7.161  0.1154  4.3548  0.2491
 9200SOL     OW39232   2.127   4.176   8.449  0.4914  0.2590  0.4968
 9200SOL    HW139233   2.162   4.202   8.535 -1.0169 -1.8325  1.7346
 9200SOL    HW239234   2.108   4.083   8.459  3.7151 -0.4284 -0.0366
 9201SOL     OW39235   0.559   2.651   5.069  0.2784 -0.1760 -0.7213
 9201SOL    HW139236   0.608   2.640   4.988 -1.5776  0.1660 -1.8843
 9201SOL    HW239237   0.472   2.678   5.038  0.7765  2.7844  0.3729
 9202SOL     OW39238   2.218   3.533   0.693  0.0521  0.4784 -0.0838
 9202SOL    HW139239   2.277   3.458   0.692  1.1620  1.3532 -0.4282
 9202SOL    HW239240   2.219   3.548   0.787 -2.3376  1.9561 -0.3063
 9203SOL     OW39241   4.452   4.539   8.192  0.8985 -0.1393 -0.1869
 9203SOL    HW139242   4.540   4.565   8.166  1.0376 -0.3283  0.0998
 9203SOL    HW239243   4.433   4.600   8.263  0.2899 -0.6214  0.0619
 9204SOL     OW39244   3.453   1.105   2.711  0.1352  0.6185 -0.0686
 9204SOL    HW139245   3.479   1.173   2.650 -1.8015  1.8803  0.5200
 9204SOL    HW239246   3.397   1.160   2.765  1.9479  3.2004 -0.8290
 9205SOL     OW39247   0.735   1.514   7.475 -0.5718 -0.3813 -0.3870
 9205SOL    HW139248   0.686   1.535   7.395 -1.7284 -0.9625  0.1712
 9205SOL    HW239249   0.688   1.434   7.496 -1.9136  0.4890 -0.1064
 9206SOL     OW39250   4.387   0.171   8.874 -0.1196  0.8968 -0.0218
 9206SOL    HW139251   4.310   0.125   8.907 -0.2412  1.2949  0.2466
 9206SOL    HW239252   4.422   0.194   8.960  1.8669 -1.9310 -0.0890
 9207SOL     OW39253   4.097   2.423   5.019  0.3447  0.4220  0.4431
 9207SOL    HW139254   4.056   2.381   4.944  1.2959  2.7999 -1.3895
 9207SOL    HW239255   4.070   2.360   5.087  4.3315 -0.4643  1.2331
 9208SOL     OW39256   3.133   2.890   6.724  0.6401 -0.2751  0.7459
 9208SOL    HW139257   3.106   2.931   6.642  2.0709 -0.9182 -0.0392
 9208SOL    HW239258   3.178   2.812   6.690  2.4455  1.1831 -0.2106
 9209SOL     OW39259   1.026   3.289  17.447 -0.6037 -0.6215 -0.7045
 9209SOL    HW139260   0.938   3.259  17.426 -0.5419 -0.5450 -1.0840
 9209SOL    HW239261   1.035   3.266  17.539 -0.5364 -0.0163 -0.5565
 9210SOL     OW39262   3.504   3.450   6.412  0.2077 -0.2005  0.1013
 9210SOL    HW139263   3.587   3.460   6.366  0.6992  0.0749  1.0450
 9210SOL    HW239264   3.502   3.357   6.433 -0.4041 -0.1211  0.3960
 9211SOL     OW39265   2.400   2.285   8.732  0.1684  0.3620  0.0551
 9211SOL    HW139266   2.464   2.249   8.793 -1.0650  0.0808  1.1785
 9211SOL    HW239267   2.454   2.335   8.671  1.4384 -0.0118  0.8917
 9212SOL     OW39268   2.292   2.395   4.226  0.1421  0.7534  0.2371
 9212SOL    HW139269   2.261   2.305   4.214 -0.3146  1.1115 -1.3288
 9212SOL    HW239270   2.303   2.392   4.321  2.9955  0.9239 -0.0847
 9213SOL     OW39271   0.819   2.337   0.095  0.1448  0.4402 -0.9282
 9213SOL    HW139272   0.843   2.308   0.006  1.4633  0.7077 -0.6653
 9213SOL    HW239273   0.725   2.320   0.089 -0.2397  2.1836  0.2514
 9214SOL     OW39274   0.769   0.995   5.094  0.1264 -0.4251 -0.0485
 9214SOL    HW139275   0.712   1.070   5.115  1.3200  0.3184  0.5426
 9214SOL    HW239276   0.831   1.033   5.031  0.9107  0.4729  1.2498
 9215SOL     OW39277   3.771   1.464   7.886 -0.0882 -0.4590 -0.2073
 9215SOL    HW139278   3.812   1.487   7.969 -3.1793 -0.5948  1.3772
 9215SOL    HW239279   3.816   1.526   7.828  0.1305  0.6086  1.0931
 9216SOL     OW39280   4.040   0.341  14.667  0.7723  0.1585  0.3112
 9216SOL    HW139281   4.104   0.325  14.738  1.0740 -0.7972 -0.1847
 9216SOL    HW239282   3.958   0.305  14.701 -0.1928  1.6864 -0.4508
 9217SOL     OW39283   3.697   0.097   6.015 -0.5235  0.1483 -0.5462
 9217SOL    HW139284   3.718   0.130   5.927 -1.8056 -1.2372 -1.3930
 9217SOL    HW239285   3.779   0.060   6.047 -0.4594  0.1191 -0.7442
 9218SOL     OW39286   2.434   0.306   8.601 -0.3458  0.4036  0.1450
 9218SOL    HW139287   2.401   0.285   8.689  1.5146  1.8464  1.1972
 9218SOL    HW239288   2.384   0.250   8.542 -0.3184  0.7197 -0.1764
 9219SOL     OW39289   2.420   3.584  13.282  0.1878  0.1640  0.0762
 9219SOL    HW139290   2.422   3.547  13.370  2.7086  1.2767  0.4873
 9219SOL    HW239291   2.464   3.669  13.289  0.7339  0.0571 -2.0082
 9220SOL     OW39292   2.022   3.592   6.852  0.0056 -0.0717  0.5711
 9220SOL    HW139293   2.041   3.595   6.758 -0.8906 -2.1635  0.3137
 9220SOL    HW239294   2.106   3.612   6.893  0.6993  0.6411 -1.2179
 9221SOL     OW39295   3.699   0.760   3.444 -0.2928  0.7108 -0.8569
 9221SOL    HW139296   3.743   0.770   3.528 -1.4080  2.1152 -0.4398
 9221SOL    HW239297   3.775   0.740   3.389  1.5299 -0.7500  2.1825
 9222SOL     OW39298   1.335   2.821   4.451  0.5175 -0.2644  0.1818
 9222SOL    HW139299   1.382   2.880   4.510 -1.9535  0.7915  1.0653
 9222SOL    HW239300   1.380   2.741   4.480 -0.7625 -0.2269  2.2651
 9223SOL     OW39301   3.553   1.345  13.398  0.0546 -0.1798 -0.3392
 9223SOL    HW139302   3.647   1.341  13.413 -0.2769 -0.5457  1.6659
 9223SOL    HW239303   3.538   1.440  13.406  0.9903 -0.1714  1.2948
 9224SOL     OW39304   1.107   2.936  14.568 -0.1970  0.8164  0.1073
 9224SOL    HW139305   1.077   2.848  14.545 -0.5313  0.5080  1.7110
 9224SOL    HW239306   1.068   2.948  14.655  0.2609  2.3289  0.1016
 9225SOL     OW39307   3.297   1.822   1.778 -0.6738 -0.0262 -0.3071
 9225SOL    HW139308   3.356   1.867   1.717  0.6700  0.5785  1.4497
 9225SOL    HW239309   3.348   1.742   1.788  0.5906  0.8414  0.2379
 9226SOL     OW39310   1.973   0.606  16.005  0.2626  0.6104  0.5971
 9226SOL    HW139311   2.028   0.685  16.012 -1.5656  1.8653  0.9387
 9226SOL    HW239312   2.011   0.548  16.071  0.1345 -1.0246 -0.7852
 9227SOL     OW39313   3.974   4.714   9.457  0.1848 -0.1870 -0.3671
 9227SOL    HW139314   3.945   0.007   9.370  0.0125 -2.7635 -1.1988
 9227SOL    HW239315   3.915   0.039   9.499 -0.4139 -1.0548  0.0747
 9228SOL     OW39316   0.926   4.367   8.393 -0.6552 -0.1251 -0.2966
 9228SOL    HW139317   0.903   4.397   8.481  0.0418  0.2802 -0.2501
 9228SOL    HW239318   0.851   4.377   8.334 -0.2996  3.5091 -0.1531
 9229SOL     OW39319   3.424   2.880   4.373 -0.0510  0.3201  0.0767
 9229SOL    HW139320   3.392   2.836   4.294 -1.4429  2.2882 -0.4575
 9229SOL    HW239321   3.468   2.808   4.417 -0.9673 -0.8382 -0.9198
 9230SOL     OW39322   1.391   1.143   8.934 -0.3322  0.6930 -0.5026
 9230SOL    HW139323   1.460   1.168   8.996 -0.3353 -0.2343 -0.1110
 9230SOL    HW239324   1.320   1.114   8.992  0.9956 -1.8975 -0.1499
 9231SOL     OW39325   4.234   0.798  15.455 -0.2538  0.0220 -0.3378
 9231SOL    HW139326   4.270   0.743  15.524  0.0904  0.7954  0.0966
 9231SOL    HW239327   4.302   0.791  15.388  0.2560  3.1504 -0.1537
 9232SOL     OW39328   1.711   0.142   5.666  0.1020  0.0745  0.4047
 9232SOL    HW139329   1.791   0.173   5.708  0.2800  0.1897 -0.0216
 9232SOL    HW239330   1.674   0.223   5.631 -1.9834 -1.8376 -1.8159
 9233SOL     OW39331   3.057   0.715   7.877  0.1450 -0.0128  0.1113
 9233SOL    HW139332   3.074   0.804   7.908 -2.3293  0.2550  0.7000
 9233SOL    HW239333   3.128   0.665   7.917  0.5390  1.4110  1.1931
 9234SOL     OW39334   2.184   4.048   2.147  0.3834 -0.3270  0.4428
 9234SOL    HW139335   2.191   3.981   2.079  1.8385  1.3350 -1.0485
 9234SOL    HW239336   2.111   4.026   2.205  0.7257  0.7096  1.2791
 9235SOL     OW39337   0.430   2.599   2.576  0.2058 -0.1315  1.1205
 9235SOL    HW139338   0.508   2.642   2.540 -1.2438 -0.0859 -2.0386
 9235SOL    HW239339   0.361   2.639   2.523 -0.0705 -1.8720  0.1816
 9236SOL     OW39340   0.237   0.676   8.083 -0.2381 -0.1342 -0.6033
 9236SOL    HW139341   0.276   0.659   8.169 -1.6401 -0.1412  0.0335
 9236SOL    HW239342   0.154   0.716   8.111 -0.0570  1.7190 -2.7748
 9237SOL     OW39343   0.263   1.780  15.254 -0.1359 -0.2507 -0.7789
 9237SOL    HW139344   0.187   1.764  15.309 -1.6069 -0.1921 -2.8036
 9237SOL    HW239345   0.311   1.830  15.320  3.0244  0.9229 -3.9452
 9238SOL     OW39346   2.892   1.685   7.961  0.5665  0.2230  0.0165
 9238SOL    HW139347   2.947   1.636   7.900  0.8430 -0.8136  1.0835
 9238SOL    HW239348   2.811   1.661   7.917 -0.4545 -1.2413  2.6758
 9239SOL     OW39349   0.504   1.081   8.812 -0.0441  0.4987 -0.1628
 9239SOL    HW139350   0.483   1.166   8.771 -1.5337  0.6251  0.8566
 9239SOL    HW239351   0.599   1.090   8.808 -0.0811  0.4937 -1.0400
 9240SOL     OW39352   2.845   4.133   8.481 -0.3083 -0.6029 -0.4940
 9240SOL    HW139353   2.759   4.152   8.444  0.7675 -1.2522 -3.2759
 9240SOL    HW239354   2.823   4.109   8.571  0.1409  1.4479  0.1567
 9241SOL     OW39355   2.991   0.760   3.522  0.0977 -0.4689 -0.2559
 9241SOL    HW139356   2.932   0.822   3.563 -1.2017 -1.9199  0.0481
 9241SOL    HW239357   2.955   0.746   3.434 -2.4268  2.1633  0.3963
 9242SOL     OW39358   0.214   1.602   3.864  0.0373  0.1381  0.2255
 9242SOL    HW139359   0.265   1.628   3.788  2.0217 -1.6481  0.9438
 9242SOL    HW239360   0.228   1.671   3.929  1.5572 -0.7471  0.8538
 9243SOL     OW39361   3.116   1.543  11.389  0.8527 -0.2380 -0.1812
 9243SOL    HW139362   3.165   1.522  11.309 -0.5033 -1.0127 -0.8113
 9243SOL    HW239363   3.145   1.631  11.412  0.9653 -0.0964 -0.8521
 9244SOL     OW39364   1.832   1.681   8.434 -0.5850 -0.3599 -0.0041
 9244SOL    HW139365   1.918   1.687   8.393 -0.1233 -1.4448  0.8064
 9244SOL    HW239366   1.829   1.769   8.472 -0.9194  0.1155 -1.1440
 9245SOL     OW39367   3.048   2.668   6.138 -0.4899 -0.3879 -0.2866
 9245SOL    HW139368   3.084   2.669   6.227  2.4242 -3.0554 -1.4216
 9245SOL    HW239369   2.955   2.649   6.150 -0.1469 -1.0425  1.3822
 9246SOL     OW39370   0.446   0.450   3.240 -0.0542  0.1580 -0.0623
 9246SOL    HW139371   0.494   0.375   3.205 -1.8050 -0.5158 -0.9979
 9246SOL    HW239372   0.422   0.422   3.328 -0.4097  1.4745  0.2702
 9247SOL     OW39373   1.033   0.251   5.763  0.2562 -0.1153 -0.2671
 9247SOL    HW139374   0.955   0.302   5.785  0.4911  0.2960 -0.3886
 9247SOL    HW239375   1.001   0.162   5.751 -0.1254  0.0035 -0.1316
 9248SOL     OW39376   0.663   1.163   9.783 -0.1248 -0.0231  0.6218
 9248SOL    HW139377   0.694   1.199   9.700 -0.5585  0.2545  0.5811
 9248SOL    HW239378   0.637   1.244   9.827 -1.4287 -1.3816  2.3475
 9249SOL     OW39379   0.677   1.327   2.002  0.1648 -0.5267 -0.5343
 9249SOL    HW139380   0.765   1.289   1.991 -0.0941 -0.5092 -2.6871
 9249SOL    HW239381   0.653   1.355   1.914  0.6056  3.9732  0.7743
 9250SOL     OW39382   3.576   3.386   4.638 -0.1745  0.1897 -0.8664
 9250SOL    HW139383   3.564   3.452   4.706 -1.0070 -1.0818  0.2200
 9250SOL    HW239384   3.485   3.360   4.625  0.4159 -2.3158 -0.0148
 9251SOL     OW39385   1.395   1.625  11.073 -0.1383  0.4784 -0.0270
 9251SOL    HW139386   1.401   1.530  11.080  2.3695  0.6147 -0.4722
 9251SOL    HW239387   1.409   1.651  11.164  0.7971  0.2508 -0.1015
 9252SOL     OW39388   2.220   3.596  15.280 -0.0193 -0.1245  0.0801
 9252SOL    HW139389   2.206   3.610  15.186 -0.6505 -0.9762  0.0472
 9252SOL    HW239390   2.236   3.502  15.292  1.0112 -0.1992 -1.9586
 9253SOL     OW39391   0.142   2.937   4.323 -0.6757 -0.4921  0.4269
 9253SOL    HW139392   0.083   2.864   4.342 -0.3064 -1.0763 -0.7065
 9253SOL    HW239393   0.205   2.923   4.394  0.1382 -0.8270 -0.3506
 9254SOL     OW39394   4.232   0.312  14.469 -0.4172  0.1462  0.2696
 9254SOL    HW139395   4.175   0.333  14.543  0.4908 -0.5627  1.1709
 9254SOL    HW239396   4.204   0.221  14.459  1.4207 -0.3034 -0.9501
 9255SOL     OW39397   3.459   3.002   5.625 -0.5344 -0.0888  0.4756
 9255SOL    HW139398   3.384   2.952   5.592 -0.4535  0.4774 -0.5670
 9255SOL    HW239399   3.493   2.948   5.697  3.0451  0.3370 -0.8966
 9256SOL     OW39400   0.997   2.259  16.868 -0.0738 -0.3878 -0.2855
 9256SOL    HW139401   1.068   2.290  16.812 -2.3037  1.5273 -2.0890
 9256SOL    HW239402   0.980   2.169  16.842 -1.9288 -0.0530 -0.2732
 9257SOL     OW39403   4.560   4.440  12.747  0.4272  0.5673  0.1218
 9257SOL    HW139404   4.484   4.388  12.721  1.2623 -0.7221  0.2733
 9257SOL    HW239405   4.568   4.407  12.836 -2.8637 -1.1463 -0.2351
 9258SOL     OW39406   1.130   0.071   3.671 -0.0154 -0.3948 -0.0370
 9258SOL    HW139407   1.192   0.112   3.611 -0.8332 -0.6202 -1.0360
 9258SOL    HW239408   1.184   0.046   3.746  0.9056  0.0082 -0.5692
 9259SOL     OW39409   3.730   2.609   2.707 -0.1758 -0.3188 -0.3356
 9259SOL    HW139410   3.642   2.606   2.668  0.4383 -0.6651 -1.7236
 9259SOL    HW239411   3.759   2.690   2.665  0.6999 -0.1908  0.5259
 9260SOL     OW39412   0.447   1.283   7.124 -0.4680 -0.3890 -0.4082
 9260SOL    HW139413   0.426   1.245   7.210  0.5271  1.5676  0.7005
 9260SOL    HW239414   0.541   1.262   7.127 -0.6859 -1.3275  0.0211
 9261SOL     OW39415   2.050   1.664   0.943  0.5460 -0.0081  0.3472
 9261SOL    HW139416   2.120   1.679   1.007 -0.1949  1.2332  0.8552
 9261SOL    HW239417   2.003   1.745   0.963 -0.8420 -1.2956  2.2689
 9262SOL     OW39418   3.227   3.978   4.176  0.0044 -0.3630 -0.2009
 9262SOL    HW139419   3.236   4.071   4.197 -1.6871 -0.3122  0.2847
 9262SOL    HW239420   3.256   3.947   4.262 -0.7227 -2.0083 -0.5580
 9263SOL     OW39421   4.240   2.940  10.010 -0.1063  0.1102  0.7295
 9263SOL    HW139422   4.186   3.016   9.988  1.4884  0.7491 -0.9577
 9263SOL    HW239423   4.259   2.956  10.103  0.9673 -1.3154  0.7589
 9264SOL     OW39424   1.503   1.395   6.840 -0.1119  0.5320 -0.2459
 9264SOL    HW139425   1.460   1.310   6.843  1.9866 -0.5157 -0.0150
 9264SOL    HW239426   1.593   1.373   6.864 -0.2363  0.9404  0.5826
 9265SOL     OW39427   3.750   2.346   8.971  0.0968  0.0061  0.2331
 9265SOL    HW139428   3.758   2.359   9.066 -2.1559 -0.9733  0.5834
 9265SOL    HW239429   3.662   2.385   8.973  0.6085  1.3622 -4.1655
 9266SOL     OW39430   2.199   2.798  17.289 -0.8566  0.4820 -0.5114
 9266SOL    HW139431   2.123   2.782  17.344  0.1075  2.0263  1.2718
 9266SOL    HW239432   2.220   2.889  17.308 -1.7580  0.4437  0.6833
 9267SOL     OW39433   0.378   3.304   5.936 -0.0922  0.1589  0.1843
 9267SOL    HW139434   0.374   3.381   5.878  0.8431 -0.6712 -0.9664
 9267SOL    HW239435   0.370   3.330   6.028  0.3439  0.1608  0.2209
 9268SOL     OW39436   2.901   2.628   4.306  0.1954  0.0196 -0.1761
 9268SOL    HW139437   2.970   2.694   4.303 -2.4666  2.8112 -0.9417
 9268SOL    HW239438   2.912   2.592   4.394 -1.6410  0.4278  0.2326
 9269SOL     OW39439   3.036   3.436   9.898  0.1985  0.4672  0.2723
 9269SOL    HW139440   3.084   3.419   9.817  0.8763  0.2777  0.7140
 9269SOL    HW239441   2.966   3.371   9.895  0.0531  0.5322  2.3698
 9270SOL     OW39442   1.908   2.426   9.260  0.5441  0.1143 -0.7638
 9270SOL    HW139443   1.952   2.381   9.189 -1.2544  0.7504 -2.2614
 9270SOL    HW239444   1.907   2.517   9.229  0.1735  0.1219 -0.7302
 9271SOL     OW39445   1.542   4.455   3.513 -0.2689  0.5671  0.0875
 9271SOL    HW139446   1.597   4.511   3.567  1.3798 -1.2623  0.2802
 9271SOL    HW239447   1.495   4.405   3.580 -1.1655  1.7719  0.3749
 9272SOL     OW39448   4.482   2.607   3.286  0.0898  0.3890 -0.2935
 9272SOL    HW139449   4.534   2.584   3.210  0.0362  0.0394 -0.2255
 9272SOL    HW239450   4.430   2.672   3.239 -1.6918 -1.5865 -1.0753
 9273SOL     OW39451   1.769   0.978  14.945  0.3168 -0.2537 -0.6995
 9273SOL    HW139452   1.814   0.896  14.924  0.0135 -0.8588  1.0507
 9273SOL    HW239453   1.719   0.995  14.865 -0.0881  0.1462 -0.3645
 9274SOL     OW39454   2.094   2.485  12.717 -0.2572  0.2542  0.6509
 9274SOL    HW139455   2.177   2.462  12.758 -1.0926 -1.1059  1.5587
 9274SOL    HW239456   2.124   2.456  12.631  0.6279 -0.6241  1.2755
 9275SOL     OW39457   2.710   2.066   4.120 -0.0098  0.6649 -0.5123
 9275SOL    HW139458   2.757   2.123   4.059 -0.8165 -0.4328 -2.1667
 9275SOL    HW239459   2.701   2.134   4.187  2.6687 -1.1162  1.6011
 9276SOL     OW39460   4.208   2.639  17.034 -0.0286  0.3645  0.7744
 9276SOL    HW139461   4.144   2.658  17.102  1.4847  2.5665  1.5890
 9276SOL    HW239462   4.278   2.608  17.092 -0.5235 -0.5695  0.8623
 9277SOL     OW39463   1.671   0.966   5.889  0.3780 -0.2038 -0.2803
 9277SOL    HW139464   1.707   1.054   5.875 -0.1949  0.2065  0.7757
 9277SOL    HW239465   1.595   0.986   5.944  0.9289 -0.4940  0.5710
 9278SOL     OW39466   0.249   0.978   7.144 -0.3978  0.1871  0.1236
 9278SOL    HW139467   0.185   0.908   7.156 -1.2395  0.9090 -0.1974
 9278SOL    HW239468   0.194   1.037   7.094  0.1542  0.6741  0.0867
 9279SOL     OW39469   1.194   3.596   4.537  0.2026  0.0122 -0.0205
 9279SOL    HW139470   1.205   3.663   4.470  1.9174  0.3246  0.5814
 9279SOL    HW239471   1.102   3.571   4.528  0.7831 -2.3714  0.5461
 9280SOL     OW39472   0.949   3.157  15.241  0.3575 -0.6806 -0.0882
 9280SOL    HW139473   0.899   3.127  15.166 -2.0109  5.6878 -1.1233
 9280SOL    HW239474   0.897   3.114  15.310 -1.7294  0.7218 -0.7875
 9281SOL     OW39475   2.098   3.391   9.161 -0.1963 -0.0673 -0.0281
 9281SOL    HW139476   2.119   3.476   9.122 -0.4948 -0.3642 -0.8377
 9281SOL    HW239477   2.095   3.422   9.251  0.3570 -0.3739  0.0951
 9282SOL     OW39478   2.499   0.920   2.801  0.1620  0.4505 -0.2426
 9282SOL    HW139479   2.560   0.887   2.867 -0.4721  1.8561  1.0399
 9282SOL    HW239480   2.446   0.845   2.775 -0.1238  0.6088 -0.1126
 9283SOL     OW39481   0.194   2.912   7.088  0.5250 -0.8460  0.2099
 9283SOL    HW139482   0.117   2.857   7.100 -0.3969  0.2015 -0.8734
 9283SOL    HW239483   0.248   2.897   7.165  1.1398  0.8607  0.1045
 9284SOL     OW39484   0.809   1.288   6.759  0.9099 -0.0001 -0.0230
 9284SOL    HW139485   0.735   1.341   6.788  0.8467 -1.2298  2.1036
 9284SOL    HW239486   0.773   1.204   6.789  1.4082  0.2605  1.3193
 9285SOL     OW39487   1.341   1.660  16.483 -0.1332 -0.0305  0.4726
 9285SOL    HW139488   1.267   1.615  16.443 -1.3339  1.4627  1.0526
 9285SOL    HW239489   1.340   1.750  16.451  0.6995  0.2030  1.1045
 9286SOL     OW39490   2.910   3.276   9.450 -0.3375  0.3640 -0.6298
 9286SOL    HW139491   2.852   3.201   9.462 -1.2139  1.4116  1.7400
 9286SOL    HW239492   2.960   3.243   9.375  1.0656 -1.0710  0.9204
 9287SOL     OW39493   4.012   3.084   6.040  0.1546 -0.0941 -0.2556
 9287SOL    HW139494   4.050   3.169   6.019  1.0651  0.1306  2.2273
 9287SOL    HW239495   3.976   3.054   5.956  0.3001 -0.3649 -0.2195
 9288SOL     OW39496   0.141   2.839   5.549  0.2492  0.4905 -0.1608
 9288SOL    HW139497   0.191   2.813   5.627  1.8663  0.7467 -1.1195
 9288SOL    HW239498   0.057   2.862   5.591  0.0343  1.3433 -1.0679
 9289SOL     OW39499   3.276   2.792   1.490  0.0201 -0.0048  0.7260
 9289SOL    HW139500   3.233   2.711   1.517 -1.7999  0.3926 -1.0294
 9289SOL    HW239501   3.238   2.854   1.553 -1.2404  0.8120 -0.8404
 9290SOL     OW39502   3.025   3.911   4.872  0.1182 -0.2850 -0.0282
 9290SOL    HW139503   3.051   3.981   4.812 -1.3502 -1.3574 -1.9199
 9290SOL    HW239504   2.977   3.849   4.817 -1.0056  1.2979 -0.7995
 9291SOL     OW39505   1.564   4.002   7.699  0.5457  0.3287 -0.3802
 9291SOL    HW139506   1.477   4.042   7.692  1.1708  1.5062 -1.4972
 9291SOL    HW239507   1.527   3.920   7.732 -0.4878  1.0839  0.3386
 9292SOL     OW39508   2.448   3.210   5.920 -0.1822 -0.3901  0.2211
 9292SOL    HW139509   2.390   3.270   5.873  0.2771  0.5948  0.9174
 9292SOL    HW239510   2.385   3.179   5.985  0.3060 -3.0425 -0.5651
 9293SOL     OW39511   2.044   2.991   3.337 -0.7057 -0.2169 -0.0055
 9293SOL    HW139512   1.994   2.999   3.256 -1.5018 -0.1226  0.4917
 9293SOL    HW239513   2.023   2.903   3.368 -0.3244 -1.0784 -2.1821
 9294SOL     OW39514   2.253   2.769   9.706 -0.5807 -0.0427 -0.1496
 9294SOL    HW139515   2.183   2.776   9.641 -0.0886  0.0072 -0.6767
 9294SOL    HW239516   2.263   2.860   9.735  0.2197  0.4941 -2.1247
 9295SOL     OW39517   0.179   3.154  13.218 -0.4401  0.1718 -0.3336
 9295SOL    HW139518   0.227   3.221  13.267  2.2443 -1.6293 -0.5123
 9295SOL    HW239519   0.107   3.140  13.280  0.0100  1.0934  0.4008
 9296SOL     OW39520   3.489   0.639   0.866 -0.0378 -0.0324  0.2530
 9296SOL    HW139521   3.395   0.623   0.878 -0.5463  1.8135 -1.3201
 9296SOL    HW239522   3.527   0.556   0.893  1.9761  0.4957 -0.9575
 9297SOL     OW39523   4.645   2.992   6.229 -0.2339  0.3803  0.1013
 9297SOL    HW139524   4.618   2.937   6.302 -1.8384  0.7460 -0.2228
 9297SOL    HW239525   4.639   3.072   6.281 -1.6602 -0.5161  1.2869
 9298SOL     OW39526   3.232   0.631   4.925 -0.2875  0.1395 -0.8739
 9298SOL    HW139527   3.211   0.549   4.880  1.2312 -0.7403  0.0386
 9298SOL    HW239528   3.313   0.639   4.874  0.7378 -1.1554  0.5660
 9299SOL     OW39529   1.983   0.409   6.144  0.3186 -0.2704 -0.2946
 9299SOL    HW139530   1.925   0.354   6.091 -0.2033  0.8002 -0.8330
 9299SOL    HW239531   1.935   0.418   6.226  1.6649  3.7649  0.0546
 9300SOL     OW39532   1.349   2.323   4.089 -0.0591 -0.3232  0.2981
 9300SOL    HW139533   1.379   2.377   4.015 -1.0796  1.2643  1.0466
 9300SOL    HW239534   1.360   2.229   4.074 -0.2417 -0.4384  0.9158
 9301SOL     OW39535   2.908   3.275   5.793  0.5770 -0.5314  0.1292
 9301SOL    HW139536   2.951   3.240   5.715  0.2823 -2.2930  0.7562
 9301SOL    HW239537   2.980   3.302   5.849 -0.3630 -0.3955  1.2808
 9302SOL     OW39538   1.687   0.040  16.557  0.8336  0.0946  0.1775
 9302SOL    HW139539   1.594   0.030  16.535  0.4500  5.0285 -0.5435
 9302SOL    HW239540   1.707   0.106  16.490  1.3439  0.2706  0.5043
 9303SOL     OW39541   0.564   1.942   8.501 -0.2620  0.5557  0.1371
 9303SOL    HW139542   0.548   2.025   8.546 -2.0013  1.0521 -1.3550
 9303SOL    HW239543   0.538   1.961   8.411 -0.0365 -1.5967 -0.3762
 9304SOL     OW39544   0.984   2.653   1.723 -0.1184 -0.0862 -0.5503
 9304SOL    HW139545   1.006   2.670   1.631  1.0521 -0.8479 -0.3987
 9304SOL    HW239546   0.977   2.558   1.713  1.5130 -0.2615  0.0505
 9305SOL     OW39547   1.491   4.175   3.577  0.2007  0.3350  0.4999
 9305SOL    HW139548   1.494   4.144   3.667 -2.0099 -1.0861  0.0854
 9305SOL    HW239549   1.405   4.218   3.576 -0.4090 -0.8795  2.1782
 9306SOL     OW39550   3.941   3.676   1.465 -0.1657  0.1735  0.5173
 9306SOL    HW139551   3.893   3.744   1.513  1.0970  0.5561  1.2488
 9306SOL    HW239552   4.014   3.664   1.526  0.9724  0.6085 -0.7557
 9307SOL     OW39553   1.414   0.726   6.768 -0.0074  0.6611  0.4386
 9307SOL    HW139554   1.408   0.786   6.694 -1.6178  0.1398  0.1603
 9307SOL    HW239555   1.325   0.700   6.791 -0.0712 -0.0940 -0.6897
 9308SOL     OW39556   2.305   4.185   2.977 -0.2392  0.0578  0.5533
 9308SOL    HW139557   2.349   4.131   3.043  0.1781 -0.3000 -0.0075
 9308SOL    HW239558   2.241   4.127   2.936 -1.2486  2.4526 -1.1972
 9309SOL     OW39559   0.281   2.184   4.867 -0.4597 -0.0111 -0.1525
 9309SOL    HW139560   0.256   2.265   4.823 -0.6409 -0.3705 -0.7014
 9309SOL    HW239561   0.295   2.221   4.955  1.0982  0.8244 -0.7518
 9310SOL     OW39562   2.749   0.960  13.534  0.3998 -0.5213  0.4847
 9310SOL    HW139563   2.656   0.978  13.521 -0.0735 -1.3565  2.5918
 9310SOL    HW239564   2.782   0.947  13.445 -1.9957 -1.5229 -0.2779
 9311SOL     OW39565   4.615   2.893  12.645  0.3646  0.3526  0.1222
 9311SOL    HW139566   4.561   2.965  12.614  0.6600  0.0680 -1.0284
 9311SOL    HW239567   4.690   2.949  12.665 -0.6347  1.6685  0.1839
 9312SOL     OW39568   0.061   0.899   7.657  0.0792 -0.0692 -0.7198
 9312SOL    HW139569   0.028   0.840   7.590  1.2684 -1.0126 -0.4737
 9312SOL    HW239570   0.020   0.874   7.740  1.1984  2.2178  0.5452
 9313SOL     OW39571   1.212   1.669   3.324 -0.0914  0.0688  0.0058
 9313SOL    HW139572   1.279   1.720   3.368 -1.5619 -0.3503  2.7418
 9313SOL    HW239573   1.169   1.734   3.269 -0.8581 -0.3122  0.1408
 9314SOL     OW39574   2.338   1.964   7.971  0.4530 -0.0791 -0.7898
 9314SOL    HW139575   2.282   1.996   7.899 -1.0270 -0.4703  0.1860
 9314SOL    HW239576   2.423   1.997   7.941  0.9589  1.5373  2.4485
 9315SOL     OW39577   2.194   4.470  11.408 -0.0239 -0.2449 -0.1885
 9315SOL    HW139578   2.262   4.463  11.474  0.4269  0.6751 -0.5461
 9315SOL    HW239579   2.228   4.433  11.326 -1.0033  0.8042 -1.0831
 9316SOL     OW39580   3.803   1.816   9.711  0.2780 -0.2862 -0.0790
 9316SOL    HW139581   3.853   1.767   9.646  2.3080  0.3352  1.0165
 9316SOL    HW239582   3.827   1.780   9.796 -1.4616 -0.9044  0.1362
 9317SOL     OW39583   3.302   2.741   6.030  0.0473 -0.9654  0.1390
 9317SOL    HW139584   3.212   2.720   6.056 -0.7967  1.8085 -0.5590
 9317SOL    HW239585   3.349   2.764   6.110 -1.0325  1.1302  0.1834
 9318SOL     OW39586   0.553   0.807  16.544 -0.1592  1.0878  0.3666
 9318SOL    HW139587   0.559   0.714  16.523  0.4703  1.2312 -0.1039
 9318SOL    HW239588   0.603   0.817  16.625  1.9529  1.8221 -1.0323
 9319SOL     OW39589   0.554   0.627   4.470 -0.3317 -0.1441  0.5274
 9319SOL    HW139590   0.583   0.707   4.513 -0.3580 -0.8571  1.8872
 9319SOL    HW239591   0.459   0.632   4.481 -0.1982  0.2445  1.4986
 9320SOL     OW39592   4.293   4.554   6.371 -0.2642  0.1302 -0.5978
 9320SOL    HW139593   4.332   4.536   6.286  1.3220  0.1853  0.1169
 9320SOL    HW239594   4.308   4.472   6.419 -4.4230  0.0734  0.5585
 9321SOL     OW39595   3.851   2.714   0.630 -0.0224  0.3788 -0.0783
 9321SOL    HW139596   3.924   2.652   0.637 -1.0709 -0.5857  2.0144
 9321SOL    HW239597   3.861   2.746   0.719 -2.5547 -0.4980  0.4969
 9322SOL     OW39598   4.202   0.427  13.091  0.1344  0.1786 -0.0251
 9322SOL    HW139599   4.137   0.375  13.045  0.9716  0.6915 -1.8203
 9322SOL    HW239600   4.282   0.393  13.049 -0.0001  2.5250 -2.2136
 9323SOL     OW39601   0.474   1.633   4.730  0.2045  0.3127  0.3849
 9323SOL    HW139602   0.472   1.710   4.788 -0.2178 -0.5452  1.5055
 9323SOL    HW239603   0.489   1.560   4.790 -1.8358 -0.9794 -0.6855
 9324SOL     OW39604   0.665   3.895   4.402 -0.3898 -0.0699  0.0724
 9324SOL    HW139605   0.685   3.938   4.486  2.7021  1.8462 -1.6509
 9324SOL    HW239606   0.734   3.935   4.349  0.8182 -0.4373  1.3740
 9325SOL     OW39607   1.392   2.032   9.171 -0.8292  0.5444  0.2365
 9325SOL    HW139608   1.454   2.037   9.098 -0.0853 -0.4269  0.8107
 9325SOL    HW239609   1.385   2.125   9.195 -0.4106  0.8454 -0.8167
 9326SOL     OW39610   4.414   2.728   7.788 -0.2730  0.3709  0.5036
 9326SOL    HW139611   4.430   2.737   7.882 -0.1486 -0.2436  0.5408
 9326SOL    HW239612   4.396   2.814   7.751  2.3138  0.2826 -0.9771
 9327SOL     OW39613   2.777   2.154  14.759  0.4952  0.5688 -0.5521
 9327SOL    HW139614   2.709   2.162  14.827  2.2134  1.8823  0.9998
 9327SOL    HW239615   2.742   2.089  14.697  0.8376 -0.7469  0.6342
 9328SOL     OW39616   1.286   3.002   3.891  0.2004 -0.4882 -0.6114
 9328SOL    HW139617   1.382   2.999   3.890  0.1753 -1.2233 -0.4272
 9328SOL    HW239618   1.269   2.941   3.963 -0.9397  2.1646  1.3674
 9329SOL     OW39619   4.723   1.983  11.845 -0.3717  0.3124  0.1897
 9329SOL    HW139620   4.708   1.929  11.923  2.3570 -0.8660 -0.1086
 9329SOL    HW239621   4.673   2.061  11.870 -0.1002  0.5398  0.0091
 9330SOL     OW39622   2.567   0.219  16.520 -0.7353  0.1373 -0.0246
 9330SOL    HW139623   2.491   0.214  16.578 -0.8696 -0.6819 -0.2759
 9330SOL    HW239624   2.528   0.183  16.441 -0.4499  0.2387 -0.2142
 9331SOL     OW39625   1.671   1.548   1.916 -0.1816  0.0479 -0.7303
 9331SOL    HW139626   1.708   1.635   1.907  1.9084 -0.6826  1.0811
 9331SOL    HW239627   1.585   1.564   1.876  0.4258  0.3028 -1.9307
 9332SOL     OW39628   3.534   4.320   5.112  0.0875 -0.4128 -0.1030
 9332SOL    HW139629   3.599   4.314   5.042  0.3193  0.6666  0.0266
 9332SOL    HW239630   3.596   4.352   5.178 -1.5576  1.7133  0.4186
 9333SOL     OW39631   4.119   3.723   8.058 -0.1601 -0.8493 -0.2116
 9333SOL    HW139632   4.180   3.737   8.131 -0.4329  1.0351 -0.3551
 9333SOL    HW239633   4.061   3.660   8.100 -0.2448 -0.8570 -0.3411
 9334SOL     OW39634   3.572   0.327   3.661 -0.5063 -0.2760 -0.5377
 9334SOL    HW139635   3.488   0.285   3.681 -0.4256  0.2361  0.8434
 9334SOL    HW239636   3.583   0.298   3.570 -0.3879 -0.6361 -0.4095
 9335SOL     OW39637   2.167   3.528   5.441  0.4558  0.2530 -0.7063
 9335SOL    HW139638   2.186   3.536   5.348  0.8331  0.9291 -0.5643
 9335SOL    HW239639   2.212   3.445   5.462  0.2781  0.9599  2.5552
 9336SOL     OW39640   1.458   2.450   7.981 -0.0715  0.2456  0.1819
 9336SOL    HW139641   1.526   2.385   7.962 -0.3976  0.4777 -1.7730
 9336SOL    HW239642   1.494   2.491   8.060 -1.1048  2.6167 -0.5993
 9337SOL     OW39643   3.363   1.005  16.450  0.3717 -0.1803  0.2111
 9337SOL    HW139644   3.361   1.007  16.354  2.9955 -0.0594  0.1577
 9337SOL    HW239645   3.330   1.089  16.481  3.7778  1.3311 -0.2705
 9338SOL     OW39646   1.615   3.886   5.600  0.1778  0.2612  0.1524
 9338SOL    HW139647   1.644   3.968   5.641 -0.3242 -0.2863  1.6170
 9338SOL    HW239648   1.613   3.912   5.508 -1.0904  0.6946  0.2918
 9339SOL     OW39649   0.891   3.640   5.931 -0.4062 -0.3220 -0.7770
 9339SOL    HW139650   0.905   3.662   6.023  1.1523  1.4268 -1.4481
 9339SOL    HW239651   0.931   3.718   5.892  1.1322 -1.5049 -1.5408
 9340SOL     OW39652   1.544   3.723   3.645 -0.2429 -0.1218  0.1975
 9340SOL    HW139653   1.504   3.637   3.647  1.8472 -1.1292 -1.2310
 9340SOL    HW239654   1.571   3.736   3.736  1.1083  2.0483 -0.4808
 9341SOL     OW39655   1.260   1.604  12.473  0.0856 -0.2601 -0.3037
 9341SOL    HW139656   1.184   1.661  12.483  0.8941  1.0876 -1.8842
 9341SOL    HW239657   1.269   1.588  12.567 -0.6928 -1.7679 -0.4955
 9342SOL     OW39658   3.410   3.881   8.554 -0.3757 -0.1871 -0.3849
 9342SOL    HW139659   3.398   3.964   8.509  2.8847 -0.0744 -1.0344
 9342SOL    HW239660   3.493   3.894   8.599 -0.1226  0.0995 -0.9523
 9343SOL     OW39661   4.097   2.102   3.205 -0.0632 -0.1983  0.1646
 9343SOL    HW139662   4.122   2.080   3.115  3.6078  1.0104  0.9370
 9343SOL    HW239663   4.014   2.151   3.199 -0.5431 -1.0628 -0.3761
 9344SOL     OW39664   1.632   2.727   4.040 -0.1461  0.0297 -0.4837
 9344SOL    HW139665   1.612   2.742   3.947 -0.5699  0.2717 -0.3535
 9344SOL    HW239666   1.706   2.788   4.045 -1.1017  1.1616 -0.1549
 9345SOL     OW39667   1.897   3.039  13.266  0.5773  0.0794  0.4407
 9345SOL    HW139668   1.982   3.041  13.222  0.8246  0.3578  0.9249
 9345SOL    HW239669   1.843   3.099  13.214 -0.1236  0.3795  1.5150
 9346SOL     OW39670   2.478   0.213  15.329 -0.3773  0.3657 -0.3755
 9346SOL    HW139671   2.489   0.261  15.411  0.7217 -2.7207  1.2840
 9346SOL    HW239672   2.513   0.126  15.349 -1.3670 -0.2068 -1.1350
 9347SOL     OW39673   0.814   2.684   2.894  0.3261 -0.0120  0.0742
 9347SOL    HW139674   0.762   2.758   2.863 -0.4116 -1.1934 -1.4950
 9347SOL    HW239675   0.843   2.716   2.980  2.0367 -1.8453  0.1851
 9348SOL     OW39676   4.465   2.411   9.882  0.3436 -0.3709  0.1553
 9348SOL    HW139677   4.374   2.440   9.887  0.6503  0.1966  2.0785
 9348SOL    HW239678   4.497   2.448   9.964  0.7036 -1.0243  0.3099
 9349SOL     OW39679   2.997   1.699   7.381  0.0616 -0.1187 -0.4255
 9349SOL    HW139680   3.036   1.781   7.413 -0.6414 -0.2539  0.7746
 9349SOL    HW239681   2.904   1.717   7.394  0.2901  0.1254  0.8755
 9350SOL     OW39682   4.236   2.349  12.874 -0.1280 -0.0634 -0.8625
 9350SOL    HW139683   4.194   2.333  12.789 -0.2331 -2.4936 -0.3613
 9350SOL    HW239684   4.185   2.282  12.920 -2.6517  2.6754  0.3550
 9351SOL     OW39685   2.868   1.991   8.376  0.0991  0.1981 -0.0681
 9351SOL    HW139686   2.841   1.901   8.358  0.3314  0.0120  0.4906
 9351SOL    HW239687   2.957   1.981   8.411 -0.1489  0.7530  0.7292
 9352SOL     OW39688   3.008   1.483  16.178 -0.6092 -0.3887  0.5520
 9352SOL    HW139689   2.956   1.530  16.113 -0.5579 -1.4316 -0.2554
 9352SOL    HW239690   3.020   1.552  16.242 -0.4822  0.1055 -0.0017
 9353SOL     OW39691   1.522   4.460   6.774 -0.1415 -0.5449  1.1223
 9353SOL    HW139692   1.505   4.498   6.688  0.9932  1.1742  1.6487
 9353SOL    HW239693   1.518   4.537   6.831  0.6310 -0.2913  0.8311
 9354SOL     OW39694   2.071   4.119  10.914  0.3378  0.3085  0.1120
 9354SOL    HW139695   2.055   4.208  10.948  0.3129 -0.1633  1.3469
 9354SOL    HW239696   2.145   4.095  10.969  0.3019 -0.5960 -0.2330
 9355SOL     OW39697   3.084   1.170   1.151 -0.6826 -0.1680  0.2169
 9355SOL    HW139698   3.103   1.110   1.078 -0.1272 -1.6131  1.5353
 9355SOL    HW239699   3.170   1.210   1.163 -0.3174 -1.0696  0.6574
 9356SOL     OW39700   0.085   0.431   1.278  0.5486 -0.0378  0.1573
 9356SOL    HW139701   0.127   0.510   1.245 -0.4948  0.3039 -0.3491
 9356SOL    HW239702   0.031   0.407   1.202 -1.6504  1.4515  1.2492
 9357SOL     OW39703   0.124   3.770  12.895  0.3380 -0.9124 -1.0077
 9357SOL    HW139704   0.044   3.723  12.871 -1.0094  0.8325  0.1238
 9357SOL    HW239705   0.191   3.702  12.902 -0.3011 -1.5108 -0.7487
 9358SOL     OW39706   2.302   0.367   4.023 -0.4025  0.3993  0.2400
 9358SOL    HW139707   2.362   0.348   3.951 -1.2409 -0.3805 -0.2587
 9358SOL    HW239708   2.304   0.286   4.073 -0.7817 -1.0949 -2.2102
 9359SOL     OW39709   2.115   0.263   3.748 -0.6467 -0.5521  0.0094
 9359SOL    HW139710   2.119   0.168   3.757 -1.4204 -0.5969 -0.0793
 9359SOL    HW239711   2.037   0.277   3.802  0.5859 -0.3052  1.7298
 9360SOL     OW39712   1.963   3.775   4.260  0.2193 -0.6712 -0.4765
 9360SOL    HW139713   2.021   3.756   4.185  1.3223 -0.6311  0.3631
 9360SOL    HW239714   2.016   3.740   4.332  0.0574 -0.8898 -0.4636
 9361SOL     OW39715   3.057   3.101   4.767  0.0118 -0.0435 -0.2574
 9361SOL    HW139716   3.075   3.076   4.676  2.4016 -3.2240  1.1088
 9361SOL    HW239717   2.963   3.082   4.768  0.0434 -0.0857  1.6079
 9362SOL     OW39718   3.942   0.887   1.501 -0.1153  0.7615  0.1467
 9362SOL    HW139719   4.014   0.918   1.446  0.7327  0.1571  0.9282
 9362SOL    HW239720   3.998   0.879   1.578 -2.1770 -0.7296  1.4989
 9363SOL     OW39721   1.465   0.558   9.393  0.1413 -0.3491 -0.1175
 9363SOL    HW139722   1.470   0.649   9.364  0.0690  0.0011  0.9618
 9363SOL    HW239723   1.447   0.576   9.485 -1.1495 -0.0810 -0.4140
 9364SOL     OW39724   3.675   4.038   3.023  0.0736  0.3235 -0.9784
 9364SOL    HW139725   3.743   3.981   2.986  0.4647 -0.9066  1.6282
 9364SOL    HW239726   3.708   4.119   2.985  2.9520 -0.6930 -0.6655
 9365SOL     OW39727   1.647   2.356   0.230  0.3717  0.2530  0.4790
 9365SOL    HW139728   1.709   2.323   0.296 -0.6896  2.1381  2.4280
 9365SOL    HW239729   1.646   2.283   0.168  2.3399  1.5782 -1.0915
 9366SOL     OW39730   3.438   2.494  13.932  0.4463 -0.2815 -0.4124
 9366SOL    HW139731   3.443   2.583  13.898  0.2683  0.4141  1.3585
 9366SOL    HW239732   3.406   2.524  14.017  1.9233  0.4820 -0.1187
 9367SOL     OW39733   2.481   1.021  13.477  0.0101 -0.5239  0.3308
 9367SOL    HW139734   2.394   1.002  13.440 -0.9423  0.7935  1.8999
 9367SOL    HW239735   2.457   1.098  13.528  0.7296  0.3124 -0.5956
 9368SOL     OW39736   2.102   0.517  17.498 -0.6536 -0.6276 -0.6260
 9368SOL    HW139737   2.143   0.463  17.431  0.0887  0.7616 -1.3005
 9368SOL    HW239738   2.040   0.455  17.536 -1.5498  0.3242 -0.5487
 9369SOL     OW39739   1.079   4.670  15.877  0.4457 -0.8997 -0.0967
 9369SOL    HW139740   1.054   4.724  15.953  1.2076 -0.0596 -0.4348
 9369SOL    HW239741   0.998   4.670  15.828 -0.3727  0.9433  1.2420
 9370SOL     OW39742   0.724   2.261   1.036  0.3926 -0.0310 -0.1476
 9370SOL    HW139743   0.742   2.168   1.054 -1.4754 -0.0953  1.5018
 9370SOL    HW239744   0.687   2.243   0.949  1.2872  0.5638 -0.6488
 9371SOL     OW39745   2.814   1.030  10.665 -0.7176  0.1475 -0.0330
 9371SOL    HW139746   2.887   1.089  10.648 -1.5376  0.7494 -1.5189
 9371SOL    HW239747   2.812   0.983  10.582  0.0085 -1.1254  0.6845
 9372SOL     OW39748   3.465   0.371  13.729  0.4811  0.4725  0.3500
 9372SOL    HW139749   3.539   0.325  13.767  0.1825 -1.4254 -1.3526
 9372SOL    HW239750   3.401   0.312  13.767 -1.3862  2.2596 -0.0001
 9373SOL     OW39751   0.440   3.014   2.504  0.0615  0.2142 -0.7118
 9373SOL    HW139752   0.420   3.008   2.598 -0.7856  0.8286 -0.8562
 9373SOL    HW239753   0.476   2.927   2.487  0.2435  0.4404 -1.4771
 9374SOL     OW39754   1.469   3.676   6.489  0.1727  0.2092 -0.0785
 9374SOL    HW139755   1.555   3.702   6.523  0.5703 -0.4063 -0.6308
 9374SOL    HW239756   1.416   3.714   6.560 -1.0579 -3.6251  1.0659
 9375SOL     OW39757   1.879   0.945   4.218 -0.1192  0.2423 -0.2648
 9375SOL    HW139758   1.934   0.867   4.206 -2.0660 -0.8056 -2.3441
 9375SOL    HW239759   1.881   0.963   4.312  0.3097 -0.4227 -0.1425
 9376SOL     OW39760   3.316   4.342   2.683 -0.5073  0.0802  0.3063
 9376SOL    HW139761   3.231   4.367   2.720 -1.5682 -1.3084 -1.1939
 9376SOL    HW239762   3.366   4.423   2.686 -0.0732 -0.1102 -1.4138
 9377SOL     OW39763   1.683   1.878   5.082 -0.2539  0.2581  0.3872
 9377SOL    HW139764   1.758   1.895   5.139  2.0445 -2.0026 -1.9820
 9377SOL    HW239765   1.672   1.786   5.106 -2.2542 -0.0846 -1.7853
 9378SOL     OW39766   0.263   0.958  11.005 -0.2346 -0.3665  0.1580
 9378SOL    HW139767   0.222   1.021  11.064 -0.3433 -1.0111  0.7718
 9378SOL    HW239768   0.350   0.964  11.045  0.5593 -3.4146 -1.0958
 9379SOL     OW39769   1.424   3.540  11.921 -0.2796  0.2918  0.5612
 9379SOL    HW139770   1.394   3.601  11.855  0.2963  1.1333  1.0820
 9379SOL    HW239771   1.489   3.601  11.955 -0.3954  1.2689 -1.0271
 9380SOL     OW39772   0.609   3.703   7.033  0.2778  1.1438 -0.0658
 9380SOL    HW139773   0.682   3.722   6.975 -0.3044  0.0723 -1.1575
 9380SOL    HW239774   0.614   3.607   7.028  1.2335  1.1325  1.1466
 9381SOL     OW39775   1.636   0.820   9.157  1.0830  0.2847 -0.0843
 9381SOL    HW139776   1.672   0.868   9.083 -0.5514  1.9359  0.1874
 9381SOL    HW239777   1.681   0.738   9.135 -1.3018 -1.1558  0.3562
 9382SOL     OW39778   2.882   2.701   3.931  0.3380 -0.3853  0.1420
 9382SOL    HW139779   2.953   2.754   3.967  0.6439 -1.0560  0.5220
 9382SOL    HW239780   2.869   2.739   3.844 -1.2951 -1.7002 -0.1982
 9383SOL     OW39781   0.596   3.061  17.604  0.1013  0.8431  0.5292
 9383SOL    HW139782   0.688   3.085  17.607  0.3147 -0.1140  1.4851
 9383SOL    HW239783   0.603   2.967  17.590 -0.4050  0.7120  1.1756
 9384SOL     OW39784   3.634   0.553  13.559  0.1420  0.0614  0.1544
 9384SOL    HW139785   3.670   0.624  13.611 -0.2484  0.5253 -0.2169
 9384SOL    HW239786   3.597   0.500  13.630 -0.0579 -0.2614 -0.1917
 9385SOL     OW39787   1.583   1.217   3.703  0.0956  0.2939  0.5363
 9385SOL    HW139788   1.600   1.235   3.611  0.1148  0.4066  0.5626
 9385SOL    HW239789   1.488   1.226   3.711 -0.3708 -0.2930 -4.5657
 9386SOL     OW39790   2.019   0.239   6.757  0.1871  0.8796  0.1506
 9386SOL    HW139791   1.971   0.288   6.824 -1.3102 -0.8922  0.3404
 9386SOL    HW239792   2.103   0.220   6.799 -1.1297 -1.0109  1.8936
 9387SOL     OW39793   1.902   3.972   4.722  0.3218 -0.1829  0.4492
 9387SOL    HW139794   1.947   4.014   4.795  0.0650  1.1655 -0.1656
 9387SOL    HW239795   1.823   4.027   4.715  0.2514 -0.2352  0.8410
 9388SOL     OW39796   4.258   1.644   7.254  0.0041  0.2845  0.2071
 9388SOL    HW139797   4.202   1.722   7.255 -0.2830  0.1112 -1.8055
 9388SOL    HW239798   4.212   1.581   7.199  0.9893 -1.3654  1.3080
 9389SOL     OW39799   4.484   3.796   3.884  0.1590  0.3697  0.2903
 9389SOL    HW139800   4.502   3.724   3.822  1.1311  0.5626  0.3499
 9389SOL    HW239801   4.498   3.871   3.826 -1.1289 -1.6131 -2.6300
 9390SOL     OW39802   2.287   3.574   0.957 -0.1303 -0.2391 -0.2099
 9390SOL    HW139803   2.300   3.494   1.008  0.9727 -0.2940 -0.5648
 9390SOL    HW239804   2.269   3.631   1.031  2.2157 -0.4209  0.4824
 9391SOL     OW39805   3.080   4.666   3.982 -0.3575 -0.4000 -0.4159
 9391SOL    HW139806   2.989   4.669   3.952 -0.1330 -0.7952 -1.1182
 9391SOL    HW239807   3.078   0.002   4.044 -1.0763 -1.5928  0.9853
 9392SOL     OW39808   2.644   4.480   9.642  0.2945 -0.4503 -0.6599
 9392SOL    HW139809   2.593   4.485   9.723 -0.2454  1.4830 -1.1389
 9392SOL    HW239810   2.639   4.386   9.622  1.4885 -0.5294 -0.5979
 9393SOL     OW39811   1.615   4.578  10.927  0.2343  0.6249  0.3665
 9393SOL    HW139812   1.610   4.668  10.895 -2.7619  0.5476  0.5855
 9393SOL    HW239813   1.618   4.580  11.022  1.9625  0.3217  0.3093
 9394SOL     OW39814   0.178   2.699   8.318 -0.0036  0.4601  0.0266
 9394SOL    HW139815   0.217   2.786   8.307  3.4428 -1.0258  0.5472
 9394SOL    HW239816   0.188   2.656   8.233  0.4350 -0.3475  0.4902
 9395SOL     OW39817   2.633   2.080   5.382 -0.0054  0.3729 -0.0821
 9395SOL    HW139818   2.569   2.119   5.442  0.3001 -1.5147  1.4364
 9395SOL    HW239819   2.639   1.995   5.425 -1.1855 -0.0804 -0.8043
 9396SOL     OW39820   1.299   1.080  17.156  0.0686 -0.0734  0.1140
 9396SOL    HW139821   1.257   1.026  17.089  0.0646  0.6398 -0.4597
 9396SOL    HW239822   1.345   1.133  17.091 -1.7434  1.3292 -0.0335
 9397SOL     OW39823   3.146   3.992   6.728 -0.6222 -0.2278 -0.3320
 9397SOL    HW139824   3.238   3.971   6.710 -0.3214  0.4157  0.4279
 9397SOL    HW239825   3.101   3.995   6.644 -1.1599  1.5508  0.0157
 9398SOL     OW39826   1.763   1.006  11.751 -0.3234 -0.3362 -0.0855
 9398SOL    HW139827   1.724   0.923  11.779 -1.0640 -0.0417 -0.2344
 9398SOL    HW239828   1.811   0.986  11.671  0.2580  0.4783  0.0639
 9399SOL     OW39829   3.565   0.949   8.764  0.1328  0.9911 -0.4314
 9399SOL    HW139830   3.477   0.937   8.801  0.3878 -1.8235 -0.6988
 9399SOL    HW239831   3.620   0.890   8.816 -1.9822 -0.4734  0.1395
 9400SOL     OW39832   1.398   3.500   5.556 -0.2935 -0.2928 -0.3394
 9400SOL    HW139833   1.343   3.429   5.589  0.4375 -0.4127  0.6409
 9400SOL    HW239834   1.366   3.510   5.467  5.1644  0.4111 -2.2521
 9401SOL     OW39835   2.277   0.646  10.453 -0.3083 -0.2522 -0.4098
 9401SOL    HW139836   2.336   0.697  10.508 -0.5741  0.7819 -1.0802
 9401SOL    HW239837   2.257   0.585  10.525  0.2074 -1.0202 -0.9220
 9402SOL     OW39838   2.242   0.971  13.386  0.4832 -0.0843  0.1078
 9402SOL    HW139839   2.235   0.927  13.301  1.2315 -3.1714  1.6435
 9402SOL    HW239840   2.152   0.961  13.417  0.4677 -0.7761 -0.1373
 9403SOL     OW39841   0.408   1.078   4.643  0.1676  0.2622  0.0958
 9403SOL    HW139842   0.375   1.151   4.695 -2.0914 -1.5723  1.3002
 9403SOL    HW239843   0.487   1.064   4.695 -0.8556 -2.3830  0.9442
 9404SOL     OW39844   4.380   3.451   3.762  0.4183 -0.1414  0.2419
 9404SOL    HW139845   4.420   3.472   3.846 -0.1650  1.4259  0.1219
 9404SOL    HW239846   4.324   3.526   3.741  0.6761  0.1393  0.5610
 9405SOL     OW39847   3.790   3.376   9.712 -0.5961 -1.0103  0.1573
 9405SOL    HW139848   3.781   3.365   9.806 -0.8009 -0.4372  0.2005
 9405SOL    HW239849   3.816   3.286   9.691  2.2612  0.3975 -2.3798
 9406SOL     OW39850   4.025   2.924   0.347  0.8985 -0.0861 -0.2998
 9406SOL    HW139851   3.966   2.849   0.351  0.8111 -0.0002  0.0744
 9406SOL    HW239852   3.963   2.986   0.308  1.4774 -0.2113 -1.4033
 9407SOL     OW39853   3.269   3.764   5.530  0.1594 -0.1264  0.3898
 9407SOL    HW139854   3.313   3.817   5.596 -0.6497  1.6101 -0.4616
 9407SOL    HW239855   3.182   3.789   5.563 -0.6872 -0.2733 -1.7286
 9408SOL     OW39856   0.968   3.248   3.956 -0.0477 -0.3875 -0.0588
 9408SOL    HW139857   0.943   3.194   4.031 -5.2013  0.0554 -1.4138
 9408SOL    HW239858   0.934   3.329   3.997  1.3453 -0.6383  1.5810
 9409SOL     OW39859   3.006   4.390   9.658 -0.0678  0.5119 -0.4414
 9409SOL    HW139860   3.017   4.295   9.661  0.3932  0.6031  0.8649
 9409SOL    HW239861   2.911   4.394   9.657 -0.1506 -1.2511  0.1102
 9410SOL     OW39862   1.875   2.356   1.821 -0.0322  0.0460 -0.5150
 9410SOL    HW139863   1.794   2.304   1.817  0.5533 -0.9211  0.3586
 9410SOL    HW239864   1.832   2.437   1.850  0.1849 -0.4583  1.1951
 9411SOL     OW39865   2.437   3.207  13.583  0.6499 -0.0361 -0.2658
 9411SOL    HW139866   2.497   3.231  13.654 -2.0543  1.2846  1.5882
 9411SOL    HW239867   2.488   3.148  13.528  0.1471 -1.3325  0.6554
 9412SOL     OW39868   3.484   4.180  14.982 -0.1211 -0.1279  0.1793
 9412SOL    HW139869   3.510   4.142  14.898 -1.0799 -1.8555  0.6818
 9412SOL    HW239870   3.390   4.164  14.982  0.2188 -2.0189 -1.0709
 9413SOL     OW39871   3.970   4.455   1.889 -0.0477  0.9627 -0.6924
 9413SOL    HW139872   3.999   4.546   1.887  0.6453  0.7603 -0.0729
 9413SOL    HW239873   3.932   4.432   1.804  1.6146 -1.9436 -0.6580
 9414SOL     OW39874   3.762   4.483   2.661  0.4041 -0.0178 -0.1463
 9414SOL    HW139875   3.688   4.440   2.704  0.5367 -1.1931 -1.0675
 9414SOL    HW239876   3.742   4.573   2.687  1.3134  0.0641  0.2833
 9415SOL     OW39877   2.152   2.865   4.455 -0.4323  0.3779 -0.2960
 9415SOL    HW139878   2.230   2.820   4.423 -0.1628  0.9702 -0.4721
 9415SOL    HW239879   2.087   2.795   4.456 -0.2052  0.2168  2.9588
 9416SOL     OW39880   3.099   2.487   6.857 -0.0162  0.3332 -0.3326
 9416SOL    HW139881   3.138   2.572   6.879  0.1490  0.7869 -2.4282
 9416SOL    HW239882   3.097   2.439   6.940  1.3920 -0.4203 -0.7432
 9417SOL     OW39883   1.161   4.325   4.573 -0.2172 -0.0058 -0.7388
 9417SOL    HW139884   1.227   4.257   4.560  2.5911  2.4678  0.5518
 9417SOL    HW239885   1.191   4.405   4.529  1.6439 -0.2283  0.1493
 9418SOL     OW39886   0.455   1.608   3.260 -0.3268 -0.5555 -0.5395
 9418SOL    HW139887   0.420   1.689   3.297  1.8823 -0.4016  1.2320
 9418SOL    HW239888   0.377   1.554   3.277 -1.2698  0.8484 -0.4596
 9419SOL     OW39889   4.378   0.912  12.595  0.0155 -0.2541  0.2029
 9419SOL    HW139890   4.469   0.924  12.566  0.1743 -2.8149 -0.4138
 9419SOL    HW239891   4.346   0.998  12.570 -0.2220 -0.4493 -0.1566
 9420SOL     OW39892   3.403   1.928   4.645 -0.3368 -0.5991  0.2402
 9420SOL    HW139893   3.395   1.888   4.558  1.1610 -0.7095  0.1639
 9420SOL    HW239894   3.338   1.997   4.628 -1.4435 -2.4022 -2.8810
 9421SOL     OW39895   3.796   3.866  11.043  0.3613  0.5448 -0.3199
 9421SOL    HW139896   3.737   3.877  10.968  2.2759 -1.2043 -2.0838
 9421SOL    HW239897   3.755   3.919  11.111 -0.2208 -1.1590  0.6532
 9422SOL     OW39898   0.335   3.744   6.312  0.2520 -0.2245  0.1514
 9422SOL    HW139899   0.348   3.715   6.402  3.5697  1.6505  0.2706
 9422SOL    HW239900   0.269   3.681   6.283 -2.0732  1.6771  1.2979
 9423SOL     OW39901   1.672   0.308   6.777 -0.2048 -0.5923  0.5779
 9423SOL    HW139902   1.602   0.315   6.842  0.2500 -2.3316  1.2579
 9423SOL    HW239903   1.686   0.213   6.786 -1.0115 -0.9055 -1.3611
 9424SOL     OW39904   1.536   3.365   5.912  0.3340  0.0637 -0.2887
 9424SOL    HW139905   1.530   3.448   5.866 -2.8127  0.2905  0.5128
 9424SOL    HW239906   1.474   3.300   5.877  1.3184  0.1573 -2.2098
 9425SOL     OW39907   0.317   4.297   6.452 -0.1755  0.5161 -0.7082
 9425SOL    HW139908   0.339   4.306   6.360  0.2572  0.5894 -0.5986
 9425SOL    HW239909   0.318   4.202   6.465  2.8559  0.7292  0.6342
 9426SOL     OW39910   3.148   2.220   2.942 -0.1196  0.4999 -0.0453
 9426SOL    HW139911   3.131   2.228   3.036  2.4776  2.0311  0.3084
 9426SOL    HW239912   3.091   2.146   2.923 -1.4113  1.1380  1.3835
 9427SOL     OW39913   3.689   3.155   2.051  0.1622 -0.2555 -0.3135
 9427SOL    HW139914   3.621   3.163   2.118 -0.6315 -0.9895 -1.0376
 9427SOL    HW239915   3.743   3.080   2.077  0.8794  1.0653  2.0875
 9428SOL     OW39916   3.606   4.496   8.558  0.6108 -0.0243  0.2925
 9428SOL    HW139917   3.689   4.507   8.511  0.9288  1.1160  1.0964
 9428SOL    HW239918   3.626   4.540   8.641 -0.3082  0.1322  0.4263
 9429SOL     OW39919   3.859   3.807   6.687  0.1107 -0.0345 -0.3007
 9429SOL    HW139920   3.818   3.819   6.601  0.7755  2.0061 -0.3230
 9429SOL    HW239921   3.925   3.739   6.673 -1.3622 -1.1231 -2.0010
 9430SOL     OW39922   4.219   4.267  15.618  0.3166  0.4550 -0.2647
 9430SOL    HW139923   4.138   4.218  15.634 -1.9623  3.8135 -1.4370
 9430SOL    HW239924   4.184   4.346  15.661 -0.1395 -0.1200  0.4146
 9431SOL     OW39925   0.486   3.039  11.122  0.3118 -0.0584 -0.1882
 9431SOL    HW139926   0.533   3.108  11.170 -0.7456 -0.0324  0.8220
 9431SOL    HW239927   0.397   3.075  11.126  0.0982 -1.1695  5.9468
 9432SOL     OW39928   1.244   0.933  16.934 -0.0543 -0.2861  0.2014
 9432SOL    HW139929   1.288   0.958  16.853  2.3749 -1.4065  1.1842
 9432SOL    HW239930   1.319   0.881  16.962  0.7466 -1.1585 -3.5787
 9433SOL     OW39931   1.665   0.374  10.062  0.1071  0.8271 -0.4198
 9433SOL    HW139932   1.655   0.469  10.074 -1.7823  0.9607 -2.9185
 9433SOL    HW239933   1.574   0.344  10.069  0.7948 -1.3578 -1.1464
 9434SOL     OW39934   4.189   4.421  10.194 -0.6885 -0.2525  0.1590
 9434SOL    HW139935   4.262   4.419  10.255  0.9150 -1.3269 -1.7896
 9434SOL    HW239936   4.150   4.333  10.191 -0.1880 -0.4096 -1.8941
 9435SOL     OW39937   2.793   3.510   2.531  0.0975  0.5877 -0.4115
 9435SOL    HW139938   2.753   3.519   2.445  1.8914 -1.9316 -1.5259
 9435SOL    HW239939   2.834   3.596   2.530 -1.8481  1.5111  0.0792
 9436SOL     OW39940   3.249   0.097  10.772 -0.4138  0.2075 -0.2915
 9436SOL    HW139941   3.227   0.180  10.730  1.1826 -0.3830 -2.2915
 9436SOL    HW239942   3.194   0.033  10.726 -0.9047  1.0299 -0.8607
 9437SOL     OW39943   2.795   3.412   5.416 -0.1880  0.2947  0.0344
 9437SOL    HW139944   2.849   3.344   5.377  0.6643 -0.9893  3.4275
 9437SOL    HW239945   2.836   3.424   5.501  0.9949 -1.0864 -0.3527
 9438SOL     OW39946   3.530   4.318   8.916 -0.2716  0.2643 -0.9056
 9438SOL    HW139947   3.536   4.411   8.938 -1.7552  0.4320 -1.2107
 9438SOL    HW239948   3.442   4.325   8.880 -0.4534  1.4210 -0.2404
 9439SOL     OW39949   3.060   2.139  15.117  0.2413  0.0439 -0.2647
 9439SOL    HW139950   3.045   2.073  15.184  2.0446  1.2500  1.3469
 9439SOL    HW239951   2.981   2.192  15.126  1.0721  1.2447  0.0950
 9440SOL     OW39952   3.598   4.033   9.333  0.1691  1.2345  0.9440
 9440SOL    HW139953   3.578   3.985   9.413  1.5391  0.3116  0.7259
 9440SOL    HW239954   3.690   4.007   9.333 -0.0251  0.5685  0.6738
 9441SOL     OW39955   2.615   2.937   3.850 -0.6315 -0.1400  0.1197
 9441SOL    HW139956   2.545   2.908   3.908 -0.3304  0.5933  0.8517
 9441SOL    HW239957   2.671   2.987   3.910 -1.5404 -1.3756  2.0183
 9442SOL     OW39958   4.340   1.551   5.000  0.0691 -0.0507  0.0136
 9442SOL    HW139959   4.315   1.503   5.079  0.5413  2.5698  1.7669
 9442SOL    HW239960   4.418   1.590   5.040 -0.9850  0.6325  1.4264
 9443SOL     OW39961   1.989   0.655   5.811 -0.3230  0.4682  0.0926
 9443SOL    HW139962   2.046   0.639   5.886  0.2167 -0.8342 -0.5999
 9443SOL    HW239963   1.923   0.587   5.824 -0.1683  0.4428  0.7527
 9444SOL     OW39964   3.343   2.567   7.659 -0.1236 -0.2493 -0.4391
 9444SOL    HW139965   3.321   2.641   7.602 -0.4477  1.5331  2.0014
 9444SOL    HW239966   3.310   2.592   7.745  1.2081  2.2431 -0.6607
 9445SOL     OW39967   3.884   1.099   3.507  0.2271 -0.6646  0.3569
 9445SOL    HW139968   3.840   1.074   3.425 -0.8135 -2.9189  1.6164
 9445SOL    HW239969   3.853   1.032   3.567 -2.6947 -1.5702 -2.1395
 9446SOL     OW39970   2.842   0.843  10.451  0.1350 -0.9657 -0.0034
 9446SOL    HW139971   2.876   0.873  10.366 -3.0241  2.2915 -0.1158
 9446SOL    HW239972   2.797   0.770  10.409  3.2085 -1.9747 -1.5443
 9447SOL     OW39973   3.723   4.418  11.521  0.3645 -0.5869  0.3395
 9447SOL    HW139974   3.646   4.378  11.480 -0.4084 -0.4518  1.6564
 9447SOL    HW239975   3.773   4.418  11.440 -0.9384  0.9712 -0.4726
 9448SOL     OW39976   2.782   0.788   7.808  0.1883 -0.0761  0.6607
 9448SOL    HW139977   2.789   0.880   7.782  0.4449 -0.3763 -0.3057
 9448SOL    HW239978   2.870   0.762   7.834  0.6375  0.3571 -0.4380
 9449SOL     OW39979   0.169   4.132   8.855  0.2052 -0.2230 -0.2319
 9449SOL    HW139980   0.123   4.205   8.815 -0.2314 -0.2939  0.1436
 9449SOL    HW239981   0.181   4.076   8.778 -0.0442 -0.4631 -0.0955
 9450SOL     OW39982   4.002   0.623  13.391  0.6450 -0.1245  0.4739
 9450SOL    HW139983   3.993   0.528  13.390 -1.8735  0.1015  0.8170
 9450SOL    HW239984   3.993   0.639  13.297 -0.0141 -0.7525  0.4300
 9451SOL     OW39985   3.429   3.427   0.630  0.5348  0.2807  0.0137
 9451SOL    HW139986   3.427   3.350   0.572  2.6231  1.2374 -1.3148
 9451SOL    HW239987   3.448   3.395   0.718 -0.3584 -1.1544 -0.2999
 9452SOL     OW39988   1.355   2.574  13.956  0.0594  0.3803  0.2023
 9452SOL    HW139989   1.285   2.630  13.988 -1.7868 -1.5241 -0.4897
 9452SOL    HW239990   1.395   2.638  13.897 -0.7899  0.4002 -0.3494
 9453SOL     OW39991   4.350   0.395  14.020  0.1883 -0.4198  0.4051
 9453SOL    HW139992   4.301   0.435  14.091 -1.8818  0.5852 -1.5634
 9453SOL    HW239993   4.370   0.315  14.067  0.1678  0.0990  1.2834
 9454SOL     OW39994   2.739   1.840   9.185 -0.4727  0.0306 -0.6744
 9454SOL    HW139995   2.700   1.795   9.109 -0.6232  0.1660 -0.6754
 9454SOL    HW239996   2.806   1.891   9.140  0.5643 -0.5111  0.2382
 9455SOL     OW39997   0.824   1.627   9.655  0.7642  0.1224  0.1674
 9455SOL    HW139998   0.745   1.633   9.601  1.6915  3.1494 -0.8963
 9455SOL    HW239999   0.863   1.548   9.618 -1.9100 -0.8134 -0.6408
 9456SOL     OW40000   3.910   2.077   4.022 -0.4555 -0.1856 -0.4602
 9456SOL    HW140001   3.926   1.983   4.026 -0.7415 -0.3064 -2.1575
 9456SOL    HW240002   3.850   2.092   4.095 -1.1236 -0.0528 -1.0343
 9457SOL     OW40003   3.856   3.319  13.138  0.1572  0.1615  0.0458
 9457SOL    HW140004   3.888   3.385  13.076  1.3648 -0.7482 -0.3068
 9457SOL    HW240005   3.768   3.353  13.151  0.1635  0.8153 -1.5577
 9458SOL     OW40006   0.765   1.095   2.972 -0.0785 -0.0010 -0.3808
 9458SOL    HW140007   0.681   1.132   2.947  1.2909  1.5109 -2.7453
 9458SOL    HW240008   0.738   1.021   3.027 -0.4161  1.3261  1.2173
 9459SOL     OW40009   4.158   3.271  17.073 -0.1818  0.7036 -0.0451
 9459SOL    HW140010   4.141   3.209  17.002 -0.4391  1.5989 -0.7739
 9459SOL    HW240011   4.253   3.279  17.070 -0.0666 -0.6853 -0.4227
 9460SOL     OW40012   0.773   1.135   5.782  0.1627 -0.6668 -0.2424
 9460SOL    HW140013   0.733   1.082   5.850 -1.3707  0.9178  0.0834
 9460SOL    HW240014   0.828   1.197   5.829 -1.3137 -0.5743  1.3524
 9461SOL     OW40015   4.260   2.663   6.570  0.2138  0.0646 -0.0957
 9461SOL    HW140016   4.290   2.752   6.550  1.0858  0.0111  0.9929
 9461SOL    HW240017   4.186   2.656   6.509 -0.0911 -1.5640  0.4752
 9462SOL     OW40018   1.250   3.706   6.297 -0.3018  0.2335 -0.1868
 9462SOL    HW140019   1.272   3.788   6.252 -0.2780  0.8253  0.8909
 9462SOL    HW240020   1.331   3.684   6.343 -0.6514 -2.5287 -0.9293
 9463SOL     OW40021   4.163   4.156   6.715  0.3596 -0.2941  0.2104
 9463SOL    HW140022   4.091   4.149   6.653  0.2841  0.9783  0.1379
 9463SOL    HW240023   4.131   4.217   6.781  0.3917  0.0036 -0.0486
 9464SOL     OW40024   1.944   2.909  14.523  0.4134  0.5886 -0.5892
 9464SOL    HW140025   1.885   2.835  14.516  0.6729  0.2562  0.6547
 9464SOL    HW240026   2.013   2.879  14.464 -1.5289 -1.0018 -2.0130
 9465SOL     OW40027   3.143   0.945   1.832  0.0305 -0.0628  0.0720
 9465SOL    HW140028   3.142   0.888   1.908  0.3402 -2.3889 -1.6564
 9465SOL    HW240029   3.050   0.964   1.829 -0.2802 -1.8038 -1.9763
 9466SOL     OW40030   3.859   4.200   9.206 -0.4563 -1.2517  0.0664
 9466SOL    HW140031   3.940   4.250   9.214  0.2254 -2.5144  1.1501
 9466SOL    HW240032   3.873   4.126   9.265  0.6280 -2.2585 -1.4683
 9467SOL     OW40033   3.968   3.623   7.576  0.1974  0.1473  0.1329
 9467SOL    HW140034   3.874   3.604   7.579  0.4509 -1.3468 -1.4646
 9467SOL    HW240035   3.989   3.668   7.658  0.4443 -0.2571  0.2912
 9468SOL     OW40036   0.207   1.003   8.711  0.3948  0.2191  0.6591
 9468SOL    HW140037   0.167   1.090   8.715 -1.7645 -0.7564  0.0556
 9468SOL    HW240038   0.192   0.967   8.799 -2.1264 -2.3874 -0.8556
 9469SOL     OW40039   4.246   3.021   3.404 -0.3923  0.2451 -0.3124
 9469SOL    HW140040   4.174   2.962   3.427 -0.6208  1.2364  1.4900
 9469SOL    HW240041   4.245   3.072   3.485  3.3180  0.6208 -0.5058
 9470SOL     OW40042   3.380   0.224   5.861 -0.3453 -0.1754 -0.0955
 9470SOL    HW140043   3.328   0.161   5.811  0.4819  0.9076 -2.2832
 9470SOL    HW240044   3.460   0.183   5.894 -0.7405 -1.2996 -0.5500
 9471SOL     OW40045   3.172   4.320   8.101 -0.4228 -0.4411 -0.2476
 9471SOL    HW140046   3.098   4.373   8.073 -0.1440  0.3510  0.5274
 9471SOL    HW240047   3.185   4.263   8.025 -0.5035  2.3466 -2.3583
 9472SOL     OW40048   0.249   2.956   8.325 -0.3256  0.0724 -0.5447
 9472SOL    HW140049   0.333   2.949   8.278  0.5665  2.7206  0.6806
 9472SOL    HW240050   0.209   3.033   8.286  2.5182  0.9597 -1.6904
 9473SOL     OW40051   3.820   4.347   4.722 -0.0598  0.1422  0.7657
 9473SOL    HW140052   3.824   4.420   4.784  0.1545  0.6767  0.1313
 9473SOL    HW240053   3.728   4.351   4.695  0.4199  0.9035 -0.7734
 9474SOL     OW40054   0.532   2.497   5.430 -0.1284  0.1044  0.1679
 9474SOL    HW140055   0.607   2.526   5.482  0.3739 -2.8374  1.0924
 9474SOL    HW240056   0.570   2.514   5.344  1.2313  0.5197  0.8439
 9475SOL     OW40057   2.397   2.400   8.259 -0.1926  0.0145  0.0122
 9475SOL    HW140058   2.395   2.494   8.274  0.2917  0.0256  0.0184
 9475SOL    HW240059   2.336   2.363   8.322 -0.9353  1.1082 -0.0789
 9476SOL     OW40060   3.116   3.310  15.768 -0.0404  0.0521  0.2741
 9476SOL    HW140061   3.057   3.301  15.693  1.8040 -1.8805 -0.9540
 9476SOL    HW240062   3.075   3.255  15.834  0.8069 -0.0124  0.7466
 9477SOL     OW40063   4.396   3.548   2.814 -0.2037  0.2566  0.8455
 9477SOL    HW140064   4.335   3.537   2.887 -1.8164  1.2603 -0.3422
 9477SOL    HW240065   4.396   3.462   2.773  2.9122  0.1627  1.0606
 9478SOL     OW40066   2.668   4.016  15.984 -0.2023 -0.2985  0.2057
 9478SOL    HW140067   2.739   4.030  16.048 -0.3319 -2.3166  0.7871
 9478SOL    HW240068   2.627   4.102  15.978  2.0835  0.8644  1.0838
 9479SOL     OW40069   4.213   2.876   6.317  0.4543 -0.6124 -0.5453
 9479SOL    HW140070   4.121   2.873   6.288  0.8594  0.3450 -1.9246
 9479SOL    HW240071   4.237   2.962   6.281  1.6258 -0.5585  0.3806
 9480SOL     OW40072   3.790   3.481  16.022  0.5781  0.0018  0.0717
 9480SOL    HW140073   3.797   3.550  15.956  0.0200  0.0605  0.0765
 9480SOL    HW240074   3.698   3.458  16.022  0.8968 -1.2540  0.4533
 9481SOL     OW40075   3.639   4.401   1.927 -0.0903 -0.1071  0.3440
 9481SOL    HW140076   3.701   4.443   1.987  1.6836  3.0414 -3.7017
 9481SOL    HW240077   3.694   4.415   1.849 -1.4240 -0.7903 -0.7180
 9482SOL     OW40078   4.026   0.653   9.206  0.2449 -0.6369 -0.1064
 9482SOL    HW140079   4.057   0.728   9.255 -2.1312  0.0589  0.3175
 9482SOL    HW240080   3.939   0.630   9.240 -0.6468 -0.1785 -2.0475
 9483SOL     OW40081   2.338   1.758   8.908  0.2687 -0.3900 -0.4437
 9483SOL    HW140082   2.320   1.682   8.852  2.5097 -0.7186 -0.7259
 9483SOL    HW240083   2.350   1.825   8.841  0.3141 -0.3333 -0.3785
 9484SOL     OW40084   3.407   4.573   2.808 -0.3698  0.3311 -0.5227
 9484SOL    HW140085   3.422   4.665   2.827 -1.1835  0.4655 -0.5178
 9484SOL    HW240086   3.432   4.530   2.890 -0.2367 -0.3683 -0.9317
 9485SOL     OW40087   0.001   0.417   5.812  0.0633  0.1429 -0.1069
 9485SOL    HW140088   4.719   0.360   5.886 -0.1063 -1.2601 -1.2174
 9485SOL    HW240089   0.069   0.366   5.768 -1.0546  0.4820 -2.2143
 9486SOL     OW40090   0.129   1.824   6.394  0.3529 -0.0390  0.1290
 9486SOL    HW140091   0.100   1.736   6.371  0.5921  0.1965 -1.0736
 9486SOL    HW240092   0.051   1.868   6.428  0.6450  1.9759 -1.8718
 9487SOL     OW40093   0.635   2.875   1.956  0.3338 -0.0426 -0.0535
 9487SOL    HW140094   0.597   2.927   1.886 -0.0836  0.6884  0.7271
 9487SOL    HW240095   0.638   2.785   1.922 -0.7955 -0.3099  0.5453
 9488SOL     OW40096   3.636   0.697   9.884  0.4894 -0.3578  0.4959
 9488SOL    HW140097   3.666   0.786   9.906 -0.6444  0.9075 -2.9891
 9488SOL    HW240098   3.564   0.682   9.944  0.3821  1.0599  0.7209
 9489SOL     OW40099   3.339   0.266   9.221  0.0348  0.6826  0.1539
 9489SOL    HW140100   3.315   0.356   9.199  0.1540  0.2509 -1.7368
 9489SOL    HW240101   3.428   0.277   9.254  0.3956 -1.4320 -0.0820
 9490SOL     OW40102   3.838   1.094   8.171  0.0766  0.2125  0.7114
 9490SOL    HW140103   3.773   1.121   8.106 -0.3984  2.2070  2.0316
 9490SOL    HW240104   3.787   1.072   8.249 -1.6307  1.0518 -0.1727
 9491SOL     OW40105   1.831   1.546   5.263 -0.0054 -0.0108 -0.1315
 9491SOL    HW140106   1.759   1.514   5.317 -1.3397  0.5167 -1.6133
 9491SOL    HW240107   1.891   1.471   5.258 -1.8585 -1.4260 -1.0607
 9492SOL     OW40108   1.241   4.503   5.600 -0.0078 -0.0889 -0.1493
 9492SOL    HW140109   1.224   4.434   5.536 -0.7315 -1.1952  1.2478
 9492SOL    HW240110   1.331   4.483   5.627 -0.4385 -1.9193 -0.1120
 9493SOL     OW40111   0.306   4.636   1.984 -0.1315 -0.0428  0.3210
 9493SOL    HW140112   0.234   4.574   1.971  0.6298 -0.6423 -1.0101
 9493SOL    HW240113   0.277   4.704   2.045 -2.7632  0.9817 -2.0458
 9494SOL     OW40114   3.419   2.799  11.825  0.1002  0.2350  0.1430
 9494SOL    HW140115   3.510   2.785  11.800  0.0425  0.7044 -0.3140
 9494SOL    HW240116   3.407   2.889  11.798 -0.1337  0.0789 -0.2741
 9495SOL     OW40117   3.395   0.003   4.454 -0.3303 -0.3262  0.5145
 9495SOL    HW140118   3.341   0.070   4.495 -1.6428 -1.4426  0.6061
 9495SOL    HW240119   3.418   0.043   4.371  0.4680 -0.0438  0.8686
 9496SOL     OW40120   0.269   3.399   0.628  0.4764 -0.0654 -0.4186
 9496SOL    HW140121   0.285   3.305   0.619  1.1359 -0.0678  0.7048
 9496SOL    HW240122   0.221   3.420   0.548  0.6337  2.8001  0.2159
 9497SOL     OW40123   1.134   2.807   3.282  0.2752  0.3373 -0.3105
 9497SOL    HW140124   1.229   2.801   3.292  0.3849 -1.8178 -2.6734
 9497SOL    HW240125   1.130   2.903   3.285  1.2161  0.3537  0.4596
 9498SOL     OW40126   1.098   4.553   8.229  0.4858  0.4648 -0.3699
 9498SOL    HW140127   1.100   4.640   8.268 -2.6059 -0.2279  1.3149
 9498SOL    HW240128   1.043   4.506   8.292  1.1883 -0.3171 -0.3324
 9499SOL     OW40129   2.116   3.838   7.087  0.4306  0.4501  0.6916
 9499SOL    HW140130   2.021   3.826   7.089  0.3991  0.5124 -0.7252
 9499SOL    HW240131   2.120   3.926   7.051 -1.5038  0.6602  1.0187
 9500SOL     OW40132   2.833   1.189   4.973  0.3583 -0.4717  0.1273
 9500SOL    HW140133   2.802   1.256   5.034 -0.4948 -0.8950  0.1721
 9500SOL    HW240134   2.826   1.112   5.031  0.5101 -1.1197 -0.7176
 9501SOL     OW40135   2.813   3.233   5.012  0.5306 -0.2431 -0.0063
 9501SOL    HW140136   2.721   3.242   5.036  1.0347  2.7457  0.7644
 9501SOL    HW240137   2.817   3.167   4.942 -1.6590  2.5344 -2.7010
 9502SOL     OW40138   3.208   3.122   3.055 -0.6354 -0.0723 -0.1723
 9502SOL    HW140139   3.198   3.216   3.040  0.3169  0.7534  4.4113
 9502SOL    HW240140   3.124   3.092   3.088  0.1144 -1.0655  0.8314
 9503SOL     OW40141   4.239   1.247  13.088 -0.4668 -0.7022  0.2614
 9503SOL    HW140142   4.261   1.199  13.167 -0.1109 -1.3427 -0.2270
 9503SOL    HW240143   4.328   1.255  13.053 -0.5600  2.0863  0.6416
 9504SOL     OW40144   3.440   1.745   2.414  0.1300  0.3391  0.0141
 9504SOL    HW140145   3.450   1.820   2.355 -0.7630 -0.0178 -0.5811
 9504SOL    HW240146   3.449   1.661   2.370  1.4758 -0.1425  1.1761
 9505SOL     OW40147   0.732   3.021   2.590 -0.3301  0.1742 -0.0533
 9505SOL    HW140148   0.686   2.975   2.520 -1.5324  0.2827  0.6724
 9505SOL    HW240149   0.737   3.110   2.555 -1.5675  0.5608  0.7708
 9506SOL     OW40150   2.562   4.301  14.044  0.5954  0.5903  0.1651
 9506SOL    HW140151   2.566   4.384  14.092  2.8365  0.0646  0.8847
 9506SOL    HW240152   2.494   4.327  13.982  0.1683  2.1593  1.2704
 9507SOL     OW40153   2.205   2.279  12.549 -0.7552 -1.1514  0.2155
 9507SOL    HW140154   2.134   2.279  12.485 -0.6602 -0.9024  0.1113
 9507SOL    HW240155   2.171   2.205  12.600 -0.0433 -1.2264  0.5876
 9508SOL     OW40156   2.151   3.517  12.106 -0.0095 -0.1158  0.3669
 9508SOL    HW140157   2.136   3.472  12.190 -1.1262 -1.8627 -0.7646
 9508SOL    HW240158   2.137   3.607  12.134 -1.7400 -0.4563  0.6252
 9509SOL     OW40159   2.547   2.940   1.736 -0.1219 -0.7029  0.1807
 9509SOL    HW140160   2.563   2.960   1.828 -0.2937 -1.0629  0.2920
 9509SOL    HW240161   2.453   2.958   1.730  0.0646 -0.8487 -3.0760
 9510SOL     OW40162   2.178   2.196  17.548 -0.2714  0.2721  0.3627
 9510SOL    HW140163   2.215   2.284  17.557 -0.6272  0.4503  0.0990
 9510SOL    HW240164   2.186   2.163  17.638  0.8205 -2.6628 -0.8223
 9511SOL     OW40165   1.378   4.183   6.007 -0.1584 -0.1941  0.5907
 9511SOL    HW140166   1.458   4.131   6.010 -1.2672 -1.7295  3.7326
 9511SOL    HW240167   1.410   4.248   5.945 -0.8430  0.3746  0.8301
 9512SOL     OW40168   3.048   1.243   6.112 -0.0403  0.4222 -0.2796
 9512SOL    HW140169   2.972   1.186   6.103 -0.1202  0.4878 -0.0046
 9512SOL    HW240170   3.063   1.231   6.205 -0.2159 -2.0582 -0.5736
 9513SOL     OW40171   3.799   4.250  10.091  0.0864 -0.0305 -0.2190
 9513SOL    HW140172   3.719   4.198  10.098 -0.2098  0.0260 -2.8553
 9513SOL    HW240173   3.765   4.313  10.026  2.9170  1.0692 -0.6286
 9514SOL     OW40174   3.105   1.829   9.508  0.4368  0.3016 -0.1364
 9514SOL    HW140175   3.111   1.858   9.417 -0.7700  1.2598  0.0917
 9514SOL    HW240176   3.108   1.918   9.541  1.3761  0.0076  0.5577
 9515SOL     OW40177   1.642   1.676  15.058  0.2915 -0.2566  0.3520
 9515SOL    HW140178   1.694   1.751  15.028 -2.0820  0.9304 -0.8438
 9515SOL    HW240179   1.613   1.714  15.141 -0.8721 -0.3251 -0.0186
 9516SOL     OW40180   1.072   2.687   8.727 -0.5255 -0.4010 -0.5745
 9516SOL    HW140181   1.097   2.769   8.770  1.2354 -1.3261  0.1567
 9516SOL    HW240182   1.052   2.633   8.803  1.1258  1.0393  0.8976
 9517SOL     OW40183   2.734   2.711   7.621  0.2812 -0.1058  0.1249
 9517SOL    HW140184   2.823   2.689   7.646  0.7111  1.8872  0.3865
 9517SOL    HW240185   2.732   2.804   7.645  0.0509 -0.1793  0.3871
 9518SOL     OW40186   2.285   1.706   6.632  0.1883  0.3730  0.0490
 9518SOL    HW140187   2.352   1.771   6.654  1.3621 -1.5679  2.2353
 9518SOL    HW240188   2.308   1.706   6.540 -0.0653 -1.3332 -0.0125
 9519SOL     OW40189   0.398   3.695   6.580 -0.3223  0.1751 -0.2234
 9519SOL    HW140190   0.406   3.614   6.632  2.7243 -1.5252 -3.3340
 9519SOL    HW240191   0.494   3.696   6.576 -0.2326 -0.5806  1.5644
 9520SOL     OW40192   2.409   1.489  10.330  0.4223  0.5128 -0.5253
 9520SOL    HW140193   2.328   1.452  10.293  0.0025  0.6699  0.2206
 9520SOL    HW240194   2.452   1.517  10.249  0.4348  0.3836 -0.5633
 9521SOL     OW40195   0.173   2.452  17.669  0.4195 -0.2424  0.6383
 9521SOL    HW140196   0.243   2.477  17.729 -0.2840 -0.4464  1.5423
 9521SOL    HW240197   0.195   2.366  17.633  1.1047  0.5000 -0.7226
 9522SOL     OW40198   3.884   1.630   3.437  0.7726 -0.2008  0.2077
 9522SOL    HW140199   3.917   1.542   3.418 -1.0371 -0.9900  0.7683
 9522SOL    HW240200   3.937   1.641   3.516  2.1957 -1.3530 -0.5649
 9523SOL     OW40201   0.128   1.680  12.200  0.1709  0.4083  0.1246
 9523SOL    HW140202   0.127   1.586  12.219  3.1909  0.2724 -0.4418
 9523SOL    HW240203   0.050   1.696  12.252 -0.6843 -1.4019 -0.5902
 9524SOL     OW40204   1.803   1.850   5.558 -0.1237 -0.1338 -0.4489
 9524SOL    HW140205   1.834   1.854   5.467  1.0118  2.2380  0.0431
 9524SOL    HW240206   1.843   1.929   5.596  1.7449 -0.8651 -0.8841
 9525SOL     OW40207   4.562   3.760  13.199 -0.6503 -0.0597  0.2422
 9525SOL    HW140208   4.558   3.843  13.248 -0.1556  0.5358 -0.7209
 9525SOL    HW240209   4.649   3.732  13.225 -0.1717  0.0991 -1.2334
 9526SOL     OW40210   3.105   3.999  14.558  0.2831  0.1406 -0.0220
 9526SOL    HW140211   3.034   4.004  14.494  1.3412 -2.2752 -1.3788
 9526SOL    HW240212   3.175   3.993  14.493 -0.6378  0.3406 -1.0280
 9527SOL     OW40213   0.450   3.369   0.834  0.1470  0.1306 -0.2238
 9527SOL    HW140214   0.446   3.439   0.899 -0.7901  0.0120 -0.1433
 9527SOL    HW240215   0.374   3.396   0.781 -0.5123 -2.0629 -0.4224
 9528SOL     OW40216   0.201   0.513   1.769 -0.3716 -0.3439 -0.1823
 9528SOL    HW140217   0.135   0.447   1.746  1.0855 -1.0919 -2.2594
 9528SOL    HW240218   0.152   0.558   1.837  0.3101  1.9675 -1.2328
 9529SOL     OW40219   1.984   1.398   1.970 -0.5781 -0.6212  0.2415
 9529SOL    HW140220   1.994   1.320   2.023  4.6949  0.8995  1.4965
 9529SOL    HW240221   1.949   1.459   2.035  0.0301 -1.9287  1.7809
 9530SOL     OW40222   3.505   3.893   5.192 -0.0492 -0.1474  0.3869
 9530SOL    HW140223   3.419   3.935   5.186  0.4249  1.1127  2.6227
 9530SOL    HW240224   3.564   3.949   5.141  0.3547  0.0617  1.0903
 9531SOL     OW40225   2.501   4.152  16.696 -0.0681  0.4171  0.3115
 9531SOL    HW140226   2.407   4.169  16.697 -0.1472 -0.0322  0.2010
 9531SOL    HW240227   2.499   4.087  16.625 -0.3039  0.3481  0.3829
 9532SOL     OW40228   0.363   3.641  14.181 -0.6668 -0.3795 -0.4426
 9532SOL    HW140229   0.343   3.652  14.088  1.7306  2.4104 -0.6446
 9532SOL    HW240230   0.344   3.727  14.220  0.0473  0.2687 -1.4978
 9533SOL     OW40231   0.771   4.594  12.152  0.4380  0.3333  0.1705
 9533SOL    HW140232   0.740   4.505  12.140  0.4776  0.5863 -1.8201
 9533SOL    HW240233   0.812   4.602  12.066 -1.2163 -0.9766 -0.7194
 9534SOL     OW40234   3.357   1.344  10.442 -0.2147 -0.1368 -0.2523
 9534SOL    HW140235   3.425   1.301  10.492 -0.1602  0.0336 -0.1813
 9534SOL    HW240236   3.380   1.437  10.440  1.0691 -0.4389  0.5231
 9535SOL     OW40237   3.805   1.443   1.806 -0.0038  0.4014 -0.1911
 9535SOL    HW140238   3.833   1.352   1.809 -0.4612  0.2133 -1.5753
 9535SOL    HW240239   3.731   1.431   1.746 -0.0699  4.3876 -0.8709
 9536SOL     OW40240   3.828   0.441   5.683 -0.5800  0.0718  0.3076
 9536SOL    HW140241   3.749   0.492   5.669 -0.5567  0.6193  2.1793
 9536SOL    HW240242   3.884   0.503   5.729  1.4347 -0.0024 -2.0251
 9537SOL     OW40243   3.346   4.234   6.473  0.4853  0.0274  0.3070
 9537SOL    HW140244   3.285   4.159   6.478 -0.0020  0.2286 -2.7797
 9537SOL    HW240245   3.326   4.259   6.383  0.9077  0.4753  0.3441
 9538SOL     OW40246   2.242   0.562   1.971 -0.6648 -0.0720 -0.7323
 9538SOL    HW140247   2.168   0.567   1.910 -1.6145  0.6232  0.4954
 9538SOL    HW240248   2.311   0.513   1.926  0.0493  0.1901  0.0847
 9539SOL     OW40249   3.949   2.181   2.390  0.0121 -0.5042 -0.2401
 9539SOL    HW140250   3.968   2.273   2.406  0.5585 -0.9351  1.6741
 9539SOL    HW240251   3.903   2.157   2.470  1.3393  2.2226  1.3441
 9540SOL     OW40252   2.980   3.388   0.371  0.1800  0.4362 -0.0322
 9540SOL    HW140253   2.916   3.449   0.333 -1.3166  0.1599  2.0922
 9540SOL    HW240254   3.055   3.389   0.311  1.3616  0.1539  1.4388
 9541SOL     OW40255   0.136   0.878   4.644 -0.2690  0.4737 -0.2486
 9541SOL    HW140256   0.107   0.966   4.666  0.4923  0.6757 -0.0634
 9541SOL    HW240257   0.189   0.857   4.721  0.1094  0.8338 -0.4167
 9542SOL     OW40258   4.112   0.419   6.628 -0.0267  0.5902 -0.4114
 9542SOL    HW140259   4.140   0.402   6.718 -2.1394 -2.7487 -0.3656
 9542SOL    HW240260   4.037   0.363   6.606 -0.3697  1.9766 -2.8337
 9543SOL     OW40261   1.888   1.106   3.979  0.0218  0.3913 -0.2396
 9543SOL    HW140262   1.885   1.086   4.072 -0.1653  0.6306 -0.1936
 9543SOL    HW240263   1.846   1.025   3.949 -0.6485  1.2061 -1.4999
 9544SOL     OW40264   3.576   1.949   0.262  0.2280  0.5300 -0.1358
 9544SOL    HW140265   3.572   1.924   0.355  1.7715  1.2316  0.1230
 9544SOL    HW240266   3.586   1.858   0.234 -1.0524  0.0166  1.0178
 9545SOL     OW40267   2.141   4.554   5.281  0.1112  0.1844  0.3178
 9545SOL    HW140268   2.187   4.492   5.225  0.0509 -0.1986  0.6937
 9545SOL    HW240269   2.050   4.550   5.250 -0.1640 -0.3661  1.1958
 9546SOL     OW40270   2.392   1.729  13.778 -0.6750  0.2362 -0.1625
 9546SOL    HW140271   2.410   1.694  13.691 -5.0769 -0.3233 -0.8568
 9546SOL    HW240272   2.471   1.781  13.792 -0.4142 -0.1294 -0.2747
 9547SOL     OW40273   0.644   0.978   6.148 -0.1952 -0.1900  0.3423
 9547SOL    HW140274   0.687   1.058   6.177 -0.1797 -0.8073  2.0562
 9547SOL    HW240275   0.585   0.968   6.224  0.0109 -2.3212  0.2151
 9548SOL     OW40276   3.679   1.032   1.483 -0.0969 -0.1764 -0.0595
 9548SOL    HW140277   3.753   1.004   1.537 -1.0843 -2.3154  0.2012
 9548SOL    HW240278   3.604   0.996   1.529  0.6864 -0.5154  0.9461
 9549SOL     OW40279   3.234   3.052   2.284  0.2990 -0.1687 -0.3803
 9549SOL    HW140280   3.239   3.139   2.324 -2.7206 -0.6386  1.0075
 9549SOL    HW240281   3.146   3.021   2.305  1.1967 -1.4245  1.5019
 9550SOL     OW40282   0.933   1.985  16.841  0.2359  0.5078 -0.2108
 9550SOL    HW140283   0.906   1.981  16.749  2.0027 -1.9841 -0.6331
 9550SOL    HW240284   0.985   1.904  16.850  1.5484  1.6023  1.9942
 9551SOL     OW40285   3.857   0.831   3.941  0.0160  0.1967 -0.5157
 9551SOL    HW140286   3.890   0.742   3.955  0.1171  0.4025  0.5852
 9551SOL    HW240287   3.913   0.876   4.005 -0.7017  1.5189 -0.8092
 9552SOL     OW40288   1.167   0.981   2.004  0.0647  0.7368 -0.2842
 9552SOL    HW140289   1.102   0.919   2.038  0.0641  1.3609  0.8752
 9552SOL    HW240290   1.115   1.028   1.939 -1.9905 -1.1812 -0.0487
 9553SOL     OW40291   1.665   1.523   3.413 -0.1972  0.2296 -0.1693
 9553SOL    HW140292   1.626   1.577   3.344 -0.6132  1.5932  1.1154
 9553SOL    HW240293   1.718   1.592   3.453  2.0907 -1.7305  0.1617
 9554SOL     OW40294   3.458   1.966   1.614 -0.3726  0.0711  0.3015
 9554SOL    HW140295   3.477   1.893   1.554  0.5707 -1.8799  2.9885
 9554SOL    HW240296   3.541   1.997   1.650 -0.5864 -1.9141  2.4833
 9555SOL     OW40297   2.251   1.676  12.174  0.4488 -0.1098 -0.4215
 9555SOL    HW140298   2.243   1.661  12.269 -0.8479 -0.7709 -0.6360
 9555SOL    HW240299   2.197   1.602  12.147  0.1847 -0.1012  0.0628
 9556SOL     OW40300   1.823   3.982   4.423  0.0999 -0.1396  0.0954
 9556SOL    HW140301   1.851   3.985   4.515  2.4569  1.9453 -0.6942
 9556SOL    HW240302   1.881   3.912   4.395  0.1439  0.1328 -0.4902
 9557SOL     OW40303   3.984   4.372   2.505  0.2906  0.3860 -0.0808
 9557SOL    HW140304   3.953   4.283   2.519  0.3924  0.2205 -0.9220
 9557SOL    HW240305   3.908   4.416   2.542  0.4661  0.4325  0.2315
 9558SOL     OW40306   3.395   1.870   9.404 -0.4097  0.1059  0.2149
 9558SOL    HW140307   3.352   1.935   9.348  1.9564  0.7443 -0.8668
 9558SOL    HW240308   3.470   1.919   9.437 -1.0376 -1.1987  3.5292
 9559SOL     OW40309   1.486   0.769  16.177  0.0069 -0.2982 -0.0585
 9559SOL    HW140310   1.468   0.857  16.144 -1.2199 -1.3843 -2.2921
 9559SOL    HW240311   1.498   0.730  16.091  1.2033  1.8088 -0.8553
 9560SOL     OW40312   2.466   1.069  12.351  0.2428 -0.6402 -0.3807
 9560SOL    HW140313   2.549   1.022  12.362 -0.8517 -1.7068  3.5136
 9560SOL    HW240314   2.419   1.019  12.418 -1.7251  2.5099  0.5904
 9561SOL     OW40315   3.858   2.279   6.409  0.1479 -0.0168  0.2995
 9561SOL    HW140316   3.877   2.347   6.474 -0.0223 -1.5189  1.9513
 9561SOL    HW240317   3.773   2.308   6.376 -1.1114 -1.2841  2.4023
 9562SOL     OW40318   1.146   4.489   5.912 -0.5903  0.3815 -0.1280
 9562SOL    HW140319   1.234   4.471   5.945 -0.3169  1.1168 -0.4605
 9562SOL    HW240320   1.129   4.439   5.832  2.1101  0.4861 -0.7867
 9563SOL     OW40321   0.076   0.644   4.175  0.1651 -0.2709 -0.0957
 9563SOL    HW140322   0.135   0.601   4.113  1.2088  0.0153  0.7019
 9563SOL    HW240323   0.114   0.733   4.170  1.2984 -0.7600 -0.3001
 9564SOL     OW40324   3.003   2.233   5.182 -0.4267 -0.3087  0.1490
 9564SOL    HW140325   2.927   2.290   5.181  0.3875  0.7356 -0.8713
 9564SOL    HW240326   3.062   2.308   5.187  2.8612 -2.7296 -2.6066
 9565SOL     OW40327   1.961   4.443   8.492  0.3813  0.5153  0.5048
 9565SOL    HW140328   2.023   4.393   8.546  1.2228 -0.6192 -1.5258
 9565SOL    HW240329   2.022   4.501   8.447 -0.8329 -0.2985 -2.1387
 9566SOL     OW40330   0.371   0.177   2.392  0.2180  0.3447  0.3354
 9566SOL    HW140331   0.412   0.115   2.452  0.6662  0.4634  0.1491
 9566SOL    HW240332   0.438   0.245   2.403 -0.7652  1.4893 -0.7422
 9567SOL     OW40333   3.653   0.264   3.104 -0.3045  0.1286  0.2709
 9567SOL    HW140334   3.578   0.286   3.049 -1.2018 -1.3163  0.9290
 9567SOL    HW240335   3.701   0.347   3.108 -0.1866  0.1702 -2.1791
 9568SOL     OW40336   3.680   4.546   0.275  0.0513  0.2985 -0.1331
 9568SOL    HW140337   3.676   4.451   0.268 -0.2432  0.5501 -3.1191
 9568SOL    HW240338   3.761   4.564   0.324 -0.6408  0.1578  1.0797
 9569SOL     OW40339   4.671   2.801   7.160  0.1626 -0.0422  0.2638
 9569SOL    HW140340   4.627   2.855   7.225  1.1531  2.4499 -1.1447
 9569SOL    HW240341   4.600   2.760   7.110  1.3796  0.1492 -1.6603
 9570SOL     OW40342   2.212   4.357  10.714 -0.9362  0.3102  0.0136
 9570SOL    HW140343   2.144   4.293  10.737 -0.5888 -0.5811 -1.4447
 9570SOL    HW240344   2.198   4.418  10.786 -4.7465 -0.3117 -0.1778
 9571SOL     OW40345   0.269   2.235   7.991 -0.4179  0.3343 -0.3640
 9571SOL    HW140346   0.328   2.257   8.063 -0.0577 -1.1941 -0.1817
 9571SOL    HW240347   0.335   2.212   7.925  1.0491 -1.5889  1.7730
   4.73686   4.73686  17.74583
