Membrane in water
40347
    1TMC1    C1    1   3.574   1.286  11.527  0.1515  0.0510 -0.3792
    1TMC1    C2    2   3.544   1.260  11.396 -0.0481  0.2721  0.7322
    1TMC1    C3    3   3.617   1.330  11.298 -0.5247  0.0200  0.1943
    1TMC1    C4    4   3.658   1.387  11.567 -0.2836  0.1936  0.2539
    1TMC1    C5    5   3.708   1.470  11.464  0.2051 -1.0227  0.5847
    1TMC1    C6    6   3.704   1.435  11.330 -0.4774 -0.3622 -0.2520
    1TMC1     C    7   3.475   1.228  11.616  0.6462 -0.4387  0.2989
    1TMC1     O    8   3.374   1.185  11.557  0.2852  0.0973  0.1153
    1TMC1     H    9   3.472   1.188  11.360 -0.9473  1.0940  0.8774
    1TMC1    H1   10   3.674   1.422  11.668  1.2155 -0.4044  0.2222
    1TMC1    H2   11   3.768   1.488  11.260 -0.7373 -0.7464 -0.7776
    1TMC1    C7   12   3.757   1.596  11.500  0.3800 -0.8412 -0.5506
    1TMC1    C8   13   3.671   1.244  11.196 -0.4828  0.0480 -0.2695
    1TMC1    O1   14   3.806   1.620  11.609  0.2672  0.3056 -0.2685
    1TMC1    O2   15   3.653   1.123  11.206  0.2666  0.2283  0.4316
    1TMC1    O3   16   3.676   1.677  11.426  0.4248 -0.4035  0.2782
    1TMC1    H3   17   3.615   1.646  11.356 -0.6597  0.5471  0.7907
    1TMC1    O5   18   3.752   1.306  11.110 -0.0143  0.3832 -0.6427
    1TMC1    H5   19   3.726   1.399  11.094  1.0787  0.4742 -1.9076
    2MPD2     C   20   3.300   1.082  12.071  0.4686 -0.1715 -0.0625
    2MPD2    C1   21   3.240   1.084  11.949  0.2164 -0.2896 -0.2117
    2MPD2    C2   22   3.308   1.139  11.844  0.2800 -0.2953 -1.1303
    2MPD2    C3   23   3.429   1.199  11.855 -0.0763  0.9593 -0.2289
    2MPD2    C4   24   3.488   1.204  11.979  0.2288  0.3258  0.6400
    2MPD2    C5   25   3.426   1.139  12.082 -0.5178  0.1867 -0.3736
    2MPD2     H   26   3.253   1.135  11.750  0.9108  0.8648 -1.5414
    2MPD2    H1   27   3.584   1.249  11.999  0.2923  1.3810 -1.9167
    2MPD2    H2   28   3.247   1.036  12.153 -1.8389  2.0496 -0.2867
    2MPD2    H3   29   3.481   1.135  12.176 -1.4851 -0.1851  0.1838
    2MPD2     N   30   3.498   1.254  11.750  0.5299  0.4107 -0.4443
    2MPD2    H5   31   3.588   1.290  11.779  1.4610 -1.5891 -0.8810
    2MPD2    N1   32   3.130   1.013  11.913  0.2118  0.3838 -0.0523
    2MPD2    H7   33   3.083   1.035  11.826 -1.1713  0.3992  0.6904
    3TMC1    C1   34   2.851   2.347  10.676  0.5667 -0.4426  0.1072
    3TMC1    C2   35   2.865   2.246  10.763  0.3087  0.2390  0.2481
    3TMC1    C3   36   2.986   2.185  10.776 -0.7867  0.1373  0.2410
    3TMC1    C4   37   2.950   2.383  10.586 -0.3061 -0.3694 -0.2508
    3TMC1    C5   38   3.071   2.314  10.596 -0.3713 -0.1793 -0.7207
    3TMC1    C6   39   3.087   2.208  10.687  0.3576  0.6850  0.2733
    3TMC1     C   40   2.718   2.376  10.622  0.2073 -0.3648 -0.0738
    3TMC1     O   41   2.715   2.427  10.507 -0.4467  0.3652  0.0222
    3TMC1     H   42   2.778   2.216  10.820  0.4204 -0.4022  0.0894
    3TMC1    H1   43   2.933   2.459  10.512 -1.4018 -1.9336 -1.5848
    3TMC1    H2   44   3.188   2.169  10.700  0.5202  0.7561 -0.7863
    3TMC1    C7   45   3.195   2.383  10.549  0.4175  0.3297 -0.5704
    3TMC1    C8   46   2.985   2.052  10.828  0.2934  0.4984 -0.2952
    3TMC1    O1   47   3.308   2.359  10.578  0.3972 -0.0918  0.1718
    3TMC1    O2   48   3.072   1.974  10.795 -0.3905  0.2488  0.3952
    3TMC1    O3   49   3.169   2.401  10.415 -0.0346  0.5759  0.1070
    3TMC1    H3   50   3.074   2.391  10.391  0.0197 -1.3804  0.7733
    3TMC1    O5   51   2.932   2.062  10.952  0.6235  0.5988 -0.1879
    3TMC1    H5   52   2.925   2.158  10.970 -0.3477  0.2829  1.1065
    4MPD2     C   53   2.214   2.443  10.671  0.1915  0.4026  0.2265
    4MPD2    C1   54   2.263   2.431  10.798  0.0210 -0.3343  0.5714
    4MPD2    C2   55   2.401   2.420  10.814 -0.2986  1.2435  0.8470
    4MPD2    C3   56   2.483   2.403  10.707  0.5195  0.3032  0.6530
    4MPD2    C4   57   2.430   2.396  10.579 -0.6294  0.1751 -0.1217
    4MPD2    C5   58   2.294   2.425  10.561  0.5536  0.2950 -0.0342
    4MPD2     H   59   2.443   2.409  10.914  2.2188  1.7166 -0.1470
    4MPD2    H1   60   2.485   2.370  10.490  0.3729 -0.4044  0.6657
    4MPD2    H2   61   2.109   2.459  10.647 -0.5673 -2.2169  1.7136
    4MPD2    H3   62   2.251   2.429  10.461 -0.5134  0.7685  0.4533
    4MPD2     N   63   2.623   2.382  10.724  1.0703 -0.2207 -0.1996
    4MPD2    H5   64   2.652   2.374  10.821  0.8437 -0.1543 -0.1267
    4MPD2    N1   65   2.175   2.433  10.909  0.2629  0.5039  0.1244
    4MPD2    H7   66   2.216   2.422  11.001 -0.8060 -1.1255  0.3953
    5TCq1    O1   67   3.383   4.327  12.166  0.1494  0.0824  0.1163
    5TCq1    C1   68   3.295   4.425  12.177  0.1438 -0.0837 -0.4569
    5TCq1    O2   69   3.294   4.494  12.278  0.0219 -0.1044  0.1820
    5TCq1    C2   70   3.178   4.349  12.133 -0.1922  0.5256 -0.3661
    5TCq1    C3   71   3.100   4.286  12.228  0.4580  0.0216  0.3763
    5TCq1    C4   72   3.018   4.180  12.200  0.4042  0.0703  0.6707
    5TCq1    C5   73   2.999   4.146  12.069  0.3413 -0.5512  0.1452
    5TCq1    C6   74   3.080   4.208  11.968  0.0379 -0.0610  0.7908
    5TCq1    C7   75   3.180   4.296  12.001  0.3217  0.5517  0.3179
    5TCq1    C8   76   3.061   4.171  11.832 -0.9352 -0.3888  0.3267
    5TCq1    O4   77   2.993   4.075  11.814  0.1604  0.6040  0.0712
    5TCq1    C9   78   2.931   4.120  12.306 -0.2242 -0.1240  0.2892
    5TCq1    O5   79   2.840   4.039  12.275 -0.0718 -0.1934 -0.1822
    5TCq1    O6   80   2.950   4.154  12.425 -0.5281  0.3373 -0.1027
    5TCq1    H1   81   3.336   4.251  12.126 -0.6209  1.2067 -1.0965
    5TCq1    H2   82   3.095   4.327  12.328  2.5682 -0.8465  0.8187
    5TCq1    H3   83   2.927   4.070  12.040  0.7080 -1.3521  1.3387
    5TCq1    H4   84   3.249   4.329  11.924  0.3226  2.3910  1.0949
    6MPD2     C   85   3.080   4.380  11.537  0.6447 -0.2460  0.5254
    6MPD2    C1   86   3.085   4.262  11.608 -0.0808  0.0803 -0.4518
    6MPD2    C2   87   3.081   4.142  11.538 -0.8231  0.0859  0.5968
    6MPD2    C3   88   3.105   4.134  11.401  0.5793  0.4323  0.3892
    6MPD2    C4   89   3.099   4.252  11.335  0.2817  0.8020  0.1985
    6MPD2    C5   90   3.081   4.372  11.404  0.4978  0.4497 -0.3214
    6MPD2     H   91   3.075   4.045  11.586 -1.9286  0.1532  0.5981
    6MPD2    H1   92   3.100   4.250  11.227 -0.1125 -0.4811  0.2202
    6MPD2    H2   93   3.072   4.474  11.591  0.4429 -0.7942  1.4606
    6MPD2    H3   94   3.088   4.466  11.352  0.3945  0.2772 -0.6459
    6MPD2     N   95   3.135   4.007  11.340 -0.6461  0.0387  0.6508
    6MPD2    H5   96   3.132   3.932  11.408 -0.5648  0.2687  0.9068
    6MPD2    N1   97   3.088   4.272  11.749 -0.1601 -0.1946  0.7781
    6MPD2    H7   98   3.113   4.364  11.784  2.3819 -0.5305 -0.1811
    7TCq1    O1   99   4.477   3.691  13.013 -0.6853 -0.3234  0.1813
    7TCq1    C1  100   4.481   3.624  13.135  0.4892 -0.4308 -0.3452
    7TCq1    O2  101   4.573   3.641  13.215 -0.0161  0.5118 -0.1824
    7TCq1    C2  102   4.432   3.486  13.104 -0.2851 -0.9628 -0.5114
    7TCq1    C3  103   4.313   3.474  13.040  0.4700  0.8384  0.9301
    7TCq1    C4  104   4.265   3.348  13.025  0.2411 -0.1459 -0.1615
    7TCq1    C5  105   4.330   3.244  13.076  0.2086 -0.0982 -0.0510
    7TCq1    C6  106   4.454   3.256  13.134 -0.0078  0.5042 -0.5890
    7TCq1    C7  107   4.513   3.379  13.143  0.5272 -0.2954 -0.0593
    7TCq1    C8  108   4.529   3.131  13.177 -0.4971 -0.3068  0.5296
    7TCq1    O4  109   4.465   3.030  13.167  0.0151  0.6665 -0.5363
    7TCq1    C9  110   4.141   3.338  12.949 -0.1371  0.3100  0.0674
    7TCq1    O5  111   4.080   3.445  12.934  0.3007 -0.6792 -0.4061
    7TCq1    O6  112   4.120   3.230  12.889 -0.1275 -0.0839 -0.3090
    7TCq1    H1  113   4.439   3.636  12.940  1.2110 -2.9619  1.2047
    7TCq1    H2  114   4.250   3.561  13.028 -2.3773 -1.6051 -2.1064
    7TCq1    H3  115   4.282   3.147  13.076 -0.3307  0.1699  0.2982
    7TCq1    H4  116   4.592   3.404  13.212 -0.2521 -2.0134  1.4345
    8MPD2     C  117   0.215   2.904  13.363 -0.9371  0.2703  0.2664
    8MPD2    C1  118   0.086   2.858  13.356 -0.5041  0.2374  0.3074
    8MPD2    C2  119   4.720   2.933  13.306 -0.5975 -0.1672  0.0511
    8MPD2    C3  120   0.014   3.063  13.261 -0.0264 -0.3146  0.0397
    8MPD2    C4  121   0.138   3.123  13.275 -0.2284 -0.3983  0.2147
    8MPD2    C5  122   0.235   3.037  13.330 -0.5113 -0.1472  0.1447
    8MPD2     H  123   4.616   2.902  13.300 -0.6007 -0.1340 -0.0819
    8MPD2    H1  124   0.152   3.224  13.240  0.6179 -0.5500  0.1283
    8MPD2    H2  125   0.291   2.840  13.406 -0.9161  2.2217  3.1573
    8MPD2    H3  126   0.335   3.079  13.339 -0.8359  0.6440  0.0566
    8MPD2     N  127   4.659   3.158  13.198 -0.8040 -0.0147  0.0120
    8MPD2    H5  128   4.698   3.248  13.172 -0.8138  0.2989  1.0682
    8MPD2    N1  129   0.061   2.729  13.405  0.8769 -0.6333  0.0159
    8MPD2    H7  130   0.138   2.693  13.459 -0.2155 -1.8029  0.7874
    9TMC1    C1  131   2.398   2.072  10.421 -0.5498 -0.6826 -0.0742
    9TMC1    C2  132   2.528   2.057  10.465 -0.7175 -0.4870  0.3357
    9TMC1    C3  133   2.626   2.102  10.382 -0.7842  0.3797 -0.5413
    9TMC1    C4  134   2.370   2.134  10.304 -0.3572 -0.4136  0.0756
    9TMC1    C5  135   2.467   2.184  10.226  0.1227  0.6607  0.7975
    9TMC1    C6  136   2.599   2.162  10.260 -0.3827 -0.2684 -0.0022
    9TMC1     C  137   2.288   2.048  10.511  0.0165 -0.2978 -0.2946
    9TMC1     O  138   2.173   2.054  10.471  0.6649  0.1404 -0.5813
    9TMC1     H  139   2.551   2.004  10.557 -0.3452 -0.4853  0.2454
    9TMC1    H1  140   2.267   2.162  10.283  0.7957  2.4333 -1.7958
    9TMC1    H2  141   2.680   2.190  10.194 -3.1636  1.1549 -2.7959
    9TMC1    C7  142   2.427   2.243  10.100  0.6310 -0.0271  0.1723
    9TMC1    C8  143   2.761   2.083  10.430  0.5251 -0.4986 -0.4809
    9TMC1    O1  144   2.327   2.212  10.037 -0.3200 -0.5254 -0.0306
    9TMC1    O2  145   2.782   2.070  10.549  0.2986  0.3659 -0.3999
    9TMC1    O3  146   2.519   2.336  10.064 -0.4761 -0.3282  0.3433
    9TMC1    H3  147   2.591   2.357  10.127 -0.8531  0.0764  0.6372
    9TMC1    O5  148   2.854   2.107  10.333 -0.1651  0.1621 -0.2986
    9TMC1    H5  149   2.807   2.099  10.247  0.7661 -1.3682 -0.6578
   10MPD2     C  150   2.139   2.070  10.766  0.6057 -0.4298 -0.2859
   10MPD2    C1  151   2.258   2.007  10.758 -0.0068  0.3119 -0.2036
   10MPD2    C2  152   2.319   1.962  10.877 -0.0134  0.5299  0.2679
   10MPD2    C3  153   2.248   1.965  10.993 -0.0445 -0.7699  0.0682
   10MPD2    C4  154   2.121   2.015  10.996 -0.3224 -0.3887 -0.3362
   10MPD2    C5  155   2.068   2.071  10.881  0.2551 -0.4186  0.2003
   10MPD2     H  156   2.424   1.935  10.878  0.0549  0.7802 -0.0481
   10MPD2    H1  157   2.058   2.025  11.084 -0.8954  2.3687 -1.0428
   10MPD2    H2  158   2.095   2.113  10.677  0.7369 -0.2545 -0.2662
   10MPD2    H3  159   1.970   2.117  10.893  0.6621  0.0582  1.7379
   10MPD2     N  160   2.299   1.910  11.108 -0.0865 -0.5399  0.5526
   10MPD2    H5  161   2.240   1.908  11.191 -1.7537  3.3053 -0.4985
   10MPD2    N1  162   2.335   2.029  10.646 -0.3243 -0.1929  0.9699
   10MPD2    H7  163   2.434   2.007  10.648 -0.6312 -1.2537  4.1094
   11TCq1    O1  164   3.435   1.689  14.307 -0.1697  0.0388  0.8459
   11TCq1    C1  165   3.427   1.729  14.439  0.4185  0.1467  0.3305
   11TCq1    O2  166   3.506   1.689  14.521 -0.1300  0.4707  0.5414
   11TCq1    C2  167   3.335   1.837  14.466 -0.1342  0.3768 -1.0430
   11TCq1    C3  168   3.372   1.932  14.567  0.1540  0.4644  0.0120
   11TCq1    C4  169   3.281   2.036  14.584  0.6940 -0.5305  0.7887
   11TCq1    C5  170   3.169   2.042  14.505 -0.4318  0.2857  0.6410
   11TCq1    C6  171   3.137   1.946  14.411  0.0434 -0.1378  0.4435
   11TCq1    C7  172   3.225   1.850  14.384  0.8438  0.1806  0.0760
   11TCq1    C8  173   2.994   1.926  14.396 -0.5099 -0.3966  0.0823
   11TCq1    O4  174   2.909   2.002  14.446  0.7333 -0.2856 -0.1711
   11TCq1    C9  175   3.300   2.126  14.692  0.2867 -0.3442 -0.5204
   11TCq1    O5  176   3.315   2.247  14.663 -0.3297 -0.1505 -0.2022
   11TCq1    O6  177   3.292   2.075  14.810  0.3612 -0.7984 -0.1379
   11TCq1    H1  178   3.390   1.742  14.238  0.2460  0.2248  0.7203
   11TCq1    H2  179   3.462   1.911  14.623 -0.1650 -1.5560 -0.2409
   11TCq1    H3  180   3.100   2.124  14.525 -1.4030 -0.5209  0.5661
   11TCq1    H4  181   3.205   1.760  14.328 -0.5308  1.3642 -1.3186
   12MPD2     C  182   2.731   1.783  14.346  0.3202  0.1049 -0.0246
   12MPD2    C1  183   2.850   1.739  14.303  0.0522  0.1548 -0.2874
   12MPD2    C2  184   2.856   1.609  14.244 -0.1482  0.3178 -0.2956
   12MPD2    C3  185   2.746   1.536  14.198  0.2816  0.2303  0.2809
   12MPD2    C4  186   2.624   1.595  14.226  0.3858  0.2011 -0.7276
   12MPD2    C5  187   2.620   1.707  14.304  0.2512 -0.1961  0.7223
   12MPD2     H  188   2.951   1.571  14.207  0.9524  0.4140  2.4478
   12MPD2    H1  189   2.531   1.541  14.217 -1.4205  3.1324  0.6312
   12MPD2    H2  190   2.714   1.882  14.387 -0.7816 -0.1681  0.1675
   12MPD2    H3  191   2.520   1.735  14.335 -0.1405 -0.7243 -0.0947
   12MPD2     N  192   2.753   1.406  14.138  0.0111 -0.3301  0.8716
   12MPD2    H5  193   2.665   1.362  14.111  1.1124 -2.8591  1.3465
   12MPD2    N1  194   2.974   1.805  14.337  0.1504  0.3289  0.6536
   12MPD2    H7  195   3.061   1.757  14.319  0.4097  0.8490  0.5184
   13TCq1    O1  196   2.317   0.813  11.681  0.7812  0.0994  0.2936
   13TCq1    C1  197   2.331   0.737  11.572  0.5475  0.2925 -1.3552
   13TCq1    O2  198   2.444   0.691  11.545 -0.0885  0.5596  0.5849
   13TCq1    C2  199   2.266   0.813  11.465 -0.3907  0.4068  0.0318
   13TCq1    C3  200   2.308   0.782  11.344  0.0325  0.1230 -0.4536
   13TCq1    C4  201   2.297   0.871  11.243 -0.5543 -0.0970  0.4417
   13TCq1    C5  202   2.263   0.996  11.271 -0.8209  0.4935 -0.5073
   13TCq1    C6  203   2.232   1.035  11.397 -0.4305 -0.7647  0.2831
   13TCq1    C7  204   2.239   0.949  11.496  0.0170  0.1431 -0.1078
   13TCq1    C8  205   2.192   1.176  11.420 -0.4182  0.2981 -0.1898
   13TCq1    O4  206   2.174   1.211  11.535  0.2836 -0.4635  0.1327
   13TCq1    C9  207   2.346   0.832  11.109  0.8981  0.0800  0.4233
   13TCq1    O5  208   2.328   0.914  11.015  0.6170 -0.2333 -0.0742
   13TCq1    O6  209   2.423   0.734  11.090  0.0081 -0.5842  0.0147
   13TCq1    H1  210   2.222   0.827  11.700  0.3867 -1.1497 -0.7505
   13TCq1    H2  211   2.348   0.685  11.315 -0.1100 -0.0007 -0.2365
   13TCq1    H3  212   2.268   1.064  11.186 -2.4091  1.5006  0.1966
   13TCq1    H4  213   2.205   0.987  11.592 -0.9915 -0.2742 -0.3092
   14MPD2     C  214   2.016   1.399  11.182  0.1180  0.1618  0.4888
   14MPD2    C1  215   2.084   1.367  11.296 -0.1069  0.4376  0.8495
   14MPD2    C2  216   2.115   1.467  11.387 -0.6095 -0.8289  0.1080
   14MPD2    C3  217   2.083   1.596  11.360  0.6695 -0.0913  0.6625
   14MPD2    C4  218   2.016   1.628  11.242  0.2757 -0.2723 -0.5388
   14MPD2    C5  219   1.978   1.534  11.158  0.1938 -0.7079  0.0137
   14MPD2     H  220   2.169   1.446  11.479  0.4692  1.1778 -0.0708
   14MPD2    H1  221   1.989   1.731  11.219 -2.7295 -1.2408 -1.3108
   14MPD2    H2  222   1.985   1.326  11.108 -1.4051 -0.7322  2.0275
   14MPD2    H3  223   1.941   1.554  11.059  1.0405 -0.5732 -0.2746
   14MPD2     N  224   2.102   1.697  11.460  0.0698  0.1529  0.3524
   14MPD2    H5  225   2.113   1.658  11.554  0.3189  0.7203  0.5579
   14MPD2    N1  226   2.131   1.233  11.309 -0.0380 -0.2050 -0.2192
   14MPD2    H7  227   2.111   1.174  11.228  3.4426  0.4109 -1.4957
   15TCq1    O1  228   0.052   0.576   1.824 -0.0571 -0.4020  0.2517
   15TCq1    C1  229   0.058   0.445   1.803 -0.1583 -0.1292  0.3513
   15TCq1    O2  230   0.164   0.395   1.762 -0.3003 -0.2756 -0.1938
   15TCq1    C2  231   4.670   0.388   1.758 -0.6539  0.0658  0.3323
   15TCq1    C3  232   4.556   0.405   1.831 -0.0531  0.4909 -0.3868
   15TCq1    C4  233   4.471   0.301   1.845 -0.1939  0.9593  0.3564
   15TCq1    C5  234   4.484   0.188   1.769 -0.0310  0.2888  0.4348
   15TCq1    C6  235   4.588   0.177   1.677  0.0786 -0.1396  0.2546
   15TCq1    C7  236   4.682   0.279   1.674 -0.7659 -0.6337  0.2185
   15TCq1    C8  237   4.609   0.074   1.577  0.2878  0.1186 -0.4725
   15TCq1    O4  238   4.712   0.076   1.513 -0.4789  0.3974 -0.0045
   15TCq1    C9  239   4.366   0.308   1.942  0.2821 -0.0701  0.1845
   15TCq1    O5  240   4.285   0.211   1.950 -0.1181 -0.2916  0.7392
   15TCq1    O6  241   4.359   0.410   2.011 -0.0180 -0.2913  0.1797
   15TCq1    H1  242   4.706   0.621   1.808  0.6435  0.7724 -0.2614
   15TCq1    H2  243   4.555   0.495   1.891  0.7873 -1.0167  1.8869
   15TCq1    H3  244   4.414   0.106   1.783  0.6240 -0.1203  1.3452
   15TCq1    H4  245   0.034   0.255   1.623 -1.3977 -0.4591 -1.0025
   16MPD2     C  246   4.366   4.560   1.460  0.7493  1.0435 -0.2098
   16MPD2    C1  247   4.488   4.620   1.474 -0.1276 -0.6016 -0.5124
   16MPD2    C2  248   4.596   4.565   1.415  0.2196  0.1895  0.3737
   16MPD2    C3  249   4.590   4.453   1.337  0.4211  0.3456 -0.0234
   16MPD2    C4  250   4.462   4.394   1.332  0.1043  0.4481  0.3093
   16MPD2    C5  251   4.350   4.452   1.381 -0.0567  0.2731  0.0062
   16MPD2     H  252   4.694   4.612   1.415  1.3775 -2.2400 -0.7763
   16MPD2    H1  253   4.445   4.299   1.283 -1.7606 -0.2518  2.3289
   16MPD2    H2  254   4.280   4.603   1.509 -0.9657 -1.3216 -1.1307
   16MPD2    H3  255   4.260   4.393   1.363 -0.1828  0.3002  0.5373
   16MPD2     N  256   4.705   4.393   1.284  0.0200  1.2460 -0.1697
   16MPD2    H5  257   0.050   4.431   1.323  0.4931 -0.2152  0.2209
   16MPD2    N1  258   4.494   0.003   1.547 -0.0840 -0.2746  0.3422
   16MPD2    H7  259   4.413   0.025   1.604  0.4551 -1.8714  1.7158
   17TMC1    C1  260   2.694   0.809  10.763 -0.4100  0.6017 -0.3788
   17TMC1    C2  261   2.600   0.717  10.736  0.1338 -0.1738 -0.4711
   17TMC1    C3  262   2.577   0.630  10.839 -0.3281  0.3366 -0.3469
   17TMC1    C4  263   2.771   0.820  10.885 -0.2414  0.0349 -0.3147
   17TMC1    C5  264   2.732   0.727  10.980 -0.5108 -0.2195  0.5222
   17TMC1    C6  265   2.638   0.633  10.958 -0.2497  0.6239 -0.7189
   17TMC1     C  266   2.722   0.901  10.649 -0.0316  0.6426  0.5315
   17TMC1     O  267   2.642   0.887  10.554  0.1553 -0.1399  0.1396
   17TMC1     H  268   2.551   0.700  10.642 -0.5207  0.0965 -0.1767
   17TMC1    H1  269   2.857   0.882  10.907 -0.1530 -0.2405  0.1235
   17TMC1    H2  270   2.618   0.565  11.040  2.6236  0.0117 -0.5021
   17TMC1    C7  271   2.760   0.761  11.117 -0.3595 -0.4518  0.5856
   17TMC1    C8  272   2.469   0.543  10.821  0.0910 -0.1607 -0.0457
   17TMC1    O1  273   2.857   0.832  11.135  0.3741  0.2265  0.0570
   17TMC1    O2  274   2.455   0.497  10.708  0.7024  0.1648 -0.1802
   17TMC1    O3  275   2.649   0.762  11.182 -0.1875 -0.0504  0.0997
   17TMC1    H3  276   2.575   0.727  11.127  0.0367 -0.0175 -0.2238
   17TMC1    O5  277   2.365   0.577  10.900 -0.6102  0.0885  0.3784
   17TMC1    H5  278   2.382   0.631  10.980 -0.3794 -0.3371  0.6155
   18MPD2     C  279   2.841   1.083  10.443 -0.2868 -0.4095 -0.7637
   18MPD2    C1  280   2.907   1.034  10.552 -0.1978  0.0640 -0.8194
   18MPD2    C2  281   3.038   1.063  10.562 -0.7190  0.0835  0.3971
   18MPD2    C3  282   3.095   1.153  10.465 -0.3767 -0.1587 -0.1686
   18MPD2    C4  283   3.033   1.189  10.348 -0.7913 -0.4682  0.4748
   18MPD2    C5  284   2.908   1.146  10.344 -0.2777 -0.3567  0.1755
   18MPD2     H  285   3.101   1.031  10.644  0.1524 -0.5531 -0.5283
   18MPD2    H1  286   3.082   1.253  10.276 -0.7095 -1.8689 -0.7236
   18MPD2    H2  287   2.735   1.067  10.429 -0.7312  0.9907  0.9259
   18MPD2    H3  288   2.852   1.190  10.263 -1.4101  2.2854  2.3805
   18MPD2     N  289   3.226   1.211  10.478 -0.1528  0.1691 -0.0088
   18MPD2    H5  290   3.257   1.284  10.414 -1.1849 -0.3567 -1.0894
   18MPD2    N1  291   2.851   0.958  10.656 -0.0598  0.5404  0.7967
   18MPD2    H7  292   2.914   0.935  10.732 -1.2488 -0.2312  1.5381
   19TMC2    C1  293   4.313   1.600  14.034  0.1631  0.9435  0.2079
   19TMC2    C2  294   4.267   1.673  13.926 -0.1802  0.3033 -0.6423
   19TMC2    C3  295   4.173   1.624  13.846 -0.6545 -0.8810  0.3265
   19TMC2    C4  296   4.271   1.470  14.061  0.5238  0.3267  0.0629
   19TMC2    C5  297   4.176   1.421  13.982  0.3064 -0.6088  0.1892
   19TMC2    C6  298   4.125   1.495  13.870 -0.5220 -0.6717  0.3993
   19TMC2     C  299   4.406   1.662  14.110  0.1172 -0.0699  0.6853
   19TMC2     O  300   4.419   1.783  14.095 -0.4406  0.0190 -0.4693
   19TMC2     H  301   4.315   1.764  13.894 -0.3576  0.6837  0.1860
   19TMC2    H1  302   4.301   1.400  14.138 -0.1872 -0.1688 -0.1122
   19TMC2    H2  303   4.072   1.438  13.795 -1.2258 -0.7736  0.9803
   19TMC2    C7  304   4.088   1.323  14.038 -0.0043  0.0197 -0.3795
   19TMC2    C8  305   4.165   1.669  13.707  0.3647 -0.0396  0.1540
   19TMC2    O1  306   4.138   1.217  14.082  0.5616  0.2612  0.1801
   19TMC2    O2  307   4.258   1.676  13.630  0.1360  0.2194  0.4887
   19TMC2    O5  308   4.042   1.615  13.681  0.3179 -0.3116  0.5640
   19TMC2    H5  309   3.988   1.622  13.763 -0.1394 -1.9840  0.4109
   20MPD2     C  310   4.672   1.719  14.244  0.5232 -0.0366  0.2733
   20MPD2    C1  311   4.624   1.597  14.213  0.4348 -0.0348  0.1429
   20MPD2    C2  312   4.689   1.482  14.249  0.6226  0.1887 -0.1902
   20MPD2    C3  313   0.070   1.489  14.305  0.7086  0.5842  0.7618
   20MPD2    C4  314   0.123   1.611  14.328  0.1892  0.0087  0.3572
   20MPD2    C5  315   0.053   1.725  14.299 -0.4372 -0.2090  0.1351
   20MPD2     H  316   4.639   1.386  14.240  2.2973 -0.5155 -1.9303
   20MPD2    H1  317   0.223   1.629  14.365 -1.0732  2.7782  2.4573
   20MPD2    H2  318   4.608   1.805  14.226  0.2134 -0.4710 -0.6845
   20MPD2    H3  319   0.091   1.820  14.335  3.4171 -1.9616  0.6883
   20MPD2     N  320   0.154   1.380  14.325 -0.0997 -0.1341 -0.3295
   20MPD2    H5  321   0.235   1.407  14.381 -0.4444  3.0282 -1.3769
   20MPD2    N1  322   4.491   1.568  14.162  0.4055  0.4744 -0.5797
   20MPD2    H7  323   4.470   1.470  14.148 -0.4452  0.8201 -1.6465
   21TMC2    C1  324   1.991   1.783  15.114  0.3393 -0.8457 -0.6425
   21TMC2    C2  325   2.004   1.686  15.209  0.5377 -0.1513 -0.8049
   21TMC2    C3  326   1.895   1.649  15.279  0.1668  0.1705 -0.5661
   21TMC2    C4  327   1.863   1.817  15.068 -0.2815  0.7542 -0.3455
   21TMC2    C5  328   1.758   1.766  15.135  0.1831 -0.6181 -0.0689
   21TMC2    C6  329   1.770   1.694  15.250  0.3767  0.3850 -0.0613
   21TMC2     C  330   2.117   1.850  15.076  0.3439  1.2737 -0.0796
   21TMC2     O  331   2.213   1.826  15.149 -0.0901 -0.4679  0.1444
   21TMC2     H  332   2.104   1.649  15.230  0.6947 -0.2713 -1.7591
   21TMC2    H1  333   1.852   1.891  14.989 -0.1537  1.0606 -0.0761
   21TMC2    H2  334   1.683   1.660  15.306 -0.4210  0.1089 -1.4744
   21TMC2    C7  335   1.632   1.747  15.070  1.8188 -0.2458  0.2650
   21TMC2    C8  336   1.908   1.536  15.367 -0.7219  0.7914  0.4328
   21TMC2    O1  337   1.560   1.660  15.115  0.3962  0.1754 -0.7234
   21TMC2    O2  338   1.812   1.500  15.439  0.0055  0.2628  0.2698
   21TMC2    O5  339   2.007   1.459  15.324  0.4592  0.0635  0.0998
   21TMC2    H5  340   2.054   1.491  15.244  0.1725  1.9051  0.6877
   22MPD2     C  341   2.392   2.142  14.752 -0.3475 -0.0049  0.3131
   22MPD2    C1  342   2.434   2.057  14.851 -0.5547  0.5531  0.0505
   22MPD2    C2  343   2.335   1.980  14.913  0.6151 -0.2906  0.0583
   22MPD2    C3  344   2.196   2.003  14.898  0.6476  0.2930  0.3860
   22MPD2    C4  345   2.156   2.085  14.794 -0.4255 -0.3207  0.3522
   22MPD2    C5  346   2.250   2.150  14.725  0.8880  0.2463  0.1476
   22MPD2     H  347   2.369   1.920  14.997 -2.3303  0.1412  1.5684
   22MPD2    H1  348   2.048   2.089  14.781 -0.2710  0.4038 -0.7054
   22MPD2    H2  349   2.457   2.195  14.683  0.1053 -2.9443 -1.5324
   22MPD2    H3  350   2.215   2.223  14.654  0.1769  0.1923  0.4496
   22MPD2     N  351   2.101   1.928  14.963  0.3878  0.1649 -0.0628
   22MPD2    H5  352   2.008   1.954  14.932  0.8998 -0.2993 -2.0411
   22MPD2    N1  353   2.573   2.039  14.883  0.6047 -0.0677  0.6138
   22MPD2    H7  354   2.601   1.970  14.952 -2.3466 -0.0746  1.8154
   23TMC2    C1  355   3.399   2.614  14.212 -0.0747  0.1567  0.4296
   23TMC2    C2  356   3.398   2.601  14.079  0.0129  0.2246 -0.0407
   23TMC2    C3  357   3.286   2.656  14.011  0.6041 -0.7827 -0.8914
   23TMC2    C4  358   3.301   2.680  14.282 -0.4499  0.0252 -0.6645
   23TMC2    C5  359   3.201   2.744  14.213  0.5544  0.4069  0.7508
   23TMC2    C6  360   3.184   2.721  14.082 -0.1519  0.0921 -0.0624
   23TMC2     C  361   3.504   2.565  14.297  0.9980 -0.3245 -1.1750
   23TMC2     O  362   3.484   2.539  14.411  0.1866  0.4742 -0.3869
   23TMC2     H  363   3.481   2.569  14.016  0.1092 -0.0700  0.2345
   23TMC2    H1  364   3.325   2.701  14.386 -1.3961  1.5240 -0.7553
   23TMC2    H2  365   3.109   2.782  14.034 -0.9341 -0.4945  0.4181
   23TMC2    C7  366   3.117   2.838  14.287 -0.1651  0.3257 -0.0014
   23TMC2    C8  367   3.277   2.640  13.867  0.1125 -0.2956 -0.0953
   23TMC2    O1  368   3.161   2.869  14.399  0.5151  0.0484 -0.2659
   23TMC2    O2  369   3.366   2.598  13.796 -0.0981 -0.3282  0.4507
   23TMC2    O5  370   3.145   2.653  13.839 -0.2196 -0.3276  0.1716
   23TMC2    H5  371   3.078   2.638  13.909 -0.4707  3.0686  0.6894
   24MPD2     C  372   3.969   2.345  14.365  0.2976  0.1271  0.4603
   24MPD2    C1  373   3.868   2.367  14.461 -0.6144 -0.2868  0.3444
   24MPD2    C2  374   3.747   2.423  14.417  1.1688 -0.1802  0.7774
   24MPD2    C3  375   3.729   2.458  14.285  0.0340 -0.6613 -0.2341
   24MPD2    C4  376   3.827   2.434  14.201  0.3287 -0.6998 -0.1102
   24MPD2    C5  377   3.947   2.378  14.233 -0.0522  0.3026 -0.1080
   24MPD2     H  378   3.672   2.431  14.495 -0.0935  0.5504 -0.4911
   24MPD2    H1  379   3.816   2.468  14.098  1.1983 -0.2813 -0.0621
   24MPD2    H2  380   4.065   2.305  14.396 -0.2249 -1.5701 -0.0628
   24MPD2    H3  381   4.027   2.363  14.162 -2.8971 -3.3891 -2.5025
   24MPD2     N  382   3.621   2.531  14.233 -0.2953 -0.2958 -0.0373
   24MPD2    H5  383   3.622   2.546  14.133 -1.3875 -0.2530 -0.0428
   24MPD2    N1  384   3.890   2.344  14.598 -0.6699 -0.3952  0.3078
   24MPD2    H7  385   3.813   2.371  14.658  0.0451 -0.5977  1.3112
   25TMC2    C1  386   1.850   0.943  11.496 -0.3845 -0.4054 -0.1810
   25TMC2    C2  387   1.892   1.074  11.528  0.4662  0.0085 -0.1633
   25TMC2    C3  388   1.889   1.109  11.661 -0.5337  0.0455 -0.1773
   25TMC2    C4  389   1.786   0.864  11.591 -0.0193  0.0934  0.4038
   25TMC2    C5  390   1.761   0.917  11.714 -0.8586  0.0070 -0.0427
   25TMC2    C6  391   1.823   1.033  11.754 -0.3082  0.0140 -0.3927
   25TMC2     C  392   1.892   0.897  11.365 -0.6002 -0.1351  0.7685
   25TMC2     O  393   1.901   0.985  11.285 -0.5506  0.2111 -0.9228
   25TMC2     H  394   1.926   1.133  11.444 -2.5483  3.0167  0.7392
   25TMC2    H1  395   1.745   0.766  11.567 -1.0977  0.3324  1.2844
   25TMC2    H2  396   1.821   1.066  11.857  0.2906 -0.4176 -0.2434
   25TMC2    C7  397   1.757   0.826  11.826  0.1638  0.5813  0.4387
   25TMC2    C8  398   1.892   1.247  11.700  0.4700 -0.6854  0.2711
   25TMC2    O1  399   1.853   0.837  11.904 -0.0726  0.2138 -0.8358
   25TMC2    O2  400   1.818   1.286  11.788 -0.2021  0.5896  0.0053
   25TMC2    O5  401   1.968   1.321  11.618 -0.2400 -0.2137 -0.2772
   25TMC2    H5  402   2.037   1.278  11.563 -1.4372 -1.0395 -1.1513
   26MPD2     C  403   2.019   0.546  11.034  0.7461 -1.4474  0.8750
   26MPD2    C1  404   1.993   0.473  11.148 -0.4883  0.0696  0.8681
   26MPD2    C2  405   1.963   0.546  11.265  0.0962  0.3438  0.3838
   26MPD2    C3  406   1.942   0.684  11.253  0.5272  0.4466 -0.4240
   26MPD2    C4  407   1.965   0.747  11.132  0.8287 -0.1808 -0.0180
   26MPD2    C5  408   2.001   0.682  11.023 -0.0275 -0.3872  0.2716
   26MPD2     H  409   1.954   0.499  11.363 -0.4029 -0.5265 -0.0781
   26MPD2    H1  410   1.957   0.853  11.112  4.3676 -0.4733 -3.0425
   26MPD2    H2  411   2.045   0.492  10.943  0.9689  0.6390 -0.2958
   26MPD2    H3  412   2.019   0.743  10.936  2.5373  0.6646  1.5373
   26MPD2     N  413   1.918   0.760  11.366  0.0584 -0.2258 -0.7331
   26MPD2    H5  414   1.911   0.712  11.455 -0.4954  0.0191 -0.6402
   26MPD2    N1  415   1.995   0.330  11.138 -0.5307  0.0699 -0.7553
   26MPD2    H7  416   2.017   0.296  11.044  0.8181  0.8048 -0.7070
   27TMC2    C1  417   1.020   2.524  12.276 -0.7151 -0.1385 -0.1762
   27TMC2    C2  418   1.071   2.465  12.159 -0.9131 -0.1445 -0.4752
   27TMC2    C3  419   1.115   2.559  12.064  1.0244  0.0009 -0.0108
   27TMC2    C4  420   1.014   2.660  12.301 -0.0207 -0.3390 -0.0518
   27TMC2    C5  421   1.071   2.739  12.209  0.1476 -0.4323  0.3936
   27TMC2    C6  422   1.120   2.697  12.083  0.7389 -0.1043 -0.3402
   27TMC2     C  423   0.982   2.437  12.381  0.1989  0.4308  0.6559
   27TMC2     O  424   1.000   2.316  12.362 -0.0448  0.1916  0.1026
   27TMC2     H  425   1.076   2.359  12.139 -1.3873  0.0025 -1.3631
   27TMC2    H1  426   0.955   2.713  12.375  0.0388  2.8270 -2.2861
   27TMC2    H2  427   1.175   2.754  12.010  2.2393 -0.2671  0.6658
   27TMC2    C7  428   1.105   2.871  12.252 -0.4111  0.5215  0.1496
   27TMC2    C8  429   1.154   2.501  11.933  0.1609 -0.4505 -0.6096
   27TMC2    O1  430   1.089   2.892  12.373  0.2817  0.9612 -0.2604
   27TMC2    O2  431   1.185   2.385  11.917  0.1127 -0.8560  0.5339
   27TMC2    O5  432   1.101   2.573  11.831  0.5590  0.7262 -0.0902
   27TMC2    H5  433   1.058   2.660  11.849  1.3202  1.1487 -0.3168
   28MPD2     C  434   0.809   2.352  12.861 -0.8713  0.3097 -0.1661
   28MPD2    C1  435   0.765   2.477  12.823 -0.9494  0.0474  0.6992
   28MPD2    C2  436   0.796   2.529  12.697 -0.3982  0.4249  0.0901
   28MPD2    C3  437   0.883   2.462  12.612 -0.1925  0.3675  0.1491
   28MPD2    C4  438   0.929   2.334  12.655  0.3679  0.0778 -0.5161
   28MPD2    C5  439   0.895   2.282  12.780  0.1506  0.2893 -0.4337
   28MPD2     H  440   0.754   2.624  12.664 -1.5095  0.9361  3.0431
   28MPD2    H1  441   0.992   2.278  12.587 -0.0325 -1.8909  0.7146
   28MPD2    H2  442   0.776   2.303  12.952 -0.4024 -0.3650 -0.3588
   28MPD2    H3  443   0.925   2.182  12.807 -1.3300  0.0492  0.3090
   28MPD2     N  444   0.918   2.511  12.486 -0.2856 -0.4125  0.4422
   28MPD2    H5  445   0.892   2.605  12.459 -0.6179 -0.9033 -0.9367
   28MPD2    N1  446   0.672   2.537  12.916 -0.5234  0.8920  0.0343
   28MPD2    H7  447   0.637   2.482  12.993  1.1817  1.9075  1.5082
   29TMC2    C1  448   0.791   0.085  14.168 -0.2968 -0.5394  0.3247
   29TMC2    C2  449   0.684   0.109  14.253  0.2511  0.7208 -0.4246
   29TMC2    C3  450   0.692   0.219  14.337 -0.6190  0.0243  0.6632
   29TMC2    C4  451   0.899   0.165  14.166 -0.2231 -0.0941  0.5274
   29TMC2    C5  452   0.908   0.264  14.261  0.9645  0.0004  0.2549
   29TMC2    C6  453   0.806   0.301  14.345  0.0976  0.2914  0.0028
   29TMC2     C  454   0.826   4.690  14.140  0.4020  1.3329  0.0906
   29TMC2     O  455   0.946   4.675  14.129 -0.1105 -0.0422 -0.1899
   29TMC2     H  456   0.589   0.057  14.248  1.6438 -1.7750 -0.8943
   29TMC2    H1  457   0.985   0.146  14.103 -1.3653  2.0079 -1.6271
   29TMC2    H2  458   0.805   0.387  14.411 -0.5738 -1.0571  1.7455
   29TMC2    C7  459   1.016   0.360  14.233  0.2383  0.5415 -0.2195
   29TMC2    C8  460   0.575   0.247  14.423  0.2299 -0.3724 -0.2423
   29TMC2    O1  461   1.060   0.358  14.119  0.3400  0.3717 -0.1457
   29TMC2    O2  462   0.464   0.230  14.380 -0.4082  0.6007 -0.2873
   29TMC2    O5  463   0.602   0.340  14.513 -0.0017  0.0790  0.3869
   29TMC2    H5  464   0.697   0.344  14.536 -0.3285  1.7698  1.4185
   30MPD2     C  465   0.702   4.207  13.997 -0.8186  0.0224  0.7751
   30MPD2    C1  466   0.824   4.267  14.021 -0.3825  0.3051 -0.3703
   30MPD2    C2  467   0.838   4.402  14.058 -0.0762 -0.4462  0.0561
   30MPD2    C3  468   0.723   4.473  14.085 -0.0514  0.1902 -0.5010
   30MPD2    C4  469   0.597   4.404  14.074 -0.1565 -0.1651  0.3927
   30MPD2    C5  470   0.586   4.277  14.027 -0.3083  0.1731  0.5335
   30MPD2     H  471   0.939   4.441  14.062 -0.6955  1.1993 -0.4391
   30MPD2    H1  472   0.502   4.450  14.099 -0.0447  0.1267  0.2761
   30MPD2    H2  473   0.679   4.102  13.984 -0.3533  0.1325 -0.9454
   30MPD2    H3  474   0.489   4.230  14.015  0.8891 -2.3910  0.9157
   30MPD2     N  475   0.718   4.612  14.113 -0.4194 -0.7684 -0.3932
   30MPD2    H5  476   0.623   4.649  14.118 -0.3604 -0.4781 -1.5115
   30MPD2    N1  477   0.947   4.198  14.006  0.3715 -0.5627 -0.3204
   30MPD2    H7  478   1.028   4.243  14.047  0.5501  1.0872 -2.4945
   31TMC2    C1  479   3.710   3.414  15.770  0.1599  0.1067 -0.6276
   31TMC2    C2  480   3.568   3.412  15.783 -0.1430  1.2195  0.1669
   31TMC2    C3  481   3.514   3.342  15.886 -0.4122  0.4106  0.3093
   31TMC2    C4  482   3.791   3.371  15.871 -0.6508  0.7256 -0.0956
   31TMC2    C5  483   3.730   3.305  15.980 -0.4730  0.1215  1.0879
   31TMC2    C6  484   3.592   3.289  15.987 -0.1052  0.1947  0.4466
   31TMC2     C  485   3.759   3.435  15.637  0.4907 -0.1431 -0.4697
   31TMC2     O  486   3.681   3.500  15.565 -0.0580  0.4163 -0.4299
   31TMC2     H  487   3.512   3.447  15.697 -1.2780 -0.1912  0.3363
   31TMC2    H1  488   3.899   3.379  15.866 -0.3279 -1.9626  2.5616
   31TMC2    H2  489   3.534   3.236  16.061 -1.8768  2.1352  0.4409
   31TMC2    C7  490   3.811   3.257  16.089  0.2929 -0.8025 -0.4864
   31TMC2    C8  491   3.394   3.395  15.945  0.0359 -0.0980 -0.1308
   31TMC2    O1  492   3.775   3.153  16.141  0.3337 -0.2472  0.1573
   31TMC2    O2  493   3.318   3.335  16.024 -0.0226  0.1532  0.7296
   31TMC2    O5  494   3.421   3.533  15.942  0.1378 -0.0700 -0.0259
   31TMC2    H5  495   3.497   3.565  15.889  0.4428 -0.6874  0.0409
   32MPD2     C  496   4.120   3.404  15.277 -0.0250  0.4667  0.4522
   32MPD2    C1  497   4.020   3.505  15.285  0.7443 -0.2603 -0.8418
   32MPD2    C2  498   3.927   3.495  15.392 -0.3772 -0.3655  0.0785
   32MPD2    C3  499   3.950   3.392  15.481  0.7306  0.2812 -0.1008
   32MPD2    C4  500   4.050   3.303  15.469 -0.1953  0.0354  0.1529
   32MPD2    C5  501   4.134   3.302  15.367  0.6642  0.1789 -0.4554
   32MPD2     H  502   3.853   3.573  15.408 -0.1912 -0.3018  0.6326
   32MPD2    H1  503   4.068   3.227  15.544  0.9062 -0.9868 -1.1432
   32MPD2    H2  504   4.192   3.413  15.196  0.2785  2.4497  0.9248
   32MPD2    H3  505   4.221   3.237  15.359  0.4861  0.3406 -3.7324
   32MPD2     N  506   3.875   3.370  15.604 -0.5441 -0.8123  0.3441
   32MPD2    H5  507   3.905   3.292  15.661  0.3284  0.0042  0.9858
   32MPD2    N1  508   4.023   3.614  15.193 -0.1739  0.8783  0.5060
   32MPD2    H7  509   4.099   3.609  15.126  0.5566  1.3056  1.3032
   33TMC2    C1  510   3.364   2.245  10.231 -0.8764 -0.1016  0.2041
   33TMC2    C2  511   3.260   2.237  10.140  0.6096 -0.1641  0.0230
   33TMC2    C3  512   3.234   2.350  10.065  0.5598 -0.1655 -0.4995
   33TMC2    C4  513   3.443   2.358  10.242 -0.9037  1.1333  0.1290
   33TMC2    C5  514   3.417   2.466  10.164 -0.2222 -0.6037 -0.5939
   33TMC2    C6  515   3.315   2.462  10.072 -0.2242 -0.0320 -0.5431
   33TMC2     C  516   3.398   2.118  10.299 -0.7177 -0.3250 -0.0727
   33TMC2     O  517   3.318   2.027  10.309  0.3660 -0.4285  0.0108
   33TMC2     H  518   3.197   2.149  10.137 -0.6371  0.6179  2.8111
   33TMC2    H1  519   3.528   2.372  10.308 -0.7397 -0.0286  0.1489
   33TMC2    H2  520   3.283   2.552  10.020  0.8734  0.7499  0.1211
   33TMC2    C7  521   3.477   2.589  10.207 -0.1461  0.3442 -0.5630
   33TMC2    C8  522   3.166   2.329   9.943  0.7000 -0.2819  0.7734
   33TMC2    O1  523   3.516   2.665  10.121 -0.5964 -0.6303  0.1759
   33TMC2    O2  524   3.149   2.422   9.865  0.8028 -0.0495 -0.1185
   33TMC2    O5  525   3.235   2.216   9.897  0.1319 -0.1160 -0.2869
   33TMC2    H5  526   3.222   2.137   9.953 -2.1748 -0.3161 -1.0860
   34MPD2     C  527   3.783   1.831  10.501  0.0398  0.9172  0.5435
   34MPD2    C1  528   3.661   1.795  10.440  0.5777  0.5738  0.1242
   34MPD2    C2  529   3.559   1.882  10.406 -0.5373  0.0512  0.2833
   34MPD2    C3  530   3.581   2.016  10.423  0.2553 -0.3382  0.5812
   34MPD2    C4  531   3.707   2.051  10.479  0.2298 -0.1168 -0.2654
   34MPD2    C5  532   3.800   1.965  10.529  0.4475  0.7308  0.2223
   34MPD2     H  533   3.470   1.845  10.356  0.3576 -0.2682 -1.0805
   34MPD2    H1  534   3.732   2.156  10.487 -0.1385 -0.1153  0.8174
   34MPD2    H2  535   3.862   1.763  10.530  0.0996  1.0416  0.6718
   34MPD2    H3  536   3.899   1.997  10.560  0.6843  0.8046 -0.6178
   34MPD2     N  537   3.515   2.128  10.367  0.2060  0.2291 -0.7579
   34MPD2    H5  538   3.553   2.222  10.371 -0.0054  0.3678 -2.0616
   34MPD2    N1  539   3.646   1.655  10.429  0.3164 -0.3107 -0.4595
   34MPD2    H7  540   3.728   1.604  10.461  0.5411  0.1657 -0.2807
   35TMC2    C1  541   0.592   3.182  11.633  1.2041 -0.6536  0.2790
   35TMC2    C2  542   0.627   3.258  11.528  0.0206 -0.6900  0.0086
   35TMC2    C3  543   0.531   3.303  11.449 -0.0394 -0.1922  0.0284
   35TMC2    C4  544   0.478   3.108  11.627  0.4059 -0.1328 -0.4039
   35TMC2    C5  545   0.390   3.131  11.523 -0.4848  0.0648  0.2119
   35TMC2    C6  546   0.410   3.234  11.439 -0.2844 -0.8799  0.3887
   35TMC2     C  547   0.685   3.196  11.741 -0.0527 -0.1540  0.2304
   35TMC2     O  548   0.803   3.219  11.726  0.6314  0.1385 -0.0351
   35TMC2     H  549   0.721   3.311  11.531 -1.1981  1.4258  0.8911
   35TMC2    H1  550   0.461   3.034  11.704  0.7558 -1.1978 -1.3452
   35TMC2    H2  551   0.331   3.257  11.369  0.2200 -0.3592 -0.0097
   35TMC2    C7  552   0.268   3.058  11.523  0.7351  0.6955  0.7510
   35TMC2    C8  553   0.578   3.378  11.333 -0.3328 -0.3008  0.7665
   35TMC2    O1  554   0.250   2.993  11.626  0.1141 -0.4338 -0.2493
   35TMC2    O2  555   0.697   3.393  11.300  0.4532 -0.2993  0.3936
   35TMC2    O5  556   0.475   3.467  11.312 -0.1114 -0.8507  0.6345
   35TMC2    H5  557   0.395   3.445  11.363  1.3892 -1.3873  2.7633
   36MPD2     C  558   0.751   3.169  12.253 -0.4359 -0.0907  0.1424
   36MPD2    C1  559   0.615   3.168  12.227  0.5965 -0.8062  0.3430
   36MPD2    C2  560   0.577   3.187  12.092  0.0711  0.6726  0.4588
   36MPD2    C3  561   0.672   3.193  11.991 -0.5476 -0.1859  0.4557
   36MPD2    C4  562   0.802   3.214  12.019 -0.4169 -0.1727 -0.2641
   36MPD2    C5  563   0.837   3.196  12.153 -0.0015  0.4905  0.0511
   36MPD2     H  564   0.473   3.172  12.070  0.2451  0.6432 -0.3304
   36MPD2    H1  565   0.874   3.224  11.938 -1.1447  0.3326 -0.8393
   36MPD2    H2  566   0.791   3.170  12.354 -1.4525  0.8093  0.5401
   36MPD2    H3  567   0.940   3.210  12.184 -0.1505  0.4258  0.5744
   36MPD2     N  568   0.615   3.191  11.859 -0.0578  0.3003  0.1186
   36MPD2    H5  569   0.514   3.182  11.860  0.1644 -2.2434 -0.5608
   36MPD2    N1  570   0.527   3.138  12.339  0.5574  0.0065  0.0629
   36MPD2    H7  571   0.569   3.126  12.431 -0.0786 -2.1661  0.0746
   37TMC2    C1  572   2.477   3.065  11.830  0.9374  0.3612  0.0933
   37TMC2    C2  573   2.376   3.045  11.738 -1.0447  0.2651  0.2086
   37TMC2    C3  574   2.383   3.116  11.618  1.0738 -0.4457  0.1636
   37TMC2    C4  575   2.577   3.151  11.807 -0.1849 -0.7257 -0.4316
   37TMC2    C5  576   2.571   3.226  11.691 -0.6257  0.1127  0.6878
   37TMC2    C6  577   2.479   3.212  11.588 -0.2080  0.1902 -0.3273
   37TMC2     C  578   2.445   3.013  11.963 -0.4001 -0.4484  0.0970
   37TMC2     O  579   2.334   2.977  11.984 -0.0505 -0.6555  0.2192
   37TMC2     H  580   2.306   2.964  11.755 -1.1256 -0.3466 -3.0234
   37TMC2    H1  581   2.649   3.155  11.887  0.9973  1.7138 -1.6020
   37TMC2    H2  582   2.471   3.283  11.507 -2.5938 -1.0589 -1.1865
   37TMC2    C7  583   2.673   3.325  11.689 -0.0899 -0.0387  0.1543
   37TMC2    C8  584   2.283   3.095  11.516 -0.1353 -0.7582  0.3364
   37TMC2    O1  585   2.765   3.306  11.765  0.2972  0.7043  0.0334
   37TMC2    O2  586   2.171   3.046  11.538  0.0167 -0.2262  0.7043
   37TMC2    O5  587   2.361   3.072  11.410  1.0403  0.6524  0.2985
   37TMC2    H5  588   2.455   3.082  11.436  1.4388  1.6697 -1.5163
   38MPD2     C  589   2.559   2.910  12.456  0.6656  1.0023 -0.7280
   38MPD2    C1  590   2.668   2.893  12.378  0.1985 -0.3379 -0.5522
   38MPD2    C2  591   2.670   2.919  12.245  0.0299  1.0122  0.2770
   38MPD2    C3  592   2.552   2.961  12.185 -0.0642 -0.3336 -0.1578
   38MPD2    C4  593   2.432   2.972  12.261 -0.9169  0.1547  0.4092
   38MPD2    C5  594   2.442   2.943  12.398  0.0901 -0.2010  0.0311
   38MPD2     H  595   2.755   2.919  12.178 -0.0939 -0.2684  0.1200
   38MPD2    H1  596   2.333   2.988  12.218 -1.2608 -0.8346  0.8182
   38MPD2    H2  597   2.551   2.881  12.559  1.7437  1.0829 -0.6239
   38MPD2    H3  598   2.347   2.936  12.450  0.3306  0.0461  0.4991
   38MPD2     N  599   2.557   2.997  12.043 -0.8292 -0.4238  0.3622
   38MPD2    H5  600   2.647   2.998  11.996 -1.3619  0.7592 -0.6135
   38MPD2    N1  601   2.785   2.826  12.424 -0.0805  0.2467 -0.0634
   38MPD2    H7  602   2.854   2.804  12.353 -0.9521 -0.1635 -0.7890
   39TMC2    C1  603   0.675   3.933   1.585  0.0959 -0.5186 -0.9204
   39TMC2    C2  604   0.628   4.017   1.678  0.1826 -1.1308 -0.6696
   39TMC2    C3  605   0.729   4.076   1.751  0.4851 -0.1882  0.3234
   39TMC2    C4  606   0.808   3.916   1.555 -0.2908  0.1708 -0.5104
   39TMC2    C5  607   0.902   3.980   1.622  0.6879  0.2096  0.4369
   39TMC2    C6  608   0.861   4.069   1.722  0.0223 -0.6017  0.4164
   39TMC2     C  609   0.576   3.884   1.492  0.7225 -1.0154 -0.4507
   39TMC2     O  610   0.458   3.885   1.521  0.0514 -0.5500  0.7342
   39TMC2     H  611   0.522   4.016   1.700  0.5152  1.8496  1.1403
   39TMC2    H1  612   0.837   3.840   1.482  1.9760  0.5411 -0.0092
   39TMC2    H2  613   0.920   4.100   1.807  0.1218 -3.8197  1.5253
   39TMC2    C7  614   1.039   3.913   1.631 -0.4719 -0.6002  0.1279
   39TMC2    C8  615   0.695   4.175   1.848 -0.9292 -0.2376 -0.7431
   39TMC2    O1  616   1.056   3.817   1.557  0.2534 -0.3772 -0.2367
   39TMC2    O2  617   0.772   4.260   1.889 -0.0256 -0.4498 -0.3393
   39TMC2    O5  618   0.573   4.145   1.897 -0.0535 -0.2660  0.1930
   39TMC2    H5  619   0.541   4.059   1.862 -0.7534  0.8196 -1.8463
   40MPD2     C  620   0.635   3.729   1.167 -0.0553  0.6087 -0.3519
   40MPD2    C1  621   0.559   3.785   1.261 -0.5743 -0.3105  0.5698
   40MPD2    C2  622   0.420   3.800   1.255 -0.1546 -0.0168  0.0728
   40MPD2    C3  623   0.356   3.748   1.139 -0.4602  0.0059 -0.1719
   40MPD2    C4  624   0.432   3.679   1.044  0.2958 -0.8159  0.9254
   40MPD2    C5  625   0.567   3.674   1.063  0.0895 -0.0055  0.1186
   40MPD2     H  626   0.359   3.847   1.332  0.5954  0.9851  0.0397
   40MPD2    H1  627   0.401   3.651   0.944 -0.8098  0.3483  0.9403
   40MPD2    H2  628   0.743   3.727   1.169 -0.0855 -0.1207  0.3718
   40MPD2    H3  629   0.618   3.633   0.976 -0.6701 -0.5129 -0.0875
   40MPD2     N  630   0.214   3.758   1.111 -0.1025  0.3852 -0.0665
   40MPD2    H5  631   0.181   3.687   1.047  0.7187 -0.5035  0.4741
   40MPD2    N1  632   0.630   3.840   1.371  0.4116 -1.0664 -0.6931
   40MPD2    H7  633   0.731   3.839   1.359  0.4817 -0.9695 -0.0952
   41TMC2    C1  634   3.482   2.875  13.638  0.0738  0.4577  0.2955
   41TMC2    C2  635   3.486   2.987  13.560  0.5118  0.4336 -0.4303
   41TMC2    C3  636   3.594   3.006  13.478  0.2998 -0.0805  0.7109
   41TMC2    C4  637   3.587   2.784  13.627 -0.0973 -0.2534 -0.1911
   41TMC2    C5  638   3.695   2.807  13.544 -0.0811 -0.0656 -0.4214
   41TMC2    C6  639   3.702   2.921  13.477 -0.3743  0.6164 -1.3308
   41TMC2     C  640   3.444   2.900  13.773 -0.2016 -0.5893 -0.4594
   41TMC2     O  641   3.343   2.970  13.800  0.1371 -0.5190 -0.1479
   41TMC2     H  642   3.402   3.052  13.539 -0.1508 -0.3122 -0.1200
   41TMC2    H1  643   3.584   2.688  13.676 -0.0870  0.5774  1.4353
   41TMC2    H2  644   3.790   2.951  13.422  1.4450  0.0972  1.3165
   41TMC2    C7  645   3.819   2.753  13.587 -0.7598 -0.2415  0.6716
   41TMC2    C8  646   3.604   3.138  13.430 -0.2559  0.4695 -0.5701
   41TMC2    O1  647   3.820   2.698  13.697  0.1212 -0.8924  0.3607
   41TMC2    O2  648   3.517   3.206  13.385  0.0669  0.1098  0.4080
   41TMC2    O5  649   3.726   3.180  13.478 -0.1153 -0.1126  0.5499
   41TMC2    H5  650   3.776   3.102  13.511 -0.3570  0.2054  1.6821
   42MPD2     C  651   3.460   2.951  14.066 -0.2179 -0.0128 -0.0088
   42MPD2    C1  652   3.563   2.899  13.995 -0.3489 -0.6504 -0.3211
   42MPD2    C2  653   3.684   2.869  14.055 -0.2347 -0.5646 -0.3229
   42MPD2    C3  654   3.694   2.874  14.194 -0.4523  0.2250 -0.6186
   42MPD2    C4  655   3.590   2.931  14.265 -0.1319  0.1655  0.3790
   42MPD2    C5  656   3.475   2.963  14.201 -0.9753 -0.0765 -0.5403
   42MPD2     H  657   3.767   2.829  13.998  1.4782 -0.3383  1.9840
   42MPD2    H1  658   3.591   2.941  14.373 -1.0237  3.1746  0.1259
   42MPD2    H2  659   3.369   2.993  14.022 -0.0701  0.8502  0.5117
   42MPD2    H3  660   3.393   3.003  14.259 -1.2450 -2.3631  0.6925
   42MPD2     N  661   3.812   2.830  14.262 -1.1641 -0.1784  0.1468
   42MPD2    H5  662   3.809   2.847  14.362 -1.9028 -0.5999  0.1981
   42MPD2    N1  663   3.547   2.871  13.859 -0.4313 -0.2110 -0.0416
   42MPD2    H7  664   3.631   2.836  13.814  1.1582  4.7854 -0.9159
   43TMC2    C1  665   0.853   0.222   0.998 -0.7716  0.0391  0.1932
   43TMC2    C2  666   0.723   0.270   0.996  0.9218  0.1701  0.5477
   43TMC2    C3  667   0.695   0.347   1.106 -0.4455 -0.0727  0.3560
   43TMC2    C4  668   0.939   0.260   1.092 -0.0254  0.5046  0.2100
   43TMC2    C5  669   0.902   0.344   1.193 -0.5373 -0.2856  0.0089
   43TMC2    C6  670   0.770   0.379   1.209  0.1577 -0.1067 -0.3862
   43TMC2     C  671   0.916   0.156   0.881 -0.1560  0.6720 -0.4033
   43TMC2     O  672   1.030   0.116   0.901  0.4948  0.0414 -0.3769
   43TMC2     H  673   0.646   0.249   0.923  0.2347  1.3653  0.9339
   43TMC2    H1  674   1.039   0.218   1.092  0.0432  0.6781  1.9683
   43TMC2    H2  675   0.734   0.431   1.298  0.3340 -0.0096 -0.3690
   43TMC2    C7  676   0.998   0.381   1.294  0.9020  0.4384 -0.4664
   43TMC2    C8  677   0.558   0.398   1.112  0.0448  0.1287  0.2127
   43TMC2    O1  678   1.108   0.325   1.302 -0.0118 -0.0938  0.3841
   43TMC2    O2  679   0.461   0.341   1.066 -0.1504 -0.0354  0.3178
   43TMC2    O5  680   0.550   0.499   1.196 -0.1221 -0.1130  0.4335
   43TMC2    H5  681   0.633   0.548   1.218 -0.2827  0.3852 -0.0765
   44MPD2     C  682   0.956   0.074   0.373  0.1880  0.4957 -0.7603
   44MPD2    C1  683   1.038   0.027   0.477  0.2158  0.6269  0.3322
   44MPD2    C2  684   1.003   0.057   0.609 -0.1847  0.5434  0.2902
   44MPD2    C3  685   0.896   0.135   0.637  0.6807  0.2019 -0.4347
   44MPD2    C4  686   0.813   0.180   0.533 -0.1064 -0.6562 -0.2549
   44MPD2    C5  687   0.846   0.153   0.400  0.3852  0.1942  0.2614
   44MPD2     H  688   1.057   0.008   0.689 -0.8396 -1.0386 -0.2319
   44MPD2    H1  689   0.730   0.248   0.549 -0.7219 -1.2389 -0.9566
   44MPD2    H2  690   0.969   0.052   0.267  1.6243  1.3790 -0.7781
   44MPD2    H3  691   0.789   0.202   0.321 -1.6297 -0.3490  1.3706
   44MPD2     N  692   0.852   0.177   0.766  0.8894  0.0191 -0.6922
   44MPD2    H5  693   0.764   0.228   0.766  0.8330 -0.0922  0.6982
   44MPD2    N1  694   1.156   4.689   0.451 -0.3431  0.4083 -0.2906
   44MPD2    H7  695   1.211   4.653   0.528  1.7784  0.7144 -1.6610
   45TMC2    C1  696   1.443   2.800   9.901  0.1151 -0.0386  0.2340
   45TMC2    C2  697   1.461   2.767  10.030 -0.5340  0.1970 -0.1667
   45TMC2    C3  698   1.517   2.855  10.113 -0.7340  0.0317  0.4753
   45TMC2    C4  699   1.456   2.932   9.857  0.4468  0.4935 -0.4857
   45TMC2    C5  700   1.505   3.018   9.952  0.1376  0.5112  1.1573
   45TMC2    C6  701   1.541   2.986  10.081 -0.4600 -0.4500 -0.3876
   45TMC2     C  702   1.380   2.699   9.823  0.1861  0.4669  0.7145
   45TMC2     O  703   1.360   2.589   9.877 -0.1795 -0.0816  0.1805
   45TMC2     H  704   1.450   2.665  10.064 -2.0337  0.8991  1.3952
   45TMC2    H1  705   1.451   2.965   9.754  1.6171  0.0371 -0.6902
   45TMC2    H2  706   1.545   3.054  10.166  1.5908 -0.8794 -0.1438
   45TMC2    C7  707   1.513   3.159   9.907  0.4580 -0.1044 -0.4840
   45TMC2    C8  708   1.557   2.817  10.250  0.0391  0.2427  0.7283
   45TMC2    O1  709   1.438   3.187   9.812  0.2327  0.0160 -0.6405
   45TMC2    O2  710   1.602   2.893  10.330  0.5147 -0.1357 -0.2233
   45TMC2    O5  711   1.533   2.684  10.271 -0.0539  0.4446  0.0195
   45TMC2    H5  712   1.556   2.657  10.362  1.1856  0.7572 -0.1990
   46MPD2     C  713   1.182   2.556   9.662  0.5274  0.8006  0.3103
   46MPD2    C1  714   1.203   2.693   9.652 -0.9066  0.0704  0.0765
   46MPD2    C2  715   1.120   2.773   9.576  0.2580 -0.1206  0.2449
   46MPD2    C3  716   1.001   2.729   9.522  0.3098 -0.4137  0.0357
   46MPD2    C4  717   0.978   2.590   9.531  0.2950  0.3202  0.5338
   46MPD2    C5  718   1.074   2.514   9.595  0.1351  0.5577  0.0771
   46MPD2     H  719   1.148   2.877   9.562  1.8478 -0.4254  1.1587
   46MPD2    H1  720   0.889   2.546   9.488  0.3856  1.1336 -0.4932
   46MPD2    H2  721   1.248   2.485   9.710  2.4136  0.3047 -2.9650
   46MPD2    H3  722   1.051   2.410   9.617 -0.8389  1.1564  1.8775
   46MPD2     N  723   0.923   2.822   9.462 -0.7417  0.2647  0.3236
   46MPD2    H5  724   0.959   2.917   9.463 -0.4378  0.1565 -0.1716
   46MPD2    N1  725   1.305   2.751   9.724 -0.1043  0.4543 -0.2362
   46MPD2    H7  726   1.323   2.848   9.702  0.6782  0.5655  0.9314
   47TMC2    C1  727   3.329   4.093   8.862  0.3284  0.1987 -0.3210
   47TMC2    C2  728   3.222   4.111   8.776  0.7981  0.1115 -0.1175
   47TMC2    C3  729   3.116   4.188   8.819 -0.1009 -0.1511 -0.0814
   47TMC2    C4  730   3.328   4.134   8.988  0.0366 -0.1699  0.4030
   47TMC2    C5  731   3.223   4.214   9.025  0.6900  0.0566  0.0342
   47TMC2    C6  732   3.114   4.244   8.940 -0.3143  0.3573 -0.2311
   47TMC2     C  733   3.448   4.033   8.803 -0.6806 -0.0647  0.4704
   47TMC2     O  734   3.456   4.057   8.684  0.2898  0.2418  0.1194
   47TMC2     H  735   3.216   4.066   8.678  3.0295  0.3067 -0.3579
   47TMC2    H1  736   3.411   4.124   9.058 -1.8341  0.0080  2.6363
   47TMC2    H2  737   3.022   4.299   8.959 -1.3627 -0.6993 -2.1687
   47TMC2    C7  738   3.222   4.276   9.157 -0.0010 -0.3318 -0.3484
   47TMC2    C8  739   2.984   4.170   8.750  0.0543  0.4190  0.0699
   47TMC2    O1  740   3.280   4.220   9.249 -0.3522  0.0565 -1.5754
   47TMC2    O2  741   2.916   4.270   8.754  0.7237  0.5020 -0.2822
   47TMC2    O5  742   2.946   4.050   8.804 -0.4485  0.5336  0.9849
   47TMC2    H5  743   3.015   3.982   8.789 -0.9335  0.1681  0.4119
   48MPD2     C  744   3.684   3.888   8.718 -0.1964 -0.4027  0.3791
   48MPD2    C1  745   3.637   3.882   8.846  0.3577  0.2746  0.4341
   48MPD2    C2  746   3.690   3.793   8.931 -0.2756 -0.1465 -0.8634
   48MPD2    C3  747   3.801   3.718   8.909 -0.3905 -0.7189  0.1364
   48MPD2    C4  748   3.858   3.727   8.786 -0.5881 -0.9772  0.0485
   48MPD2    C5  749   3.795   3.812   8.693  0.2962  1.1073  0.5535
   48MPD2     H  750   3.655   3.775   9.032  1.4267  0.6866 -0.1141
   48MPD2    H1  751   3.945   3.668   8.758 -0.4808  0.0440 -1.8180
   48MPD2    H2  752   3.642   3.935   8.630 -0.5760  0.3167  0.9490
   48MPD2    H3  753   3.834   3.817   8.592  0.0106 -3.4823  0.1954
   48MPD2     N  754   3.839   3.624   9.004  0.6887 -0.4324 -0.2412
   48MPD2    H5  755   3.792   3.625   9.094  1.2292  0.5508  0.0323
   48MPD2    N1  756   3.527   3.959   8.890 -0.0778  0.8985 -0.0006
   48MPD2    H7  757   3.502   3.957   8.988  0.5437 -0.7047  0.1306
   49TMC2    C1  758   1.572   0.680  10.279 -0.0609 -0.1401 -0.2384
   49TMC2    C2  759   1.556   0.546  10.269  0.1128 -0.7970 -0.7294
   49TMC2    C3  760   1.449   0.496  10.195  0.1897  0.3449  0.7334
   49TMC2    C4  761   1.505   0.769  10.201  0.1044  0.0966  0.4328
   49TMC2    C5  762   1.400   0.714  10.121 -0.4539 -0.3763  0.9146
   49TMC2    C6  763   1.368   0.583  10.119  0.2887  0.3925  0.1156
   49TMC2     C  764   1.661   0.729  10.382 -0.1909 -0.0395 -0.6017
   49TMC2     O  765   1.756   0.656  10.400 -0.4206  0.2427 -0.0875
   49TMC2     H  766   1.619   0.478  10.325 -1.8709 -2.4702 -0.5355
   49TMC2    H1  767   1.515   0.877  10.203  0.1575  0.1380 -2.0297
   49TMC2    H2  768   1.277   0.547  10.073  0.1922  0.6734  0.0878
   49TMC2    C7  769   1.338   0.800  10.026  0.6948 -0.6525 -0.5697
   49TMC2    C8  770   1.406   0.361  10.210 -0.4452  0.0862  0.2891
   49TMC2    O1  771   1.386   0.912  10.010  0.1452 -0.3966  0.1091
   49TMC2    O2  772   1.291   0.313  10.204 -0.0895  0.5753 -0.0833
   49TMC2    O5  773   1.509   0.277  10.201  0.1195 -0.0626  0.5841
   49TMC2    H5  774   1.592   0.329  10.191 -0.3114  0.5808  0.3569
   50MPD2     C  775   1.822   0.911  10.540  0.0594  0.4441  0.2477
   50MPD2    C1  776   1.687   0.923  10.528  0.0061 -0.4329  0.2858
   50MPD2    C2  777   1.628   1.010  10.617  0.2805  0.0695  0.1978
   50MPD2    C3  778   1.696   1.074  10.721  0.6600  0.1723 -0.1685
   50MPD2    C4  779   1.831   1.048  10.732 -0.4523 -0.6618  0.2424
   50MPD2    C5  780   1.894   0.969  10.640 -0.0442 -0.5905  1.2137
   50MPD2     H  781   1.520   1.001  10.612  0.3198 -0.4070  0.2536
   50MPD2    H1  782   1.898   1.099  10.801 -1.4329 -0.5084  1.0748
   50MPD2    H2  783   1.871   0.838  10.477  0.9924  1.4058 -0.1516
   50MPD2    H3  784   2.000   0.951  10.652  0.0769 -0.6472  0.0831
   50MPD2     N  785   1.638   1.160  10.818  0.5966  1.0149  0.4761
   50MPD2    H5  786   1.698   1.190  10.894 -0.6909  0.5968  1.6510
   50MPD2    N1  787   1.611   0.837  10.444  0.3325 -0.9831 -0.0971
   50MPD2    H7  788   1.515   0.865  10.429  0.0964 -0.5804  2.1508
   51TMC2    C1  789   2.064   0.283   1.675  0.9785  0.3793  0.6216
   51TMC2    C2  790   1.941   0.291   1.615  0.8761  0.7156  0.0093
   51TMC2    C3  791   1.925   0.367   1.504 -0.3016  1.1826  0.3752
   51TMC2    C4  792   2.166   0.347   1.620 -0.0624 -0.1562 -0.8092
   51TMC2    C5  793   2.152   0.404   1.503  0.0130 -0.7784 -0.5090
   51TMC2    C6  794   2.032   0.425   1.445  0.4424  0.2360  0.0656
   51TMC2     C  795   2.100   0.155   1.738  0.1135 -0.1658 -0.5613
   51TMC2     O  796   2.217   0.126   1.751  0.2414 -0.4014 -0.2453
   51TMC2     H  797   1.843   0.261   1.650  0.5049  1.0962 -0.7088
   51TMC2    H1  798   2.260   0.347   1.674  0.2283 -0.8604 -1.3124
   51TMC2    H2  799   2.007   0.479   1.354  0.5267 -0.0567 -0.1293
   51TMC2    C7  800   2.259   0.359   1.421  0.0969 -0.9491  0.0338
   51TMC2    C8  801   1.812   0.335   1.419  0.2106 -0.4365  0.2202
   51TMC2    O1  802   2.342   0.286   1.472  0.7050 -0.0554 -0.5541
   51TMC2    O2  803   1.760   0.224   1.427  0.2435 -0.1717  0.0955
   51TMC2    O5  804   1.746   0.454   1.399 -0.3347  0.0202  0.0678
   51TMC2    H5  805   1.787   0.531   1.444  3.0847 -1.0498 -1.2252
   52MPD2     C  806   1.980   4.434   1.907 -0.6228  0.2623  1.3723
   52MPD2    C1  807   2.087   4.476   1.835 -0.4736  0.8769 -0.0138
   52MPD2    C2  808   2.097   4.608   1.803 -0.3698 -0.1443  0.1799
   52MPD2    C3  809   1.987   4.694   1.824  1.0418 -0.3663  0.1606
   52MPD2    C4  810   1.881   4.648   1.891  0.0943 -0.0457  0.1261
   52MPD2    C5  811   1.874   4.520   1.938  0.4082  0.5164  0.0409
   52MPD2     H  812   2.184   4.639   1.747 -0.2006  0.9134  1.0198
   52MPD2    H1  813   1.802   4.719   1.913 -0.0593 -0.5221  1.0963
   52MPD2    H2  814   1.968   4.333   1.943  0.0609  0.4474  2.1067
   52MPD2    H3  815   1.785   4.474   1.980 -0.3074  0.7526 -1.2205
   52MPD2     N  816   1.991   0.089   1.785 -0.3532  0.4210 -0.0039
   52MPD2    H5  817   1.902   0.137   1.795 -2.5927 -3.9554  1.5811
   52MPD2    N1  818   2.189   4.386   1.789 -0.1041 -0.6232  0.2872
   52MPD2    H7  819   2.260   4.434   1.734  0.4991 -2.3520 -0.4597
   53TMC2    C1  820   3.272   3.745  11.774 -0.2335  0.0074  0.1663
   53TMC2    C2  821   3.321   3.864  11.810 -0.6390 -0.5995 -0.0056
   53TMC2    C3  822   3.359   3.875  11.943 -0.1054 -0.3257  0.0041
   53TMC2    C4  823   3.271   3.638  11.863  0.0431  0.0832  0.5026
   53TMC2    C5  824   3.331   3.649  11.984  0.5329  0.4258  0.5283
   53TMC2    C6  825   3.383   3.768  12.032  0.5822 -0.0377  0.1619
   53TMC2     C  826   3.165   3.756  11.679 -0.0025  0.1820  0.3072
   53TMC2     O  827   3.176   3.851  11.598 -0.3811  0.3048  0.3676
   53TMC2     H  828   3.308   3.953  11.749 -0.9708 -0.5880  0.0864
   53TMC2    H1  829   3.234   3.541  11.831  1.9070  0.2873 -2.3320
   53TMC2    H2  830   3.415   3.789  12.133  0.1770  0.9497  0.0823
   53TMC2    C7  831   3.292   3.539  12.073 -0.7195  0.2179 -0.5379
   53TMC2    C8  832   3.380   4.012  11.995 -0.8389  0.2148  0.3235
   53TMC2    O1  833   3.211   3.457  12.034 -0.4987  0.2721  0.9503
   53TMC2    O2  834   3.379   4.101  11.911 -0.0911 -0.1447  0.5354
   53TMC2    O5  835   3.329   4.030  12.116  0.4911  0.3286  0.7892
   53TMC2    H5  836   3.318   3.951  12.173  1.0361  0.1423  0.6330
   54MPD2     C  837   2.893   3.765  11.545 -0.1820 -0.1368 -0.1053
   54MPD2    C1  838   2.946   3.662  11.618 -0.3468 -0.5439  0.8977
   54MPD2    C2  839   2.868   3.548  11.625  0.5240 -0.0268  0.1757
   54MPD2    C3  840   2.740   3.537  11.574 -0.0128  0.0049 -0.1587
   54MPD2    C4  841   2.687   3.641  11.509 -0.3262  0.4740  0.0040
   54MPD2    C5  842   2.766   3.751  11.497 -0.1366  0.5067 -0.3085
   54MPD2     H  843   2.909   3.464  11.679 -0.6598 -1.2422 -0.7962
   54MPD2    H1  844   2.591   3.637  11.459 -0.6900  0.8294  0.6728
   54MPD2    H2  845   2.935   3.865  11.547  1.7053 -0.9506  0.6217
   54MPD2    H3  846   2.718   3.836  11.450  1.4683  2.0011  0.7384
   54MPD2     N  847   2.659   3.423  11.594  0.1546  0.5659  0.3695
   54MPD2    H5  848   2.573   3.422  11.541 -1.5792  1.3040  3.1635
   54MPD2    N1  849   3.071   3.660  11.687 -0.4746  0.1059  0.0903
   54MPD2    H7  850   3.074   3.596  11.766 -2.0395  2.0339  1.6915
   55TMC2    C1  851   4.126   0.457   0.386  0.0111  0.3172  0.4437
   55TMC2    C2  852   4.092   0.425   0.253 -0.2782  0.1447  0.4204
   55TMC2    C3  853   4.051   0.299   0.227 -0.4929 -0.6960  0.3553
   55TMC2    C4  854   4.117   0.371   0.491  0.0209  0.3958 -0.4486
   55TMC2    C5  855   4.058   0.251   0.455  0.3898  0.1592  0.3220
   55TMC2    C6  856   4.033   0.216   0.329  0.1647 -0.8517 -0.0540
   55TMC2     C  857   4.130   0.594   0.436 -0.2258  0.0614  0.2102
   55TMC2     O  858   4.084   0.609   0.546 -0.7012 -0.2141 -0.3511
   55TMC2     H  859   4.096   0.492   0.168  0.9898 -0.5828 -0.0872
   55TMC2    H1  860   4.136   0.384   0.597 -1.9197 -2.0258  0.2065
   55TMC2    H2  861   3.991   0.117   0.311  1.0286 -1.2454  0.0781
   55TMC2    C7  862   4.054   0.130   0.546  0.5215 -0.5608 -0.5675
   55TMC2    C8  863   4.044   0.266   0.088  0.3829  0.0759 -0.0840
   55TMC2    O1  864   4.086   0.022   0.488  0.4939  0.0196 -0.5555
   55TMC2    O2  865   4.075   0.347  17.758  0.3398  0.1231 -0.1297
   55TMC2    O5  866   4.062   0.131   0.100 -0.0322 -0.0964  1.0547
   55TMC2    H5  867   4.072   0.091   0.011  1.6271  1.8223  0.3856
   56MPD2     C  868   4.140   0.891   0.222  0.0943 -0.5634  0.3121
   56MPD2    C1  869   4.106   0.818   0.330 -0.0800  0.3895  0.3306
   56MPD2    C2  870   4.019   0.877   0.414 -0.1342  0.8440 -0.2547
   56MPD2    C3  871   3.988   1.014   0.408 -0.0274  0.1714  0.4036
   56MPD2    C4  872   4.046   1.088   0.311 -1.2629  0.3426 -0.2669
   56MPD2    C5  873   4.107   1.020   0.211  0.3934  0.1384 -0.1733
   56MPD2     H  874   3.981   0.819   0.498  0.7703  0.8254  0.1318
   56MPD2    H1  875   4.038   1.196   0.307  0.6928  0.3411 -4.6410
   56MPD2    H2  876   4.204   0.849   0.144 -0.8939 -1.7848  0.1493
   56MPD2    H3  877   4.144   1.077   0.126  0.2701 -0.3830 -0.5733
   56MPD2     N  878   3.902   1.064   0.509 -0.8163 -0.3078 -0.1379
   56MPD2    H5  879   3.869   0.996   0.577  2.1458 -1.0206  0.5814
   56MPD2    N1  880   4.155   0.688   0.336  0.1812  0.1864  0.2568
   56MPD2    H7  881   4.208   0.664   0.252  0.8323  2.8609 -0.0935
   57TMC2    C1  882   2.328   1.664  13.925  0.1965  0.4661 -0.0705
   57TMC2    C2  883   2.329   1.538  13.982  0.0191 -0.3018  0.0976
   57TMC2    C3  884   2.377   1.431  13.905 -0.3808  0.0345  0.3899
   57TMC2    C4  885   2.377   1.682  13.801  0.1426  0.7608 -0.6985
   57TMC2    C5  886   2.425   1.575  13.730  0.4036  0.0553  0.1293
   57TMC2    C6  887   2.438   1.450  13.782  0.4050 -0.0819 -0.3325
   57TMC2     C  888   2.303   1.776  14.009 -1.1679 -0.2508 -0.2385
   57TMC2     O  889   2.333   1.883  13.963 -0.1304  0.9090  0.2684
   57TMC2     H  890   2.318   1.520  14.088 -0.5861 -2.5922 -0.3523
   57TMC2    H1  891   2.391   1.785  13.771 -1.1518  0.9748 -0.5931
   57TMC2    H2  892   2.456   1.355  13.733  0.0665 -0.1116 -0.4007
   57TMC2    C7  893   2.457   1.590  13.589 -0.2801  0.2239 -0.2163
   57TMC2    C8  894   2.402   1.305  13.979 -0.0722  0.0028  0.3329
   57TMC2    O1  895   2.400   1.683  13.539  0.0521  0.5329  0.6502
   57TMC2    O2  896   2.482   1.299  14.065 -0.0350 -0.3582  0.2999
   57TMC2    O5  897   2.359   1.206  13.903 -0.5036 -0.1032  0.2447
   57TMC2    H5  898   2.308   1.237  13.825 -0.7053  0.3882  0.5709
   58MPD2     C  899   2.125   2.002  14.426  0.9498  0.0814  0.2479
   58MPD2    C1  900   2.141   2.053  14.298  0.6628  0.0217  0.3486
   58MPD2    C2  901   2.201   1.975  14.204 -0.0334  0.0173  0.6706
   58MPD2    C3  902   2.222   1.844  14.228  0.2970  0.0140  0.5535
   58MPD2    C4  903   2.206   1.795  14.354  0.0568  0.2558  0.4317
   58MPD2    C5  904   2.166   1.870  14.458 -0.3299  0.4579 -0.0463
   58MPD2     H  905   2.210   2.013  14.102 -1.6324  0.0473  0.5321
   58MPD2    H1  906   2.241   1.695  14.375 -0.4809 -0.2063 -0.8456
   58MPD2    H2  907   2.072   2.058  14.503  0.6156 -0.0223  0.0919
   58MPD2    H3  908   2.153   1.830  14.558 -0.7757 -2.2085 -1.1797
   58MPD2     N  909   2.261   1.746  14.136  0.4928 -0.2540 -0.1166
   58MPD2    H5  910   2.231   1.651  14.158 -0.7971 -0.2489 -1.8824
   58MPD2    N1  911   2.091   2.179  14.257  0.1282  0.0697  0.4389
   58MPD2    H7  912   2.114   2.206  14.162 -0.5890  1.2625  0.5971
   59TMC2    C1  913   0.212   2.041  13.140 -0.1255 -0.0140 -0.1161
   59TMC2    C2  914   0.172   1.912  13.127 -0.1997 -0.0961  0.2803
   59TMC2    C3  915   0.196   1.848  13.005 -0.4895 -0.0600  0.6082
   59TMC2    C4  916   0.260   2.118  13.032  0.2726 -0.2407  0.6300
   59TMC2    C5  917   0.264   2.054  12.906 -0.1101 -0.5472  0.2642
   59TMC2    C6  918   0.247   1.916  12.897  0.0154 -0.3153 -0.4166
   59TMC2     C  919   0.256   2.087  13.275 -0.6589 -0.3924  0.4389
   59TMC2     O  920   0.192   2.052  13.372  0.3594  0.1275  0.8692
   59TMC2     H  921   0.130   1.861  13.213 -1.7441 -0.0665 -0.4488
   59TMC2    H1  922   0.299   2.219  13.042 -1.4997  0.3414  1.7074
   59TMC2    H2  923   0.255   1.868  12.800  0.5168  1.0375 -1.0574
   59TMC2    C7  924   0.335   2.111  12.785 -0.0176  0.5590  0.3856
   59TMC2    C8  925   0.165   1.706  12.991  0.4019 -0.5446  0.7694
   59TMC2    O1  926   0.367   2.034  12.699 -0.3353 -0.1329  0.2815
   59TMC2    O2  927   0.088   1.651  13.070 -0.1246 -0.2723 -0.0893
   59TMC2    O5  928   0.295   1.665  12.963  0.0297 -0.5406  0.1929
   59TMC2    H5  929   0.347   1.736  12.920 -0.7787 -0.9246 -1.4282
   60MPD2     C  930   0.403   2.180  13.511  0.0348  0.3446 -1.1875
   60MPD2    C1  931   0.464   2.148  13.392  0.3292  0.0751  0.2694
   60MPD2    C2  932   0.600   2.141  13.395 -0.0404  1.1023 -0.5035
   60MPD2    C3  933   0.678   2.158  13.516  0.2253 -1.0256  0.1474
   60MPD2    C4  934   0.618   2.202  13.631  0.6481 -0.6687 -0.6832
   60MPD2    C5  935   0.480   2.212  13.627 -0.8780 -0.1276 -0.2391
   60MPD2     H  936   0.641   2.114  13.298  0.2568 -0.0388 -0.0630
   60MPD2    H1  937   0.671   2.195  13.725 -1.8054  1.0737  0.8278
   60MPD2    H2  938   0.297   2.179  13.535  0.2094 -0.4452 -0.4295
   60MPD2    H3  939   0.431   2.222  13.724 -1.5678  0.8668 -0.6922
   60MPD2     N  940   0.816   2.141  13.527 -0.2741  0.6844  0.5003
   60MPD2    H5  941   0.849   2.151  13.622 -1.4311  1.3729  0.8244
   60MPD2    N1  942   0.385   2.134  13.275  0.4586  0.4389  0.3883
   60MPD2    H7  943   0.439   2.129  13.189 -0.3242  3.0966 -0.2393
   61TMC2    C1  944   0.154   3.179  15.692  0.1051  0.1346 -1.0014
   61TMC2    C2  945   0.153   3.115  15.810  0.2516  0.2823 -0.1010
   61TMC2    C3  946   0.216   3.179  15.919 -0.0490  0.9796 -0.1747
   61TMC2    C4  947   0.213   3.297  15.674 -0.6235 -0.0985  0.1978
   61TMC2    C5  948   0.267   3.354  15.787 -1.1778  0.0264 -0.8052
   61TMC2    C6  949   0.275   3.299  15.911 -0.5069 -0.0923  0.0800
   61TMC2     C  950   0.078   3.112  15.587  0.1341 -0.3641 -0.3756
   61TMC2     O  951   4.740   3.023  15.617  0.2784  0.3839 -0.0968
   61TMC2     H  952   0.109   3.017  15.828  0.6523 -0.0546 -0.9169
   61TMC2    H1  953   0.211   3.349  15.579 -0.7541  2.0809  1.3835
   61TMC2    H2  954   0.308   3.354  15.998  2.4054  1.4497 -1.9690
   61TMC2    C7  955   0.314   3.487  15.766 -0.1644 -0.1272  0.7362
   61TMC2    C8  956   0.235   3.097  16.033  0.1723  0.0532  0.1599
   61TMC2    O1  957   0.272   3.535  15.663 -0.2761 -0.9096 -0.6758
   61TMC2    O2  958   0.269   2.981  16.021  0.1293  0.3638 -0.3469
   61TMC2    O5  959   0.262   3.179  16.135 -0.0389 -0.1764 -0.5991
   61TMC2    H5  960   0.206   3.260  16.135 -0.1510 -0.2483  1.4805
   62MPD2     C  961   4.670   3.083  15.327  0.3478 -1.0019  0.8044
   62MPD2    C1  962   0.061   3.126  15.339  0.0081 -0.5361  0.1728
   62MPD2    C2  963   0.127   3.154  15.221  0.0179 -0.0856 -0.1400
   62MPD2    C3  964   0.063   3.125  15.096 -0.1531  0.7302 -0.2115
   62MPD2    C4  965   4.672   3.086  15.093  0.3564  0.1241  0.3008
   62MPD2    C5  966   4.605   3.073  15.205  0.2179  0.0470  0.0758
   62MPD2     H  967   0.229   3.190  15.231  1.3121 -3.1741 -2.2367
   62MPD2    H1  968   4.623   3.067  14.998 -0.3593 -3.5849  1.4129
   62MPD2    H2  969   4.608   3.057  15.412  0.3536 -0.2701  1.0352
   62MPD2    H3  970   4.506   3.031  15.204  0.5514 -0.8381  3.5249
   62MPD2     N  971   0.119   3.137  14.967  0.6525  0.3682  0.1363
   62MPD2    H5  972   0.066   3.138  14.881 -1.4001  0.5200  1.3985
   62MPD2    N1  973   0.128   3.150  15.463 -0.8366  0.7524 -0.3831
   62MPD2    H7  974   0.215   3.203  15.462 -0.5950  0.3574  0.3186
   63TMC2    C1  975   3.766   3.916  10.687  0.6968  0.5519 -0.3151
   63TMC2    C2  976   3.897   3.898  10.665 -0.1780 -0.2285 -0.1260
   63TMC2    C3  977   3.962   3.952  10.554  0.1516  0.2813 -0.5447
   63TMC2    C4  978   3.694   4.001  10.607 -0.8006  0.1327 -0.2183
   63TMC2    C5  979   3.754   4.047  10.485  0.1764 -0.0404  0.5239
   63TMC2    C6  980   3.887   4.013  10.459 -0.2982  0.7785 -0.3468
   63TMC2     C  981   3.709   3.857  10.805  0.0589 -0.0044 -0.5006
   63TMC2     O  982   3.619   3.919  10.857  0.4931  0.7694 -0.0268
   63TMC2     H  983   3.950   3.825  10.724  0.9740 -2.2335 -3.6212
   63TMC2    H1  984   3.592   4.019  10.641 -0.9148  0.6411 -0.8319
   63TMC2    H2  985   3.936   4.038  10.365 -1.2356  0.4089 -0.9365
   63TMC2    C7  986   3.659   4.056  10.377 -0.1356 -0.1334 -0.0421
   63TMC2    C8  987   4.098   3.916  10.520  0.1429 -0.4119 -0.4768
   63TMC2    O1  988   3.540   4.062  10.404 -0.2431 -0.0164  0.3102
   63TMC2    O2  989   4.151   3.956  10.418  0.1989  0.1758  0.3815
   63TMC2    O5  990   4.163   3.866  10.635 -0.0065 -0.2053 -0.6730
   63TMC2    H5  991   4.128   3.890  10.723 -1.7911 -0.3380 -1.3454
   64MPD2     C  992   3.620   3.463  11.137  0.3632 -1.0353 -0.1582
   64MPD2    C1  993   3.694   3.417  11.026 -0.1508  0.1026 -0.0006
   64MPD2    C2  994   3.751   3.507  10.940 -0.7267  0.3176 -0.2276
   64MPD2    C3  995   3.721   3.648  10.944 -0.6175 -0.5612 -0.4407
   64MPD2    C4  996   3.648   3.694  11.048  0.0064 -0.8899  0.3365
   64MPD2    C5  997   3.600   3.599  11.138 -0.5090  0.7921 -0.0135
   64MPD2     H  998   3.811   3.466  10.860 -0.0740  2.0478 -0.6299
   64MPD2    H1  999   3.617   3.798  11.054 -1.5355 -1.4334  1.8749
   64MPD2    H2 1000   3.573   3.395  11.207 -1.1499  0.3988  0.2400
   64MPD2    H3 1001   3.544   3.639  11.222 -0.7851  1.3674 -0.4685
   64MPD2     N 1002   3.762   3.733  10.831  0.7528 -0.6976  0.2885
   64MPD2    H5 1003   3.805   3.684  10.754  0.7827 -0.0244 -0.1230
   64MPD2    N1 1004   3.718   3.281  10.991 -0.7455 -0.6770 -0.0925
   64MPD2    H7 1005   3.788   3.261  10.920 -0.5750  0.7585 -0.3217
   65TMC2    C1 1006   0.884   2.943  15.570  0.2718 -0.0086  0.0058
   65TMC2    C2 1007   0.848   2.920  15.445 -0.4788  0.3540  0.0958
   65TMC2    C3 1008   0.878   3.008  15.350  0.5894  0.3970 -0.1304
   65TMC2    C4 1009   0.935   3.067  15.611  0.2800 -0.2106  0.2929
   65TMC2    C5 1010   0.955   3.158  15.512 -0.2859  0.5514 -1.0739
   65TMC2    C6 1011   0.928   3.130  15.376 -0.5057 -0.5825  0.5567
   65TMC2     C 1012   0.841   2.853  15.682  0.3919 -0.1590  0.1700
   65TMC2     O 1013   0.897   2.858  15.794  0.2334 -0.7080 -0.1904
   65TMC2     H 1014   0.792   2.830  15.424 -1.2208  0.7041  0.5847
   65TMC2    H1 1015   0.959   3.078  15.716  1.6217  0.0342 -0.0396
   65TMC2    H2 1016   0.956   3.206  15.304  0.2200 -0.4879  0.9301
   65TMC2    C7 1017   0.998   3.297  15.541 -0.7133 -0.0941 -0.0729
   65TMC2    C8 1018   0.827   2.975  15.225  0.0902 -0.4049  0.2824
   65TMC2    O1 1019   1.070   3.355  15.462  0.0931 -0.4029 -0.0282
   65TMC2    O2 1020   0.807   2.857  15.190  0.0101 -0.2031  0.6430
   65TMC2    O5 1021   0.784   3.080  15.158 -0.4046 -0.0918 -0.5410
   65TMC2    H5 1022   0.792   3.164  15.208  1.5393 -0.0020 -0.9871
   66MPD2     C 1023   0.711   2.633  15.834 -0.4663  0.2592  0.5109
   66MPD2    C1 1024   0.676   2.665  15.706  0.4506 -0.9810  0.1384
   66MPD2    C2 1025   0.591   2.585  15.635 -0.1520  0.8133 -0.5171
   66MPD2    C3 1026   0.546   2.467  15.695 -0.2533 -1.0926 -0.0049
   66MPD2    C4 1027   0.575   2.439  15.828  0.0987 -0.7945  0.1441
   66MPD2    C5 1028   0.668   2.516  15.890  0.8158 -0.4110 -0.4468
   66MPD2     H 1029   0.566   2.611  15.533  0.0545  0.5059 -0.6449
   66MPD2    H1 1030   0.547   2.350  15.884 -0.2590 -0.0512  1.1531
   66MPD2    H2 1031   0.770   2.692  15.904 -1.0170  2.2772 -0.7388
   66MPD2    H3 1032   0.701   2.497  15.991 -0.0419 -1.5244 -0.3713
   66MPD2     N 1033   0.454   2.381  15.633 -0.1323 -0.3317 -0.8735
   66MPD2    H5 1034   0.421   2.307  15.694 -2.4516  0.1406 -1.5653
   66MPD2    N1 1035   0.742   2.770  15.636 -0.3576 -0.3394 -0.3575
   66MPD2    H7 1036   0.701   2.789  15.545 -1.1248 -0.9221 -0.1369
   67TMC2    C1 1037   0.808   2.059  14.138  0.6619  1.0513 -0.1711
   67TMC2    C2 1038   0.802   2.194  14.129  0.0782  0.1490 -0.0533
   67TMC2    C3 1039   0.792   2.259  14.250 -0.3434  0.5412 -0.1130
   67TMC2    C4 1040   0.792   1.987  14.250 -0.9276  0.8545 -0.2907
   67TMC2    C5 1041   0.789   2.058  14.368 -0.2038 -0.0985 -0.1043
   67TMC2    C6 1042   0.797   2.196  14.368 -0.5737 -0.9849 -0.1935
   67TMC2     C 1043   0.766   2.006  14.010  0.8078 -0.6517 -0.3087
   67TMC2     O 1044   0.826   2.028  13.908 -0.3689  0.4175 -0.5552
   67TMC2     H 1045   0.793   2.233  14.028 -1.9347 -0.1002  0.0394
   67TMC2    H1 1046   0.788   1.879  14.249  1.6976  0.7437 -0.0350
   67TMC2    H2 1047   0.808   2.256  14.458  1.0977 -2.1755  0.3888
   67TMC2    C7 1048   0.766   1.981  14.492  0.6472 -0.2353 -0.6066
   67TMC2    C8 1049   0.794   2.408  14.258  0.3352  0.0872 -0.1135
   67TMC2    O1 1050   0.707   1.877  14.479  0.2761  0.4150 -0.4277
   67TMC2    O2 1051   0.768   2.468  14.363  0.0161 -0.0406  0.1798
   67TMC2    O5 1052   0.824   2.462  14.139 -0.1271 -0.1122  0.0033
   67TMC2    H5 1053   0.881   2.406  14.083 -2.2297 -1.3836 -0.8402
   68MPD2     C 1054   0.571   1.910  13.798 -0.1907 -0.4259 -0.3576
   68MPD2    C1 1055   0.541   1.937  13.928 -0.0913 -0.4481  0.5862
   68MPD2    C2 1056   0.413   1.945  13.964  0.5690 -0.9261  0.4816
   68MPD2    C3 1057   0.312   1.943  13.868 -0.0581 -0.0837  0.2522
   68MPD2    C4 1058   0.345   1.932  13.736  0.4700  0.3269 -0.0287
   68MPD2    C5 1059   0.472   1.908  13.703  0.8025  0.6745 -0.0321
   68MPD2     H 1060   0.392   1.969  14.068  1.9703  1.8015  0.1267
   68MPD2    H1 1061   0.280   1.911  13.651  0.5281  4.0077 -1.0183
   68MPD2    H2 1062   0.673   1.893  13.767  0.0580  3.0949 -1.4491
   68MPD2    H3 1063   0.498   1.895  13.599  2.1914  1.7531  0.1788
   68MPD2     N 1064   0.179   1.975  13.897  0.1919 -1.0299  0.2996
   68MPD2    H5 1065   0.123   1.993  13.813  0.1609  0.4244  0.6251
   68MPD2    N1 1066   0.634   1.962  14.027 -0.3664 -0.3474  0.6868
   68MPD2    H7 1067   0.598   1.964  14.122 -0.3991 -1.8284  0.6930
   69TMC2    C1 1068   2.977   3.674  12.610 -0.9830  0.4306 -0.3349
   69TMC2    C2 1069   2.885   3.696  12.510 -0.0700 -0.4117 -0.6660
   69TMC2    C3 1070   2.916   3.760  12.397 -0.3079  0.3862 -0.4615
   69TMC2    C4 1071   3.106   3.724  12.589 -0.1263 -0.5793  0.4477
   69TMC2    C5 1072   3.136   3.789  12.471  0.7464  0.8678  0.4236
   69TMC2    C6 1073   3.044   3.806  12.370  0.2743 -0.0397 -0.1507
   69TMC2     C 1074   2.956   3.574  12.710 -0.4703  0.1660 -1.0455
   69TMC2     O 1075   2.849   3.519  12.700  0.2583  0.1190 -0.5702
   69TMC2     H 1076   2.785   3.656  12.510  0.1566 -1.0014  3.1221
   69TMC2    H1 1077   3.185   3.666  12.634  1.4577  2.1715  1.2065
   69TMC2    H2 1078   3.067   3.867  12.283 -1.0053 -0.8391 -1.0612
   69TMC2    C7 1079   3.273   3.838  12.445 -0.0149  0.0097 -0.5687
   69TMC2    C8 1080   2.837   3.711  12.285  0.2026 -0.2189  0.4063
   69TMC2    O1 1081   3.299   3.854  12.327  0.4962  0.4969  0.2717
   69TMC2    O2 1082   2.830   3.590  12.262  0.3691 -0.0634 -0.5512
   69TMC2    O5 1083   2.866   3.806  12.194  0.6009  0.2829 -0.0575
   69TMC2    H5 1084   2.874   3.895  12.233  1.3806 -0.3429  1.2234
   70MPD2     C 1085   3.158   3.520  13.000  0.4502 -0.6659  0.1979
   70MPD2    C1 1086   3.060   3.482  12.911 -0.2175  0.4410  0.2868
   70MPD2    C2 1087   2.994   3.356  12.912  0.4731  0.3184 -0.7662
   70MPD2    C3 1088   3.023   3.271  13.009  0.5140 -0.7724  0.2077
   70MPD2    C4 1089   3.114   3.301  13.103 -0.4752  0.3344 -0.1858
   70MPD2    C5 1090   3.184   3.423  13.097  0.6713 -0.4397 -0.3311
   70MPD2     H 1091   2.928   3.323  12.832 -0.8553 -1.3613  1.0148
   70MPD2    H1 1092   3.153   3.238  13.183  0.2987 -0.9679 -1.5883
   70MPD2    H2 1093   3.206   3.616  12.986 -1.7185  0.4418  0.2571
   70MPD2    H3 1094   3.254   3.455  13.174  0.1789  1.0246 -0.4936
   70MPD2     N 1095   2.962   3.143  13.016  0.1229  0.1822 -0.3727
   70MPD2    H5 1096   2.999   3.087  13.092  1.0492 -0.7762 -1.5375
   70MPD2    N1 1097   3.052   3.576  12.805 -0.0406  0.1124  0.5169
   70MPD2    H7 1098   3.127   3.644  12.798  1.3298 -1.5765 -1.4801
   71TMC2    C1 1099   4.215   3.641   1.167 -0.2834  0.1744 -0.1256
   71TMC2    C2 1100   4.266   3.621   1.293 -0.1888  0.6128  0.2654
   71TMC2    C3 1101   4.177   3.635   1.395 -0.0160  0.1159 -0.4530
   71TMC2    C4 1102   4.087   3.693   1.144 -0.4114 -0.2271  0.3969
   71TMC2    C5 1103   4.009   3.707   1.256 -0.8589 -0.3476  0.1170
   71TMC2    C6 1104   4.055   3.679   1.382  0.1810 -0.2048  0.0251
   71TMC2     C 1105   4.294   3.591   1.058  0.4433 -0.2813 -0.2225
   71TMC2     O 1106   4.413   3.576   1.068  0.4011 -0.0163 -0.4484
   71TMC2     H 1107   4.357   3.564   1.301 -0.6028 -0.0072  0.5069
   71TMC2    H1 1108   4.051   3.723   1.047 -1.9150  1.0460  1.3575
   71TMC2    H2 1109   3.999   3.706   1.471  2.3391  1.4605  0.8884
   71TMC2    C7 1110   3.884   3.771   1.239 -0.6837  0.3638  0.6496
   71TMC2    C8 1111   4.234   3.624   1.528  0.9877  0.0500  0.4340
   71TMC2    O1 1112   3.837   3.819   1.338  0.2229  0.1849  0.0360
   71TMC2    O2 1113   4.353   3.612   1.544  0.0748 -0.0413 -0.5727
   71TMC2    O5 1114   4.145   3.563   1.601  0.4350 -0.5899 -0.5522
   71TMC2    H5 1115   4.052   3.557   1.571  0.5365  1.8395 -1.3198
   72MPD2     C 1116   4.303   3.357   0.600  0.5954 -0.0443 -0.8094
   72MPD2    C1 1117   4.408   3.402   0.674 -0.1854  0.6499  0.0769
   72MPD2    C2 1118   4.390   3.479   0.788  0.2228  0.4154 -0.2578
   72MPD2    C3 1119   4.258   3.510   0.823 -0.3726  0.0829  0.0190
   72MPD2    C4 1120   4.153   3.476   0.736  0.3071 -0.3620 -0.1181
   72MPD2    C5 1121   4.177   3.405   0.623  0.5155 -0.1170 -0.5113
   72MPD2     H 1122   4.474   3.519   0.844 -1.0389  2.3239  0.2349
   72MPD2    H1 1123   4.050   3.506   0.753  1.2335  3.5134 -1.2123
   72MPD2    H2 1124   4.311   3.303   0.506  1.3551 -0.0081 -0.7671
   72MPD2    H3 1125   4.097   3.383   0.553  0.6706  0.5790 -0.9066
   72MPD2     N 1126   4.217   3.560   0.954 -0.6239  0.3259  0.2400
   72MPD2    H5 1127   4.118   3.556   0.972 -0.9703  1.1458 -1.5493
   72MPD2    N1 1128   4.545   3.375   0.643 -1.0046  0.6031 -0.3279
   72MPD2    H7 1129   4.613   3.417   0.706  0.0486  1.2898 -1.9107
   73TMC2    C1 1130   4.525   0.774  13.836  0.3682 -0.3985  0.1819
   73TMC2    C2 1131   4.482   0.712  13.722  0.0091 -0.2858  0.0827
   73TMC2    C3 1132   4.567   0.629  13.649 -0.1194  0.7432  0.4805
   73TMC2    C4 1133   4.645   0.729  13.889  0.4646  0.3057 -0.6340
   73TMC2    C5 1134   4.725   0.642  13.817 -0.6902  0.4130 -0.5953
   73TMC2    C6 1135   4.690   0.593  13.691  0.7510 -0.2544  0.3036
   73TMC2     C 1136   4.503   0.917  13.845 -0.0914  0.0539  0.5777
   73TMC2     O 1137   4.580   0.971  13.927 -0.1578  0.3891  0.0064
   73TMC2     H 1138   4.388   0.735  13.674  0.1897 -0.9481 -0.5819
   73TMC2    H1 1139   4.677   0.762  13.987 -1.1234  0.8275 -0.2877
   73TMC2    H2 1140   0.001   0.516  13.635  2.2159  2.0549 -1.5115
   73TMC2    C7 1141   0.123   0.693  13.818 -0.4277 -0.0267 -0.5864
   73TMC2    C8 1142   4.532   0.594  13.515 -0.1848  0.3992  0.3857
   73TMC2    O1 1143   0.207   0.617  13.770 -0.4389  0.2016  0.0218
   73TMC2    O2 1144   4.419   0.546  13.499 -0.4058 -0.3042 -0.1553
   73TMC2    O5 1145   4.587   0.699  13.446 -0.0379 -0.1289  0.2819
   73TMC2    H5 1146   4.664   0.738  13.491 -0.4443  1.1378 -0.1255
   74MPD2     C 1147   4.397   1.379  13.649  0.3128  0.6659  0.5761
   74MPD2    C1 1148   4.502   1.333  13.728  0.5468  0.0873  0.2399
   74MPD2    C2 1149   4.510   1.197  13.770 -0.0642  0.4567 -0.5033
   74MPD2    C3 1150   4.413   1.106  13.729 -0.1362 -0.7324 -0.1373
   74MPD2    C4 1151   4.312   1.157  13.654  0.3707 -0.4643 -0.2078
   74MPD2    C5 1152   4.307   1.291  13.611  0.3371  0.1811  0.5670
   74MPD2     H 1153   4.599   1.166  13.824 -0.2459  0.6904 -0.0709
   74MPD2    H1 1154   4.230   1.094  13.624  0.2952 -1.1817  1.5073
   74MPD2    H2 1155   4.392   1.485  13.629 -0.9689 -0.1029 -3.1688
   74MPD2    H3 1156   4.236   1.330  13.539 -1.0744 -1.3446  1.1372
   74MPD2     N 1157   4.411   0.969  13.767 -0.1011  0.4153  0.5527
   74MPD2    H5 1158   4.336   0.907  13.739 -1.0577  1.0601  1.6838
   74MPD2    N1 1159   4.601   1.428  13.756 -0.1933 -0.7463  0.1576
   74MPD2    H7 1160   4.592   1.522  13.720  0.9776  0.3742  2.7586
   75TMC2    C1 1161   4.728   2.034  14.040  0.5772  0.0741 -0.5823
   75TMC2    C2 1162   4.687   2.083  14.169  0.3105  0.2074 -0.4739
   75TMC2    C3 1163   4.561   2.108  14.191 -0.6307 -0.0709  0.1621
   75TMC2    C4 1164   4.639   2.030  13.936 -0.0819 -0.0096  0.1194
   75TMC2    C5 1165   4.512   2.067  13.964  0.1717 -0.1594 -0.3460
   75TMC2    C6 1166   4.473   2.102  14.095  0.3066  0.3566  0.2396
   75TMC2     C 1167   0.127   1.989  14.027 -0.2526  0.4112 -0.5461
   75TMC2     O 1168   0.168   1.966  14.138 -0.1879 -0.3291  0.4942
   75TMC2     H 1169   0.014   2.091  14.253  1.2160 -2.8783 -0.9042
   75TMC2    H1 1170   4.670   1.998  13.837  0.4452  0.0077  0.2786
   75TMC2    H2 1171   4.370   2.123  14.120  0.2905  0.4510  0.0992
   75TMC2    C7 1172   4.421   2.052  13.852 -0.1430  0.2927  0.1595
   75TMC2    C8 1173   4.518   2.114  14.330  0.4680  0.3465 -0.7569
   75TMC2    O1 1174   4.468   2.045  13.741  0.6025  0.2959  0.2306
   75TMC2    O2 1175   4.571   2.055  14.419  0.6495  0.3042  0.7140
   75TMC2    O5 1176   4.397   2.165  14.335 -0.1034 -0.0331  0.0985
   75TMC2    H5 1177   4.396   2.234  14.266  0.9722  0.3528  0.4666
   76TMC2    C1 1178   3.778   2.751  11.982 -0.1860 -0.0573  0.2612
   76TMC2    C2 1179   3.702   2.712  11.875 -0.4443 -0.7519  0.2166
   76TMC2    C3 1180   3.668   2.579  11.875 -0.1283 -0.0256 -0.0910
   76TMC2    C4 1181   3.814   2.662  12.080  0.8509  0.4997 -0.0816
   76TMC2    C5 1182   3.803   2.530  12.061  0.2955 -0.2811 -0.6512
   76TMC2    C6 1183   3.733   2.487  11.949 -0.0553  1.0842 -0.4064
   76TMC2     C 1184   3.830   2.881  11.982 -0.9570 -0.5369  0.3595
   76TMC2     O 1185   3.781   2.960  11.903 -0.0159  0.1010  0.1508
   76TMC2     H 1186   3.665   2.774  11.794  0.9244 -0.5410 -0.2507
   76TMC2    H1 1187   3.836   2.708  12.176 -2.2951  1.4311  0.1724
   76TMC2    H2 1188   3.714   2.381  11.942  1.6637  0.7007  0.6897
   76TMC2    C7 1189   3.851   2.430  12.151  0.1169 -0.2337 -0.5156
   76TMC2    C8 1190   3.575   2.533  11.772 -0.4306 -0.6056 -0.4748
   76TMC2    O1 1191   3.819   2.318  12.125 -0.1461  0.4502 -0.6648
   76TMC2    O2 1192   3.500   2.615  11.719 -0.4401 -0.5282 -0.4363
   76TMC2    O5 1193   3.631   2.432  11.705 -0.4969  0.1123  0.0441
   76TMC2    H5 1194   3.722   2.417  11.736 -0.7324 -2.9393 -0.7748
   77MPD2     C 1195   4.119   3.261  12.199  0.1277 -0.3355  0.7320
   77MPD2    C1 1196   4.011   3.265  12.116 -0.1811 -0.9032  0.6345
   77MPD2    C2 1197   3.953   3.148  12.070 -0.1945 -0.2361  0.0983
   77MPD2    C3 1198   3.996   3.025  12.115 -0.7942  0.2903 -0.2345
   77MPD2    C4 1199   4.111   3.023  12.193  0.5582  0.2833  0.1685
   77MPD2    C5 1200   4.166   3.140  12.239 -0.1765 -0.5311 -0.4634
   77MPD2     H 1201   3.866   3.152  12.006 -1.5559  1.9800  2.0989
   77MPD2    H1 1202   4.150   2.929  12.231  0.9679 -0.5493 -2.2959
   77MPD2    H2 1203   4.172   3.349  12.233  3.9650 -0.5594 -4.5874
   77MPD2    H3 1204   4.251   3.134  12.306 -1.3085 -0.2920  0.9754
   77MPD2     N 1205   3.931   2.901  12.074  0.4004 -0.3506 -0.1383
   77MPD2    H5 1206   3.965   2.817  12.119  1.0187 -0.1716 -0.2728
   77MPD2    N1 1207   3.958   3.390  12.068  0.0116  0.0692 -0.2742
   77MPD2    H7 1208   3.868   3.392  12.020 -0.2644  2.0352  0.3423
   78TMC2    C1 1209   0.655   2.814   1.423  0.1554  0.9533 -0.1923
   78TMC2    C2 1210   0.584   2.751   1.518 -0.2707  0.0688  0.6409
   78TMC2    C3 1211   0.578   2.817   1.640  0.0271  0.8056  0.6726
   78TMC2    C4 1212   0.716   2.935   1.435  0.2351  0.7176  0.1018
   78TMC2    C5 1213   0.696   2.998   1.553  0.3840 -0.0769  0.4991
   78TMC2    C6 1214   0.641   2.932   1.667  0.2477  0.7773 -0.0203
   78TMC2     C 1215   0.679   2.756   1.292  0.2466  0.1793 -0.2042
   78TMC2     O 1216   0.707   2.832   1.199 -0.3327  0.3426 -0.0667
   78TMC2     H 1217   0.517   2.669   1.492  1.3284 -2.1391  3.3970
   78TMC2    H1 1218   0.766   2.988   1.355  1.7970 -1.1499 -0.1567
   78TMC2    H2 1219   0.624   2.988   1.758 -0.6058 -0.8302  0.7985
   78TMC2    C7 1220   0.784   3.117   1.568  0.0696  0.3016 -0.1044
   78TMC2    C8 1221   0.502   2.747   1.738 -0.2012  0.2373 -0.5272
   78TMC2    O1 1222   0.835   3.156   1.466  0.1846 -0.0065 -0.0355
   78TMC2    O2 1223   0.410   2.670   1.720 -0.9645 -0.1593  0.2157
   78TMC2    O5 1224   0.545   2.801   1.861 -0.0777  0.3197  0.4239
   78TMC2    H5 1225   0.639   2.828   1.856  0.5742 -1.6745  1.6499
   79MPD1     C 1226   0.600   2.369   0.961  0.9408  0.1580  0.6987
   79MPD1    C1 1227   0.642   2.500   0.936 -0.5780  0.1026 -0.0228
   79MPD1    C2 1228   0.654   2.590   1.043 -0.7548  0.0993  0.0289
   79MPD1    C3 1229   0.624   2.549   1.170  0.6706  0.4519  0.2844
   79MPD1    C4 1230   0.575   2.426   1.184  0.1131  0.5527 -0.0457
   79MPD1    C5 1231   0.566   2.332   1.085  0.6415  0.0208  0.1191
   79MPD1     H 1232   0.679   2.694   1.025  0.1439  0.0579  1.0407
   79MPD1    H1 1233   0.556   2.392   1.286 -0.3981 -2.1973 -1.0480
   79MPD1    H2 1234   0.588   2.301   0.878  3.0832 -0.2246  0.6868
   79MPD1    H3 1235   0.554   2.225   1.098  1.5909 -0.2099 -0.9143
   79MPD1     N 1236   0.641   2.621   1.288  0.3967 -0.4122  0.4603
   79MPD1    H5 1237   0.628   2.575   1.377 -2.5704  0.4270  0.4505
   79MPD1    N1 1238   0.651   2.538   0.802  0.0618 -0.0281 -0.1286
   79MPD1    H6 1239   0.712   2.616   0.782  0.5175 -0.5925 -0.9698
   79MPD1    H7 1240   0.681   2.463   0.739  0.3939  0.2409 -0.2932
   80TMC2    C1 1241   2.813   2.260  11.674  0.4512 -0.4856  0.0026
   80TMC2    C2 1242   2.787   2.314  11.554  0.1936 -0.1490 -0.6575
   80TMC2    C3 1243   2.663   2.297  11.493 -0.1317 -0.4327  0.1131
   80TMC2    C4 1244   2.720   2.185  11.736  0.3933  0.6234  0.4355
   80TMC2    C5 1245   2.599   2.169  11.674 -0.5305 -0.0980 -0.1734
   80TMC2    C6 1246   2.571   2.218  11.549 -0.4597  0.0294  0.8260
   80TMC2     C 1247   2.950   2.269  11.719 -0.3623 -0.7053  0.2634
   80TMC2     O 1248   3.042   2.269  11.634 -0.1650  0.3335  0.5077
   80TMC2     H 1249   2.864   2.378  11.514  0.1319 -0.1665 -0.8053
   80TMC2    H1 1250   2.748   2.138  11.829 -1.8228 -2.2634 -0.3786
   80TMC2    H2 1251   2.474   2.220  11.501 -0.6120  2.7228  1.2427
   80TMC2    C7 1252   2.497   2.089  11.723 -0.7865 -0.1815 -0.3047
   80TMC2    C8 1253   2.642   2.314  11.345 -0.4258  0.2473 -0.3622
   80TMC2    O1 1254   2.413   2.056  11.643 -0.4063  0.1780  0.1311
   80TMC2    O2 1255   2.574   2.242  11.277  0.4785  0.1053 -0.5204
   80TMC2    O5 1256   2.734   2.404  11.303  1.0921  0.4154 -0.3629
   80TMC2    H5 1257   2.761   2.468  11.373  1.0486 -0.6092  0.5889
   81MPD2     C 1258   3.198   2.292  11.883  0.1375 -0.4060  0.2573
   81MPD2    C1 1259   3.076   2.344  11.923  0.2016 -0.4581  0.3380
   81MPD2    C2 1260   3.078   2.415  12.035  1.1226  0.3759 -0.3231
   81MPD2    C3 1261   3.196   2.443  12.105 -1.6333 -0.0449 -0.3365
   81MPD2    C4 1262   3.314   2.394  12.059 -0.6333 -0.0069 -0.1466
   81MPD2    C5 1263   3.316   2.325  11.945  0.1206 -0.1408  0.0639
   81MPD2     H 1264   2.978   2.447  12.063  0.4472 -2.5361  0.6415
   81MPD2    H1 1265   3.411   2.410  12.105  1.5806  1.5671 -5.3575
   81MPD2    H2 1266   3.210   2.239  11.789  2.7474 -0.8923  0.8533
   81MPD2    H3 1267   3.407   2.284  11.903 -2.3023 -2.7594 -2.6181
   81MPD2     N 1268   3.193   2.510  12.231  0.1291  0.5911 -0.5001
   81MPD2    H5 1269   3.276   2.506  12.289  0.4246 -1.2966 -1.0436
   81MPD2    N1 1270   2.955   2.313  11.847 -0.3178 -0.2171 -0.0369
   81MPD2    H7 1271   2.867   2.341  11.891 -0.6708 -0.7462 -0.4073
   82TMC2    C1 1272   1.057   2.044  11.216 -0.6804 -0.9389  0.2315
   82TMC2    C2 1273   1.157   2.008  11.140  0.4492  0.5300  0.0988
   82TMC2    C3 1274   1.193   1.878  11.151 -0.5460  0.9434 -1.0161
   82TMC2    C4 1275   1.005   1.966  11.320  0.1966 -0.2397 -0.2612
   82TMC2    C5 1276   1.048   1.837  11.336 -0.6648 -0.4379  0.4926
   82TMC2    C6 1277   1.137   1.790  11.240  0.4417 -0.4566  0.2168
   82TMC2     C 1278   0.967   2.144  11.153 -1.4586  0.3009  0.3876
   82TMC2     O 1279   0.927   2.117  11.042  0.4434  0.2153  0.0292
   82TMC2     H 1280   1.192   2.070  11.059 -0.0558  0.4652 -0.1680
   82TMC2    H1 1281   0.916   1.995  11.375  2.2417  0.8194  2.4933
   82TMC2    H2 1282   1.174   1.688  11.239 -1.6641 -1.2157  0.9673
   82TMC2    C7 1283   0.962   1.738  11.404  0.3654 -0.6825 -0.1307
   82TMC2    C8 1284   1.288   1.825  11.059 -0.0487 -0.5829 -0.1103
   82TMC2    O1 1285   0.884   1.786  11.487 -0.6372 -0.8392  0.0469
   82TMC2    O2 1286   1.265   1.725  10.993  0.2212  0.4113 -0.3407
   82TMC2    O5 1287   1.364   1.921  11.022  0.6055 -0.1382  0.5839
   82TMC2    H5 1288   1.386   1.997  11.080 -1.8771  0.9420  0.1486
   83MPD2     C 1289   0.633   2.519  11.197 -0.2146  0.0316  0.1391
   83MPD2    C1 1290   0.642   2.410  11.107  0.3122  0.8354 -0.0619
   83MPD2    C2 1291   0.748   2.326  11.104  0.5999  0.2499  0.0680
   83MPD2    C3 1292   0.844   2.348  11.198  0.4678  0.1680 -0.0518
   83MPD2    C4 1293   0.833   2.445  11.293  0.1807  0.2301  0.1731
   83MPD2    C5 1294   0.734   2.536  11.288  0.1957 -0.1917 -0.0337
   83MPD2     H 1295   0.755   2.242  11.035 -0.3567 -0.7070  1.1289
   83MPD2    H1 1296   0.908   2.459  11.370 -0.2908 -0.5927  0.7732
   83MPD2    H2 1297   0.552   2.591  11.189  1.1160  1.5164  0.0022
   83MPD2    H3 1298   0.732   2.623  11.353  1.1363  0.6350 -1.1113
   83MPD2     N 1299   0.938   2.251  11.238 -0.6436  0.2988  0.1884
   83MPD2    H5 1300   0.996   2.257  11.321 -1.7791  2.9182  0.7892
   83MPD2    N1 1301   0.528   2.394  11.022 -0.3152  0.1887 -0.0095
   83MPD2    H7 1302   0.453   2.459  11.043  1.5244  1.8141  1.4770
   84TMC2    C1 1303   1.490   1.410  11.114 -0.9533 -0.5121 -0.4281
   84TMC2    C2 1304   1.367   1.375  11.162 -0.0574  0.0772  0.3087
   84TMC2    C3 1305   1.283   1.296  11.094 -0.0658 -0.4032 -0.9866
   84TMC2    C4 1306   1.542   1.343  11.007 -0.8299  0.4564  0.0128
   84TMC2    C5 1307   1.455   1.261  10.941 -0.2629 -0.6977  0.1030
   84TMC2    C6 1308   1.323   1.241  10.977 -0.6078 -0.0679 -0.0089
   84TMC2     C 1309   1.549   1.529  11.174  0.6087  0.1829  0.0096
   84TMC2     O 1310   1.499   1.575  11.275  0.1701  0.5351 -0.1261
   84TMC2     H 1311   1.334   1.423  11.254  0.9769 -0.4756  0.9697
   84TMC2    H1 1312   1.640   1.362  10.966  0.8241 -4.3684  1.7796
   84TMC2    H2 1313   1.264   1.174  10.915 -0.2572 -2.3914  2.1379
   84TMC2    C7 1314   1.499   1.185  10.821 -0.7937  0.3662 -0.2019
   84TMC2    C8 1315   1.188   1.226  11.175  0.2357  0.0437 -0.3784
   84TMC2    O1 1316   1.414   1.165  10.737 -0.2234 -0.4405  0.2353
   84TMC2    O2 1317   1.146   1.273  11.283  0.2932  0.7538  0.8420
   84TMC2    O5 1318   1.221   1.093  11.165 -0.3477 -0.5119 -0.4909
   84TMC2    H5 1319   1.295   1.067  11.106 -0.8755 -1.1569 -0.8784
   85TMC2    C1 1320   3.645   3.849  16.225 -0.2209  0.9589  0.3508
   85TMC2    C2 1321   3.559   3.851  16.123 -0.1469  0.6009  0.2926
   85TMC2    C3 1322   3.503   3.968  16.093  0.2267 -0.1193  0.5361
   85TMC2    C4 1323   3.683   3.966  16.291 -0.2415 -0.0815 -0.4713
   85TMC2    C5 1324   3.641   4.083  16.240 -0.0568  0.2899 -0.6260
   85TMC2    C6 1325   3.544   4.084  16.144  0.3295 -0.6003 -0.6555
   85TMC2     C 1326   3.692   3.726  16.277  0.0968 -0.2076  1.0133
   85TMC2     O 1327   3.790   3.734  16.354  0.9168  0.4597 -0.3276
   85TMC2     H 1328   3.542   3.764  16.061 -2.8538  0.1522  1.6497
   85TMC2    H1 1329   3.752   3.971  16.374 -0.5622 -0.4322 -0.1838
   85TMC2    H2 1330   3.501   4.179  16.113  2.1558  0.6158  0.4666
   85TMC2    C7 1331   3.688   4.211  16.283  0.0754 -0.1344  0.4589
   85TMC2    C8 1332   3.398   3.980  15.988  0.5614 -0.7693 -0.4969
   85TMC2    O1 1333   3.600   4.300  16.269  0.3294  0.0737 -0.0465
   85TMC2    O2 1334   3.396   4.065  15.900  0.2451 -0.1742  0.5127
   85TMC2    O5 1335   3.309   3.882  15.996 -0.3102 -0.8939  0.4440
   85TMC2    H5 1336   3.322   3.837  16.082  1.7877  0.0033  0.6087
   86MPD2     C 1337   3.614   3.251  16.442  0.2173  0.1488 -1.0570
   86MPD2    C1 1338   3.503   3.294  16.373  0.1464 -0.7763 -1.1332
   86MPD2    C2 1339   3.503   3.417  16.309  0.5813  0.2935 -0.3643
   86MPD2    C3 1340   3.616   3.494  16.308 -0.8994 -0.0596 -0.1016
   86MPD2    C4 1341   3.733   3.447  16.358  0.2264 -0.1328 -0.6954
   86MPD2    C5 1342   3.730   3.330  16.430  1.3845  0.0656 -0.1914
   86MPD2     H 1343   3.418   3.454  16.253 -1.0612 -3.6952 -0.5081
   86MPD2    H1 1344   3.826   3.504  16.354  0.1241 -0.0361 -1.5255
   86MPD2    H2 1345   3.619   3.153  16.489 -1.3371 -0.1650 -1.5461
   86MPD2    H3 1346   3.815   3.281  16.477  1.8735  2.8798  1.8388
   86MPD2     N 1347   3.601   3.627  16.249 -0.6834 -0.4815 -0.2196
   86MPD2    H5 1348   3.516   3.657  16.202  0.2899 -0.2325 -1.8209
   86MPD2    N1 1349   3.386   3.213  16.348 -0.1796  0.4010  0.0381
   86MPD2    H7 1350   3.320   3.253  16.282  1.5050  0.6649 -1.4760
   87TMC2    C1 1351   0.418   1.863   1.215 -0.5669  0.7430  0.0881
   87TMC2    C2 1352   0.534   1.874   1.285 -0.3195  0.2227 -0.0314
   87TMC2    C3 1353   0.560   2.001   1.342 -0.3695 -0.1656 -0.8211
   87TMC2    C4 1354   0.322   1.966   1.207 -0.1577  0.3038 -0.2787
   87TMC2    C5 1355   0.353   2.081   1.273  0.4653  0.2733 -0.0406
   87TMC2    C6 1356   0.470   2.101   1.336 -0.1145  0.2188 -0.8192
   87TMC2     C 1357   0.425   1.772   1.108 -0.7557 -0.4687  0.1891
   87TMC2     O 1358   0.528   1.705   1.106 -0.4851 -0.3378 -0.4613
   87TMC2     H 1359   0.614   1.801   1.290 -1.2491 -0.7936 -0.0898
   87TMC2    H1 1360   0.234   1.968   1.143 -1.3034  2.2493  1.3774
   87TMC2    H2 1361   0.490   2.207   1.349 -2.5779  0.7451 -1.2195
   87TMC2    C7 1362   0.262   2.190   1.256  0.1858 -0.6235 -0.6002
   87TMC2    C8 1363   0.699   2.040   1.357  0.1350  0.2631  0.3930
   87TMC2    O1 1364   0.196   2.173   1.156  0.2944 -0.0792  0.1897
   87TMC2    O2 1365   0.735   2.159   1.360  0.7361 -0.2535 -0.0067
   87TMC2    O5 1366   0.765   1.946   1.427 -0.0908 -0.1543 -0.0791
   87TMC2    H5 1367   0.708   1.871   1.454 -0.1836  0.1321  0.5331
   88MPD2     C 1368   0.282   2.519   1.436  0.4328 -0.1735  0.6125
   88MPD2    C1 1369   0.234   2.427   1.340  0.3651 -0.1864 -0.2182
   88MPD2    C2 1370   0.160   2.473   1.236 -0.2068  0.0702  1.2605
   88MPD2    C3 1371   0.146   2.605   1.198 -0.0195  0.1748 -0.1487
   88MPD2    C4 1372   0.206   2.694   1.280  0.3831 -0.0728  0.3979
   88MPD2    C5 1373   0.264   2.655   1.396 -0.0067  0.4710 -0.3791
   88MPD2     H 1374   0.134   2.398   1.163  1.0234  1.4401 -0.6076
   88MPD2    H1 1375   0.202   2.800   1.257  1.8243  0.0482  0.7242
   88MPD2    H2 1376   0.317   2.502   1.537  0.4455 -0.3996  0.5717
   88MPD2    H3 1377   0.295   2.737   1.459  0.5010 -0.6739  0.8744
   88MPD2     N 1378   0.096   2.653   1.068  0.4693  0.3089  0.0878
   88MPD2    H5 1379   0.109   2.752   1.050  0.3703 -0.1277 -2.3911
   88MPD2    N1 1380   0.275   2.287   1.356 -0.0890 -0.4084 -0.2452
   88MPD2    H7 1381   0.323   2.270   1.444 -0.4327 -1.7845 -0.3279
   89TMC2    C1 1382   1.719   4.423   1.589 -0.4133 -0.0266  0.6451
   89TMC2    C2 1383   1.854   4.449   1.586 -0.2221  0.5104  0.0630
   89TMC2    C3 1384   1.883   4.563   1.511 -0.6229 -0.6699 -0.1844
   89TMC2    C4 1385   1.619   4.503   1.538 -0.4380 -0.3467 -0.1338
   89TMC2    C5 1386   1.651   4.615   1.458 -0.3870  0.4210  0.2844
   89TMC2    C6 1387   1.787   4.649   1.455  0.4751  0.6273  0.1829
   89TMC2     C 1388   1.685   4.277   1.614  0.2333 -0.4037 -0.6100
   89TMC2     O 1389   1.778   4.197   1.605  0.0744 -0.1635 -0.4684
   89TMC2     H 1390   1.927   4.389   1.640  0.0916 -1.3052 -2.4002
   89TMC2    H1 1391   1.515   4.473   1.532 -0.6514  0.0269  1.6658
   89TMC2    H2 1392   1.824   4.709   1.373 -1.4569  1.2887 -0.1986
   89TMC2    C7 1393   1.553   4.662   1.355 -0.1560 -0.0131  0.5699
   89TMC2    C8 1394   2.027   4.572   1.476  0.4233  0.0734 -0.6864
   89TMC2    O1 1395   1.470   4.576   1.320  0.3045 -0.0741 -0.5549
   89TMC2    O2 1396   2.075   4.672   1.427 -0.2778  0.4710  0.4443
   89TMC2    O5 1397   2.090   4.453   1.479 -0.6171 -0.2111 -0.0501
   89TMC2    H5 1398   2.035   4.374   1.499 -1.4235 -0.0921 -1.7419
   90MPD2     C 1399   1.326   3.900   1.605 -0.0998  0.1309 -0.4532
   90MPD2    C1 1400   1.261   4.012   1.645  0.0760 -0.3504  0.0665
   90MPD2    C2 1401   1.337   4.125   1.669 -0.4236  0.0399 -0.1596
   90MPD2    C3 1402   1.475   4.132   1.634  0.1347  0.0280  0.1156
   90MPD2    C4 1403   1.535   4.013   1.584 -0.2938 -0.3933 -0.3720
   90MPD2    C5 1404   1.454   3.902   1.569  0.8271 -0.1206 -0.3576
   90MPD2     H 1405   1.284   4.212   1.706 -1.6958 -1.3177  1.2118
   90MPD2    H1 1406   1.639   4.003   1.555 -0.1300  2.5803 -0.7759
   90MPD2    H2 1407   1.281   3.802   1.590  2.4936 -1.3482  1.2069
   90MPD2    H3 1408   1.513   3.811   1.558 -0.6402 -0.9070 -1.6152
   90MPD2     N 1409   1.549   4.252   1.632 -0.4293 -0.2146  0.7969
   90MPD2    H5 1410   1.493   4.333   1.658  1.3033  1.0114  0.7267
   90MPD2    N1 1411   1.125   4.017   1.657  0.2231 -0.6402  0.3492
   90MPD2    H7 1412   1.087   4.108   1.681  1.7008 -0.5749  2.4226
   91TMC2    C1 1413   2.791   4.526  16.571  0.4475  0.9426  0.2246
   91TMC2    C2 1414   2.667   4.528  16.623 -0.5038 -0.7318 -0.2379
   91TMC2    C3 1415   2.595   4.410  16.597 -0.2374  0.7538 -0.0096
   91TMC2    C4 1416   2.832   4.420  16.489  0.7514  0.5544  0.5288
   91TMC2    C5 1417   2.755   4.311  16.460 -0.2213  0.0679 -0.8142
   91TMC2    C6 1418   2.637   4.295  16.526 -0.0964  0.1781 -0.6110
   91TMC2     C 1419   2.870   4.635  16.584  0.1448 -0.1327  0.2097
   91TMC2     O 1420   2.814   4.740  16.602  0.2864 -0.2383  0.1843
   91TMC2     H 1421   2.621   4.613  16.671 -0.9425 -1.7069  1.0769
   91TMC2    H1 1422   2.926   4.412  16.436  1.3937  0.5279  1.6770
   91TMC2    H2 1423   2.574   4.208  16.513  2.5212 -1.5958 -1.4591
   91TMC2    C7 1424   2.811   4.198  16.392  0.6504  0.1937 -0.1402
   91TMC2    C8 1425   2.458   4.406  16.643 -0.4114 -0.4772  0.2273
   91TMC2    O1 1426   2.934   4.195  16.382 -0.5480 -0.6789  0.0733
   91TMC2    O2 1427   2.417   4.308  16.696  0.2124 -0.4916  0.0336
   91TMC2    O5 1428   2.391   4.489  16.560 -0.0464  0.0866 -0.3828
   91TMC2    H5 1429   2.446   4.559  16.518  0.1397  0.1489 -0.0365
   92MPD2     C 1430   3.073   0.090  16.539  0.8490 -0.1177  0.3380
   92MPD2    C1 1431   3.108   4.695  16.559 -0.2929  0.0473  0.0556
   92MPD2    C2 1432   3.247   4.677  16.554  0.1058  0.3940  0.1737
   92MPD2    C3 1433   3.341   0.040  16.557  0.3575  0.4781  0.7264
   92MPD2    C4 1434   3.299   0.171  16.538  0.7133  0.9216 -0.0622
   92MPD2    C5 1435   3.166   0.192  16.521 -0.6332  0.3687  0.0374
   92MPD2     H 1436   3.282   4.575  16.558  1.1588  0.7754  0.8505
   92MPD2    H1 1437   3.358   0.261  16.540  0.3755  1.1260  0.8323
   92MPD2    H2 1438   2.972   0.128  16.528  0.7851 -0.2038  0.6261
   92MPD2    H3 1439   3.129   0.292  16.500 -1.7983 -0.0498  0.0749
   92MPD2     N 1440   3.476   0.013  16.574  0.5323  0.3517  0.2687
   92MPD2    H5 1441   3.505   4.662  16.607  0.4706  0.1316 -0.2850
   92MPD2    N1 1442   3.008   4.601  16.575 -0.3996  1.0874  0.4710
   92MPD2    H7 1443   3.044   4.507  16.564 -1.9605  0.4778  0.5535
   93TMC2    C1 1444   0.199   0.321  14.159  0.1915  0.7461  0.3089
   93TMC2    C2 1445   0.196   0.183  14.150 -0.1624  0.4081  0.3904
   93TMC2    C3 1446   0.298   0.125  14.079  0.1391 -0.0229  0.3595
   93TMC2    C4 1447   0.302   0.397  14.115 -0.2199  0.2870  0.0822
   93TMC2    C5 1448   0.398   0.334  14.042 -0.4110  0.3064  0.6976
   93TMC2    C6 1449   0.392   0.197  14.022 -0.4648 -0.4508 -0.3317
   93TMC2     C 1450   0.078   0.391  14.177 -0.1933 -0.4487  0.0176
   93TMC2     O 1451   0.074   0.511  14.193  0.0562 -0.4981  0.3373
   93TMC2     H 1452   0.126   0.125  14.209  0.0830 -0.4081 -0.1100
   93TMC2    H1 1453   0.311   0.505  14.121 -2.5814  0.3950  1.6551
   93TMC2    H2 1454   0.483   0.150  13.987 -0.8500  0.0141 -1.9483
   93TMC2    C7 1455   0.516   0.403  13.993 -0.1727  0.5059 -0.0433
   93TMC2    C8 1456   0.329   4.723  14.088  0.8588 -0.0694 -0.7248
   93TMC2    O1 1457   0.582   0.341  13.909 -0.7237  0.6051 -0.1642
   93TMC2    O2 1458   0.440   4.680  14.054 -0.3383  0.4893  0.3959
   93TMC2    O5 1459   0.213   4.648  14.088 -0.1831  0.3643 -0.0613
   93TMC2    H5 1460   0.135   4.708  14.092 -1.5559 -1.4544  0.5930
   94MPD2     C 1461   4.528   0.475  14.171 -0.4088 -0.3416  0.7132
   94MPD2    C1 1462   4.570   0.346  14.174  0.2455 -0.2045 -0.8902
   94MPD2    C2 1463   4.477   0.241  14.179  0.2113 -0.5415  0.0423
   94MPD2    C3 1464   4.343   0.270  14.181  0.6837 -0.1579  0.6558
   94MPD2    C4 1465   4.302   0.406  14.187  0.5746  0.2114 -0.4194
   94MPD2    C5 1466   4.393   0.509  14.175 -0.0315 -0.8000 -0.0405
   94MPD2     H 1467   4.503   0.136  14.176 -2.0783 -1.2006  3.2646
   94MPD2    H1 1468   4.202   0.438  14.160  0.9601  0.4129 -1.5745
   94MPD2    H2 1469   4.590   0.563  14.157 -1.6668  0.5004  0.4202
   94MPD2    H3 1470   4.368   0.615  14.175  1.7150 -0.3804  0.0931
   94MPD2     N 1471   4.237   0.179  14.177 -0.3063  0.5132 -0.2893
   94MPD2    H5 1472   4.143   0.215  14.181  0.0921  1.2465  2.1871
   94MPD2    N1 1473   4.706   0.306  14.166 -0.3549 -0.2580 -0.3410
   94MPD2    H7 1474   4.732   0.208  14.165  0.0078 -0.1544 -0.8500
   95TMC2    C1 1475   0.037   1.539  16.040  0.3054  1.0380  0.2169
   95TMC2    C2 1476   4.728   1.410  16.036  0.0879 -0.4350  0.0986
   95TMC2    C3 1477   4.697   1.344  16.152  0.2308 -0.5010  0.4408
   95TMC2    C4 1478   0.039   1.610  16.157 -0.2762 -0.5168  1.3418
   95TMC2    C5 1479   0.002   1.538  16.272 -0.8380  0.1930 -0.7790
   95TMC2    C6 1480   4.700   1.405  16.273 -0.4380 -0.1391  0.4775
   95TMC2     C 1481   0.096   1.596  15.923  0.0776 -0.4817 -0.1104
   95TMC2     O 1482   0.121   1.715  15.930 -0.3762  0.2795  0.6425
   95TMC2     H 1483   4.738   1.355  15.943 -0.1212  0.5693 -0.5141
   95TMC2    H1 1484   0.114   1.687  16.169  0.7229 -1.4730  1.3002
   95TMC2    H2 1485   4.675   1.346  16.360 -1.5362 -1.3966 -0.6847
   95TMC2    C7 1486   0.017   1.583  16.405  0.0327 -0.3271  0.2389
   95TMC2    C8 1487   4.655   1.208  16.142 -0.3624 -1.0060  0.1671
   95TMC2    O1 1488   0.016   1.501  16.496 -0.3839 -0.3155  0.0776
   95TMC2    O2 1489   4.698   1.125  16.063  0.1718  0.2046 -0.3993
   95TMC2    O5 1490   4.538   1.219  16.208  0.1966 -0.1571 -0.4178
   95TMC2    H5 1491   4.534   1.304  16.258  2.4797 -0.0496 -0.4417
   96MPD2     C 1492   0.210   1.611  15.419 -0.6108  0.3410  0.1834
   96MPD2    C1 1493   0.193   1.714  15.501  0.1989 -0.1216 -0.3015
   96MPD2    C2 1494   0.161   1.692  15.634 -0.3667  0.0467  0.2991
   96MPD2    C3 1495   0.153   1.559  15.682  0.2107  0.6803 -0.6579
   96MPD2    C4 1496   0.180   1.458  15.594 -0.6251 -0.9860  0.4886
   96MPD2    C5 1497   0.209   1.482  15.460 -0.3132 -0.1405  0.0947
   96MPD2     H 1498   0.155   1.771  15.708  2.9766  0.0110  0.5908
   96MPD2    H1 1499   0.185   1.358  15.636 -0.8644 -1.1014  0.2478
   96MPD2    H2 1500   0.234   1.626  15.314 -0.8128  1.9664  0.3599
   96MPD2    H3 1501   0.229   1.402  15.389 -0.2782 -1.7805  1.9573
   96MPD2     N 1502   0.117   1.514  15.814 -0.0182 -0.8172  0.3627
   96MPD2    H5 1503   0.113   1.415  15.835 -1.5940 -0.8176  0.0417
   96MPD2    N1 1504   0.224   1.839  15.448  0.0188 -0.9520 -0.1844
   96MPD2    H7 1505   0.261   1.839  15.354 -2.0274 -0.7536 -0.9859
   97TMC2    C1 1506   2.472   4.360   0.245  0.4212  0.2435 -0.3795
   97TMC2    C2 1507   2.446   4.317   0.114  0.1704 -1.1050  0.4602
   97TMC2    C3 1508   2.466   4.406   0.010 -0.4738  0.2224 -0.5561
   97TMC2    C4 1509   2.536   4.483   0.265  0.3208  0.2662 -0.4397
   97TMC2    C5 1510   2.549   4.568   0.157 -0.2417  0.1625  0.5467
   97TMC2    C6 1511   2.518   4.530   0.031  0.5862 -0.2842 -0.2439
   97TMC2     C 1512   2.491   4.262   0.355 -0.0865  0.2889  0.6625
   97TMC2     O 1513   2.506   4.315   0.465 -0.4091  0.2716 -0.5176
   97TMC2     H 1514   2.411   4.215   0.103 -1.2094 -0.5869 -0.0102
   97TMC2    H1 1515   2.553   4.524   0.364 -1.8291 -2.7058  1.1695
   97TMC2    H2 1516   2.553   4.589  17.704 -1.1261  1.0274 -0.0220
   97TMC2    C7 1517   2.592   4.706   0.186  0.7378  0.0885  0.1639
   97TMC2    C8 1518   2.463   4.351  17.634 -0.0843 -0.1715  0.1409
   97TMC2    O1 1519   2.629   4.728   0.302 -0.4839  0.0479 -0.0912
   97TMC2    O2 1520   2.475   4.235  17.606  0.1569  0.2460 -0.1797
   97TMC2    O5 1521   2.397   4.443  17.553 -0.1477  0.2239  0.0348
   97TMC2    H5 1522   2.393   4.532  17.594  1.7266 -0.0361  0.7986
   98MPD2     C 1523   2.514   3.793   0.560  0.1185 -0.0704  1.0250
   98MPD2    C1 1524   2.499   3.918   0.620  0.1328  0.6002 -0.4846
   98MPD2    C2 1525   2.495   4.031   0.547 -0.2986  0.4509  0.1735
   98MPD2    C3 1526   2.500   4.021   0.411  0.3669  0.7178 -0.0982
   98MPD2    C4 1527   2.516   3.900   0.349 -0.1042  0.2369 -0.4590
   98MPD2    C5 1528   2.529   3.792   0.422  0.2023 -0.0639 -0.0990
   98MPD2     H 1529   2.489   4.127   0.599  1.2000  0.4490  0.3506
   98MPD2    H1 1530   2.535   3.903   0.243  3.1689  0.7544  0.1506
   98MPD2    H2 1531   2.536   3.704   0.618  2.1276 -0.8731 -0.9304
   98MPD2    H3 1532   2.540   3.703   0.360 -0.9393 -0.8696  0.8603
   98MPD2     N 1533   2.480   4.129   0.326 -0.2308  0.2659 -0.5934
   98MPD2    H5 1534   2.466   4.097   0.230  3.6121 -1.1680 -0.6975
   98MPD2    N1 1535   2.478   3.914   0.757  0.3779 -0.4122  0.1136
   98MPD2    H7 1536   2.483   3.827   0.809 -1.0254 -0.0687  0.8427
   99TMC2    C1 1537   1.057   1.127   1.686 -0.6362 -0.4982  0.1105
   99TMC2    C2 1538   1.144   1.237   1.705  0.4975  0.2039  0.4823
   99TMC2    C3 1539   1.087   1.361   1.714 -0.3777  0.3451  0.6175
   99TMC2    C4 1540   0.924   1.150   1.651  0.8751 -0.4647  0.3253
   99TMC2    C5 1541   0.874   1.277   1.668 -0.3847 -0.7883 -0.0021
   99TMC2    C6 1542   0.958   1.387   1.683 -0.3615 -0.1570 -0.7781
   99TMC2     C 1543   1.117   0.999   1.665 -0.3235 -1.0883 -0.7076
   99TMC2     O 1544   1.231   0.984   1.715  0.1482 -0.3569  0.1949
   99TMC2     H 1545   1.239   1.229   1.755  0.8091  0.0043 -0.1490
   99TMC2    H1 1546   0.862   1.063   1.636  0.3758  0.1402 -1.1894
   99TMC2    H2 1547   0.925   1.490   1.675 -0.6417 -0.1766  0.2053
   99TMC2    C7 1548   0.732   1.312   1.648 -0.0722  1.0074  0.5400
   99TMC2    C8 1549   1.181   1.457   1.676 -0.1687  0.9905 -0.7074
   99TMC2    O1 1550   0.701   1.430   1.654  0.4062  0.6320  0.5628
   99TMC2    O2 1551   1.172   1.572   1.710  0.4049 -0.8464 -0.0684
   99TMC2    O5 1552   1.279   1.405   1.597  0.2124  0.1203  0.2652
   99TMC2    H5 1553   1.273   1.315   1.560 -0.2361 -0.3410  1.4553
  100MPD2     C 1554   1.171   0.706   1.638  0.0295  0.7516  0.1797
  100MPD2    C1 1555   1.078   0.773   1.562  0.3567  0.2970 -0.0525
  100MPD2    C2 1556   1.007   0.705   1.468 -0.2265 -0.3653  0.7229
  100MPD2    C3 1557   1.046   0.572   1.440 -0.3569  0.1215  0.0185
  100MPD2    C4 1558   1.137   0.508   1.522  0.4544  0.5756  0.5455
  100MPD2    C5 1559   1.195   0.578   1.622 -0.0160 -0.1597  0.6137
  100MPD2     H 1560   0.931   0.768   1.424 -0.3556  0.0728  1.5625
  100MPD2    H1 1561   1.144   0.400   1.517  0.9512  0.5774  1.1910
  100MPD2    H2 1562   1.225   0.753   1.719 -1.4966  0.6029  1.2632
  100MPD2    H3 1563   1.275   0.526   1.674  0.1775 -0.7771 -0.2946
  100MPD2     N 1564   0.964   0.502   1.348 -0.5981 -0.2433 -0.6365
  100MPD2    H5 1565   0.884   0.549   1.306  0.7954  2.2519 -0.5230
  100MPD2    N1 1566   1.052   0.914   1.582 -0.5246  0.0762 -0.3617
  100MPD2    H7 1567   0.984   0.960   1.522  1.3091 -0.6732 -3.0114
  101TMC2    C1 1568   1.728   2.653  13.057 -0.5724 -0.1228  0.0159
  101TMC2    C2 1569   1.795   2.680  13.172  0.0710  0.2905 -0.2739
  101TMC2    C3 1570   1.909   2.748  13.164  0.5071  0.0323  0.4138
  101TMC2    C4 1571   1.751   2.706  12.939  0.2124 -0.3130 -0.4170
  101TMC2    C5 1572   1.864   2.787  12.936  0.2821 -1.1305 -0.4835
  101TMC2    C6 1573   1.952   2.798  13.046  0.5854 -0.3752  0.0166
  101TMC2     C 1574   1.628   2.555  13.074  0.2919 -0.4683  0.3750
  101TMC2     O 1575   1.551   2.569  13.166  0.3332  0.3534 -0.1870
  101TMC2     H 1576   1.770   2.630  13.265  2.7563  1.5084  1.0870
  101TMC2    H1 1577   1.693   2.672  12.854  0.6713  0.6947 -1.1242
  101TMC2    H2 1578   2.049   2.847  13.047  0.4944 -0.1793 -1.1225
  101TMC2    C7 1579   1.883   2.867  12.821 -0.1137 -0.4716  0.5830
  101TMC2    C8 1580   2.010   2.725  13.266 -0.0167 -0.9549 -0.4538
  101TMC2    O1 1581   1.801   2.865  12.735  0.4190 -0.1686  0.1476
  101TMC2    O2 1582   2.117   2.664  13.235 -0.4193 -0.1045  0.4023
  101TMC2    O5 1583   1.949   2.721  13.387 -0.2670  0.9924  0.4336
  101TMC2    H5 1584   1.864   2.769  13.384 -0.5106  0.3734 -2.6466
  102MPD2     C 1585   1.603   2.228  12.902  0.2790 -0.2794 -0.1385
  102MPD2    C1 1586   1.576   2.323  12.997 -0.7838 -0.1634  0.4052
  102MPD2    C2 1587   1.493   2.285  13.103 -0.0732 -0.2900 -0.2115
  102MPD2    C3 1588   1.433   2.157  13.111  0.0511  0.5864  0.4342
  102MPD2    C4 1589   1.475   2.056  13.021 -1.0461  0.8235  0.5044
  102MPD2    C5 1590   1.558   2.093  12.913  0.0171  0.2045  0.0747
  102MPD2     H 1591   1.468   2.368  13.167  2.1952  1.2295 -1.2903
  102MPD2    H1 1592   1.456   1.952  13.045  2.8998  0.0454  0.2899
  102MPD2    H2 1593   1.679   2.257  12.830 -0.1005 -1.5683 -1.0731
  102MPD2    H3 1594   1.600   2.019  12.845 -0.9496  0.0086 -0.3063
  102MPD2     N 1595   1.353   2.122  13.218  0.7008 -0.1012 -0.7073
  102MPD2    H5 1596   1.292   2.041  13.214 -1.5964  1.6205 -0.8432
  102MPD2    N1 1597   1.642   2.446  12.987 -0.0224 -0.9319 -0.5761
  102MPD2    H7 1598   1.716   2.452  12.918 -0.0414 -1.3344 -0.6276
  103TMC2    C1 1599   4.341   2.616  12.784 -0.4926  0.7586  0.3918
  103TMC2    C2 1600   4.439   2.715  12.782 -1.3228 -0.1871  0.3355
  103TMC2    C3 1601   4.473   2.774  12.905  0.1182 -0.1756 -0.0913
  103TMC2    C4 1602   4.295   2.564  12.906  0.5138  0.0769  0.9339
  103TMC2    C5 1603   4.342   2.612  13.028 -0.3683  0.6206 -0.7744
  103TMC2    C6 1604   4.424   2.723  13.027 -0.3187 -0.0941 -0.4076
  103TMC2     C 1605   4.260   2.577  12.657  0.0316 -0.0606 -0.1670
  103TMC2     O 1606   4.295   2.632  12.556 -0.1369  0.2775  0.3513
  103TMC2     H 1607   4.472   2.753  12.686 -0.9487  0.5776  0.7692
  103TMC2    H1 1608   4.210   2.496  12.913 -1.9202  2.8358 -1.8798
  103TMC2    H2 1609   4.437   2.772  13.122  0.4119 -1.1933  0.0501
  103TMC2    C7 1610   4.264   2.595  13.146  0.0954 -0.1979 -0.3977
  103TMC2    C8 1611   4.560   2.892  12.909  0.2520 -0.5013 -0.5390
  103TMC2    O1 1612   4.167   2.519  13.140  0.4625  1.0041  0.1449
  103TMC2    O2 1613   4.651   2.906  12.990  0.3119  0.5831 -0.5123
  103TMC2    O5 1614   4.531   2.968  12.797 -0.0907 -0.0318 -0.8463
  103TMC2    H5 1615   4.442   2.942  12.764 -1.3006  1.9431  0.8233
  104MPD2     C 1616   4.050   2.290  12.593 -0.1745  0.2355  0.0318
  104MPD2    C1 1617   4.102   2.412  12.564  0.2364 -0.3441  0.1917
  104MPD2    C2 1618   4.067   2.483  12.448  0.0460  0.7746 -0.4274
  104MPD2    C3 1619   3.977   2.417  12.363  0.1941  1.1596  0.0793
  104MPD2    C4 1620   3.935   2.291  12.398 -0.0144 -0.1484 -0.4166
  104MPD2    C5 1621   3.966   2.224  12.513  0.4819 -0.1837  0.0054
  104MPD2     H 1622   4.103   2.583  12.428 -0.6605  0.8774 -1.1644
  104MPD2    H1 1623   3.861   2.236  12.342  2.3734 -3.9674  0.1977
  104MPD2    H2 1624   4.076   2.239  12.686  1.5331  0.4069 -0.3551
  104MPD2    H3 1625   3.931   2.124  12.537 -2.5735  0.9366  0.2162
  104MPD2     N 1626   3.928   2.484  12.252  0.3237 -0.1283  0.2758
  104MPD2    H5 1627   3.954   2.580  12.235  1.1986 -0.2823  0.7433
  104MPD2    N1 1628   4.187   2.462  12.667  0.0040  0.0264  0.1959
  104MPD2    H7 1629   4.205   2.410  12.752  0.8489 -0.3000 -0.1765
  105TMC2    C1 1630   0.882   1.364   0.419 -0.0582 -0.1556  0.6016
  105TMC2    C2 1631   0.960   1.468   0.458 -0.3534 -0.5067  0.1279
  105TMC2    C3 1632   0.900   1.551   0.546  0.5385  0.1052 -0.3639
  105TMC2    C4 1633   0.760   1.326   0.471  0.1081 -0.2276  0.5274
  105TMC2    C5 1634   0.705   1.417   0.555 -0.0170 -0.2233 -0.0831
  105TMC2    C6 1635   0.771   1.531   0.593 -0.3246 -0.7468 -0.1344
  105TMC2     C 1636   0.952   1.263   0.330  0.4134 -0.2293 -0.0566
  105TMC2     O 1637   0.909   1.147   0.344 -0.1545  0.0793  0.1122
  105TMC2     H 1638   1.058   1.492   0.417 -0.6507 -0.6970 -0.6848
  105TMC2    H1 1639   0.724   1.225   0.455  1.0738 -0.3237 -1.0344
  105TMC2    H2 1640   0.717   1.618   0.628  0.8212  0.1427 -0.5773
  105TMC2    C7 1641   0.573   1.395   0.599  0.2225  0.3168  0.4271
  105TMC2    C8 1642   0.950   1.681   0.559 -0.6486  0.5234 -0.1467
  105TMC2    O1 1643   0.494   1.326   0.540  0.6775 -0.8952  0.0099
  105TMC2    O2 1644   0.985   1.747   0.466 -0.7940  0.3358 -0.5739
  105TMC2    O5 1645   0.950   1.709   0.688 -0.2103 -0.1096  0.1611
  105TMC2    H5 1646   0.928   1.633   0.746  1.3679 -0.2392  0.5693
  106MPD2     C 1647   1.241   1.120  17.675  0.1219 -0.4473  0.1709
  106MPD2    C1 1648   1.245   1.256  17.686  0.3150  0.4266 -0.0011
  106MPD2    C2 1649   1.176   1.318   0.036  0.3305 -0.5827  0.7596
  106MPD2    C3 1650   1.103   1.254   0.133  0.0838  0.1862 -0.2800
  106MPD2    C4 1651   1.105   1.118   0.121  0.5378  0.6401  1.0471
  106MPD2    C5 1652   1.169   1.060   0.014 -0.0741  0.0883 -0.3658
  106MPD2     H 1653   1.171   1.426   0.042 -2.9991 -0.7517  1.1935
  106MPD2    H1 1654   1.042   1.057   0.185  0.8856 -2.1055 -1.2129
  106MPD2    H2 1655   1.305   1.062  17.610 -1.0532 -0.1077 -1.3077
  106MPD2    H3 1656   1.148   0.956  17.753  2.5120 -0.8985  2.2687
  106MPD2     N 1657   1.038   1.321   0.241  0.4326  0.1535 -0.1539
  106MPD2    H5 1658   1.052   1.422   0.245  0.2762  0.1996 -0.7968
  106MPD2    N1 1659   1.333   1.335  17.602  0.1290  0.2307 -0.5332
  106MPD2    H7 1660   1.331   1.436  17.613 -3.2466  0.0620  0.4657
  107TMC2    C1 1661   1.675   2.174  11.661  0.1264 -0.1306 -0.1234
  107TMC2    C2 1662   1.735   2.287  11.700 -0.4167  0.0004  0.4256
  107TMC2    C3 1663   1.822   2.344  11.606  0.0402  0.4047 -0.3373
  107TMC2    C4 1664   1.684   2.113  11.540  0.4307 -0.1660 -0.4498
  107TMC2    C5 1665   1.772   2.173  11.452  0.9720  0.5027  0.1031
  107TMC2    C6 1666   1.849   2.284  11.488  0.2893 -0.4039 -0.3867
  107TMC2     C 1667   1.592   2.113  11.766 -0.2934  0.4092 -0.3405
  107TMC2     O 1668   1.584   2.176  11.871 -0.4078  0.5193 -0.1717
  107TMC2     H 1669   1.710   2.343  11.790 -1.7264  0.8750 -0.4742
  107TMC2    H1 1670   1.615   2.039  11.502  2.6705 -1.4723 -1.9398
  107TMC2    H2 1671   1.922   2.330  11.422  0.3437 -1.9486 -1.4072
  107TMC2    C7 1672   1.794   2.126  11.319  0.5140 -0.5022 -0.5514
  107TMC2    C8 1673   1.873   2.482  11.632 -0.2293  0.5524  0.0929
  107TMC2    O1 1674   1.865   2.193  11.246 -0.4688 -0.3656 -0.1179
  107TMC2    O2 1675   1.885   2.562  11.539  0.1555  0.1739 -0.4440
  107TMC2    O5 1676   1.847   2.518  11.760 -0.0073  0.0207  0.4885
  107TMC2    H5 1677   1.830   2.442  11.820  0.2914  0.1830  0.7747
  108MPD2     C 1678   1.571   1.758  11.838  0.3506  0.2443 -0.3736
  108MPD2    C1 1679   1.539   1.892  11.857 -0.5666 -0.0953  0.3511
  108MPD2    C2 1680   1.482   1.935  11.978 -0.8070  1.2882 -0.3019
  108MPD2    C3 1681   1.455   1.841  12.071  0.0028  0.6755  0.3276
  108MPD2    C4 1682   1.477   1.709  12.043  0.2066  0.0363  0.0616
  108MPD2    C5 1683   1.541   1.667  11.930 -0.0237  0.2249  1.1397
  108MPD2     H 1684   1.462   2.039  12.001  0.8138  2.0830 -2.4912
  108MPD2    H1 1685   1.457   1.629  12.112  0.9714  0.5404  0.8651
  108MPD2    H2 1686   1.609   1.722  11.744 -0.7676 -1.0577 -0.3294
  108MPD2    H3 1687   1.563   1.562  11.915 -1.2713  0.3398 -1.6693
  108MPD2     N 1688   1.393   1.875  12.198 -0.0433  0.3317 -0.8041
  108MPD2    H5 1689   1.376   1.802  12.266 -2.0161  0.2693 -1.3681
  108MPD2    N1 1690   1.589   1.979  11.751 -0.2139  0.3612 -0.2733
  108MPD2    H7 1691   1.637   1.930  11.676  1.7617 -1.2952  2.0564
  109TMC2    C1 1692   1.694   3.356   0.496  0.1383 -0.1255 -0.6689
  109TMC2    C2 1693   1.710   3.268   0.395 -0.3086 -0.4967 -0.1042
  109TMC2    C3 1694   1.827   3.202   0.379  0.0820 -0.2110 -0.0676
  109TMC2    C4 1695   1.798   3.399   0.581  0.2225 -0.0335 -0.1789
  109TMC2    C5 1696   1.910   3.320   0.568 -0.1886  0.9566 -1.0500
  109TMC2    C6 1697   1.926   3.228   0.467 -0.4092  0.4130  0.7105
  109TMC2     C 1698   1.569   3.428   0.509  0.0398  0.6325 -0.3167
  109TMC2     O 1699   1.500   3.437   0.407 -0.4590 -0.6218 -0.1568
  109TMC2     H 1700   1.620   3.246   0.338  0.2186  0.8312 -1.4539
  109TMC2    H1 1701   1.793   3.468   0.664 -0.0229 -1.8975  1.3654
  109TMC2    H2 1702   2.020   3.179   0.448 -0.8088  0.6147 -1.7926
  109TMC2    C7 1703   2.029   3.370   0.633  0.3663  0.1657  0.1963
  109TMC2    C8 1704   1.854   3.116   0.268 -0.1322 -0.3717  0.3018
  109TMC2    O1 1705   2.002   3.421   0.739 -0.1136 -0.7663  0.2236
  109TMC2    O2 1706   1.945   3.040   0.268 -0.0153  1.0491  0.5731
  109TMC2    O5 1707   1.743   3.095   0.197  0.5385  0.5211  0.4679
  109TMC2    H5 1708   1.668   3.156   0.214  0.3435  0.1875  0.7944
  110MPD2     C 1709   1.191   3.610   0.826  0.4192 -0.4282 -0.3404
  110MPD2    C1 1710   1.300   3.569   0.903 -0.3206 -0.6127  0.1324
  110MPD2    C2 1711   1.409   3.508   0.841  0.3184 -1.0921  0.3287
  110MPD2    C3 1712   1.424   3.501   0.706  0.2697  0.1487 -0.0487
  110MPD2    C4 1713   1.315   3.543   0.630  0.2243  0.1414  0.0582
  110MPD2    C5 1714   1.200   3.599   0.688  0.3558  0.2378  0.1820
  110MPD2     H 1715   1.488   3.482   0.911  0.5573  0.3648  0.6073
  110MPD2    H1 1716   1.308   3.532   0.523 -1.3647  2.4399 -0.0622
  110MPD2    H2 1717   1.098   3.643   0.870  1.3301 -0.9246  1.9492
  110MPD2    H3 1718   1.123   3.645   0.627 -0.3340 -1.9051 -0.5818
  110MPD2     N 1719   1.539   3.453   0.641  0.5777 -0.2346 -0.7411
  110MPD2    H5 1720   1.612   3.409   0.696  1.5603  0.7107 -1.2850
  110MPD2    N1 1721   1.296   3.579   1.043 -0.5998 -0.0268  0.1400
  110MPD2    H7 1722   1.206   3.582   1.090  0.8330  1.4155  2.8187
  111TMC2    C1 1723   1.808   3.296  12.014  0.5173  0.2753 -0.1028
  111TMC2    C2 1724   1.750   3.193  12.088  0.2516 -0.3081  0.7437
  111TMC2    C3 1725   1.834   3.089  12.131  0.0337  0.6472  0.1094
  111TMC2    C4 1726   1.940   3.278  11.967  0.9808  0.1015  0.2027
  111TMC2    C5 1727   2.018   3.175  12.015 -0.1539  0.2246 -0.2103
  111TMC2    C6 1728   1.965   3.075  12.095 -0.2316 -0.5606  0.2326
  111TMC2     C 1729   1.725   3.386  11.930 -0.0226 -0.4956  0.6522
  111TMC2     O 1730   1.768   3.413  11.818 -0.2190 -0.2640 -0.0946
  111TMC2     H 1731   1.649   3.202  12.126  0.0743 -1.7541  0.6374
  111TMC2    H1 1732   1.976   3.360  11.905 -1.9755  2.2977  1.3744
  111TMC2    H2 1733   2.026   3.004  12.150 -0.5802 -1.5589 -0.6477
  111TMC2    C7 1734   2.145   3.219  12.056 -0.7240 -0.3447 -0.1383
  111TMC2    C8 1735   1.793   3.006  12.240 -0.1892  0.8403 -0.2256
  111TMC2    O1 1736   2.183   3.183  12.169  0.2898  0.2603  0.0263
  111TMC2    O2 1737   1.710   3.044  12.319 -0.4961 -0.6734  0.2848
  111TMC2    O5 1738   1.822   2.879  12.212  0.0158 -0.0815  0.0753
  111TMC2    H5 1739   1.874   2.868  12.130  0.2308 -1.7920  0.4314
  112MPD2     C 1740   1.301   3.679  11.888 -0.1635  0.6181 -0.1511
  112MPD2    C1 1741   1.386   3.626  11.792  0.8752  0.4530  0.4367
  112MPD2    C2 1742   1.491   3.550  11.833 -0.2753 -0.2828 -0.8382
  112MPD2    C3 1743   1.522   3.528  11.965 -0.4294 -0.5057  0.0523
  112MPD2    C4 1744   1.428   3.585  12.053  0.4295  0.2740 -0.1445
  112MPD2    C5 1745   1.320   3.654  12.014 -0.0065 -0.8761  0.3292
  112MPD2     H 1746   1.563   3.512  11.761 -1.1000 -1.1808 -1.2073
  112MPD2    H1 1747   1.435   3.565  12.159  0.1333  2.5886  0.3007
  112MPD2    H2 1748   1.211   3.737  11.871  0.5422  1.7365 -0.0855
  112MPD2    H3 1749   1.249   3.693  12.085 -1.8956 -2.2098 -0.8206
  112MPD2     N 1750   1.626   3.448  12.009 -0.2180 -0.3068  0.0247
  112MPD2    H5 1751   1.632   3.419  12.106 -1.3562  0.0824  0.2121
  112MPD2    N1 1752   1.375   3.646  11.654 -0.3141  0.8590  0.7623
  112MPD2    H7 1753   1.433   3.583  11.599 -0.8925 -1.4983  2.8781
  113TMC2    C1 1754   4.393   0.723   1.096  0.1631  0.2618  0.1137
  113TMC2    C2 1755   4.292   0.778   1.173  0.1871  0.1021 -0.5670
  113TMC2    C3 1756   4.169   0.727   1.168 -0.6944  0.7739 -0.1371
  113TMC2    C4 1757   4.369   0.611   1.012  0.2977  0.0458 -0.3455
  113TMC2    C5 1758   4.245   0.558   1.022 -0.5018  0.1770 -0.9163
  113TMC2    C6 1759   4.141   0.616   1.094  0.3764  0.2043 -0.2449
  113TMC2     C 1760   4.523   0.778   1.094  0.3720 -1.3640 -0.1071
  113TMC2     O 1761   4.539   0.895   1.122 -0.1979  0.1127 -0.1528
  113TMC2     H 1762   4.315   0.858   1.242 -0.9133  0.4041 -0.5644
  113TMC2    H1 1763   4.447   0.556   0.960  1.0975  0.6677  0.1993
  113TMC2    H2 1764   4.041   0.574   1.096  1.0567 -1.2442  2.5698
  113TMC2    C7 1765   4.240   0.420   0.974  0.5267  0.2218 -0.4204
  113TMC2    C8 1766   4.081   0.769   1.278  0.2291  0.3442 -0.3406
  113TMC2    O1 1767   4.321   0.387   0.888 -0.7082  0.0905  0.1285
  113TMC2    O2 1768   4.116   0.828   1.380 -0.2302 -0.3591  0.1027
  113TMC2    O5 1769   3.953   0.739   1.252 -0.5157 -0.4348 -0.7214
  113TMC2    H5 1770   3.920   0.715   1.163 -2.5694 -2.7652  0.7033
  114MPD2     C 1771   0.294   0.751   1.102 -0.4991 -0.3394  0.1694
  114MPD2    C1 1772   0.209   0.862   1.127  0.6199  0.5959 -0.2083
  114MPD2    C2 1773   0.074   0.841   1.130  0.3316 -0.1392  0.0910
  114MPD2    C3 1774   0.019   0.718   1.087 -0.3814 -0.2424  0.4038
  114MPD2    C4 1775   0.102   0.619   1.053 -0.1236 -0.4506  0.2194
  114MPD2    C5 1776   0.238   0.633   1.075 -0.1410 -0.0596  0.4208
  114MPD2     H 1777   0.012   0.927   1.155 -1.1275 -0.9795 -0.6233
  114MPD2    H1 1778   0.072   0.523   1.013  2.6731 -2.1477  2.2223
  114MPD2    H2 1779   0.401   0.760   1.090 -0.5967  0.7008  0.1039
  114MPD2    H3 1780   0.299   0.549   1.044  0.8644  0.5806  0.6462
  114MPD2     N 1781   4.622   0.686   1.073  0.2950 -0.4484 -0.3465
  114MPD2    H5 1782   4.590   0.593   1.050  2.3348 -1.4748  1.0095
  114MPD2    N1 1783   0.262   0.989   1.170 -0.4399  0.2743  0.3979
  114MPD2    H7 1784   0.203   1.045   1.232 -1.5546 -1.2398  0.7122
  115TMC2    C1 1785   0.998   3.442  17.524 -0.3726  0.1744 -0.0767
  115TMC2    C2 1786   1.082   3.440  17.639 -0.0707 -0.0951 -0.1777
  115TMC2    C3 1787   1.190   3.534  17.640 -0.2650 -0.5936 -0.2490
  115TMC2    C4 1788   1.021   3.540  17.434  0.3748 -0.8496  0.4924
  115TMC2    C5 1789   1.120   3.633  17.444 -0.7860 -0.0172 -0.1692
  115TMC2    C6 1790   1.213   3.633  17.548  0.0518  0.1366  0.6698
  115TMC2     C 1791   0.915   3.327  17.491  0.4287  0.2305 -0.0141
  115TMC2     O 1792   0.830   3.331  17.403 -0.1085 -0.2435 -0.3217
  115TMC2     H 1793   1.067   3.374  17.724 -2.3285 -1.0013 -1.2895
  115TMC2    H1 1794   0.954   3.544  17.350  0.1715  2.7936  0.8573
  115TMC2    H2 1795   1.290   3.703  17.577  0.7000 -0.6125  0.7234
  115TMC2    C7 1796   1.123   3.743  17.351 -0.3658 -0.4577 -0.2208
  115TMC2    C8 1797   1.285   3.535  17.754 -0.3504  0.8585 -0.1650
  115TMC2    O1 1798   1.051   3.722  17.256  0.0053 -0.5596 -0.6222
  115TMC2    O2 1799   1.358   3.629   0.012  0.1357 -0.3342  0.1490
  115TMC2    O5 1800   1.307   3.411   0.042  0.2616 -0.2263  0.9081
  115TMC2    H5 1801   1.253   3.351  17.744  1.2083  2.1338 -2.5163
  116MPD2     C 1802   0.849   2.827  17.568  0.6407 -0.2764  0.5345
  116MPD2    C1 1803   0.820   2.900  17.457 -0.7163 -0.0879  0.1749
  116MPD2    C2 1804   0.846   3.038  17.460 -0.0217  0.1138  0.0639
  116MPD2    C3 1805   0.890   3.095  17.584  0.0272 -1.2659  0.4315
  116MPD2    C4 1806   0.906   3.016  17.698  0.7701  0.6321 -0.0823
  116MPD2    C5 1807   0.896   2.880  17.683  0.0614  0.7370  0.1271
  116MPD2     H 1808   0.835   3.098  17.371 -2.5081  0.5935  0.6879
  116MPD2    H1 1809   0.945   3.053   0.034 -2.2265 -0.2243  1.4942
  116MPD2    H2 1810   0.854   2.719  17.568  2.7806 -0.1794 -0.3327
  116MPD2    H3 1811   0.908   2.812   0.009  0.7630 -2.1732 -2.3538
  116MPD2     N 1812   0.931   3.231  17.591 -0.2502  0.3306 -0.0447
  116MPD2    H5 1813   0.980   3.258  17.676  0.3753  0.9952 -0.6213
  116MPD2    N1 1814   0.786   2.833  17.341  0.2661 -0.1364  0.0094
  116MPD2    H7 1815   0.811   2.735  17.339  1.9803  0.3241 -0.6718
  117TMC2    C1 1816   3.663   0.550  14.147  0.0977 -0.3164  0.6909
  117TMC2    C2 1817   3.748   0.452  14.188 -0.8388 -0.4247  0.0661
  117TMC2    C3 1818   3.866   0.496  14.246  0.4274 -0.5609 -0.2858
  117TMC2    C4 1819   3.692   0.687  14.163  1.1406 -0.2438 -0.4978
  117TMC2    C5 1820   3.805   0.727  14.221 -0.4458 -0.3260 -0.1142
  117TMC2    C6 1821   3.891   0.626  14.266  0.0333 -0.1354 -0.2522
  117TMC2     C 1822   3.552   0.504  14.060  0.6316 -0.0690  0.6770
  117TMC2     O 1823   3.544   0.385  14.024 -0.8112  0.3441 -0.3584
  117TMC2     H 1824   3.727   0.347  14.172  0.5923 -0.6231 -0.5558
  117TMC2    H1 1825   3.627   0.761  14.117 -0.4511 -0.0648  2.0480
  117TMC2    H2 1826   3.977   0.668  14.318 -0.4628  3.9725 -2.6995
  117TMC2    C7 1827   3.843   0.866  14.220  0.0095  0.5697  0.0845
  117TMC2    C8 1828   3.953   0.391  14.295 -0.0124 -0.2726 -0.2366
  117TMC2    O1 1829   3.964   0.891  14.221  0.2677  0.2134 -0.2583
  117TMC2    O2 1830   4.038   0.412  14.375  0.3201 -0.5018 -0.0414
  117TMC2    O5 1831   3.946   0.278  14.228  0.0774  0.1917 -0.4550
  117TMC2    H5 1832   3.887   0.268  14.151 -2.5245  1.6492  1.3785
  118MPD2     C 1833   3.635   1.168  14.217 -0.0318  0.1404  0.0960
  118MPD2    C1 1834   3.742   1.091  14.194 -0.3850 -0.3140  0.3202
  118MPD2    C2 1835   3.860   1.162  14.150  0.0660 -0.6027 -0.0130
  118MPD2    C3 1836   3.855   1.301  14.132  0.5929  0.0258 -0.1554
  118MPD2    C4 1837   3.742   1.375  14.158 -0.4389 -0.0177  0.0349
  118MPD2    C5 1838   3.630   1.307  14.204  0.2751 -0.2635 -0.2687
  118MPD2     H 1839   3.944   1.102  14.119  0.4078 -0.2005  0.1472
  118MPD2    H1 1840   3.744   1.483  14.154  0.2463  0.0206  1.5845
  118MPD2    H2 1841   3.540   1.119  14.234  0.2604 -0.8461 -1.1024
  118MPD2    H3 1842   3.541   1.366  14.223  0.8746  0.3153  0.7420
  118MPD2     N 1843   3.962   1.377  14.070  0.4952 -0.3664 -0.0349
  118MPD2    H5 1844   3.952   1.473  14.039 -1.4120  0.1076  2.0403
  118MPD2    N1 1845   3.734   0.948  14.218 -0.3185 -0.1775  0.2760
  118MPD2    H7 1846   3.646   0.909  14.250 -0.5826  1.5018  1.5799
  119TMC2    C1 1847   2.047   1.790  13.595 -0.1723  0.2771 -0.2171
  119TMC2    C2 1848   2.091   1.748  13.475 -0.7325 -0.2951 -0.6645
  119TMC2    C3 1849   2.005   1.672  13.402 -0.3084 -0.1514  0.6274
  119TMC2    C4 1850   1.926   1.754  13.652  0.1977 -0.0446 -0.4911
  119TMC2    C5 1851   1.849   1.673  13.572 -0.2551  0.2550 -0.0376
  119TMC2    C6 1852   1.885   1.626  13.446  0.3676 -0.7802  0.4604
  119TMC2     C 1853   2.129   1.871  13.677 -0.2776 -0.3494  0.4466
  119TMC2     O 1854   2.108   1.876  13.802 -0.1436  0.0274 -0.1716
  119TMC2     H 1855   2.193   1.766  13.445 -0.5332 -0.6149 -0.1772
  119TMC2    H1 1856   1.903   1.791  13.751  1.5986 -0.4787 -0.0063
  119TMC2    H2 1857   1.837   1.542  13.397  0.3846 -0.5025 -0.0294
  119TMC2    C7 1858   1.731   1.604  13.630  0.2045 -0.1463 -0.2015
  119TMC2    C8 1859   2.040   1.618  13.267 -0.1393 -0.3537 -0.9119
  119TMC2    O1 1860   1.655   1.547  13.554  0.2176  0.6511 -0.0287
  119TMC2    O2 1861   1.962   1.554  13.196 -1.2839 -0.0154 -1.0491
  119TMC2    O5 1862   2.169   1.654  13.235 -0.4502  0.1787 -0.1849
  119TMC2    H5 1863   2.211   1.723  13.291  0.7634 -0.6948 -0.0137
  120MPD2     C 1864   2.343   2.325  13.729  0.0705 -0.4028 -0.6827
  120MPD2    C1 1865   2.230   2.271  13.786 -0.4870 -0.0017 -0.1931
  120MPD2    C2 1866   2.202   2.140  13.762  0.8181  0.1381 -0.4157
  120MPD2    C3 1867   2.263   2.069  13.659  0.3919 -1.4722 -0.0454
  120MPD2    C4 1868   2.363   2.131  13.596 -0.1082  0.0970 -0.5835
  120MPD2    C5 1869   2.411   2.255  13.632 -0.1007 -0.2000  0.0681
  120MPD2     H 1870   2.125   2.093  13.823  1.1691  0.8422  0.5587
  120MPD2    H1 1871   2.403   2.065  13.520 -0.7851  0.1096 -0.9432
  120MPD2    H2 1872   2.386   2.423  13.745  1.6563 -1.0963 -0.7322
  120MPD2    H3 1873   2.497   2.303  13.586 -0.2180  0.3787  0.4522
  120MPD2     N 1874   2.205   1.952  13.602  0.3150 -0.4345  0.0483
  120MPD2    H5 1875   2.228   1.929  13.506 -0.7786  0.2743 -0.3836
  120MPD2    N1 1876   2.161   2.362  13.876 -0.3709  0.7626 -0.3052
  120MPD2    H7 1877   2.201   2.452  13.899 -1.3400  1.2519 -0.5610
  121TMC2    C1 1878   4.076   3.324  14.216 -0.0036 -0.4528 -0.4262
  121TMC2    C2 1879   4.168   3.216  14.213  0.0294  0.5507 -0.8943
  121TMC2    C3 1880   4.132   3.100  14.151  0.1898  0.3708  0.3935
  121TMC2    C4 1881   3.954   3.308  14.153  0.3755 -0.5564 -0.0792
  121TMC2    C5 1882   3.933   3.187  14.088  0.2897  0.0554  0.1011
  121TMC2    C6 1883   4.020   3.089  14.070 -0.3666 -0.8669  0.8669
  121TMC2     C 1884   4.115   3.454  14.252 -0.3368  0.6974 -0.7992
  121TMC2     O 1885   4.179   3.473  14.359  0.1676  0.3797  0.0302
  121TMC2     H 1886   4.260   3.228  14.269  0.3196 -2.4123 -0.7474
  121TMC2    H1 1887   3.874   3.381  14.157 -0.2517 -1.3291  1.7106
  121TMC2    H2 1888   3.995   3.003  14.010  1.0017 -1.1138  0.6503
  121TMC2    C7 1889   3.808   3.173  14.012  0.6049  0.0056 -0.0244
  121TMC2    C8 1890   4.234   3.006  14.122  0.9762  0.5549 -0.6907
  121TMC2    O1 1891   3.812   3.106  13.910 -0.4125  0.0404  0.9716
  121TMC2    O2 1892   4.253   2.964  14.009 -0.0337 -0.1419 -0.5982
  121TMC2    O5 1893   4.339   3.016  14.216 -0.5169  0.2904 -0.9112
  121TMC2    H5 1894   4.292   3.032  14.301 -0.2348  1.4653 -0.9758
  122MPD2     C 1895   4.146   3.754  14.267 -0.0817  0.2319 -0.7644
  122MPD2    C1 1896   4.107   3.683  14.154 -0.3626 -0.3218  0.4601
  122MPD2    C2 1897   4.085   3.761  14.038  0.3005 -0.1588 -0.2879
  122MPD2    C3 1898   4.125   3.892  14.034 -0.0554 -0.3664  0.3991
  122MPD2    C4 1899   4.157   3.958  14.149 -0.7956  0.1530 -0.0216
  122MPD2    C5 1900   4.160   3.889  14.270  0.5026  0.7326  0.5075
  122MPD2     H 1901   4.053   3.704  13.952 -1.5237  0.2525  0.1076
  122MPD2    H1 1902   4.182   4.064  14.155 -1.5436  0.4371 -2.1383
  122MPD2    H2 1903   4.162   3.714  14.366  0.9219  1.3163 -0.4867
  122MPD2    H3 1904   4.191   3.938  14.361 -0.0441  0.9116  0.5987
  122MPD2     N 1905   4.127   3.964  13.913  0.1954  0.3844 -0.9135
  122MPD2    H5 1906   4.167   4.057  13.913  2.6767 -0.6916 -0.7265
  122MPD2    N1 1907   4.081   3.544  14.151 -0.2661 -0.4046 -0.0392
  122MPD2    H7 1908   4.043   3.507  14.064  0.7711 -0.1681 -0.5896
  123TMC2    C1 1909   2.219   1.728  10.238 -0.0655  0.1930  0.6263
  123TMC2    C2 1910   2.345   1.735  10.181 -0.1181  0.0896  0.1297
  123TMC2    C3 1911   2.362   1.833  10.086  0.3115 -0.4553  0.1579
  123TMC2    C4 1912   2.130   1.829  10.217 -0.6673 -0.3542  0.6702
  123TMC2    C5 1913   2.149   1.919  10.113  0.1597 -0.2720  0.3875
  123TMC2    C6 1914   2.271   1.933  10.054 -0.0023  0.1545  0.1749
  123TMC2     C 1915   2.172   1.601  10.287  0.3798 -0.7752 -0.4962
  123TMC2     O 1916   2.247   1.514  10.325 -0.1599  0.6358  0.4682
  123TMC2     H 1917   2.426   1.664  10.197  1.5881  2.2827  1.2320
  123TMC2    H1 1918   2.033   1.836  10.265 -1.5830  1.0310 -1.4184
  123TMC2    H2 1919   2.286   2.003   9.973 -1.8693  1.2655  0.7672
  123TMC2    C7 1920   2.035   2.007  10.081  0.5409 -0.1226 -0.1124
  123TMC2    C8 1921   2.493   1.834  10.027 -0.2658  0.2385 -0.5255
  123TMC2    O1 1922   1.931   1.967  10.129  0.3237 -0.8670  0.3729
  123TMC2    O2 1923   2.516   1.859   9.909 -0.0136  0.0569 -0.0226
  123TMC2    O5 1924   2.560   1.901  10.120  0.5976 -0.8237  0.0804
  123TMC2    H5 1925   2.545   1.861  10.209 -0.1659 -2.4154 -0.7598
  124MPD2     C 1926   1.780   1.272  10.330  0.2042 -0.2616 -0.3026
  124MPD2    C1 1927   1.726   1.390  10.274  0.2701 -0.1232 -0.1644
  124MPD2    C2 1928   1.821   1.495  10.254 -0.0274  0.4607 -0.0924
  124MPD2    C3 1929   1.958   1.485  10.295 -0.2218  0.2674  0.5059
  124MPD2    C4 1930   2.002   1.368  10.352 -0.0151  0.6745  0.6505
  124MPD2    C5 1931   1.912   1.262  10.366  0.6931  0.3639 -0.9683
  124MPD2     H 1932   1.785   1.590  10.217 -0.9355  0.5101  0.9265
  124MPD2    H1 1933   2.106   1.346  10.375  0.0001 -1.2285 -1.1894
  124MPD2    H2 1934   1.713   1.188  10.345  1.1744 -1.1062 -0.5919
  124MPD2    H3 1935   1.951   1.168  10.404 -1.1588  1.3190  3.2655
  124MPD2     N 1936   2.037   1.596  10.272 -0.1316 -0.1706 -0.3241
  124MPD2    H5 1937   1.991   1.675  10.227  0.1740  2.4312  4.0082
  124MPD2    N1 1938   1.596   1.399  10.233 -0.2752 -0.3011  0.5174
  124MPD2    H7 1939   1.530   1.327  10.262 -0.1146  0.5925  3.1026
  125TMC2    C1 1940   2.835   4.410   9.881  0.2238  0.3861  0.6355
  125TMC2    C2 1941   2.780   4.485   9.985 -0.2309  0.0753  0.5816
  125TMC2    C3 1942   2.832   4.613   9.996  0.2429  0.0071 -0.5783
  125TMC2    C4 1943   2.928   4.452   9.794  0.5521  0.1664 -0.1030
  125TMC2    C5 1944   2.969   4.583   9.813  0.4158  0.2225  0.1904
  125TMC2    C6 1945   2.926   4.663   9.912  0.5824 -0.2577 -0.3369
  125TMC2     C 1946   2.777   4.280   9.858 -0.5033 -0.3803  0.2963
  125TMC2     O 1947   2.772   4.246   9.743 -0.5927  0.4128 -0.4135
  125TMC2     H 1948   2.686   4.459  10.033  0.0808 -0.8402  0.7075
  125TMC2    H1 1949   2.957   4.383   9.716  0.5591  0.0596 -0.0068
  125TMC2    H2 1950   2.966   0.023   9.921 -1.0164  0.2052  1.6603
  125TMC2    C7 1951   3.030   4.651   9.696  0.2627  0.1331  0.2982
  125TMC2    C8 1952   2.764   4.711  10.078  0.0507 -0.1831 -0.2214
  125TMC2    O1 1953   3.033   0.033   9.690 -0.6004 -0.5483  0.2888
  125TMC2    O2 1954   2.798   0.087  10.062  0.2264  0.2891 -0.2761
  125TMC2    O5 1955   2.760   4.654  10.199 -0.4658  0.1195  0.0439
  125TMC2    H5 1956   2.722   4.565  10.213 -1.0552  0.3904  0.1440
  126MPD1     C 1957   2.530   3.859   9.995  1.0511  0.0720 -0.0651
  126MPD1    C1 1958   2.562   3.898   9.866  0.0665  0.1813  0.3850
  126MPD1    C2 1959   2.632   4.017   9.853 -0.2917  0.1852  0.0131
  126MPD1    C3 1960   2.663   4.095   9.971 -0.6013  0.0142  0.1522
  126MPD1    C4 1961   2.600   4.062  10.085 -0.3453  0.2959 -0.3917
  126MPD1    C5 1962   2.538   3.948  10.103  0.2727  0.5632  0.4846
  126MPD1     H 1963   2.686   4.025   9.759 -0.6033 -1.1949 -0.2864
  126MPD1    H1 1964   2.611   4.122  10.175 -2.4513  1.1050 -0.6746
  126MPD1    H2 1965   2.488   3.762  10.017 -0.5609  0.0302 -3.3668
  126MPD1    H3 1966   2.513   3.912  10.202  3.0832 -0.8258  0.6840
  126MPD1     N 1967   2.718   4.225   9.965  0.3770  0.4150  0.2191
  126MPD1    H5 1968   2.719   4.277  10.052  1.2354 -3.4429  2.4924
  126MPD1    N1 1969   2.542   3.801   9.764 -0.2286 -0.3837  0.2438
  126MPD1    H6 1970   2.551   3.845   9.673  0.8159 -1.3516 -0.1178
  126MPD1    H7 1971   2.459   3.742   9.770 -1.2182  0.7913 -1.9616
  127TMC2    C1 1972   3.788   3.388  10.181  0.6826  0.1114  0.5416
  127TMC2    C2 1973   3.851   3.492  10.250 -0.3023 -0.2033 -0.2889
  127TMC2    C3 1974   3.858   3.476  10.390 -0.5810 -0.0445  0.5016
  127TMC2    C4 1975   3.736   3.280  10.242 -0.0135 -0.0321 -0.6233
  127TMC2    C5 1976   3.723   3.284  10.379 -0.0450  0.7628  0.2688
  127TMC2    C6 1977   3.781   3.385  10.448 -0.6682  0.1147 -0.9585
  127TMC2     C 1978   3.783   3.395  10.038 -0.0908  0.6870 -0.3404
  127TMC2     O 1979   3.877   3.440   9.974  0.0321  0.0970  0.1881
  127TMC2     H 1980   3.893   3.575  10.194 -0.7305 -0.3157 -0.7771
  127TMC2    H1 1981   3.698   3.194  10.190  2.1072  0.2956 -2.7024
  127TMC2    H2 1982   3.779   3.385  10.557  0.7730  3.4833 -0.9619
  127TMC2    C7 1983   3.676   3.174  10.460  0.3694  0.3596  0.4636
  127TMC2    C8 1984   3.879   3.589  10.476  0.8898 -0.0194  0.5328
  127TMC2    O1 1985   3.724   3.179  10.574  0.0643 -0.1702  0.0369
  127TMC2    O2 1986   3.828   3.597  10.587  0.2165  0.2824 -0.5798
  127TMC2    O5 1987   3.937   3.685  10.403  0.0674  0.1904  0.2827
  127TMC2    H5 1988   3.990   3.658  10.325 -1.3194 -0.6277 -0.3812
  128MPD2     C 1989   3.501   3.281   9.833  0.1021  0.3899  0.0626
  128MPD2    C1 1990   3.628   3.326   9.859  0.2365 -0.4442  0.1759
  128MPD2    C2 1991   3.710   3.355   9.748 -0.1187  0.1139  0.1300
  128MPD2    C3 1992   3.668   3.327   9.619  0.5331  0.7260 -0.1052
  128MPD2    C4 1993   3.543   3.266   9.591 -0.2545 -0.3774 -0.2575
  128MPD2    C5 1994   3.460   3.255   9.703  0.2483  0.3107 -0.1346
  128MPD2     H 1995   3.813   3.384   9.765 -0.1779  1.3289 -1.5360
  128MPD2    H1 1996   3.506   3.247   9.491 -1.1987  0.6772 -0.1144
  128MPD2    H2 1997   3.431   3.261   9.913  1.0494 -0.6636  0.6277
  128MPD2    H3 1998   3.360   3.219   9.680 -0.5091  1.8450  0.8108
  128MPD2     N 1999   3.768   3.336   9.519 -0.4018  0.1189 -0.1653
  128MPD2    H5 2000   3.861   3.361   9.552  0.2181 -2.0663 -0.2936
  128MPD2    N1 2001   3.664   3.338   9.992 -0.1605 -0.0706  0.6107
  128MPD2    H7 2002   3.592   3.321  10.061  2.0106  0.1650  2.9282
  129TMC2    C1 2003   2.445   3.105   1.495  0.1917 -0.2558  0.5421
  129TMC2    C2 2004   2.487   2.982   1.457  0.1843  0.4341  0.1060
  129TMC2    C3 2005   2.396   2.895   1.407  0.0988 -0.0869 -0.0284
  129TMC2    C4 2006   2.317   3.154   1.477 -0.0360 -0.2241 -0.6077
  129TMC2    C5 2007   2.231   3.062   1.425  0.2308  0.4691 -0.4311
  129TMC2    C6 2008   2.267   2.937   1.390  0.0324  0.1045  0.5990
  129TMC2     C 2009   2.543   3.183   1.567  0.0754  0.0494  0.3619
  129TMC2     O 2010   2.634   3.130   1.630 -0.8007  0.3617  0.1465
  129TMC2     H 2011   2.588   2.950   1.481  0.5845  0.4076 -1.5543
  129TMC2    H1 2012   2.289   3.253   1.510 -0.3939 -1.0168  1.4913
  129TMC2    H2 2013   2.196   2.871   1.342 -0.3038  0.0429  1.1782
  129TMC2    C7 2014   2.087   3.087   1.438 -0.1746 -0.0679 -0.7907
  129TMC2    C8 2015   2.445   2.788   1.330 -0.1879 -0.2145 -0.6279
  129TMC2    O1 2016   2.004   3.040   1.365  0.0348 -0.5198 -0.2930
  129TMC2    O2 2017   2.423   2.765   1.209  0.0374 -0.2479 -0.2541
  129TMC2    O5 2018   2.484   2.705   1.433 -0.4000 -0.6902  0.5617
  129TMC2    H5 2019   2.485   2.752   1.519 -2.2625 -0.5880  0.5126
  130MPD2     C 2020   2.616   3.384   1.777 -0.5198  0.0692  0.6614
  130MPD2    C1 2021   2.554   3.418   1.656 -0.5687  0.1505  0.4247
  130MPD2    C2 2022   2.516   3.552   1.633 -0.0563  0.0302  0.1386
  130MPD2    C3 2023   2.544   3.652   1.727  0.4048  0.1522 -0.0127
  130MPD2    C4 2024   2.606   3.615   1.842 -0.3342  0.0358  1.0116
  130MPD2    C5 2025   2.638   3.482   1.868 -0.0951  0.0041 -0.1167
  130MPD2     H 2026   2.480   3.587   1.537  1.0135  0.0700 -0.2385
  130MPD2    H1 2027   2.637   3.683   1.920  1.1412 -0.0214  0.4803
  130MPD2    H2 2028   2.654   3.285   1.799 -1.6598 -1.1377 -2.7270
  130MPD2    H3 2029   2.689   3.457   1.960 -0.4442 -0.0502  0.0622
  130MPD2     N 2030   2.515   3.792   1.694  0.7561 -1.2928  0.0996
  130MPD2    H5 2031   2.484   3.809   1.599 -3.0698 -0.0135  1.6085
  130MPD2    N1 2032   2.511   3.319   1.559 -0.0315 -0.0441  0.1602
  130MPD2    H7 2033   2.446   3.350   1.487  0.8900 -0.0409 -0.6722
  131TMC2    C1 2034   1.675   2.401  10.091 -0.1681  0.0624  0.6505
  131TMC2    C2 2035   1.768   2.422  10.188  0.6573 -0.0423 -0.3147
  131TMC2    C3 2036   1.867   2.516  10.172 -1.3059  0.3995  0.0247
  131TMC2    C4 2037   1.690   2.466   9.967  0.8539  0.0610  0.4898
  131TMC2    C5 2038   1.788   2.560   9.957 -0.0334  0.0822  0.4445
  131TMC2    C6 2039   1.871   2.593  10.057 -0.3487  0.0121 -0.6903
  131TMC2     C 2040   1.589   2.285  10.102 -0.1683 -0.4248  0.7807
  131TMC2     O 2041   1.624   2.191  10.175  0.5682  0.1714  0.3216
  131TMC2     H 2042   1.751   2.376  10.284 -0.6623 -1.9182 -1.4466
  131TMC2    H1 2043   1.649   2.413   9.883 -0.9182 -1.0186  2.0279
  131TMC2    H2 2044   1.949   2.665  10.033 -0.9787  1.2792  1.0430
  131TMC2    C7 2045   1.768   2.654   9.851  0.2548  1.0166 -0.3214
  131TMC2    C8 2046   1.917   2.566  10.297  0.1893 -0.3584  0.7153
  131TMC2    O1 2047   1.694   2.618   9.758 -0.1692  0.8278 -0.2801
  131TMC2    O2 2048   1.921   2.686  10.326 -0.3237 -0.4137  0.2541
  131TMC2    O5 2049   1.951   2.465  10.380  0.5223  0.0414  0.4089
  131TMC2    H5 2050   1.938   2.379  10.334  1.7975  0.4019 -0.6307
  132MPD2     C 2051   1.260   2.260   9.941 -0.7070  0.3217 -0.4583
  132MPD2    C1 2052   1.374   2.215  10.009 -0.6232 -0.6957 -0.5100
  132MPD2    C2 2053   1.389   2.079  10.044 -0.2042  0.2592 -0.2026
  132MPD2    C3 2054   1.289   1.996  10.007  0.1631  0.3846 -0.0517
  132MPD2    C4 2055   1.192   2.028   9.921 -0.4240  0.4572 -0.4857
  132MPD2    C5 2056   1.176   2.161   9.892 -0.3721  0.6076 -0.0279
  132MPD2     H 2057   1.469   2.036  10.102 -0.1668  0.8928  0.2044
  132MPD2    H1 2058   1.102   1.973   9.897 -0.8129  1.1791 -0.7032
  132MPD2    H2 2059   1.231   2.360   9.910  1.1207  0.4447 -1.7497
  132MPD2    H3 2060   1.097   2.194   9.825  0.0449  1.8105  0.0564
  132MPD2     N 2061   1.294   1.867  10.067  0.1220  0.2568 -0.1047
  132MPD2    H5 2062   1.370   1.844  10.129 -0.7310  0.7936  1.1500
  132MPD2    N1 2063   1.471   2.313  10.043  0.5931  0.6174 -0.0688
  132MPD2    H7 2064   1.474   2.396   9.985 -0.3034  0.5536 -0.2136
  133TMC2    C1 2065   1.198   3.831   9.405 -0.2126 -0.3651  0.3447
  133TMC2    C2 2066   1.307   3.876   9.330 -0.4014  0.0099 -0.7013
  133TMC2    C3 2067   1.361   3.999   9.364  0.3861 -0.5822  0.2969
  133TMC2    C4 2068   1.154   3.899   9.519 -0.0766 -0.4362  0.0051
  133TMC2    C5 2069   1.226   4.008   9.555 -0.4834  0.5617  0.1043
  133TMC2    C6 2070   1.330   4.059   9.479  0.3704 -0.2217 -0.1244
  133TMC2     C 2071   1.111   3.729   9.355 -0.4135 -0.3387 -0.1213
  133TMC2     O 2072   1.009   3.703   9.418  0.1934 -0.1810 -0.1190
  133TMC2     H 2073   1.329   3.826   9.236  1.7349 -1.8462  0.8013
  133TMC2    H1 2074   1.074   3.859   9.581  0.0450 -0.7888 -0.0648
  133TMC2    H2 2075   1.362   4.161   9.493  1.5675 -0.3911 -1.5474
  133TMC2    C7 2076   1.178   4.096   9.659 -0.1872  0.3125  0.0370
  133TMC2    C8 2077   1.478   4.034   9.292 -0.8011  0.2960 -0.1495
  133TMC2    O1 2078   1.056   4.107   9.675  0.3347 -0.2201 -0.4066
  133TMC2    O2 2079   1.507   4.003   9.173  0.1784 -0.4811 -0.1507
  133TMC2    O5 2080   1.568   4.080   9.383  0.1367  0.6593  0.4381
  133TMC2    H5 2081   1.525   4.075   9.471 -0.5045 -1.5658 -0.0000
  134MPD2     C 2082   1.141   3.516   9.058  0.5426 -0.1738 -0.1379
  134MPD2    C1 2083   1.098   3.551   9.185  0.5956  0.0238  0.1524
  134MPD2    C2 2084   1.017   3.467   9.259  0.9804  0.3500  0.2381
  134MPD2    C3 2085   0.976   3.350   9.194  0.2084  0.3747  0.1571
  134MPD2    C4 2086   1.021   3.313   9.067 -0.0139 -0.0620  0.5714
  134MPD2    C5 2087   1.100   3.399   9.000  0.3978 -0.2793 -0.8012
  134MPD2     H 2088   1.003   3.487   9.364 -0.0438  2.1798 -0.2490
  134MPD2    H1 2089   0.997   3.223   9.012 -2.1818  0.6538  0.3645
  134MPD2    H2 2090   1.213   3.577   9.006  2.1914 -1.0063  1.1826
  134MPD2    H3 2091   1.139   3.374   8.902  1.3985 -0.3798 -0.3724
  134MPD2     N 2092   0.891   3.254   9.264  0.3448  0.4138 -0.2013
  134MPD2    H5 2093   0.864   3.169   9.215  0.1305  0.6496 -0.4870
  134MPD2    N1 2094   1.145   3.677   9.231  0.2274  0.2633 -0.3818
  134MPD2    H7 2095   1.213   3.727   9.176  1.4035 -1.8121 -0.8252
  135TMC2    C1 2096   3.127   4.674  10.290  0.2506  0.2788  0.6495
  135TMC2    C2 2097   3.075   4.727  10.405 -0.2784 -1.1134  0.6362
  135TMC2    C3 2098   2.986   4.646  10.468  0.0014 -0.8127 -0.0704
  135TMC2    C4 2099   3.103   4.541  10.254 -0.0328 -0.4743  1.0029
  135TMC2    C5 2100   3.022   4.461  10.331  0.2832 -0.5467 -0.1831
  135TMC2    C6 2101   2.964   4.515  10.443  0.2596 -0.4841  0.2943
  135TMC2     C 2102   3.135   0.022  10.175 -0.5151  0.6966  0.2468
  135TMC2     O 2103   3.106   0.140  10.204  0.2345 -0.3966  0.0607
  135TMC2     H 2104   3.081   0.092  10.433 -3.9351 -1.0906  1.3664
  135TMC2    H1 2105   3.161   4.496  10.173 -0.4264  1.1309 -0.1801
  135TMC2    H2 2106   2.886   4.463  10.498  1.0346 -0.2006  1.6644
  135TMC2    C7 2107   2.972   4.335  10.283  0.3553 -0.3256  0.2353
  135TMC2    C8 2108   2.929   4.689  10.591  0.2860 -0.6222 -0.5165
  135TMC2    O1 2109   2.979   4.300  10.170  0.7076  0.0563  0.2455
  135TMC2    O2 2110   2.874   4.622  10.676  0.6472  0.3575 -0.4941
  135TMC2    O5 2111   2.888   0.074  10.565  0.0219  0.3314  0.6881
  135TMC2    H5 2112   2.923   0.124  10.488 -0.1505 -1.8938 -0.8182
  136MPD2     C 2113   3.262   0.176   9.948  0.1814  0.7002 -0.1604
  136MPD2    C1 2114   3.252   0.033   9.960  1.2542 -0.5849  0.0955
  136MPD2    C2 2115   3.319   4.695   9.860 -0.0384 -0.4727  0.3104
  136MPD2    C3 2116   3.370   0.013   9.750  0.5162  1.2293 -0.2166
  136MPD2    C4 2117   3.368   0.154   9.737  0.2810 -0.5768  0.1378
  136MPD2    C5 2118   3.318   0.231   9.838  0.0463 -0.2473 -0.2255
  136MPD2     H 2119   3.331   4.588   9.877  2.6414  0.0159  1.4180
  136MPD2    H1 2120   3.400   0.201   9.645 -0.5430 -1.5858 -0.6498
  136MPD2    H2 2121   3.213   0.240  10.020 -1.6728 -0.6574 -0.2040
  136MPD2    H3 2122   3.308   0.338   9.819 -0.5246 -0.9204 -3.8763
  136MPD2     N 2123   3.428   4.682   9.638  0.7168 -0.0801 -0.3753
  136MPD2    H5 2124   3.468   0.006   9.570 -1.5047  1.7187  0.0053
  136MPD2    N1 2125   3.204   4.706  10.072 -0.7461 -0.1927 -0.2376
  136MPD2    H7 2126   3.207   4.605  10.064  0.1758 -0.1732 -0.0818
  137TMC2    C1 2127   3.061   3.519   9.755  0.1310 -0.5096  0.2801
  137TMC2    C2 2128   3.144   3.626   9.749  0.6050  0.2687 -0.1562
  137TMC2    C3 2129   3.155   3.698   9.633 -0.0987 -0.9052  0.6399
  137TMC2    C4 2130   2.981   3.489   9.647 -0.4184  0.2008 -0.0257
  137TMC2    C5 2131   2.988   3.571   9.539 -0.1982  0.1241  0.5201
  137TMC2    C6 2132   3.087   3.668   9.520  0.0027  0.2925 -0.2787
  137TMC2     C 2133   3.092   3.411   9.850 -0.6963 -0.7063 -0.0486
  137TMC2     O 2134   3.147   3.445   9.955 -0.2748  0.2971  0.4073
  137TMC2     H 2135   3.217   3.652   9.825  0.2903  1.6992 -0.3493
  137TMC2    H1 2136   2.924   3.397   9.650  0.0847 -0.1007  0.4884
  137TMC2    H2 2137   3.085   3.738   9.438  1.7800  0.0104 -0.5609
  137TMC2    C7 2138   2.874   3.579   9.451  0.1983 -0.4333 -0.3514
  137TMC2    C8 2139   3.226   3.822   9.638  0.1375  0.2186 -0.2975
  137TMC2    O1 2140   2.894   3.621   9.339  0.3845 -0.6946 -0.3168
  137TMC2    O2 2141   3.300   3.869   9.552 -0.1407  0.0028  0.3219
  137TMC2    O5 2142   3.173   3.889   9.739 -0.1394  0.4962 -0.1719
  137TMC2    H5 2143   3.084   3.853   9.763 -0.4236  1.7759  0.6818
  138MPD2     C 2144   3.120   3.052   9.794 -0.1759 -0.4281 -0.6502
  138MPD2    C1 2145   3.118   3.164   9.871 -0.2176  0.0508  1.0466
  138MPD2    C2 2146   3.144   3.157  10.006 -0.1935 -0.7251  0.5350
  138MPD2    C3 2147   3.173   3.029  10.060 -0.3824  0.3917  0.6566
  138MPD2    C4 2148   3.196   2.915   9.975  0.6508  0.4133  0.0265
  138MPD2    C5 2149   3.156   2.931   9.848  0.3810  0.3097 -0.1335
  138MPD2     H 2150   3.124   3.244  10.068  0.3703  1.2611 -2.0895
  138MPD2    H1 2151   3.235   2.817   9.997  0.1761  0.2290  0.0552
  138MPD2    H2 2152   3.109   3.059   9.687 -0.5729  0.4944 -0.5491
  138MPD2    H3 2153   3.162   2.845   9.781  0.1158  0.4698 -0.3633
  138MPD2     N 2154   3.182   3.019  10.200  0.2490  0.5626  0.1019
  138MPD2    H5 2155   3.177   3.103  10.257 -0.2684  0.5234  0.1084
  138MPD2    N1 2156   3.095   3.283   9.801 -0.3961  0.1968 -0.2069
  138MPD2    H7 2157   3.085   3.267   9.701 -0.5863  1.4973 -0.3908
  139TMC2    C1 2158   3.234   1.587  13.476 -0.1491 -0.6947  0.5496
  139TMC2    C2 2159   3.257   1.564  13.346  0.0076  0.5105  0.5298
  139TMC2    C3 2160   3.165   1.610  13.260 -0.1095 -0.5266 -0.4819
  139TMC2    C4 2161   3.131   1.659  13.522 -0.2342 -0.0248 -0.4201
  139TMC2    C5 2162   3.039   1.699  13.432 -0.1426  0.6426  0.4269
  139TMC2    C6 2163   3.058   1.679  13.297  0.2834 -0.1233 -0.2416
  139TMC2     C 2164   3.321   1.506  13.559  1.3880 -0.3870  0.4733
  139TMC2     O 2165   3.434   1.474  13.519 -0.5517  0.1203 -0.1037
  139TMC2     H 2166   3.344   1.509  13.313 -1.6648 -1.0672 -1.2297
  139TMC2    H1 2167   3.143   1.710  13.616 -0.3248 -1.1288  0.1959
  139TMC2    H2 2168   2.987   1.717  13.224 -1.1018 -0.6653  0.8311
  139TMC2    C7 2169   2.947   1.794  13.486  0.3304 -0.4393  0.1545
  139TMC2    C8 2170   3.169   1.529  13.136 -0.1930 -0.2263 -0.4356
  139TMC2    O1 2171   2.905   1.885  13.412 -0.2778  0.0901 -0.1239
  139TMC2    O2 2172   3.210   1.414  13.143  0.1855 -0.3674  0.2665
  139TMC2    O5 2173   3.066   1.579  13.069  0.3086 -0.6006  0.6568
  139TMC2    H5 2174   3.074   1.677  13.064 -0.2807 -0.7578 -3.6808
  140MPD2     C 2175   3.188   1.356  13.865 -0.7406 -0.4253 -0.7304
  140MPD2    C1 2176   3.279   1.379  13.763  0.0874  0.2424  0.3897
  140MPD2    C2 2177   3.398   1.307  13.767 -0.1934 -0.0883 -0.4908
  140MPD2    C3 2178   3.434   1.223  13.881 -0.2826  0.1019 -0.2610
  140MPD2    C4 2179   3.347   1.212  13.985  0.0832 -0.2203  0.0354
  140MPD2    C5 2180   3.223   1.271  13.973 -0.6156 -0.1365 -0.4167
  140MPD2     H 2181   3.467   1.300  13.684 -1.1059 -0.0817 -1.2537
  140MPD2    H1 2182   3.355   1.150  14.073  0.5727 -0.8118 -0.4252
  140MPD2    H2 2183   3.091   1.405  13.862 -0.3166  0.3009 -2.4282
  140MPD2    H3 2184   3.154   1.242  14.052  0.0397  0.0104  0.2045
  140MPD2     N 2185   3.561   1.159  13.870 -1.0006  0.0255 -0.4048
  140MPD2    H5 2186   3.624   1.179  13.794 -0.1132  2.9166  1.0796
  140MPD2    N1 2187   3.240   1.463  13.662 -0.0854 -0.0698  0.4408
  140MPD2    H7 2188   3.151   1.511  13.672 -0.8436 -1.3660  0.0347
  141TMC2    C1 2189   4.009   2.708  14.300 -0.5407 -0.0060  0.1711
  141TMC2    C2 2190   3.976   2.697  14.429 -0.1912  0.3239  0.8039
  141TMC2    C3 2191   4.082   2.672  14.517 -0.1065 -0.3937 -0.6766
  141TMC2    C4 2192   4.136   2.696  14.250  0.4273  0.0875  0.6171
  141TMC2    C5 2193   4.239   2.677  14.344  0.5714 -0.2524  0.0011
  141TMC2    C6 2194   4.212   2.666  14.482 -0.3142 -0.5434 -0.2340
  141TMC2     C 2195   3.917   2.774  14.197 -0.3231  0.4652 -0.2443
  141TMC2     O 2196   3.955   2.779  14.080  0.2150  0.0436 -0.4023
  141TMC2     H 2197   3.876   2.698  14.472 -1.1371  0.1850 -1.4079
  141TMC2    H1 2198   4.154   2.715  14.145 -3.5898  1.8187  0.2653
  141TMC2    H2 2199   4.286   2.621  14.547  1.8358  1.7461 -1.1397
  141TMC2    C7 2200   4.375   2.695  14.298 -0.2612  0.8925 -0.0576
  141TMC2    C8 2201   4.053   2.674  14.659 -0.4423  0.0193 -0.0621
  141TMC2    O1 2202   4.401   2.647  14.190 -0.5998  0.7368  0.3114
  141TMC2    O2 2203   3.943   2.629  14.696 -0.3154  0.1903 -0.1521
  141TMC2    O5 2204   4.140   2.750  14.726  0.1110  0.5788  0.1031
  141TMC2    H5 2205   4.227   2.768  14.683 -1.2791  3.1126 -1.6133
  142TMC2    C1 2206   1.292   1.833   9.683 -0.7039  0.7257 -0.6829
  142TMC2    C2 2207   1.220   1.916   9.608 -0.3764  0.3469  0.1671
  142TMC2    C3 2208   1.278   2.040   9.583  0.6804 -0.5824  0.6102
  142TMC2    C4 2209   1.415   1.864   9.745  0.2563 -0.0321 -0.6359
  142TMC2    C5 2210   1.465   1.989   9.713 -0.4290 -0.5097  0.0137
  142TMC2    C6 2211   1.402   2.081   9.631  1.1977 -0.2634  0.0801
  142TMC2     C 2212   1.253   1.697   9.678 -0.7430 -0.3440 -1.3784
  142TMC2     O 2213   1.135   1.670   9.667  0.2496  0.2130 -0.1463
  142TMC2     H 2214   1.125   1.877   9.575 -0.0555  0.0036 -0.3546
  142TMC2    H1 2215   1.445   1.809   9.833 -0.8209 -0.2806 -0.4248
  142TMC2    H2 2216   1.442   2.178   9.603 -0.5538  0.7854  1.2021
  142TMC2    C7 2217   1.591   2.022   9.781  0.5927 -0.2847 -0.1613
  142TMC2    C8 2218   1.215   2.128   9.494 -0.1928 -0.1865  0.7869
  142TMC2    O1 2219   1.641   1.931   9.847  0.4608 -0.1286  0.6343
  142TMC2    O2 2220   1.283   2.210   9.436  0.0249 -0.2141  0.5469
  142TMC2    O5 2221   1.082   2.125   9.507  0.3567  0.0007  0.3324
  142TMC2    H5 2222   1.052   2.069   9.582 -1.7283 -1.3855 -1.5559
  143MPD2     C 2223   1.390   1.230   9.811  0.5768  0.5936 -1.3446
  143MPD2    C1 2224   1.271   1.295   9.840 -0.9109  0.6080  0.2913
  143MPD2    C2 2225   1.253   1.425   9.791 -0.3010 -0.3253  0.1309
  143MPD2    C3 2226   1.356   1.484   9.713 -0.0207 -0.1568 -0.1048
  143MPD2    C4 2227   1.476   1.418   9.691  0.2359 -0.2918 -0.2674
  143MPD2    C5 2228   1.492   1.287   9.731 -0.3112  0.8761 -0.0825
  143MPD2     H 2229   1.160   1.478   9.809  0.5678  1.8477 -1.8297
  143MPD2    H1 2230   1.556   1.465   9.635 -0.0323  1.2152  0.6078
  143MPD2    H2 2231   1.402   1.129   9.849 -0.2122  0.5835 -1.1222
  143MPD2    H3 2232   1.586   1.236   9.713 -1.3426 -1.1720  0.3443
  143MPD2     N 2233   1.364   1.621   9.687  0.5263 -0.4019 -0.2847
  143MPD2    H5 2234   1.451   1.666   9.659  0.2729 -1.0109 -2.0939
  143MPD2    N1 2235   1.188   1.223   9.924 -0.4470 -0.4240 -0.1800
  143MPD2    H7 2236   1.213   1.128   9.948  0.1130 -0.2572 -0.0991
  144TMC2    C1 2237   0.636   4.409   1.024  0.2716  0.2550 -0.3924
  144TMC2    C2 2238   0.749   4.346   0.982 -0.4265  0.1770 -0.2848
  144TMC2    C3 2239   0.868   4.385   1.046  0.1833  0.0311  0.5240
  144TMC2    C4 2240   0.637   4.510   1.112 -0.0665  0.1897  0.0042
  144TMC2    C5 2241   0.752   4.544   1.171 -0.6771 -0.4286  0.2071
  144TMC2    C6 2242   0.873   4.483   1.134  0.7687  0.1961 -0.2607
  144TMC2     C 2243   0.514   4.387   0.948  0.5765  0.2335 -0.9166
  144TMC2     O 2244   0.496   4.288   0.873 -0.2295  0.0621 -0.2359
  144TMC2     H 2245   0.746   4.260   0.915  1.6035 -0.4483  0.4323
  144TMC2    H1 2246   0.547   4.528   1.170 -0.7997  0.8922 -1.3319
  144TMC2    H2 2247   0.963   4.495   1.194 -1.6160  0.4542  3.2421
  144TMC2    C7 2248   0.767   4.635   1.278 -0.9077 -0.2360 -0.6525
  144TMC2    C8 2249   0.977   4.302   1.017  0.5991  0.3855 -0.1099
  144TMC2    O1 2250   0.869   4.619   1.343  0.2395  0.3172  0.6532
  144TMC2    O2 2251   0.964   4.183   0.996  0.3955 -0.0715  0.2391
  144TMC2    O5 2252   1.093   4.369   1.029 -0.4519 -0.3013 -0.0372
  144TMC2    H5 2253   1.082   4.466   1.038  0.0647 -0.3637  1.3074
  145MPD2     C 2254   0.044   4.497   0.789  0.9987  0.7342  0.1350
  145MPD2    C1 2255   0.144   4.415   0.737 -0.0458 -0.9968  0.1573
  145MPD2    C2 2256   0.264   4.414   0.801 -0.3017 -0.0352  0.3802
  145MPD2    C3 2257   0.292   4.485   0.921  0.1700 -0.1584  0.7089
  145MPD2    C4 2258   0.191   4.568   0.964  0.5145 -0.1112 -0.0503
  145MPD2    C5 2259   0.070   4.575   0.905  0.3891  0.0042  0.1973
  145MPD2     H 2260   0.336   4.347   0.756 -0.8874 -0.4081 -0.0061
  145MPD2    H1 2261   0.211   4.642   1.040  1.3154  0.4258 -0.7780
  145MPD2    H2 2262   4.681   4.508   0.756 -0.1896 -1.4875  3.0280
  145MPD2    H3 2263   4.736   4.643   0.944  0.7016  0.1546  0.5179
  145MPD2     N 2264   0.418   4.477   0.984  0.4705 -0.4566  0.3566
  145MPD2    H5 2265   0.441   4.541   1.060  1.7992  0.5458 -0.9097
  145MPD2    N1 2266   0.141   4.334   0.618  0.3123  0.6830 -0.1651
  145MPD2    H7 2267   0.226   4.301   0.576  0.6885 -1.1058  1.9859
  146TMC2    C1 2268   1.465   4.084  12.183  0.4813  0.0082 -0.6689
  146TMC2    C2 2269   1.368   4.104  12.088  0.1863 -0.7374 -0.4397
  146TMC2    C3 2270   1.377   4.034  11.971 -0.5072 -0.8992  0.9269
  146TMC2    C4 2271   1.580   4.011  12.161 -0.8047  0.0412  0.0511
  146TMC2    C5 2272   1.581   3.944  12.038  0.2784 -0.1540 -0.1301
  146TMC2    C6 2273   1.485   3.961  11.941 -0.3298  0.1230 -0.5064
  146TMC2     C 2274   1.451   4.162  12.307  0.0078 -0.4387 -0.7229
  146TMC2     O 2275   1.355   4.238  12.309 -0.0951 -0.7247 -0.7294
  146TMC2     H 2276   1.280   4.161  12.114  1.1119 -0.3008  1.7212
  146TMC2    H1 2277   1.654   3.988  12.238 -1.2532  1.8244  1.0093
  146TMC2    H2 2278   1.485   3.906  11.848  1.4663  0.1210 -0.5152
  146TMC2    C7 2279   1.703   3.868  11.995  0.0230 -0.0811  0.3091
  146TMC2    C8 2280   1.287   4.059  11.861  0.5177  0.4194 -0.3772
  146TMC2    O1 2281   1.732   3.865  11.875 -0.0040  0.0289 -0.2847
  146TMC2    O2 2282   1.315   4.026  11.750  0.2196  0.4684  0.9265
  146TMC2    O5 2283   1.161   4.084  11.906  0.5263 -0.2209  0.2656
  146TMC2    H5 2284   1.143   4.067  12.001  1.1649 -0.4488  0.3455
  147MPD2     C 2285   2.121   3.595  12.119  0.8921  0.0931 -0.5940
  147MPD2    C1 2286   2.036   3.586  12.229 -0.4456 -0.6365  0.7521
  147MPD2    C2 2287   1.910   3.651  12.209 -0.3457 -0.2584  0.0582
  147MPD2    C3 2288   1.879   3.721  12.094  0.0487 -0.2360 -0.5059
  147MPD2    C4 2289   1.975   3.737  11.993 -0.2229 -0.2304  0.6997
  147MPD2    C5 2290   2.101   3.678  12.010  0.6336 -0.1747  0.0116
  147MPD2     H 2291   1.842   3.654  12.293  0.3460  1.9842  0.5399
  147MPD2    H1 2292   1.958   3.785  11.898  1.1521  1.8708  1.5121
  147MPD2    H2 2293   2.217   3.545  12.123  0.8327 -0.1134 -1.8148
  147MPD2    H3 2294   2.180   3.689  11.938  0.1325 -1.1108 -0.6732
  147MPD2     N 2295   1.760   3.803  12.101  0.5905 -0.3505 -0.2903
  147MPD2    H5 2296   1.710   3.801  12.190 -1.6671 -1.1914 -1.5670
  147MPD2    N1 2297   2.089   3.519  12.341  0.0493 -0.0023  0.4522
  147MPD2    H7 2298   2.186   3.491  12.335 -0.5501 -1.6034 -1.5503
  148TMC2    C1 2299   1.708   2.876  10.713  0.2777 -1.0891 -0.3274
  148TMC2    C2 2300   1.833   2.876  10.769 -1.0878  0.5424  0.4704
  148TMC2    C3 2301   1.914   2.767  10.756 -0.0673 -0.1075 -0.0354
  148TMC2    C4 2302   1.656   2.771  10.638  0.0477 -0.1323 -0.4363
  148TMC2    C5 2303   1.743   2.663  10.628  0.6275  0.3962  0.5665
  148TMC2    C6 2304   1.869   2.659  10.679 -0.2426 -1.3465 -0.1863
  148TMC2     C 2305   1.626   3.000  10.716  0.5915 -0.7029 -0.1215
  148TMC2     O 2306   1.691   3.102  10.731 -0.6309 -0.9636  0.4812
  148TMC2     H 2307   1.869   2.966  10.818  1.8066 -1.6368  2.3373
  148TMC2    H1 2308   1.559   2.774  10.589 -0.1759  0.4135  0.0413
  148TMC2    H2 2309   1.942   2.582  10.658  1.0632  0.1412 -1.1916
  148TMC2    C7 2310   1.683   2.541  10.570  0.1390 -0.1193 -0.4937
  148TMC2    C8 2311   2.054   2.789  10.763  0.0535 -0.0010  0.5476
  148TMC2    O1 2312   1.590   2.554  10.492  0.3014 -0.5494 -0.0273
  148TMC2    O2 2313   2.123   2.769  10.660  0.4137  1.0754 -0.4468
  148TMC2    O5 2314   2.095   2.835  10.886  0.0508 -0.0720  0.3643
  148TMC2    H5 2315   2.018   2.851  10.945  0.4365  1.9543  0.3325
  149MPD2     C 2316   1.421   3.232  10.708 -0.4304 -0.6863  0.3245
  149MPD2    C1 2317   1.400   3.101  10.688 -0.4558  0.5475 -0.6394
  149MPD2    C2 2318   1.269   3.067  10.649 -1.0503  0.6824  0.8679
  149MPD2    C3 2319   1.173   3.162  10.621 -0.5481 -0.9402  0.0122
  149MPD2    C4 2320   1.201   3.292  10.644  0.1882  0.0830  0.2395
  149MPD2    C5 2321   1.326   3.326  10.681  0.5716  0.0713 -0.5825
  149MPD2     H 2322   1.255   2.963  10.621 -2.4285  1.1746 -0.2986
  149MPD2    H1 2323   1.132   3.372  10.618  0.5113  0.8576  1.7824
  149MPD2    H2 2324   1.516   3.273  10.742  0.3476 -2.2225  0.0204
  149MPD2    H3 2325   1.345   3.433  10.694  1.5832 -0.1225 -0.4436
  149MPD2     N 2326   1.044   3.143  10.563  0.0476 -0.1102 -0.5005
  149MPD2    H5 2327   0.997   3.228  10.535  1.2496  0.3106 -1.2394
  149MPD2    N1 2328   1.493   2.990  10.696 -0.0761  0.2858  0.9135
  149MPD2    H7 2329   1.451   2.906  10.658  0.1249 -0.2558  1.8941
  150TMC2    C1 2330   3.390   1.982  11.773 -0.2807 -0.1675  0.0727
  150TMC2    C2 2331   3.367   2.062  11.661 -0.6673  0.3588  0.1960
  150TMC2    C3 2332   3.483   2.120  11.615  0.3187 -0.1183  0.3687
  150TMC2    C4 2333   3.508   1.962  11.836  0.5242  0.5564  0.0837
  150TMC2    C5 2334   3.625   2.016  11.777 -0.1602 -0.1927  0.6615
  150TMC2    C6 2335   3.615   2.097  11.663 -0.3124 -0.1140  0.3553
  150TMC2     C 2336   3.273   1.951  11.842  0.4722 -0.2708  0.8927
  150TMC2     O 2337   3.288   1.915  11.961  0.2974 -0.4011 -0.4524
  150TMC2     H 2338   3.275   2.101  11.620 -0.2063  0.7075 -0.5333
  150TMC2    H1 2339   3.517   1.880  11.907 -0.0037 -1.0149 -1.6539
  150TMC2    H2 2340   3.703   2.134  11.611  0.4973 -0.7838  1.2655
  150TMC2    C7 2341   3.758   1.967  11.813 -0.2600  0.7539  0.1042
  150TMC2    C8 2342   3.465   2.200  11.489  0.2139 -0.1762 -0.6717
  150TMC2    O1 2343   3.840   1.966  11.723  0.0748  0.8075  0.5878
  150TMC2    O2 2344   3.367   2.272  11.474 -0.5448 -0.2386 -0.3804
  150TMC2    O5 2345   3.567   2.179  11.404 -0.3610 -0.3644 -0.0052
  150TMC2    H5 2346   3.644   2.122  11.427 -0.3823 -0.3361  0.1339
  151MPD2     C 2347   2.774   1.842  11.875 -0.7292  0.3698 -0.5934
  151MPD2    C1 2348   2.805   1.864  11.743  0.2758  0.7572  0.2767
  151MPD2    C2 2349   2.927   1.912  11.711  1.1635 -1.0337 -0.0593
  151MPD2    C3 2350   3.026   1.934  11.814  0.2614 -0.0430  0.5350
  151MPD2    C4 2351   2.983   1.926  11.947 -0.6355  0.8487 -0.0433
  151MPD2    C5 2352   2.862   1.871  11.979 -1.1303  0.2108 -0.7315
  151MPD2     H 2353   2.959   1.922  11.608 -0.4680  3.4135 -0.1267
  151MPD2    H1 2354   3.061   1.942  12.021  0.4976 -2.4644 -0.5462
  151MPD2    H2 2355   2.673   1.804  11.890  0.0843 -2.5592 -2.5276
  151MPD2    H3 2356   2.833   1.847  12.081  0.1793 -0.0231 -0.4077
  151MPD2     N 2357   3.158   1.963  11.772 -0.1444 -0.0233 -0.1747
  151MPD2    H5 2358   3.164   1.978  11.672 -2.8757  1.4227 -0.1233
  151MPD2    N1 2359   2.708   1.820  11.639 -0.0196 -0.4106  0.5067
  151MPD2    H7 2360   2.636   1.751  11.657  1.8190 -2.7656 -1.1868
  152TMC2    C1 2361   3.176   1.432  12.791  0.7996  0.1147  1.1804
  152TMC2    C2 2362   3.245   1.318  12.822 -0.0974 -0.1428 -0.4748
  152TMC2    C3 2363   3.384   1.329  12.835  0.7228  0.5109  0.1226
  152TMC2    C4 2364   3.243   1.547  12.753  0.0561  0.0824  0.0660
  152TMC2    C5 2365   3.385   1.545  12.746  0.5438  0.5116 -0.8534
  152TMC2    C6 2366   3.457   1.438  12.794  0.1613 -0.3089 -0.3975
  152TMC2     C 2367   3.034   1.439  12.781  0.4261  1.1525  0.4175
  152TMC2     O 2368   2.995   1.553  12.743  0.2130 -0.0546  0.0566
  152TMC2     H 2369   3.192   1.238  12.872  0.8625  0.3562  1.3175
  152TMC2    H1 2370   3.189   1.641  12.752 -0.3598 -0.1490  1.2915
  152TMC2    H2 2371   3.565   1.431  12.785  0.0411 -1.0373 -1.3384
  152TMC2    C7 2372   3.446   1.674  12.716 -0.7428 -0.4223  0.3578
  152TMC2    C8 2373   3.445   1.213  12.894  0.5339 -0.3215  0.0115
  152TMC2    O1 2374   3.374   1.758  12.664  0.5298 -0.4631 -0.3006
  152TMC2    O2 2375   3.378   1.114  12.923 -0.4431 -0.3053 -0.0250
  152TMC2    O5 2376   3.535   1.264  12.985  0.1061  0.0197 -0.5209
  152TMC2    H5 2377   3.572   1.355  12.979 -0.7492  0.5764  2.5091
  153MPD2     C 2378   2.765   1.184  12.863 -0.2121  0.1406 -0.3306
  153MPD2    C1 2379   2.824   1.309  12.839  0.6543  0.3880 -0.0805
  153MPD2    C2 2380   2.742   1.425  12.824  0.4513  0.1671  0.6530
  153MPD2    C3 2381   2.602   1.414  12.837  0.6223 -0.6055  0.7936
  153MPD2    C4 2382   2.547   1.291  12.865  0.0226 -0.1050  0.5856
  153MPD2    C5 2383   2.625   1.178  12.878  0.8519 -0.2602  0.5893
  153MPD2     H 2384   2.780   1.526  12.815  2.0165 -0.6449 -1.7828
  153MPD2    H1 2385   2.440   1.282  12.884  0.0495  0.4792  1.0179
  153MPD2    H2 2386   2.823   1.094  12.878  1.0738  0.8092 -1.3720
  153MPD2    H3 2387   2.567   1.088  12.894 -0.1626  0.0844 -1.1316
  153MPD2     N 2388   2.529   1.528  12.810 -0.6949 -0.4469  0.3446
  153MPD2    H5 2389   2.587   1.610  12.792 -1.7058  0.3375  0.6976
  153MPD2    N1 2390   2.968   1.323  12.820 -0.4218 -0.3954 -0.7605
  153MPD2    H7 2391   3.028   1.244  12.842  0.3593  0.8798  1.6379
  154TMC2    C1 2392   0.504   1.310   0.203  0.3718 -0.1072  0.4422
  154TMC2    C2 2393   0.568   1.423   0.166  0.6625  0.5276  0.1580
  154TMC2    C3 2394   0.689   1.412   0.100  0.7060  0.8653  0.3228
  154TMC2    C4 2395   0.568   1.196   0.179  0.6661  0.7538  0.1567
  154TMC2    C5 2396   0.683   1.186   0.102  0.0350 -0.2371  0.0064
  154TMC2    C6 2397   0.752   1.299   0.056 -0.2141 -0.2860 -0.0921
  154TMC2     C 2398   0.374   1.327   0.265  0.2240  0.3164  0.7612
  154TMC2     O 2399   0.335   1.443   0.277  0.1008 -0.2163  0.1874
  154TMC2     H 2400   0.519   1.519   0.175  0.2983  0.2677  0.9464
  154TMC2    H1 2401   0.524   1.100   0.201 -2.7279  2.0701 -0.9490
  154TMC2    H2 2402   0.841   1.301  17.753 -1.1133 -3.7592 -1.5012
  154TMC2    C7 2403   0.707   1.056   0.043  0.0925  0.0308 -0.3139
  154TMC2    C8 2404   0.757   1.527   0.043 -0.2356 -0.0927 -0.4212
  154TMC2    O1 2405   0.631   0.963   0.075  0.2975 -0.5965  0.2208
  154TMC2    O2 2406   0.844   1.510  17.716 -0.4398  0.0553  1.1334
  154TMC2    O5 2407   0.695   1.635   0.088 -0.4365 -0.9744  0.0873
  154TMC2    H5 2408   0.645   1.638   0.173 -1.8158 -1.2810 -0.7145
  155MPD2     C 2409   0.149   1.088   0.439  0.5339 -0.3396 -0.3682
  155MPD2    C1 2410   0.197   1.211   0.387  0.6525 -0.1157 -0.6130
  155MPD2    C2 2411   0.112   1.323   0.398 -0.1035  0.9117 -0.1708
  155MPD2    C3 2412   4.727   1.313   0.466 -0.3540 -0.3976 -0.5998
  155MPD2    C4 2413   4.696   1.187   0.516 -0.8243  0.2579  1.1867
  155MPD2    C5 2414   0.033   1.080   0.495  0.7350 -0.0019  0.7509
  155MPD2     H 2415   0.129   1.424   0.360  0.6633  0.5632 -0.7559
  155MPD2    H1 2416   4.599   1.158   0.555 -0.1088 -1.5399  1.5764
  155MPD2    H2 2417   0.196   0.993   0.414 -0.5890 -0.4666 -1.9945
  155MPD2    H3 2418   0.006   0.984   0.539 -1.2958 -0.5413 -1.5918
  155MPD2     N 2419   4.647   1.424   0.482  0.2535  0.2466  0.0515
  155MPD2    H5 2420   4.698   1.511   0.471  1.4415 -0.5938 -1.0293
  155MPD2    N1 2421   0.319   1.218   0.321  0.1362 -0.4085  0.5933
  155MPD2    H7 2422   0.368   1.129   0.311  0.2481 -0.1712 -0.9748
  156TMC2    C1 2423   3.493   4.422  11.726  0.2549 -1.0838 -0.9054
  156TMC2    C2 2424   3.511   4.338  11.614 -0.5784  0.2467  0.1704
  156TMC2    C3 2425   3.467   4.385  11.490 -0.2205  0.1103 -0.3047
  156TMC2    C4 2426   3.407   4.531  11.720  0.0365 -0.7026  0.3320
  156TMC2    C5 2427   3.362   4.569  11.599  0.7639 -0.2312  0.1913
  156TMC2    C6 2428   3.391   4.499  11.486  0.4526  0.0157  0.8237
  156TMC2     C 2429   3.548   4.391  11.858 -0.1566 -0.3657  0.0982
  156TMC2     O 2430   3.519   4.466  11.948  0.2930  0.8846 -0.2418
  156TMC2     H 2431   3.564   4.244  11.619 -1.8394 -0.5282 -0.7975
  156TMC2    H1 2432   3.383   4.593  11.806 -0.9109  0.4097 -0.7318
  156TMC2    H2 2433   3.355   4.534  11.390  0.9187 -2.0635 -0.1075
  156TMC2    C7 2434   3.326   4.713  11.587 -0.4365 -0.7458 -0.3422
  156TMC2    C8 2435   3.445   4.280  11.400 -0.1087  0.4877  0.3029
  156TMC2    O1 2436   3.365   0.038  11.494  0.5482 -0.0575  0.4497
  156TMC2    O2 2437   3.453   4.157  11.414  0.3959 -0.7230  0.2091
  156TMC2    O5 2438   3.423   4.334  11.272  0.0244  0.0473 -0.4860
  156TMC2    H5 2439   3.447   4.428  11.256  0.1623  0.3392  1.4197
  157MPD2     C 2440   3.816   4.145  11.936 -0.3312  0.4205 -0.7645
  157MPD2    C1 2441   3.726   4.244  11.962  0.5231  0.2372  0.1311
  157MPD2    C2 2442   3.714   4.303  12.087 -0.0823 -0.1057  0.0346
  157MPD2    C3 2443   3.815   4.274  12.177 -0.0458 -0.1939 -0.6471
  157MPD2    C4 2444   3.916   4.182  12.145 -0.3185 -0.4407 -0.3829
  157MPD2    C5 2445   3.917   4.114  12.025  0.1096  0.0260  0.6440
  157MPD2     H 2446   3.626   4.352  12.127 -1.9968 -2.1932 -1.6735
  157MPD2    H1 2447   3.994   4.152  12.213  0.7491  3.3449  0.0697
  157MPD2    H2 2448   3.822   4.088  11.844 -3.7910 -2.7113  0.9809
  157MPD2    H3 2449   4.000   4.048  12.008 -0.0220 -0.7882  3.2217
  157MPD2     N 2450   3.804   4.333  12.302  0.4906  0.6763  0.5740
  157MPD2    H5 2451   3.736   4.407  12.319  0.6161  0.9324 -0.0343
  157MPD2    N1 2452   3.637   4.280  11.856  0.1169 -0.0094  0.2150
  157MPD2    H7 2453   3.667   4.242  11.767 -2.4471 -0.8504 -0.2878
  158TMC2    C1 2454   3.552   2.618  13.155 -0.6009 -0.1407 -1.0254
  158TMC2    C2 2455   3.570   2.633  13.021 -0.1357  0.0472  0.1956
  158TMC2    C3 2456   3.503   2.729  12.953 -0.3605 -0.0829  0.0086
  158TMC2    C4 2457   3.482   2.705  13.235  0.4974 -0.9793  0.3294
  158TMC2    C5 2458   3.423   2.812  13.174  0.0509 -0.0336 -0.0226
  158TMC2    C6 2459   3.428   2.815  13.033  0.3290 -0.1636  0.1285
  158TMC2     C 2460   3.656   2.533  13.216 -0.4954 -0.7334  0.3511
  158TMC2     O 2461   3.746   2.495  13.140  0.1202  0.0541  0.1165
  158TMC2     H 2462   3.618   2.548  12.974 -3.4103 -1.3408 -0.6443
  158TMC2    H1 2463   3.501   2.713  13.342  1.5406 -1.8377  0.2141
  158TMC2    H2 2464   3.391   2.905  12.985 -0.3237  0.7269  2.2610
  158TMC2    C7 2465   3.308   2.887  13.234 -0.3965 -0.5266  0.5042
  158TMC2    C8 2466   3.470   2.696  12.811  0.4591 -0.0321  0.7250
  158TMC2    O1 2467   3.286   2.994  13.178  0.0963 -0.0981 -0.4632
  158TMC2    O2 2468   3.560   2.679  12.732 -0.5336  0.6759  0.0480
  158TMC2    O5 2469   3.345   2.735  12.781 -0.5607 -0.0403 -0.8583
  158TMC2    H5 2470   3.288   2.739  12.861  0.0378  1.0743 -0.4899
  159MPD2     C 2471   3.916   2.309  13.592 -0.2253 -0.8166 -0.7591
  159MPD2    C1 2472   3.779   2.297  13.619  0.4736  0.1353 -0.2689
  159MPD2    C2 2473   3.689   2.359  13.533  0.7370 -0.2106  0.0235
  159MPD2    C3 2474   3.732   2.428  13.424 -0.1449 -0.0208 -0.0727
  159MPD2    C4 2475   3.870   2.443  13.406 -0.0059  0.1675  0.2981
  159MPD2    C5 2476   3.965   2.376  13.487 -0.0234 -0.3525 -0.0486
  159MPD2     H 2477   3.582   2.353  13.550  0.4126 -1.2475 -2.4332
  159MPD2    H1 2478   3.905   2.508  13.326  0.1539  1.6061  1.5278
  159MPD2    H2 2479   3.988   2.259  13.655 -0.9828 -0.3003  0.5111
  159MPD2    H3 2480   4.067   2.383  13.450  1.4943 -1.4478  4.0013
  159MPD2     N 2481   3.635   2.501  13.345  0.2611  0.0951  0.0125
  159MPD2    H5 2482   3.537   2.501  13.371  0.0341  1.1198 -0.8613
  159MPD2    N1 2483   3.736   2.245  13.746  0.4965 -0.4357  0.5705
  159MPD2    H7 2484   3.807   2.238  13.819 -0.0023 -1.5182  0.9539
  160TMC2    C1 2485   3.038   0.865   2.336  0.4803  0.0128 -0.1852
  160TMC2    C2 2486   3.010   0.820   2.466  0.2644 -0.3293  0.4059
  160TMC2    C3 2487   3.003   0.688   2.480 -0.2319 -0.0381 -0.2038
  160TMC2    C4 2488   3.044   0.774   2.231 -1.1737 -0.4038  0.0102
  160TMC2    C5 2489   3.020   0.640   2.251 -0.3830  0.0632  0.2072
  160TMC2    C6 2490   2.998   0.594   2.380  0.4267 -0.3117  0.9170
  160TMC2     C 2491   3.063   1.010   2.308  0.2015  0.0778  0.3267
  160TMC2     O 2492   3.121   1.077   2.389 -0.2825 -0.3557 -0.1795
  160TMC2     H 2493   3.019   0.880   2.555  1.8235  0.1824 -0.1000
  160TMC2    H1 2494   3.073   0.813   2.134  0.3403  0.4748  0.8254
  160TMC2    H2 2495   2.999   0.488   2.403 -0.2106 -0.9894 -2.1531
  160TMC2    C7 2496   3.075   0.538   2.164  0.7787 -0.0850  0.0560
  160TMC2    C8 2497   3.004   0.619   2.610 -0.0339 -0.1233  0.0996
  160TMC2    O1 2498   3.027   0.424   2.171  0.6605  0.4484 -0.1175
  160TMC2    O2 2499   2.948   0.513   2.636 -0.4323 -0.5831 -0.1665
  160TMC2    O5 2500   3.118   0.659   2.667 -0.4586  0.0776 -0.3232
  160TMC2    H5 2501   3.169   0.729   2.622 -1.4903  1.0616  0.0063
  161MPD2     C 2502   3.072   1.275   2.181  0.3278 -0.2322 -0.3948
  161MPD2    C1 2503   2.984   1.175   2.142 -0.0980 -0.3339  0.4769
  161MPD2    C2 2504   2.889   1.194   2.050  0.2847  0.0316  0.2552
  161MPD2    C3 2505   2.871   1.314   1.989 -0.6821 -0.1840 -0.0588
  161MPD2    C4 2506   2.949   1.421   2.032  0.4815 -0.0903 -0.3664
  161MPD2    C5 2507   3.050   1.400   2.126  0.7029  0.2499 -0.2486
  161MPD2     H 2508   2.821   1.113   2.028 -0.0853  0.1985  0.8021
  161MPD2    H1 2509   2.927   1.523   2.001 -2.1709 -0.6433 -0.3167
  161MPD2    H2 2510   3.154   1.263   2.250 -1.8256 -0.4895  2.1356
  161MPD2    H3 2511   3.111   1.477   2.172  1.6125 -0.9869  0.6203
  161MPD2     N 2512   2.772   1.338   1.894 -0.2117  0.8099 -0.8097
  161MPD2    H5 2513   2.759   1.437   1.878 -0.9875  1.2550  2.3978
  161MPD2    N1 2514   2.995   1.046   2.196 -0.1327  0.0552 -0.2886
  161MPD2    H7 2515   2.930   0.977   2.160  0.4040  0.0640 -1.2858
  162TMC2    C1 2516   1.146   3.258   0.436  0.1714  0.0082  0.0682
  162TMC2    C2 2517   1.094   3.312   0.324  0.1588 -0.3591  0.3308
  162TMC2    C3 2518   0.990   3.394   0.338 -0.8184  0.0367 -0.4493
  162TMC2    C4 2519   1.103   3.295   0.560  0.3675 -0.6505  0.0598
  162TMC2    C5 2520   0.990   3.367   0.568 -0.1576  0.1362 -0.0050
  162TMC2    C6 2521   0.931   3.421   0.461 -0.1194 -0.0189 -0.3390
  162TMC2     C 2522   1.267   3.174   0.425 -0.5543 -0.3425  0.2088
  162TMC2     O 2523   1.292   3.136   0.315  0.6676 -0.0384 -0.1721
  162TMC2     H 2524   1.133   3.286   0.227  0.8663  0.4173  0.4115
  162TMC2    H1 2525   1.153   3.260   0.650  1.2060  0.5370  0.0536
  162TMC2    H2 2526   0.839   3.478   0.470  0.1679 -0.3662  4.4304
  162TMC2    C7 2527   0.917   3.391   0.694  0.1744  0.0496  0.9292
  162TMC2    C8 2528   0.909   3.404   0.214  0.5443  0.0686 -0.5793
  162TMC2    O1 2529   0.824   3.470   0.683  0.0391  0.3617 -0.4915
  162TMC2    O2 2530   0.931   3.332   0.123 -0.0552  0.1870  0.5874
  162TMC2    O5 2531   0.854   3.528   0.207  0.7203  0.0496  0.0265
  162TMC2    H5 2532   0.874   3.589   0.281  0.1064 -0.6880  0.7927
  163MPD2     C 2533   1.676   2.917   0.613 -0.1419  0.1869  0.3969
  163MPD2    C1 2534   1.609   2.901   0.494  0.0533 -0.2979  0.0207
  163MPD2    C2 2535   1.497   2.979   0.464 -0.7452 -0.2693  1.5059
  163MPD2    C3 2536   1.456   3.084   0.552  0.3195  0.0189  0.0290
  163MPD2    C4 2537   1.535   3.101   0.664 -0.5727 -0.2440  0.7387
  163MPD2    C5 2538   1.631   3.018   0.700  0.2518 -0.2223  0.3589
  163MPD2     H 2539   1.440   2.959   0.374 -0.7723 -0.5312  1.5800
  163MPD2    H1 2540   1.506   3.180   0.732 -0.9428  0.5196 -0.3175
  163MPD2    H2 2541   1.760   2.851   0.637  0.1310  0.5235  0.3613
  163MPD2    H3 2542   1.679   3.035   0.796 -0.6693 -1.8867  1.1056
  163MPD2     N 2543   1.336   3.161   0.540  0.2834 -0.6781 -0.4749
  163MPD2    H5 2544   1.315   3.216   0.623 -1.3826 -2.8081  0.5210
  163MPD2    N1 2545   1.664   2.802   0.406 -0.0237  0.3418  0.5981
  163MPD2    H7 2546   1.742   2.745   0.438  1.0165  0.6691 -1.3837
  164TMC2    C1 2547   1.979   2.470  11.028 -0.5131 -0.4507 -0.2142
  164TMC2    C2 2548   2.052   2.543  11.117  0.2032  0.5820 -0.1285
  164TMC2    C3 2549   1.989   2.616  11.220  0.7120  0.5231 -0.5949
  164TMC2    C4 2550   1.843   2.473  11.038  0.1133 -0.7106 -0.4281
  164TMC2    C5 2551   1.777   2.542  11.138 -0.0396 -0.0263  0.1025
  164TMC2    C6 2552   1.850   2.617  11.225  0.0233  0.2770  0.1511
  164TMC2     C 2553   2.040   2.442  10.900 -0.3573 -0.7568  0.1865
  164TMC2     O 2554   1.964   2.411  10.809 -0.1958 -0.3655  0.0078
  164TMC2     H 2555   2.156   2.571  11.102  0.0133  1.9852  1.1980
  164TMC2    H1 2556   1.783   2.415  10.968  0.6136 -1.6402 -0.0944
  164TMC2    H2 2557   1.799   2.678  11.298  0.2543 -0.8126  1.2274
  164TMC2    C7 2558   1.657   2.610  11.108  0.4173  0.4814 -0.1724
  164TMC2    C8 2559   2.056   2.728  11.280 -0.3291 -0.2376 -0.2597
  164TMC2    O1 2560   1.645   2.726  11.151  0.1109 -0.1205  0.2301
  164TMC2    O2 2561   2.126   2.799  11.211 -0.4082 -0.2861  0.0840
  164TMC2    O5 2562   2.002   2.757  11.400  0.1733  0.1609 -0.2045
  164TMC2    H5 2563   1.954   2.682  11.441 -1.5088  0.1613 -2.1790
  165TMC2    C1 2564   2.804   4.737   1.197  0.6651 -0.9861  0.3457
  165TMC2    C2 2565   2.803   4.657   1.081  0.3128 -0.1006 -0.4192
  165TMC2    C3 2566   2.904   4.564   1.079  0.2239  0.3183 -0.0013
  165TMC2    C4 2567   2.896   4.729   1.300 -0.6487 -0.1127 -0.7635
  165TMC2    C5 2568   3.003   4.645   1.278  0.1644  0.4715  0.1642
  165TMC2    C6 2569   3.008   4.573   1.158 -0.1938 -0.1671 -0.0147
  165TMC2     C 2570   2.696   0.097   1.213  0.9643 -0.3751 -0.3721
  165TMC2     O 2571   2.677   0.153   1.325 -0.1567  0.3354  0.0142
  165TMC2     H 2572   2.722   4.652   1.009 -0.1051 -0.7313  0.0901
  165TMC2    H1 2573   2.917   0.075   1.362 -0.3258 -0.5396 -0.2828
  165TMC2    H2 2574   3.098   4.516   1.138  2.2239  2.4461  3.2638
  165TMC2    C7 2575   3.128   4.661   1.356 -0.4580  0.0766 -0.2650
  165TMC2    C8 2576   2.918   4.481   0.964  0.2007  0.0736 -0.6046
  165TMC2    O1 2577   3.228   4.609   1.307  0.7953 -0.1940  0.2884
  165TMC2    O2 2578   2.925   4.547   0.857  0.2323 -0.1108 -0.4480
  165TMC2    O5 2579   2.977   4.360   0.991 -0.1021 -0.2754 -0.1145
  165TMC2    H5 2580   2.958   4.325   1.080 -0.2745  0.2353  0.0502
  166MPD2     C 2581   2.277   0.346   1.048  0.4280  0.2503 -0.7313
  166MPD2    C1 2582   2.315   0.327   1.177 -0.1299  0.3474  0.8339
  166MPD2    C2 2583   2.436   0.257   1.192 -0.0739 -0.0600  0.0109
  166MPD2    C3 2584   2.500   0.196   1.085  0.8198 -0.3648  0.0866
  166MPD2    C4 2585   2.455   0.218   0.962 -0.1708  0.8876 -0.2555
  166MPD2    C5 2586   2.348   0.298   0.944  0.4959  0.1741 -0.1104
  166MPD2     H 2587   2.471   0.235   1.292 -0.7825 -2.2206 -0.2155
  166MPD2    H1 2588   2.506   0.185   0.872 -0.0336  2.4491 -0.7604
  166MPD2    H2 2589   2.182   0.396   1.030  0.6694  0.8787 -0.2665
  166MPD2    H3 2590   2.306   0.314   0.845  0.8503  0.3941 -0.2234
  166MPD2     N 2591   2.622   0.116   1.096 -0.3782 -0.0970  0.1200
  166MPD2    H5 2592   2.659   0.075   1.011 -2.7219  1.0524 -1.4753
  166MPD2    N1 2593   2.233   0.372   1.288  0.4429 -0.2977 -0.5046
  166MPD2    H7 2594   2.148   0.424   1.267 -0.1822 -0.9352  0.4152
  167TMC2    C1 2595   1.442   3.386  12.646 -0.0970 -0.0420 -0.0248
  167TMC2    C2 2596   1.503   3.496  12.694 -0.1579  0.1061  0.1041
  167TMC2    C3 2597   1.581   3.488  12.799  0.1443  1.4602  0.1440
  167TMC2    C4 2598   1.470   3.261  12.698 -0.0184 -0.7517 -0.6020
  167TMC2    C5 2599   1.544   3.255  12.815 -0.3337  0.7123  0.0263
  167TMC2    C6 2600   1.590   3.373  12.874 -0.7790  0.1817  0.1607
  167TMC2     C 2601   1.377   3.397  12.515 -0.9477  0.2726  0.5001
  167TMC2     O 2602   1.401   3.504  12.458 -0.6007 -0.2983 -0.0763
  167TMC2     H 2603   1.491   3.596  12.655 -0.0738 -0.1997 -0.7039
  167TMC2    H1 2604   1.451   3.170  12.642  2.5739 -1.5654 -0.1744
  167TMC2    H2 2605   1.640   3.363  12.969  0.5744 -1.5539 -0.7233
  167TMC2    C7 2606   1.530   3.139  12.906 -0.3005  0.2229 -0.2878
  167TMC2    C8 2607   1.625   3.616  12.845 -0.1269 -0.1257 -0.3752
  167TMC2    O1 2608   1.558   3.144  13.027  0.1009 -0.0843  0.0947
  167TMC2    O2 2609   1.593   3.730  12.812  0.3031 -0.6785 -0.5498
  167TMC2    O5 2610   1.729   3.581  12.926 -0.5436 -0.3945  0.4797
  167TMC2    H5 2611   1.746   3.484  12.932 -1.3883 -0.5631  0.1320
  168MPD2     C 2612   1.259   3.356  12.242  0.6206  0.5706  0.2531
  168MPD2    C1 2613   1.275   3.256  12.336 -0.3648 -0.9197  0.1584
  168MPD2    C2 2614   1.234   3.127  12.309 -0.6159 -0.4795 -0.4701
  168MPD2    C3 2615   1.195   3.087  12.184  0.4045  1.0357 -0.0715
  168MPD2    C4 2616   1.189   3.191  12.085 -0.5850 -0.5275 -0.3859
  168MPD2    C5 2617   1.221   3.321  12.120  0.1793  0.1834  0.5028
  168MPD2     H 2618   1.245   3.057  12.391  0.0943 -1.9263 -1.8233
  168MPD2    H1 2619   1.164   3.174  11.980  1.8885 -2.5290 -0.6434
  168MPD2    H2 2620   1.274   3.460  12.267  0.1830  0.7746 -0.3268
  168MPD2    H3 2621   1.210   3.401  12.047 -0.3463  0.2286  0.6346
  168MPD2     N 2622   1.155   2.954  12.154  0.0701 -0.1570 -0.7422
  168MPD2    H5 2623   1.133   2.920  12.061  0.6677  1.4980 -1.4958
  168MPD2    N1 2624   1.324   3.283  12.468 -0.3880  0.2001 -0.2803
  168MPD2    H7 2625   1.304   3.203  12.527  1.2698  0.1040  0.1642
  169MPD1     C 2626   2.899   2.390   9.322  0.3075 -0.1425 -0.2303
  169MPD1    C1 2627   2.972   2.280   9.371 -0.7462 -0.2177 -0.4898
  169MPD1    C2 2628   3.078   2.316   9.452  0.1601  0.0437  0.2322
  169MPD1    C3 2629   3.119   2.450   9.457 -0.1122 -0.2973  0.4249
  169MPD1    C4 2630   3.056   2.555   9.393  0.6324  0.9804 -0.0321
  169MPD1    C5 2631   2.939   2.523   9.325  0.3286  0.0666  0.0064
  169MPD1     H 2632   3.134   2.241   9.506 -1.2475  0.4206  2.2100
  169MPD1    H1 2633   3.083   2.659   9.401 -0.7702  1.3014  0.5125
  169MPD1    H2 2634   2.812   2.370   9.259 -0.3805  1.0336  0.3481
  169MPD1    H3 2635   2.875   2.597   9.278 -1.1150 -1.1688  0.0110
  169MPD1     N 2636   3.222   2.470   9.552 -0.1695 -1.0044 -0.1944
  169MPD1    H5 2637   3.276   2.391   9.587  0.6477 -0.1491  0.4842
  169MPD1    N1 2638   2.917   2.154   9.381 -0.6526 -0.0125 -0.3773
  169MPD1    H6 2639   2.843   2.127   9.316  1.1720 -0.5766 -2.2319
  169MPD1    H7 2640   2.990   2.083   9.379 -1.2003 -0.6140  0.6662
  170MPD1     C 2641   2.759   4.502  12.851 -0.2086  0.6917 -0.1608
  170MPD1    C1 2642   2.627   4.533  12.870  0.6643  1.1625 -0.0292
  170MPD1    C2 2643   2.591   4.568  13.000 -0.1303  0.0798  0.0817
  170MPD1    C3 2644   2.673   4.547  13.105  0.9342  0.2999 -0.2208
  170MPD1    C4 2645   2.809   4.508  13.086  0.3361 -0.1745  0.0023
  170MPD1    C5 2646   2.846   4.484  12.957 -0.0689 -0.4569  0.2647
  170MPD1     H 2647   2.491   4.603  13.023 -0.8807 -1.4208 -0.9442
  170MPD1    H1 2648   2.876   4.496  13.171 -2.8710  1.2275  2.7238
  170MPD1    H2 2649   2.794   4.481  12.751  2.1111  0.9644  0.5799
  170MPD1    H3 2650   2.943   4.439  12.944 -0.5163 -1.1613 -0.6944
  170MPD1     N 2651   2.609   4.575  13.225 -0.0690 -0.1166  0.1546
  170MPD1    H5 2652   2.513   4.607  13.213  0.4045  1.2368  0.0141
  170MPD1    N1 2653   2.548   4.581  12.759 -0.7112 -0.1656  0.1134
  170MPD1    H6 2654   2.549   4.528  12.672  1.1156  1.5844 -0.9124
  170MPD1    H7 2655   2.449   4.587  12.782 -0.7611 -0.5809  0.0061
  171MPD1     C 2656   0.930   1.071  15.154  0.6523  0.1467 -0.1736
  171MPD1    C1 2657   0.991   0.966  15.095 -0.2508 -0.3951 -0.0044
  171MPD1    C2 2658   1.027   0.860  15.179 -0.2109  0.6442 -0.3148
  171MPD1    C3 2659   1.015   0.860  15.313  0.5780  0.3129 -0.0489
  171MPD1    C4 2660   0.954   0.969  15.372  0.2263  0.5229 -0.4575
  171MPD1    C5 2661   0.909   1.071  15.290  0.7419  0.7386  0.0814
  171MPD1     H 2662   1.074   0.773  15.134  3.3129  2.4660 -0.1986
  171MPD1    H1 2663   0.941   0.971  15.479 -0.0826  0.6641 -0.4969
  171MPD1    H2 2664   0.892   1.146  15.086  0.4675 -0.8826 -1.2096
  171MPD1    H3 2665   0.866   1.158  15.337  0.1306  0.4499  0.0514
  171MPD1     N 2666   1.056   0.748  15.402  0.2730  0.2328 -0.1893
  171MPD1    H5 2667   1.037   0.757  15.502  0.3439 -0.8561 -0.0770
  171MPD1    N1 2668   0.971   0.956  14.954 -0.6574  0.5187 -0.3489
  171MPD1    H6 2669   0.960   1.050  14.916 -0.9514  1.4215  1.9586
  171MPD1    H7 2670   1.033   0.902  14.895 -0.7819  1.9137 -1.7708
  172MPD1     C 2671   0.577   3.909   0.122 -0.4313 -0.3971 -0.2437
  172MPD1    C1 2672   0.516   3.889   0.242 -0.1282 -0.8341 -0.9285
  172MPD1    C2 2673   0.497   4.010   0.321 -0.4799 -0.0017  0.3559
  172MPD1    C3 2674   0.560   4.125   0.282 -0.9012 -0.1263 -0.9471
  172MPD1    C4 2675   0.621   4.138   0.167 -0.8215 -0.3050 -0.5135
  172MPD1    C5 2676   0.640   4.028   0.084 -0.5509 -0.3689  0.4255
  172MPD1     H 2677   0.462   3.990   0.422  0.6281 -3.6607  0.0274
  172MPD1    H1 2678   0.660   4.236   0.144 -0.0680 -0.5837 -0.4343
  172MPD1    H2 2679   0.596   3.822   0.059  0.0954  0.5753 -1.4437
  172MPD1    H3 2680   0.698   4.026  17.751 -0.6030  0.2396  0.3843
  172MPD1     N 2681   0.568   4.241   0.364 -0.0960 -0.0929 -0.6369
  172MPD1    H5 2682   0.630   4.316   0.336 -2.0694  1.2057 -1.6139
  172MPD1    N1 2683   0.441   3.770   0.273  0.2228 -0.4457 -0.7227
  172MPD1    H6 2684   0.481   3.686   0.231 -0.1796 -0.7882 -0.4217
  172MPD1    H7 2685   0.438   3.763   0.374  0.0545 -3.3663 -0.9302
  173MPD1     C 2686   1.803   0.188  13.664  0.8242 -0.4763 -0.3458
  173MPD1    C1 2687   1.929   0.162  13.702  0.0902 -0.4405 -0.4758
  173MPD1    C2 2688   1.944   0.119  13.836 -0.5338  0.2368  0.4921
  173MPD1    C3 2689   1.828   0.097  13.914 -0.4991 -0.4196  0.0899
  173MPD1    C4 2690   1.706   0.129  13.869  0.1278 -0.0957 -0.5036
  173MPD1    C5 2691   1.697   0.171  13.744  0.1607 -0.3130  0.1070
  173MPD1     H 2692   2.042   0.099  13.879  0.4676  1.4198 -1.2529
  173MPD1    H1 2693   1.614   0.111  13.925  0.0575  0.2114 -0.5211
  173MPD1    H2 2694   1.776   0.213  13.562 -2.0259 -1.0932  0.2720
  173MPD1    H3 2695   1.599   0.198  13.706  0.2315 -0.5902 -0.2684
  173MPD1     N 2696   1.847   0.029  14.038 -0.3858  0.5612  0.8397
  173MPD1    H5 2697   1.937   4.725  14.052 -0.1098  1.5768  2.2308
  173MPD1    N1 2698   2.044   0.169  13.618  0.0529  0.1702 -0.0080
  173MPD1    H6 2699   2.022   0.213  13.529 -1.4673 -0.6052 -0.0318
  173MPD1    H7 2700   2.113   0.229  13.661  0.7390  0.7892 -1.9393
  174MPD1     C 2701   2.425   4.157  14.494 -0.2387  0.2997 -0.4607
  174MPD1    C1 2702   2.398   4.202  14.366 -0.5269  0.2214 -0.4741
  174MPD1    C2 2703   2.277   4.263  14.340  0.4612 -0.3598 -0.1964
  174MPD1    C3 2704   2.197   4.297  14.445  0.2079 -0.3768  0.2831
  174MPD1    C4 2705   2.225   4.245  14.574  0.0332 -0.1600 -0.2140
  174MPD1    C5 2706   2.334   4.169  14.592  0.3656 -0.0829 -0.5247
  174MPD1     H 2707   2.248   4.286  14.239 -0.2733  1.6660  0.4868
  174MPD1    H1 2708   2.157   4.263  14.656 -0.0073  1.4898 -0.6075
  174MPD1    H2 2709   2.517   4.103  14.511  1.4605  2.9960 -1.1306
  174MPD1    H3 2710   2.355   4.140  14.694 -1.7504 -0.9811 -0.3430
  174MPD1     N 2711   2.082   4.377  14.435 -0.2848  0.4741  0.3889
  174MPD1    H5 2712   2.026   4.401  14.516 -1.0890  0.7551 -0.2399
  174MPD1    N1 2713   2.484   4.170  14.264  0.3308  0.3410  0.3663
  174MPD1    H6 2714   2.512   4.246  14.202  0.5385  0.0578  0.1097
  174MPD1    H7 2715   2.574   4.151  14.308 -0.3094 -0.7770  1.1976
  175MPD1     C 2716   4.575   1.587  15.606 -0.0803  0.1278  1.1081
  175MPD1    C1 2717   4.602   1.478  15.524  0.2761  0.5654 -0.6611
  175MPD1    C2 2718   4.581   1.350  15.567  0.1451 -0.1757  0.5906
  175MPD1    C3 2719   4.531   1.330  15.693  0.8375  0.1049  0.5149
  175MPD1    C4 2720   4.506   1.438  15.777  0.0444  0.5182 -0.0527
  175MPD1    C5 2721   4.532   1.564  15.737 -0.1418  0.5379 -0.5723
  175MPD1     H 2722   4.600   1.261  15.509 -3.0051 -1.5138  1.6120
  175MPD1    H1 2723   4.449   1.425  15.868  0.1726 -0.8557 -0.1633
  175MPD1    H2 2724   4.593   1.689  15.577 -2.7049  0.6107  1.1648
  175MPD1    H3 2725   4.508   1.651  15.797  0.7308 -0.2712  0.9508
  175MPD1     N 2726   4.515   1.208  15.751  0.3688  0.4401 -0.5863
  175MPD1    H5 2727   4.463   1.204  15.838  0.9161 -1.7775 -0.3526
  175MPD1    N1 2728   4.652   1.497  15.394  1.0576  0.2230 -0.4968
  175MPD1    H6 2729   0.003   1.541  15.401  0.0118  2.5848 -1.9132
  175MPD1    H7 2730   4.655   1.413  15.337  0.4604 -0.8762  1.0916
  176MPD1     C 2731   1.600   2.472  17.692  0.9378  0.0393  0.0477
  176MPD1    C1 2732   1.732   2.484  17.655 -0.4269  0.7573 -0.4562
  176MPD1    C2 2733   1.774   2.607  17.617 -0.7032 -0.7227 -0.0129
  176MPD1    C3 2734   1.701   2.722  17.621 -0.2736  0.0587  0.4397
  176MPD1    C4 2735   1.577   2.710  17.668 -0.0599 -0.3177 -0.2304
  176MPD1    C5 2736   1.526   2.583  17.697  0.7826 -0.4271  0.4507
  176MPD1     H 2737   1.875   2.623  17.580 -0.5420  0.7361  1.0378
  176MPD1    H1 2738   1.502   2.788  17.668  1.2818  0.9692  0.3809
  176MPD1    H2 2739   1.564   2.382  17.741 -4.0804  2.1695  0.2527
  176MPD1    H3 2740   1.421   2.570  17.724  0.5625 -0.1582 -0.2898
  176MPD1     N 2741   1.756   2.839  17.567  0.0706  0.3478  0.4148
  176MPD1    H5 2742   1.848   2.822  17.527 -0.1779  0.8015 -0.3386
  176MPD1    N1 2743   1.818   2.368  17.660 -0.4329  0.5859 -0.3696
  176MPD1    H6 2744   1.780   2.300  17.725  0.1797 -0.3402 -0.9984
  176MPD1    H7 2745   1.917   2.377  17.680 -0.6354  0.4011  0.7471
  177MPD1     C 2746   4.631   3.195   9.596 -0.0506  1.7061 -0.3075
  177MPD1    C1 2747   4.511   3.161   9.663  0.7809 -0.1832 -0.1814
  177MPD1    C2 2748   4.395   3.221   9.615  0.1078 -0.0481 -0.2226
  177MPD1    C3 2749   4.388   3.301   9.503 -0.2627  0.3220 -0.3860
  177MPD1    C4 2750   4.503   3.324   9.439 -0.0123 -0.5340 -0.3032
  177MPD1    C5 2751   4.621   3.274   9.485  0.6954  0.2239 -0.0631
  177MPD1     H 2752   4.298   3.206   9.660  0.9849 -0.8312  1.3852
  177MPD1    H1 2753   4.511   3.397   9.359  0.8343 -0.8370 -0.5035
  177MPD1    H2 2754   4.722   3.159   9.644  0.6405  1.7181 -1.6102
  177MPD1    H3 2755   4.716   3.301   9.439  1.4724  0.6704  1.7896
  177MPD1     N 2756   4.267   3.341   9.452  0.7979  0.0914  0.5523
  177MPD1    H5 2757   4.184   3.326   9.510 -0.5348  0.3662 -1.2886
  177MPD1    N1 2758   4.515   3.095   9.787 -0.0548 -0.1904  0.3586
  177MPD1    H6 2759   4.433   3.038   9.804 -0.3113 -0.3128 -1.3363
  177MPD1    H7 2760   4.589   3.025   9.781  1.8744  1.8378  0.3559
  178MPD1     C 2761   2.690   4.434  17.011  0.6017  0.1756  0.1066
  178MPD1    C1 2762   2.825   4.419  17.034  0.1373  0.1337  0.3409
  178MPD1    C2 2763   2.866   4.302  17.107  0.2366  0.1082  0.7713
  178MPD1    C3 2764   2.768   4.220  17.158  0.1301 -0.3577 -0.3801
  178MPD1    C4 2765   2.635   4.233  17.125  0.6808 -0.0239 -0.0127
  178MPD1    C5 2766   2.595   4.345  17.059 -0.7698 -0.3963  0.3231
  178MPD1     H 2767   2.970   4.277  17.122  0.6466  1.9604  1.0328
  178MPD1    H1 2768   2.555   4.172  17.164  0.5727  1.1830  1.6682
  178MPD1    H2 2769   2.647   4.521  16.961  0.4556 -0.4553 -0.8765
  178MPD1    H3 2770   2.490   4.355  17.037 -0.3892 -1.7442 -2.0925
  178MPD1     N 2771   2.803   4.117  17.244  0.6256 -0.2895 -0.2670
  178MPD1    H5 2772   2.721   4.069  17.281  1.0089  0.0695  1.0706
  178MPD1    N1 2773   2.912   4.506  16.971  0.0544 -0.1522 -0.0608
  178MPD1    H6 2774   2.884   4.604  16.970  0.1758 -0.1121  0.4318
  178MPD1    H7 2775   3.011   4.511  16.994 -0.3097 -0.3200  1.5453
  179MPD1     C 2776   2.580   1.626  15.420 -0.0524  0.9075 -0.0766
  179MPD1    C1 2777   2.462   1.659  15.367 -0.8681 -0.3773 -0.2623
  179MPD1    C2 2778   2.348   1.665  15.444 -0.2873  0.1496  0.2869
  179MPD1    C3 2779   2.356   1.635  15.578 -0.0551  0.6651  0.0702
  179MPD1    C4 2780   2.478   1.616  15.634  0.0463 -0.7658  0.2816
  179MPD1    C5 2781   2.589   1.613  15.553 -0.1364  0.1991  0.2345
  179MPD1     H 2782   2.254   1.678  15.392 -0.2054 -0.0562  0.0852
  179MPD1    H1 2783   2.487   1.608  15.741 -3.5146 -0.3668  0.6204
  179MPD1    H2 2784   2.675   1.630  15.367 -0.8244  1.0411 -1.4715
  179MPD1    H3 2785   2.685   1.599  15.602 -0.2201  0.0614  0.3595
  179MPD1     N 2786   2.235   1.617  15.646  0.0563  0.0808 -0.5574
  179MPD1    H5 2787   2.242   1.583  15.742 -1.2228 -0.4976 -0.6783
  179MPD1    N1 2788   2.438   1.675  15.231  0.3072  0.2126  0.4546
  179MPD1    H6 2789   2.364   1.741  15.208 -0.1180 -0.7118 -0.7798
  179MPD1    H7 2790   2.529   1.684  15.186  0.0819 -1.2242 -0.2498
  180MPD1     C 2791   1.854   2.986  14.826 -0.5066  0.0053  0.6111
  180MPD1    C1 2792   1.830   2.903  14.723  0.3035 -0.0282 -0.9345
  180MPD1    C2 2793   1.739   2.950  14.628  0.1131  0.6212 -0.1108
  180MPD1    C3 2794   1.680   3.078  14.636 -0.1630 -0.3220 -0.4531
  180MPD1    C4 2795   1.714   3.165  14.739 -0.0004 -0.0086 -0.3358
  180MPD1    C5 2796   1.802   3.118  14.830  0.1687 -0.0061  0.0129
  180MPD1     H 2797   1.708   2.883  14.549  1.4465  1.7787 -1.6243
  180MPD1    H1 2798   1.683   3.269  14.741  0.5584  0.1394  0.4402
  180MPD1    H2 2799   1.932   2.968  14.899  2.4125  2.8496 -1.8152
  180MPD1    H3 2800   1.837   3.193  14.900  0.7271 -1.0749  0.8874
  180MPD1     N 2801   1.598   3.111  14.531 -0.1851 -0.1909 -0.1885
  180MPD1    H5 2802   1.563   3.030  14.481  2.6372 -3.2361  2.7402
  180MPD1    N1 2803   1.867   2.766  14.729 -0.2336 -0.5165 -0.3377
  180MPD1    H6 2804   1.957   2.759  14.777  1.4264  4.9405 -2.7332
  180MPD1    H7 2805   1.890   2.731  14.636 -0.5954 -2.0352  0.1422
  181MPD1     C 2806   2.783   0.503   9.933 -0.4316 -0.3473  0.5982
  181MPD1    C1 2807   2.823   0.639   9.912 -0.4666  0.6900  0.7555
  181MPD1    C2 2808   2.927   0.686   9.983 -0.1059  0.3168  0.4731
  181MPD1    C3 2809   2.982   0.609  10.084 -0.0510  0.2306 -0.1971
  181MPD1    C4 2810   2.954   0.476  10.092  0.1500  0.4076 -0.2474
  181MPD1    C5 2811   2.844   0.427  10.024 -0.4840  0.0322 -0.0688
  181MPD1     H 2812   2.960   0.787   9.961 -0.1175  0.0972 -0.5397
  181MPD1    H1 2813   2.998   0.417  10.171 -3.8488 -2.8231 -0.4320
  181MPD1    H2 2814   2.708   0.465   9.865 -0.0749 -2.3793  1.3322
  181MPD1    H3 2815   2.824   0.320  10.033  0.6269 -0.0654  1.2034
  181MPD1     N 2816   3.077   0.655  10.180 -0.3062  0.1776  0.7323
  181MPD1    H5 2817   3.116   0.576  10.231 -1.8032 -2.4591 -2.2490
  181MPD1    N1 2818   2.776   0.715   9.799  0.0757  0.1821 -0.7816
  181MPD1    H6 2819   2.678   0.711   9.772 -0.7448 -1.9452  2.4905
  181MPD1    H7 2820   2.801   0.814   9.799 -2.4014  0.8164 -0.8475
  182MPD1     C 2821   3.715   3.968   1.885  0.4372  0.0906  0.2900
  182MPD1    C1 2822   3.647   4.087   1.858  0.5254  0.0381 -0.1068
  182MPD1    C2 2823   3.635   4.120   1.721  0.0313  0.1396  0.9440
  182MPD1    C3 2824   3.694   4.049   1.622 -0.0540 -1.1256  0.2990
  182MPD1    C4 2825   3.743   3.925   1.648 -0.0811  0.2330 -0.7473
  182MPD1    C5 2826   3.751   3.884   1.783 -0.5249  0.4402 -0.9763
  182MPD1     H 2827   3.589   4.217   1.708 -0.4849 -0.2808 -0.3640
  182MPD1    H1 2828   3.784   3.861   1.570  1.6454 -1.0911  1.2440
  182MPD1    H2 2829   3.733   3.936   1.987  2.3564 -0.3478 -0.1815
  182MPD1    H3 2830   3.802   3.790   1.803  0.2714  1.2030  0.5875
  182MPD1     N 2831   3.704   4.084   1.482  0.4253  0.2658  0.2970
  182MPD1    H5 2832   3.760   4.026   1.420 -1.8115 -1.2843 -0.2421
  182MPD1    N1 2833   3.629   4.176   1.960  0.2172 -0.2911  0.6159
  182MPD1    H6 2834   3.596   4.114   2.034 -1.6930 -1.2551 -1.0671
  182MPD1    H7 2835   3.556   4.244   1.938  0.7052  0.1610  0.3766
  183MPD1     C 2836   3.930   0.475   8.724 -0.1986 -0.0150  0.2916
  183MPD1    C1 2837   3.824   0.407   8.782 -0.7016 -0.0115  0.3806
  183MPD1    C2 2838   3.808   0.396   8.922 -0.1164 -0.6743 -0.1970
  183MPD1    C3 2839   3.913   0.446   9.003  0.5104  0.0268 -0.2656
  183MPD1    C4 2840   4.019   0.504   8.938 -0.1792  0.6761  0.5069
  183MPD1    C5 2841   4.033   0.510   8.806 -0.5431 -0.1593 -0.2833
  183MPD1     H 2842   3.721   0.352   8.968  0.4353 -1.0969  0.4373
  183MPD1    H1 2843   4.109   0.540   8.988  0.1930 -0.3040  0.5555
  183MPD1    H2 2844   3.946   0.495   8.619 -0.0690 -0.9388  0.1344
  183MPD1    H3 2845   4.118   0.566   8.768 -0.3500 -0.2286  0.0428
  183MPD1     N 2846   3.895   0.440   9.144  0.2875 -0.6208 -0.3172
  183MPD1    H5 2847   3.800   0.417   9.175 -0.3180  0.5875 -1.2853
  183MPD1    N1 2848   3.710   0.381   8.703  0.1131 -0.3203  0.3198
  183MPD1    H6 2849   3.661   0.298   8.737  0.9664  0.2301  2.9183
  183MPD1    H7 2850   3.719   0.377   8.602 -1.9596  2.4183  0.0253
  184MPD1     C 2851   3.462   3.561  10.312 -0.3030 -0.1755  0.4957
  184MPD1    C1 2852   3.390   3.533  10.195 -0.1045  0.8253  0.5201
  184MPD1    C2 2853   3.444   3.565  10.071 -0.5711 -0.3203  0.1050
  184MPD1    C3 2854   3.561   3.640  10.055 -0.0366 -0.3205 -0.0920
  184MPD1    C4 2855   3.614   3.693  10.170 -0.2040 -0.0483  0.0071
  184MPD1    C5 2856   3.565   3.657  10.297 -0.2877  0.6679 -0.3765
  184MPD1     H 2857   3.408   3.511   9.984  0.4893 -1.1696  0.1843
  184MPD1    H1 2858   3.684   3.776  10.172 -0.3652  0.1664 -3.7911
  184MPD1    H2 2859   3.438   3.527  10.411  0.8930 -1.7422  0.2478
  184MPD1    H3 2860   3.602   3.706  10.386 -0.0928  0.6720 -0.4620
  184MPD1     N 2861   3.611   3.680   9.929  0.1571 -0.6375  0.5399
  184MPD1    H5 2862   3.699   3.731   9.933  0.6838 -1.5701  0.9983
  184MPD1    N1 2863   3.287   3.432  10.204  0.1109  0.2652 -0.2876
  184MPD1    H6 2864   3.228   3.432  10.121  0.4566 -2.6959 -0.5412
  184MPD1    H7 2865   3.231   3.444  10.288  0.3992  1.6579 -0.3049
  185MPD1     C 2866   3.208   3.718   9.050  0.0008  0.2473 -0.2740
  185MPD1    C1 2867   3.315   3.633   9.046  0.0475 -0.7974  0.5228
  185MPD1    C2 2868   3.413   3.656   9.143 -0.1580 -0.0965  0.9498
  185MPD1    C3 2869   3.410   3.772   9.223  0.0679 -0.3817 -0.2406
  185MPD1    C4 2870   3.302   3.861   9.225 -0.5090  0.3229  0.0255
  185MPD1    C5 2871   3.201   3.834   9.134  0.3102  0.2790  0.0548
  185MPD1     H 2872   3.496   3.589   9.162  0.7937  0.4650 -1.2028
  185MPD1    H1 2873   3.284   3.937   9.300  1.1068  1.2959 -0.5761
  185MPD1    H2 2874   3.117   3.700   8.995  0.6094  0.0104 -1.1981
  185MPD1    H3 2875   3.111   3.892   9.152  0.7349  1.1886 -0.7736
  185MPD1     N 2876   3.509   3.790   9.320  0.6279 -0.1572  0.2070
  185MPD1    H5 2877   3.476   3.849   9.396  0.6731  0.7594 -0.4852
  185MPD1    N1 2878   3.316   3.522   8.960 -0.2607  0.1228 -0.5031
  185MPD1    H6 2879   3.405   3.473   8.959  1.3533  3.0310 -1.5375
  185MPD1    H7 2880   3.293   3.558   8.868  1.2184 -1.9387 -1.6571
  186MPD1     C 2881   3.253   1.417  16.138  0.3260 -0.0726 -0.4661
  186MPD1    C1 2882   3.154   1.485  16.073  0.2569  0.0883 -0.1012
  186MPD1    C2 2883   3.116   1.608  16.124 -0.4441 -0.5265  0.0065
  186MPD1    C3 2884   3.204   1.679  16.212 -0.4218 -0.7799  0.2015
  186MPD1    C4 2885   3.313   1.616  16.258  0.9313 -0.4322 -0.2773
  186MPD1    C5 2886   3.328   1.485  16.232  0.5865 -0.1627 -0.6571
  186MPD1     H 2887   3.028   1.660  16.086  0.7084  1.0648 -0.4710
  186MPD1    H1 2888   3.385   1.658  16.327 -0.5015  0.8258  0.4387
  186MPD1    H2 2889   3.267   1.311  16.120 -1.8099 -0.4727  0.1765
  186MPD1    H3 2890   3.406   1.434  16.287 -0.3104 -2.6753 -1.7470
  186MPD1     N 2891   3.181   1.813  16.254 -0.0669 -0.2557  0.7351
  186MPD1    H5 2892   3.252   1.844  16.319  1.5018 -1.1067 -0.5780
  186MPD1    N1 2893   3.075   1.437  15.966  0.0660  0.0738  0.2304
  186MPD1    H6 2894   3.036   1.504  15.900  1.0811 -0.5311 -0.9957
  186MPD1    H7 2895   3.131   1.369  15.915  1.1198  0.8923  0.2917
  187MPD1     C 2896   2.364   3.529   0.261  0.3951 -0.3557  0.1277
  187MPD1    C1 2897   2.410   3.457   0.152 -0.1354  0.5267  0.6117
  187MPD1    C2 2898   2.369   3.492   0.028  0.2036 -0.1444 -0.3971
  187MPD1    C3 2899   2.281   3.594   0.012 -0.4002 -0.1220  0.0266
  187MPD1    C4 2900   2.250   3.673   0.115  0.1782  0.3031  0.2549
  187MPD1    C5 2901   2.283   3.638   0.244  0.0536  0.0415 -0.3300
  187MPD1     H 2902   2.380   3.425  17.702 -1.7890 -0.1416 -0.6755
  187MPD1    H1 2903   2.180   3.755   0.103 -0.5761 -0.2918  0.5462
  187MPD1    H2 2904   2.393   3.508   0.364 -0.1235  0.4418  0.4397
  187MPD1    H3 2905   2.254   3.693   0.333 -0.2588 -1.3552  0.4272
  187MPD1     N 2906   2.234   3.635  17.640  0.4320 -0.5704 -0.7815
  187MPD1    H5 2907   2.198   3.729  17.645  1.3075 -0.3431  1.6573
  187MPD1    N1 2908   2.489   3.340   0.168  0.1338  0.0421 -0.5283
  187MPD1    H6 2909   2.547   3.327   0.084  2.0180  0.6751  0.6732
  187MPD1    H7 2910   2.550   3.322   0.248 -1.3497 -0.0531  0.5679
  188MPD1     C 2911   1.662   4.470  10.511 -0.0492 -0.0103 -0.5221
  188MPD1    C1 2912   1.724   4.448  10.391  0.3015 -0.3817  0.2903
  188MPD1    C2 2913   1.681   4.341  10.321  0.6409  0.2385  0.3791
  188MPD1    C3 2914   1.592   4.248  10.368  0.6313 -0.0391 -0.2163
  188MPD1    C4 2915   1.550   4.263  10.495  0.3800 -0.2935  0.2117
  188MPD1    C5 2916   1.587   4.366  10.563 -0.0481  0.6153 -0.5326
  188MPD1     H 2917   1.725   4.326  10.223 -0.0585  0.6554 -0.0007
  188MPD1    H1 2918   1.477   4.197  10.542  1.7014 -0.3675  2.1812
  188MPD1    H2 2919   1.693   4.557  10.569  1.3398 -0.9718  0.1752
  188MPD1    H3 2920   1.550   4.370  10.665  1.4861  1.0233  0.0137
  188MPD1     N 2921   1.551   4.132  10.307  0.3482 -0.3194  0.1650
  188MPD1    H5 2922   1.498   4.063  10.359 -0.2595  1.0633  1.3524
  188MPD1    N1 2923   1.802   4.543  10.333  0.3135  0.2026 -0.3725
  188MPD1    H6 2924   1.872   4.498  10.275  0.5864  0.5384 -0.3048
  188MPD1    H7 2925   1.853   4.601  10.399  0.0498 -2.5025  2.2167
  189MPD1     C 2926   3.502   0.330   0.742  0.6387 -0.0830  0.5586
  189MPD1    C1 2927   3.452   0.306   0.618 -0.3695  0.2112 -0.1397
  189MPD1    C2 2928   3.337   0.377   0.576  0.1111 -0.2942 -0.6361
  189MPD1    C3 2929   3.259   0.453   0.669 -0.4269  0.0935 -0.8218
  189MPD1    C4 2930   3.306   0.464   0.796  0.8688 -0.3543  1.0160
  189MPD1    C5 2931   3.423   0.398   0.831  0.5614 -0.2769 -0.2652
  189MPD1     H 2932   3.310   0.373   0.472  1.7279 -0.4838 -1.0482
  189MPD1    H1 2933   3.261   0.522   0.875 -0.5479 -1.6616  1.1802
  189MPD1    H2 2934   3.592   0.281   0.779  0.8712  2.2747  3.1158
  189MPD1    H3 2935   3.447   0.396   0.937 -0.4185  2.6746  0.0228
  189MPD1     N 2936   3.143   0.521   0.621  0.1041 -0.3522  0.4102
  189MPD1    H5 2937   3.124   0.515   0.522 -1.2104  0.7439  0.5953
  189MPD1    N1 2938   3.525   0.224   0.529 -0.0987 -0.4191 -0.1442
  189MPD1    H6 2939   3.447   0.203   0.467 -1.5535  2.9736  0.4936
  189MPD1    H7 2940   3.570   0.150   0.581  1.5010 -1.3504 -2.8686
  190MPD1     C 2941   2.488   4.028  15.350  0.5542 -0.1138  0.5770
  190MPD1    C1 2942   2.452   3.898  15.307 -0.3012 -0.3860 -0.2555
  190MPD1    C2 2943   2.520   3.787  15.366  0.0963 -0.1594 -0.2732
  190MPD1    C3 2944   2.626   3.800  15.450 -0.7236 -0.5426 -0.6997
  190MPD1    C4 2945   2.667   3.928  15.481 -0.0009 -0.1253 -1.2827
  190MPD1    C5 2946   2.595   4.040  15.433 -0.5977 -0.7510 -0.4739
  190MPD1     H 2947   2.484   3.685  15.358  5.6336 -2.1493  0.4430
  190MPD1    H1 2948   2.751   3.947  15.546 -1.7934  1.7329  0.4927
  190MPD1    H2 2949   2.434   4.117  15.318 -1.3194 -1.1467  0.8799
  190MPD1    H3 2950   2.632   4.134  15.472 -2.8141 -0.2420  0.3571
  190MPD1     N 2951   2.681   3.682  15.501  0.0722  0.4805  0.4592
  190MPD1    H5 2952   2.644   3.600  15.454  0.3123  1.0908 -0.7971
  190MPD1    N1 2953   2.325   3.884  15.245 -0.3226 -0.0442  0.5200
  190MPD1    H6 2954   2.301   3.961  15.183  2.7847 -0.1807 -0.8765
  190MPD1    H7 2955   2.320   3.797  15.193  0.5279 -0.3030  0.8737
  191MPD1     C 2956   2.096   0.382  13.374  0.2000  0.1936  0.5920
  191MPD1    C1 2957   2.010   0.474  13.437 -0.0379  0.2027 -0.9642
  191MPD1    C2 2958   1.879   0.484  13.399  0.0665  0.0864 -0.5049
  191MPD1    C3 2959   1.831   0.385  13.314 -0.9533 -0.3530 -0.0716
  191MPD1    C4 2960   1.916   0.283  13.267  0.2575  0.2585 -0.5114
  191MPD1    C5 2961   2.051   0.290  13.290 -0.6141 -0.2206  0.0812
  191MPD1     H 2962   1.824   0.573  13.427  0.8387  1.2534 -2.6717
  191MPD1    H1 2963   1.886   0.199  13.205 -0.0844 -0.0258  0.0393
  191MPD1    H2 2964   2.201   0.401  13.396  0.7020 -1.4158 -0.4107
  191MPD1    H3 2965   2.119   0.220  13.243 -0.4369  0.0532 -0.0668
  191MPD1     N 2966   1.696   0.387  13.272 -0.1349 -0.3281  0.2590
  191MPD1    H5 2967   1.635   0.439  13.334 -0.2360  0.7057 -0.7130
  191MPD1    N1 2968   2.070   0.572  13.516  0.2955 -0.5317 -0.1013
  191MPD1    H6 2969   2.165   0.545  13.542  0.1401 -1.3851 -0.4374
  191MPD1    H7 2970   2.015   0.588  13.600 -0.7069 -3.1242 -0.2495
  192MPD1     C 2971   0.698   0.516  13.263 -0.2803  0.3741 -0.2261
  192MPD1    C1 2972   0.781   0.537  13.370  0.7144 -0.0010 -0.0009
  192MPD1    C2 2973   0.920   0.523  13.344 -1.2355  0.7161 -0.5234
  192MPD1    C3 2974   0.972   0.504  13.217  0.2341 -0.3058  0.0590
  192MPD1    C4 2975   0.878   0.504  13.112 -0.4449  0.0070  0.4924
  192MPD1    C5 2976   0.744   0.506  13.135  0.3169  0.0459 -0.1186
  192MPD1     H 2977   0.989   0.541  13.426 -0.6373  1.1502 -1.1274
  192MPD1    H1 2978   0.902   0.508  13.006  1.2660 -2.0091  0.8137
  192MPD1    H2 2979   0.590   0.520  13.277 -0.2682 -1.3959  0.3431
  192MPD1    H3 2980   0.677   0.517  13.050 -1.1449  1.2343  1.1888
  192MPD1     N 2981   1.110   0.511  13.180  0.2412  0.9368 -0.1755
  192MPD1    H5 2982   1.122   0.520  13.079 -1.1562 -0.4481 -0.4536
  192MPD1    N1 2983   0.731   0.557  13.497 -0.2835  0.1772 -0.1585
  192MPD1    H6 2984   0.643   0.609  13.494 -0.8083 -0.7824 -1.6289
  192MPD1    H7 2985   0.798   0.601  13.559  0.2263 -0.8521  0.0063
  193MPD1     C 2986   1.148   4.699  16.588 -0.2297 -0.1191 -0.9444
  193MPD1    C1 2987   1.041   0.043  16.550  0.1114  0.1061 -0.2119
  193MPD1    C2 2988   1.073   0.173  16.530  0.5724 -0.0483 -0.0658
  193MPD1    C3 2989   1.203   0.219  16.511  0.6286 -0.1516  0.0507
  193MPD1    C4 2990   1.307   0.130  16.523  0.2328  0.6173 -0.2653
  193MPD1    C5 2991   1.280   0.004  16.566  0.0457  0.1198 -0.4216
  193MPD1     H 2992   0.989   0.239  16.514  1.5496  1.0082 -0.8187
  193MPD1    H1 2993   1.410   0.156  16.503  0.8953 -2.4743 -0.8324
  193MPD1    H2 2994   1.137   4.594  16.610 -0.3055  0.6366  2.5839
  193MPD1    H3 2995   1.368   4.682  16.573 -0.4447 -0.7980 -2.6041
  193MPD1     N 2996   1.239   0.351  16.476  0.2757 -0.1740  0.1636
  193MPD1    H5 2997   1.335   0.360  16.444 -0.2788  2.4085 -0.7193
  193MPD1    N1 2998   0.906   0.009  16.560 -0.3158 -0.9591 -0.3517
  193MPD1    H6 2999   0.890   4.651  16.537 -2.4764 -0.4069 -1.1875
  193MPD1    H7 3000   0.838   0.056  16.501 -0.3736  1.0350  1.3157
  194MPD1     C 3001   0.026   1.982   0.006 -0.7224 -0.2389 -0.1234
  194MPD1    C1 3002   4.707   1.899   0.099  1.0083  0.2119 -0.1237
  194MPD1    C2 3003   4.721   1.763   0.095  0.0624 -0.4100 -0.4471
  194MPD1    C3 3004   0.042   1.705  17.741  0.4987  0.3410 -0.1592
  194MPD1    C4 3005   0.097   1.787  17.650 -0.2396  0.4315 -0.6033
  194MPD1    C5 3006   0.089   1.920  17.663  0.7474  0.4110 -0.1842
  194MPD1     H 3007   4.668   1.707   0.170 -1.8806 -0.1483 -1.6145
  194MPD1    H1 3008   0.153   1.743  17.568  3.6594  0.2329  2.1527
  194MPD1    H2 3009   0.027   2.090   0.011  0.1295 -0.2887  0.8541
  194MPD1    H3 3010   0.130   1.991  17.592  1.2133  0.9752  0.6612
  194MPD1     N 3011   0.030   1.564  17.708 -0.2010  0.5759 -0.0257
  194MPD1    H5 3012   0.070   1.534  17.619 -0.5039  0.2326 -0.0467
  194MPD1    N1 3013   4.666   1.966   0.211 -0.1003 -0.2448  1.0606
  194MPD1    H6 3014   4.587   1.916   0.252 -0.8208  0.6001  0.7014
  194MPD1    H7 3015   4.633   2.060   0.190 -0.1183 -0.7276 -1.1211
  195MPD1     C 3016   1.095   4.717  17.462  0.6256 -0.2640  0.5131
  195MPD1    C1 3017   1.205   4.704  17.545  0.0625  0.1121 -0.5168
  195MPD1    C2 3018   1.239   4.582  17.593  0.0644 -0.0920  0.0165
  195MPD1    C3 3019   1.181   4.469  17.549 -0.9235 -0.0613 -0.2078
  195MPD1    C4 3020   1.081   4.482  17.451  0.4512  0.5931  0.6696
  195MPD1    C5 3021   1.043   4.605  17.402 -0.4450 -0.1663  0.2214
  195MPD1     H 3022   1.314   4.569  17.671 -0.3448 -0.8954  0.2776
  195MPD1    H1 3023   1.027   4.398  17.410 -0.7991 -0.3109  4.1458
  195MPD1    H2 3024   1.065   0.074  17.424  2.8118  0.3302  0.3324
  195MPD1    H3 3025   0.962   4.614  17.331 -2.7613 -0.6633  2.7907
  195MPD1     N 3026   1.207   4.340  17.602 -0.5856  0.4398 -0.1812
  195MPD1    H5 3027   1.145   4.263  17.575 -1.8391  1.7879 -1.1919
  195MPD1    N1 3028   1.249   0.083  17.611 -0.0530  0.2084  0.2822
  195MPD1    H6 3029   1.222   0.171  17.567  0.7378  0.4210  0.2187
  195MPD1    H7 3030   1.347   0.083  17.638  0.2043 -0.4094 -0.6611
  196MPD1     C 3031   0.185   3.129  17.507  0.4215  0.0482 -0.1333
  196MPD1    C1 3032   0.265   3.231  17.556  0.2953  0.3929  0.3983
  196MPD1    C2 3033   0.255   3.260  17.688  0.2003  0.0732 -0.8259
  196MPD1    C3 3034   0.181   3.188   0.024  0.4329 -0.4393 -0.0320
  196MPD1    C4 3035   0.103   3.085  17.723 -0.0759  0.6228 -0.5291
  196MPD1    C5 3036   0.100   3.057  17.586 -0.5056  0.0152 -0.7451
  196MPD1     H 3037   0.318   3.345  17.714  2.7491 -2.4554  1.3908
  196MPD1    H1 3038   0.036   3.033   0.033 -1.1368  0.9536 -1.3159
  196MPD1    H2 3039   0.173   3.117  17.400 -4.9162  1.6464  0.3179
  196MPD1    H3 3040   0.049   2.971  17.544  1.3656 -1.3940 -0.1366
  196MPD1     N 3041   0.161   3.210   0.161  0.2449  0.0672  0.0221
  196MPD1    H5 3042   0.107   3.142   0.213  0.2582 -0.8268 -1.1291
  196MPD1    N1 3043   0.337   3.308  17.459  0.2186  0.1933  0.3751
  196MPD1    H6 3044   0.413   3.361  17.501  1.1708  0.0053 -1.1187
  196MPD1    H7 3045   0.388   3.252  17.390 -0.0817  1.0747 -0.5607
  197MPD1     C 3046   0.019   0.375  17.393  0.2866 -0.2978  1.3316
  197MPD1    C1 3047   0.053   0.313  17.273 -0.4601 -0.8826  0.3446
  197MPD1    C2 3048   0.124   0.380  17.171  0.1245  0.4626  0.5217
  197MPD1    C3 3049   0.162   0.506  17.203  0.0147 -0.0309  0.1501
  197MPD1    C4 3050   0.141   0.567  17.327  0.3345  0.4759 -0.2718
  197MPD1    C5 3051   0.070   0.500  17.424  0.1215  0.3592  0.1598
  197MPD1     H 3052   0.163   0.339  17.078  1.3736  1.9313  0.4123
  197MPD1    H1 3053   0.177   0.666  17.353  3.7190 -0.4120 -1.5389
  197MPD1    H2 3054   4.714   0.312  17.468  0.8837 -0.7016  1.3491
  197MPD1    H3 3055   0.061   0.543  17.523  0.4449 -1.1584  0.8628
  197MPD1     N 3056   0.239   0.591  17.117  0.1854 -0.3184 -0.5492
  197MPD1    H5 3057   0.267   0.677  17.164  0.1717 -0.5499 -0.1169
  197MPD1    N1 3058   0.003   0.179  17.247  0.7276 -0.8471  0.0193
  197MPD1    H6 3059   4.645   0.185  17.221  1.5099  1.9035 -2.2728
  197MPD1    H7 3060   0.048   0.149  17.161  1.6607  0.9389 -0.1009
  198MPD1     C 3061   2.253   3.017  15.511  0.3429 -0.5169 -0.0856
  198MPD1    C1 3062   2.308   3.030  15.637  0.1052  0.2356 -0.0929
  198MPD1    C2 3063   2.313   3.156  15.689  0.2771  0.0029  0.1550
  198MPD1    C3 3064   2.285   3.266  15.613 -0.0217  0.3046 -0.4826
  198MPD1    C4 3065   2.235   3.251  15.483 -0.1217 -0.2830 -0.4115
  198MPD1    C5 3066   2.221   3.122  15.435 -0.2975  0.0264 -0.0452
  198MPD1     H 3067   2.347   3.173  15.790 -0.3857  1.5536  0.1140
  198MPD1    H1 3068   2.207   3.334  15.420  3.0415  0.4206 -0.9123
  198MPD1    H2 3069   2.243   2.919  15.466 -0.3136 -1.1086  1.3320
  198MPD1    H3 3070   2.191   3.099  15.334 -1.5959 -0.6788  0.5033
  198MPD1     N 3071   2.313   3.393  15.659  0.2512  0.4675  0.8962
  198MPD1    H5 3072   2.356   3.397  15.751  0.4142  1.9420  0.7503
  198MPD1    N1 3073   2.334   2.912  15.721  0.1420 -0.5589 -0.0009
  198MPD1    H6 3074   2.359   2.831  15.664 -3.4193 -1.4337 -0.3017
  198MPD1    H7 3075   2.406   2.923  15.792 -0.2252  1.6417  0.0307
  199MPD1     C 3076   3.801   1.130   9.381  0.7916 -0.5135  0.0265
  199MPD1    C1 3077   3.718   1.058   9.470 -0.3385  0.1442  0.0878
  199MPD1    C2 3078   3.624   1.131   9.544  0.0146  0.3321  0.1633
  199MPD1    C3 3079   3.604   1.265   9.518 -0.1191  0.2336 -0.0868
  199MPD1    C4 3080   3.683   1.332   9.426  0.3766  0.2714  0.5542
  199MPD1    C5 3081   3.775   1.263   9.352  0.2343  0.6217  0.0456
  199MPD1     H 3082   3.568   1.073   9.616 -0.5168  1.0314  0.3142
  199MPD1    H1 3083   3.669   1.438   9.409 -0.0813  0.2531  0.7997
  199MPD1    H2 3084   3.886   1.096   9.322 -0.3095 -0.4372 -1.6233
  199MPD1    H3 3085   3.828   1.302   9.266  1.0584  0.5884  0.5495
  199MPD1     N 3086   3.515   1.346   9.598 -0.0218 -0.8594 -0.1794
  199MPD1    H5 3087   3.511   1.445   9.577 -1.9942 -0.9968 -0.4601
  199MPD1    N1 3088   3.740   0.918   9.491 -0.1220  0.6339 -0.0143
  199MPD1    H6 3089   3.662   0.856   9.472  0.6676  0.2231 -2.0367
  199MPD1    H7 3090   3.807   0.889   9.419  0.7379 -0.8311  1.3902
  200MPD1     C 3091   3.713   1.041  15.637  0.0048  0.7063  0.3551
  200MPD1    C1 3092   3.688   1.030  15.508  0.5286 -0.4992 -0.4789
  200MPD1    C2 3093   3.657   1.140  15.437 -0.4214  0.0229  0.0120
  200MPD1    C3 3094   3.666   1.265  15.485 -0.0473  0.0446 -0.0230
  200MPD1    C4 3095   3.693   1.279  15.623 -0.2640  0.4437  0.5643
  200MPD1    C5 3096   3.717   1.165  15.697  1.0900 -0.4949 -0.1360
  200MPD1     H 3097   3.629   1.115  15.335 -1.0781  1.0021 -0.0512
  200MPD1    H1 3098   3.703   1.374  15.674 -0.2400  2.3252 -2.9608
  200MPD1    H2 3099   3.725   0.955  15.703 -0.3795  0.3732 -0.0104
  200MPD1    H3 3100   3.728   1.184  15.803  0.9096  1.8849 -0.5393
  200MPD1     N 3101   3.655   1.371  15.392  0.7853 -0.0789 -0.3525
  200MPD1    H5 3102   3.634   1.346  15.296  1.2081 -1.0102 -0.2002
  200MPD1    N1 3103   3.663   0.899  15.460 -0.2019 -0.1566  0.1666
  200MPD1    H6 3104   3.683   0.880  15.362 -1.1879 -1.8509  0.2951
  200MPD1    H7 3105   3.702   0.825  15.517  2.0575 -0.4363 -1.7901
  201MPD1     C 3106   4.694   0.206  13.739 -0.1209 -0.4037  0.1030
  201MPD1    C1 3107   4.661   0.088  13.795  0.1714 -0.1201 -0.0696
  201MPD1    C2 3108   0.025   4.734  13.810  0.4812  0.0413  0.1226
  201MPD1    C3 3109   0.153   0.012  13.762  0.2161  0.0914 -0.3107
  201MPD1    C4 3110   0.187   0.138  13.722 -0.3435 -0.4761 -0.2933
  201MPD1    C5 3111   0.087   0.228  13.707  0.0751 -0.0078  0.9232
  201MPD1     H 3112   0.003   4.634  13.845 -0.3284 -0.6042 -2.1657
  201MPD1    H1 3113   0.282   0.170  13.680 -0.7255 -1.1839 -1.7198
  201MPD1    H2 3114   4.619   0.283  13.728 -0.6825 -0.7760  1.2875
  201MPD1    H3 3115   0.112   0.328  13.672 -2.0028 -0.1761 -1.0183
  201MPD1     N 3116   0.249   4.643  13.774 -0.0297 -0.0287 -0.5909
  201MPD1    H5 3117   0.215   4.552  13.802  1.2136  0.1183  1.3777
  201MPD1    N1 3118   4.527   0.061  13.837 -0.2674 -0.4972  0.5190
  201MPD1    H6 3119   4.475   0.148  13.827 -0.9014 -0.9963 -0.4916
  201MPD1    H7 3120   4.481   4.733  13.777  1.5594  0.8196 -2.3242
  202MPD1     C 3121   4.480   4.086   9.186  0.2748 -0.3418  0.1010
  202MPD1    C1 3122   4.369   4.137   9.251 -0.1797 -0.4255  0.3573
  202MPD1    C2 3123   4.396   4.196   9.375 -0.5101 -0.0599  0.3099
  202MPD1    C3 3124   4.507   4.166   9.449 -0.6776  0.0061 -0.2911
  202MPD1    C4 3125   4.611   4.101   9.390 -0.0210  0.8861  0.2929
  202MPD1    C5 3126   4.597   4.065   9.252 -0.1660  0.2020  0.2558
  202MPD1     H 3127   4.311   4.252   9.413 -1.8919 -2.1829  0.2974
  202MPD1    H1 3128   4.702   4.078   9.444 -0.2809  0.6568  0.6323
  202MPD1    H2 3129   4.466   4.058   9.082 -1.0853 -0.8766  0.4313
  202MPD1    H3 3130   4.685   4.022   9.205  0.3325 -0.3990  1.7271
  202MPD1     N 3131   4.518   4.212   9.579  0.9513  0.3172  0.8193
  202MPD1    H5 3132   4.604   4.186   9.626 -0.4292 -2.2494  1.9782
  202MPD1    N1 3133   4.261   4.181   9.174 -0.1917  0.1494 -0.1543
  202MPD1    H6 3134   4.181   4.191   9.236  1.3251 -1.5364  2.0806
  202MPD1    H7 3135   4.241   4.110   9.104  1.2253 -0.4284  0.0228
  203MPD1     C 3136   4.248   0.932  13.118  0.2911 -0.0936 -0.8665
  203MPD1    C1 3137   4.334   0.842  13.188  0.5519  0.0838  0.7836
  203MPD1    C2 3138   4.325   0.708  13.155 -0.5028  0.8357 -0.0699
  203MPD1    C3 3139   4.238   0.655  13.060 -0.0517  0.5708 -0.0181
  203MPD1    C4 3140   4.153   0.748  13.003  0.4432 -0.6903 -0.3845
  203MPD1    C5 3141   4.166   0.877  13.025  0.0474 -0.3172  0.2397
  203MPD1     H 3142   4.382   0.641  13.217  0.1804  1.9680  0.5316
  203MPD1    H1 3143   4.092   0.726  12.916 -0.2187 -2.2651  0.4730
  203MPD1    H2 3144   4.252   1.036  13.148  0.4342 -0.8049  1.6272
  203MPD1    H3 3145   4.117   0.941  12.953  2.0218 -0.7726 -1.5021
  203MPD1     N 3146   4.237   0.524  13.031 -0.0787  0.7436 -0.4019
  203MPD1    H5 3147   4.294   0.465  13.092  0.3203  1.1694 -0.3647
  203MPD1    N1 3148   4.401   0.892  13.301 -0.6853  0.2801 -0.5413
  203MPD1    H6 3149   4.424   0.990  13.286  0.4943 -0.2980 -2.5584
  203MPD1    H7 3150   4.484   0.840  13.328  0.6699  1.2868 -2.7178
  204MPD1     C 3151   4.430   1.387  17.365 -0.0314 -0.8512  0.3599
  204MPD1    C1 3152   4.387   1.307  17.258  0.5800 -0.7154  0.2400
  204MPD1    C2 3153   4.311   1.195  17.283 -0.2194  0.3739 -0.1270
  204MPD1    C3 3154   4.290   1.151  17.413 -0.2962  0.4081 -0.3585
  204MPD1    C4 3155   4.352   1.219  17.519 -0.1533 -0.2406 -0.9308
  204MPD1    C5 3156   4.411   1.338  17.492  0.2597 -0.0569 -0.7284
  204MPD1     H 3157   4.273   1.145  17.195 -2.1914  0.8073  0.4819
  204MPD1    H1 3158   4.352   1.180  17.620 -1.0769 -0.4115 -0.9946
  204MPD1    H2 3159   4.474   1.484  17.344  1.4434 -1.5156  0.4026
  204MPD1    H3 3160   4.441   1.405  17.572  0.4026  2.0519 -2.5455
  204MPD1     N 3161   4.220   1.029  17.422  0.1124 -0.4882 -0.5143
  204MPD1    H5 3162   4.185   0.982  17.339 -0.0435  0.3621 -0.9302
  204MPD1    N1 3163   4.401   1.352  17.127 -0.4296  0.3953  0.2754
  204MPD1    H6 3164   4.372   1.284  17.057  0.0015  1.5775 -1.0649
  204MPD1    H7 3165   4.493   1.392  17.109  0.1943 -0.5859  1.2574
  205MPD1     C 3166   3.978   4.340   0.870  0.1169  0.3878  0.2470
  205MPD1    C1 3167   3.889   4.432   0.903 -0.3828 -0.5626 -0.2440
  205MPD1    C2 3168   3.832   4.505   0.798 -1.1775  0.4315  0.1056
  205MPD1    C3 3169   3.822   4.444   0.674  0.1626 -0.1655  0.1535
  205MPD1    C4 3170   3.887   4.322   0.657  0.2886  0.6418  0.5530
  205MPD1    C5 3171   3.977   4.279   0.755 -1.3095 -0.1236  0.6121
  205MPD1     H 3172   3.780   4.600   0.810  2.0429  2.2903 -0.6193
  205MPD1    H1 3173   3.889   4.268   0.563 -1.5309  0.1624  0.7997
  205MPD1    H2 3174   4.038   4.297   0.949  0.5827  2.1249  0.8264
  205MPD1    H3 3175   4.047   4.197   0.746  0.9878  1.7535  1.5726
  205MPD1     N 3176   3.749   4.488   0.563 -0.8326 -0.3758  0.7732
  205MPD1    H5 3177   3.752   4.432   0.479 -0.7575  1.9815 -0.8083
  205MPD1    N1 3178   3.873   4.481   1.032  0.0815  0.2193 -0.5528
  205MPD1    H6 3179   3.780   4.517   1.049  0.8776  1.1154  2.0028
  205MPD1    H7 3180   3.913   4.414   1.099 -1.4808 -2.2877 -2.1169
  206MPD1     C 3181   3.921   2.923  17.413 -0.1960 -0.0620 -0.9588
  206MPD1    C1 3182   3.925   2.790  17.368  0.1146  0.2644 -0.1723
  206MPD1    C2 3183   3.968   2.770  17.239 -0.2394 -0.1946  0.2119
  206MPD1    C3 3184   3.979   2.875  17.144 -0.2965 -0.8293  0.1404
  206MPD1    C4 3185   3.961   3.004  17.194  0.0070 -0.0482 -0.4874
  206MPD1    C5 3186   3.941   3.026  17.325 -0.2181  1.2420 -0.1579
  206MPD1     H 3187   4.007   2.672  17.213 -0.6252 -0.0225 -0.9896
  206MPD1    H1 3188   3.975   3.095  17.136 -1.1324 -0.5283 -1.5097
  206MPD1    H2 3189   3.899   2.949  17.516 -1.4128 -0.6659 -1.0652
  206MPD1    H3 3190   3.942   3.127  17.365  0.7939  0.0729  2.7618
  206MPD1     N 3191   4.024   2.858  17.010  0.0691  0.2087  0.1751
  206MPD1    H5 3192   4.032   2.941  16.952  1.3197 -0.8039 -1.0814
  206MPD1    N1 3193   3.935   2.688  17.473 -0.1236  0.5947  0.2773
  206MPD1    H6 3194   3.895   2.603  17.434 -2.1632  1.3932  0.6528
  206MPD1    H7 3195   3.870   2.713  17.547  1.9075  0.8620  1.9859
  207MPD1     C 3196   0.194   0.946   9.936  0.6390  0.4067  0.0913
  207MPD1    C1 3197   0.245   0.912  10.063  0.6263 -0.0717  0.0557
  207MPD1    C2 3198   0.377   0.947  10.081 -0.2842 -0.1509  0.3175
  207MPD1    C3 3199   0.449   1.018   9.989 -0.0373  0.1289 -0.1390
  207MPD1    C4 3200   0.403   1.044   9.862 -0.4367  0.0231 -0.5828
  207MPD1    C5 3201   0.266   1.013   9.840  0.2878 -0.5635 -0.0152
  207MPD1     H 3202   0.411   0.933  10.183  1.1808 -0.0499 -0.1522
  207MPD1    H1 3203   0.463   1.089   9.784 -2.7300 -1.9169 -3.4758
  207MPD1    H2 3204   0.092   0.922   9.907  0.7267  0.9779 -0.6721
  207MPD1    H3 3205   0.227   1.037   9.741 -0.2073 -1.7052 -0.0992
  207MPD1     N 3206   0.580   1.067  10.011  0.1982 -0.0281  0.0053
  207MPD1    H5 3207   0.627   1.105   9.929 -0.0021 -0.5085 -0.3377
  207MPD1    N1 3208   0.176   0.832  10.150 -0.5781  0.1806  0.8455
  207MPD1    H6 3209   0.075   0.830  10.139 -0.5886 -1.3911  1.1740
  207MPD1    H7 3210   0.184   0.853  10.249 -1.9378 -0.0989  1.0125
  208MPD1     C 3211   4.264   3.436  17.513 -0.3298  0.1763  0.3369
  208MPD1    C1 3212   4.142   3.385  17.479 -0.0452  0.1417 -0.0114
  208MPD1    C2 3213   4.039   3.391  17.567  0.5056 -0.2813 -0.3989
  208MPD1    C3 3214   4.050   3.463  17.686 -1.0343  0.3315 -0.0495
  208MPD1    C4 3215   4.164   3.535  17.707 -0.7567 -0.2710 -0.2400
  208MPD1    C5 3216   4.272   3.513  17.631 -0.4475  0.1627 -0.4592
  208MPD1     H 3217   3.947   3.338  17.542 -0.1037  0.1422  0.9411
  208MPD1    H1 3218   4.185   3.589   0.041 -3.6212  2.9801 -1.4712
  208MPD1    H2 3219   4.346   3.413  17.446  1.5586 -0.8987  2.9915
  208MPD1    H3 3220   4.372   3.539  17.663 -0.4681 -1.5681  1.0287
  208MPD1     N 3221   3.937   3.470   0.016 -0.4674 -0.8137  0.6482
  208MPD1    H5 3222   3.854   3.421  17.742 -0.5955 -0.0914 -0.1220
  208MPD1    N1 3223   4.128   3.309  17.363 -0.2795  0.2124 -0.0287
  208MPD1    H6 3224   4.042   3.330  17.311 -0.7954 -0.3927  0.5765
  208MPD1    H7 3225   4.202   3.332  17.297 -0.3135 -2.2645 -0.9157
  209MPD1     C 3226   1.397   1.040  11.595  0.1655  0.4922 -0.1254
  209MPD1    C1 3227   1.404   0.902  11.588 -0.6560  0.5029 -0.0634
  209MPD1    C2 3228   1.458   0.846  11.473  0.8825 -0.2364  0.2419
  209MPD1    C3 3229   1.493   0.922  11.365 -0.2947 -0.1471 -0.4679
  209MPD1    C4 3230   1.479   1.057  11.370 -0.1831 -0.4965  0.4684
  209MPD1    C5 3231   1.436   1.114  11.488  0.4796 -0.1890  1.3724
  209MPD1     H 3232   1.487   0.741  11.473 -1.8963 -1.0132  0.9025
  209MPD1    H1 3233   1.511   1.124  11.290 -2.0049 -1.6282 -1.1960
  209MPD1    H2 3234   1.370   1.087  11.689  0.5047 -1.9510  1.1958
  209MPD1    H3 3235   1.426   1.222  11.493  3.0961 -0.0663  3.9226
  209MPD1     N 3236   1.541   0.851  11.251  0.0152  0.3947 -0.3121
  209MPD1    H5 3237   1.573   0.755  11.263 -0.7698  0.2528  0.6078
  209MPD1    N1 3238   1.390   0.824  11.703 -0.1738 -0.0487  0.2479
  209MPD1    H6 3239   1.366   0.726  11.693 -1.6149  0.0942  2.3597
  209MPD1    H7 3240   1.315   0.864  11.759 -2.2816 -2.1289 -1.0883
  210MPD1     C 3241   1.698   4.717  10.913  0.0678 -0.3688  0.2271
  210MPD1    C1 3242   1.683   0.044  11.028  0.2869  0.4394  0.5155
  210MPD1    C2 3243   1.682   0.179  11.025 -0.5281 -0.2281  0.2441
  210MPD1    C3 3244   1.723   0.249  10.915  0.1269 -0.6505 -0.1701
  210MPD1    C4 3245   1.745   0.181  10.794 -0.2630 -0.8029 -0.1043
  210MPD1    C5 3246   1.736   0.045  10.801 -0.4981 -0.2478 -0.4336
  210MPD1     H 3247   1.671   0.234  11.118  0.5324  1.5316 -0.6976
  210MPD1    H1 3248   1.761   0.235  10.702  1.6599 -1.9856 -0.4422
  210MPD1    H2 3249   1.687   4.609  10.907 -0.2472 -0.3277  0.0527
  210MPD1    H3 3250   1.748   4.736  10.705  0.9540  0.6937 -0.7426
  210MPD1     N 3251   1.719   0.392  10.902 -0.6694  0.3860  0.1408
  210MPD1    H5 3252   1.728   0.425  10.807 -1.6871  1.2668  0.3485
  210MPD1    N1 3253   1.628   4.720  11.142 -0.7034 -0.3745  0.0972
  210MPD1    H6 3254   1.639   0.022  11.234  0.4423  0.6872 -0.5388
  210MPD1    H7 3255   1.635   4.619  11.130 -2.3597 -0.5275  0.3494
  211MPD1     C 3256   3.813   3.961  16.668  0.0058  0.2593 -0.3203
  211MPD1    C1 3257   3.688   4.020  16.673  0.4449 -0.6276 -0.1380
  211MPD1    C2 3258   3.681   4.161  16.679 -0.3533 -0.3204 -0.2198
  211MPD1    C3 3259   3.789   4.241  16.705 -0.1825 -0.0283  1.0622
  211MPD1    C4 3260   3.910   4.180  16.692  0.3890 -0.4463 -0.4106
  211MPD1    C5 3261   3.921   4.044  16.674  0.4683 -0.4087  0.4182
  211MPD1     H 3262   3.586   4.211  16.692  0.1978  0.7177 -0.2062
  211MPD1    H1 3263   4.000   4.239  16.684  0.5143 -0.7619 -1.2503
  211MPD1    H2 3264   3.831   3.854  16.662 -1.8047 -0.0673  0.0636
  211MPD1    H3 3265   4.023   4.007  16.671  0.1166 -1.1248 -2.3222
  211MPD1     N 3266   3.776   4.381  16.716 -0.5806  0.4553  0.4356
  211MPD1    H5 3267   3.684   4.421  16.697 -2.2791 -3.6036  0.2407
  211MPD1    N1 3268   3.576   3.941  16.644 -0.1143 -0.2660  0.4441
  211MPD1    H6 3269   3.483   3.970  16.675 -0.8349 -3.0183  0.8033
  211MPD1    H7 3270   3.575   3.841  16.659  2.2680  0.0918  2.9658
  212MPD1     C 3271   3.803   2.997  16.671 -0.2088  0.1289 -0.4481
  212MPD1    C1 3272   3.777   3.035  16.801  0.6160 -0.5743  0.3010
  212MPD1    C2 3273   3.727   2.938  16.887  0.3085 -0.1258  0.0881
  212MPD1    C3 3274   3.683   2.815  16.846 -0.5169 -0.3776 -0.0731
  212MPD1    C4 3275   3.709   2.782  16.716 -0.0557  0.4144 -0.2716
  212MPD1    C5 3276   3.764   2.876  16.631 -0.7445 -0.6571 -0.2248
  212MPD1     H 3277   3.718   2.964  16.992  2.3053 -0.1421  0.2637
  212MPD1    H1 3278   3.688   2.684  16.675 -3.9303  1.1207 -0.0103
  212MPD1    H2 3279   3.846   3.070  16.603 -2.4753  2.0803  0.2185
  212MPD1    H3 3280   3.781   2.844  16.529 -0.1330 -1.0447  0.0045
  212MPD1     N 3281   3.609   2.726  16.930  0.0778  0.0219 -0.7140
  212MPD1    H5 3282   3.590   2.634  16.892 -0.2844  0.2910 -1.1862
  212MPD1    N1 3283   3.830   3.156  16.857 -0.1075  0.4116 -0.0671
  212MPD1    H6 3284   3.862   3.225  16.789 -0.1886  0.2586 -0.2613
  212MPD1    H7 3285   3.765   3.205  16.919 -1.0555 -1.8141  0.6906
  213MPD1     C 3286   1.411   4.031  15.959  0.5153 -0.1876 -0.1607
  213MPD1    C1 3287   1.297   4.037  15.884 -0.7445  0.5958  0.2362
  213MPD1    C2 3288   1.315   3.988  15.760 -0.0499 -0.3211 -0.2597
  213MPD1    C3 3289   1.434   3.959  15.693  0.6158 -0.4617  0.1250
  213MPD1    C4 3290   1.546   3.965  15.769 -0.1168 -0.3887 -0.7205
  213MPD1    C5 3291   1.536   4.003  15.899 -0.5176 -0.5218  0.7608
  213MPD1     H 3292   1.228   3.966  15.699 -1.8117  0.8470  1.8806
  213MPD1    H1 3293   1.641   3.920  15.741 -0.3844 -2.7483  2.0510
  213MPD1    H2 3294   1.413   4.069  16.061  3.4658  1.8034 -0.9604
  213MPD1    H3 3295   1.621   4.005  15.966 -0.3920 -0.3546  0.6001
  213MPD1     N 3296   1.425   3.924  15.560 -0.3468 -0.4975  0.1243
  213MPD1    H5 3297   1.331   3.910  15.524  0.3541 -0.3860 -1.7211
  213MPD1    N1 3298   1.179   4.021  15.953  0.5915 -0.1882  0.1957
  213MPD1    H6 3299   1.185   4.075  16.038 -1.7268  0.4840 -0.0684
  213MPD1    H7 3300   1.097   4.054  15.903  0.9341  0.5905  0.1586
  214MPD1     C 3301   0.816   3.356  15.007 -0.7265 -0.8318  0.7591
  214MPD1    C1 3302   0.838   3.411  15.132  1.0231 -0.1813 -0.2170
  214MPD1    C2 3303   0.947   3.493  15.152 -0.4751  0.0674  0.0382
  214MPD1    C3 3304   1.044   3.516  15.056 -0.4970 -1.1133  0.4873
  214MPD1    C4 3305   1.025   3.446  14.931 -0.9029  0.9559 -0.3737
  214MPD1    C5 3306   0.905   3.377  14.904  0.3376  0.6291  0.1396
  214MPD1     H 3307   0.965   3.545  15.246 -1.1599  0.8234 -0.2469
  214MPD1    H1 3308   1.095   3.456  14.848  0.5642  0.9685  0.8664
  214MPD1    H2 3309   0.729   3.295  14.985 -2.6493  2.1870 -0.1010
  214MPD1    H3 3310   0.890   3.340  14.803 -0.2197 -1.7134  1.0825
  214MPD1     N 3311   1.159   3.602  15.080  0.1117  0.0910 -0.6555
  214MPD1    H5 3312   1.222   3.612  15.001 -0.7798 -0.2249 -1.4081
  214MPD1    N1 3313   0.761   3.355  15.239 -0.4297 -0.1328  0.2602
  214MPD1    H6 3314   0.773   3.410  15.323 -0.1235 -0.3781  0.3754
  214MPD1    H7 3315   0.662   3.344  15.216 -0.8014  0.0244  1.7922
  215MPD1     C 3316   1.318   4.430  10.762 -0.0039  0.0786  0.3657
  215MPD1    C1 3317   1.385   4.430  10.878 -0.4249 -0.0418 -0.3912
  215MPD1    C2 3318   1.392   4.564  10.937  0.0606 -0.1930  0.0633
  215MPD1    C3 3319   1.350   4.683  10.874  0.0895  0.2783 -0.4699
  215MPD1    C4 3320   1.301   4.668  10.749 -0.2342 -0.2831  0.6062
  215MPD1    C5 3321   1.282   4.547  10.696  0.4977 -0.0993  0.9116
  215MPD1     H 3322   1.427   4.574  11.040  2.3139  1.4104 -0.8532
  215MPD1    H1 3323   1.294   0.020  10.692  2.0021 -1.0172 -0.8607
  215MPD1    H2 3324   1.287   4.344  10.704  0.6207  1.3241 -1.8229
  215MPD1    H3 3325   1.242   4.550  10.595 -2.2197 -1.9377  1.9496
  215MPD1     N 3326   1.386   0.066  10.942 -0.7087  0.5588 -0.3342
  215MPD1    H5 3327   1.450   0.060  11.020 -2.1777 -0.5664  0.7911
  215MPD1    N1 3328   1.422   4.317  10.954 -0.3228 -0.2450 -0.7961
  215MPD1    H6 3329   1.500   4.346  11.013 -2.7330  2.5236  1.0216
  215MPD1    H7 3330   1.448   4.253  10.879 -0.6938 -0.6334 -0.5906
  216MPD1     C 3331   4.080   2.818   0.137  0.0174 -0.7640 -0.5553
  216MPD1    C1 3332   4.112   2.747   0.022 -0.0301 -0.4815 -0.8659
  216MPD1    C2 3333   4.099   2.608   0.033 -0.0032 -0.0693 -0.3781
  216MPD1    C3 3334   4.041   2.549   0.143 -0.3376  0.8333 -0.2986
  216MPD1    C4 3335   4.023   2.624   0.257  0.4454  0.6556  0.4876
  216MPD1    C5 3336   4.038   2.755   0.252  0.1256 -0.0718 -0.0821
  216MPD1     H 3337   4.114   2.548  17.702  1.9799  1.2404 -0.9248
  216MPD1    H1 3338   3.995   2.580   0.352  0.0720  0.6465  0.3741
  216MPD1    H2 3339   4.083   2.926   0.141 -1.8701 -0.6969 -0.8174
  216MPD1    H3 3340   4.027   2.812   0.344  0.7126  0.0125 -0.0634
  216MPD1     N 3341   4.018   2.412   0.138  0.3183  0.0934 -0.4492
  216MPD1    H5 3342   4.046   2.366   0.051  2.0849  2.4330 -1.1107
  216MPD1    N1 3343   4.189   2.807  17.678 -0.3445  0.6508 -0.0282
  216MPD1    H6 3344   4.166   2.900  17.645 -0.8660  0.9487  1.1545
  216MPD1    H7 3345   4.180   2.749  17.595  0.9403  0.6486 -0.1682
  217MPD1     C 3346   3.423   0.158   8.807  0.7713  0.1551  0.1836
  217MPD1    C1 3347   3.414   0.019   8.803  0.0634  0.6504 -0.2878
  217MPD1    C2 3348   3.446   4.679   8.913 -0.1373 -0.3809  0.6177
  217MPD1    C3 3349   3.468   4.735   9.044 -0.3524  0.5109  0.4346
  217MPD1    C4 3350   3.474   0.135   9.051 -0.0463  0.0300 -0.5908
  217MPD1    C5 3351   3.458   0.205   8.932 -0.1973 -0.2522  0.2781
  217MPD1     H 3352   3.442   4.572   8.897 -1.9681 -0.8159  3.9244
  217MPD1    H1 3353   3.485   0.194   9.141  1.2930 -0.3495 -0.5107
  217MPD1    H2 3354   3.409   0.221   8.720 -1.1599 -1.2566 -0.5381
  217MPD1    H3 3355   3.467   0.313   8.928  0.2271 -0.3734 -2.3666
  217MPD1     N 3356   3.496   4.669   9.165  0.4335 -0.2999 -0.4312
  217MPD1    H5 3357   3.495   4.728   9.248 -0.7472  0.6160 -1.1036
  217MPD1    N1 3358   3.389   4.697   8.677 -0.6361 -0.0602 -0.5277
  217MPD1    H6 3359   3.328   0.020   8.626 -0.0884  1.1446  0.3093
  217MPD1    H7 3360   3.348   4.604   8.677 -0.4512 -0.1433 -0.7925
  218MPD1     C 3361   1.047   0.855  12.005 -0.0443 -0.1243  1.0631
  218MPD1    C1 3362   1.085   0.731  12.045 -0.0771  0.0664  0.1156
  218MPD1    C2 3363   1.218   0.705  12.079 -0.0841  0.3907  0.1870
  218MPD1    C3 3364   1.304   0.812  12.111 -0.5753 -0.2236 -0.2926
  218MPD1    C4 3365   1.260   0.938  12.081 -1.2804 -0.1334 -0.2165
  218MPD1    C5 3366   1.137   0.958  12.020  0.0965 -0.5490  0.4362
  218MPD1     H 3367   1.252   0.602  12.086  0.4253  0.5601  0.1620
  218MPD1    H1 3368   1.320   1.026  12.101 -2.4947  0.8899 -1.1155
  218MPD1    H2 3369   0.951   0.862  11.955 -0.8396 -4.1016  1.9827
  218MPD1    H3 3370   1.113   1.057  11.984  3.9481 -0.0922 -0.8905
  218MPD1     N 3371   1.431   0.778  12.156  0.3347 -0.0603  0.4481
  218MPD1    H5 3372   1.438   0.678  12.171  2.3746 -0.1896 -1.4043
  218MPD1    N1 3373   0.993   0.623  12.038 -0.2348  0.8934  0.0836
  218MPD1    H6 3374   1.017   0.562  12.116  1.5905  2.6932  0.9390
  218MPD1    H7 3375   0.898   0.659  12.045  0.2631  2.1479  0.4296
  219MPD1     C 3376   2.346   0.989  11.932 -0.4475 -0.1930 -0.0971
  219MPD1    C1 3377   2.375   0.923  12.046  0.0832  0.6989 -0.5914
  219MPD1    C2 3378   2.264   0.887  12.120 -0.2698  0.5684  0.1792
  219MPD1    C3 3379   2.130   0.930  12.088 -0.2598  0.0767 -0.2713
  219MPD1    C4 3380   2.107   1.013  11.979 -0.1157  0.2089 -0.5533
  219MPD1    C5 3381   2.220   1.037  11.895 -0.2741 -0.0027  0.6036
  219MPD1     H 3382   2.281   0.827  12.208 -0.5394 -0.6831 -0.6307
  219MPD1    H1 3383   2.004   1.037  11.956  0.1494  0.3534 -1.5566
  219MPD1    H2 3384   2.426   1.002  11.859  0.3255 -3.1561  0.2324
  219MPD1    H3 3385   2.204   1.101  11.810 -0.2392 -0.3840  0.3093
  219MPD1     N 3386   2.012   0.889  12.156 -0.3678 -0.7282  1.0097
  219MPD1    H5 3387   1.927   0.935  12.124  0.0128 -0.0913  0.9002
  219MPD1    N1 3388   2.506   0.862  12.073  0.2052 -0.0952  0.1813
  219MPD1    H6 3389   2.585   0.924  12.058  0.1014  0.0785  0.3487
  219MPD1    H7 3390   2.520   0.834  12.169 -0.1865 -2.3212 -0.4142
  220MPD1     C 3391   0.683   0.623   9.658  0.1821 -0.3796  0.2865
  220MPD1    C1 3392   0.564   0.680   9.687 -0.4844  0.1714  0.5149
  220MPD1    C2 3393   0.532   0.708   9.823 -0.4832 -0.5028 -0.2526
  220MPD1    C3 3394   0.616   0.668   9.925 -0.0255  0.1277 -0.8728
  220MPD1    C4 3395   0.738   0.608   9.888 -0.1763 -0.6095  0.3633
  220MPD1    C5 3396   0.773   0.594   9.755 -0.5253 -0.6700 -0.1148
  220MPD1     H 3397   0.430   0.737   9.844 -1.1509 -2.4683 -0.7096
  220MPD1    H1 3398   0.812   0.572   9.959  0.4103 -1.1328 -0.5095
  220MPD1    H2 3399   0.709   0.602   9.554 -2.8065 -0.8791 -0.3478
  220MPD1    H3 3400   0.865   0.543   9.730 -0.4051  0.3832 -1.7660
  220MPD1     N 3401   0.575   0.691  10.056 -0.1977  0.3845 -0.0108
  220MPD1    H5 3402   0.480   0.723  10.062 -0.6770 -0.9963 -0.1315
  220MPD1    N1 3403   0.476   0.693   9.584  0.2950  0.4355 -1.3094
  220MPD1    H6 3404   0.406   0.762   9.610 -0.1420 -0.0979 -1.0643
  220MPD1    H7 3405   0.521   0.709   9.495  3.8471  1.5030  0.6867
  221MPD1     C 3406   4.601   3.517  16.356  0.0331  0.2469  0.1419
  221MPD1    C1 3407   4.532   3.500  16.238  0.4456  0.0731 -0.1382
  221MPD1    C2 3408   4.506   3.606  16.153 -0.4692 -0.1982 -0.4761
  221MPD1    C3 3409   4.537   3.737  16.199  0.0823  0.1031  0.3369
  221MPD1    C4 3410   4.602   3.753  16.320  0.6033 -0.4165 -0.6528
  221MPD1    C5 3411   4.633   3.642  16.390 -0.0975  0.6699  0.0472
  221MPD1     H 3412   4.464   3.591  16.055  1.4486 -3.0665 -0.8619
  221MPD1    H1 3413   4.616   3.853  16.359 -2.3417  0.2589 -1.3429
  221MPD1    H2 3414   4.642   3.431  16.408 -2.0339 -0.2205  0.9798
  221MPD1    H3 3415   4.689   3.646  16.483 -0.8652 -0.6520  0.5667
  221MPD1     N 3416   4.511   3.851  16.117  0.3962  0.2472  0.1869
  221MPD1    H5 3417   4.555   3.936  16.150  1.8117 -0.7229  0.8192
  221MPD1    N1 3418   4.503   3.372  16.183 -0.2659  0.2661  0.3430
  221MPD1    H6 3419   4.491   3.298  16.252  0.5380 -1.2432 -1.1241
  221MPD1    H7 3420   4.419   3.370  16.126  0.2740  3.7277 -0.5335
  222MPD1     C 3421   2.825   2.663   0.235 -0.3256  0.1831  0.8805
  222MPD1    C1 3422   2.897   2.697   0.125 -0.0178  0.2501  0.4416
  222MPD1    C2 3423   2.918   2.827   0.100 -0.2051  0.1838  0.5616
  222MPD1    C3 3424   2.883   2.924   0.195  0.0773  0.0874  0.1437
  222MPD1    C4 3425   2.815   2.889   0.308  0.1510 -0.2084  0.0510
  222MPD1    C5 3426   2.783   2.760   0.321  0.3102  0.5496  0.0323
  222MPD1     H 3427   2.977   2.859   0.016  0.7368  0.0958  1.1883
  222MPD1    H1 3428   2.781   2.959   0.384  2.2452 -0.6073  1.3668
  222MPD1    H2 3429   2.802   2.561   0.264  3.3569 -1.0089 -0.4576
  222MPD1    H3 3430   2.721   2.727   0.404 -0.1256  0.0049 -0.5152
  222MPD1     N 3431   2.890   3.066   0.174 -0.0977 -0.0546 -0.4720
  222MPD1    H5 3432   2.857   3.128   0.248 -1.9387  0.2063 -1.4958
  222MPD1    N1 3433   2.937   2.590   0.037 -0.4746  1.0532 -0.4434
  222MPD1    H6 3434   3.027   2.600  17.748  0.0727 -0.5443  0.2455
  222MPD1    H7 3435   2.935   2.499   0.082 -2.2198  1.9021  1.1630
  223MPD1     C 3436   2.480   3.835  17.274  0.9536  0.1887 -0.1931
  223MPD1    C1 3437   2.504   3.892  17.396  0.1527 -0.0853  0.5774
  223MPD1    C2 3438   2.572   3.815  17.493 -0.1082 -0.7928 -0.8461
  223MPD1    C3 3439   2.585   3.677  17.475 -0.6800 -0.1261 -0.1279
  223MPD1    C4 3440   2.550   3.620  17.354 -0.8325 -0.2336  0.2275
  223MPD1    C5 3441   2.494   3.698  17.256  0.4320  0.2684 -0.4330
  223MPD1     H 3442   2.612   3.867  17.580 -0.5287  0.6496 -1.5040
  223MPD1    H1 3443   2.577   3.517  17.333 -1.0369 -0.3997  0.7640
  223MPD1    H2 3444   2.447   3.895  17.190  0.4461 -1.1171 -0.9136
  223MPD1    H3 3445   2.477   3.663  17.155 -1.3727  2.0609 -0.7418
  223MPD1     N 3446   2.652   3.611  17.577  0.5690 -0.1931 -0.7833
  223MPD1    H5 3447   2.680   3.669  17.655 -0.3719  0.0193 -0.6018
  223MPD1    N1 3448   2.502   4.033  17.394  0.1070  0.0254  0.7100
  223MPD1    H6 3449   2.429   4.080  17.341  1.2387  0.2763 -0.6204
  223MPD1    H7 3450   2.516   4.084  17.481  1.6154 -0.7956  0.9481
  224MPD1     C 3451   3.904   4.574   8.954 -0.4655 -0.0378 -0.2753
  224MPD1    C1 3452   3.829   4.687   8.985  0.3159  0.5070 -0.2202
  224MPD1    C2 3453   3.827   4.731   9.116 -0.7481  0.3435  0.4872
  224MPD1    C3 3454   3.897   4.668   9.216  0.1883 -0.5857 -0.2192
  224MPD1    C4 3455   3.971   4.557   9.183  0.5259 -0.3427  0.4625
  224MPD1    C5 3456   3.984   4.517   9.053 -0.9680  0.1867  0.3572
  224MPD1     H 3457   3.764   0.075   9.146 -1.1472 -0.0989  0.8854
  224MPD1    H1 3458   4.027   4.504   9.259  0.7578 -0.0352  0.5084
  224MPD1    H2 3459   3.919   4.529   8.857  2.3555  0.6186 -0.1495
  224MPD1    H3 3460   4.045   4.431   9.028  1.1719  2.1314 -1.1321
  224MPD1     N 3461   3.894   4.710   9.347  0.1824 -0.5552  0.2724
  224MPD1    H5 3462   3.956   4.650   9.401  2.0922  0.1195 -1.1542
  224MPD1    N1 3463   3.781   0.031   8.884  0.1995  0.3742  0.5470
  224MPD1    H6 3464   3.700   0.083   8.918  1.2073  1.6938  0.9629
  224MPD1    H7 3465   3.754   4.723   8.798 -0.5867 -1.2676  1.7259
  225MPD1     C 3466   1.027   1.517  12.335 -0.4594 -0.5065 -0.3567
  225MPD1    C1 3467   0.948   1.429  12.268 -0.0433 -0.1039 -0.2979
  225MPD1    C2 3468   0.825   1.403  12.319  0.4216 -0.5046  0.0879
  225MPD1    C3 3469   0.786   1.451  12.445 -0.3293  0.5263 -0.1267
  225MPD1    C4 3470   0.870   1.542  12.508  0.1690  0.1210  0.6833
  225MPD1    C5 3471   0.985   1.583  12.450  0.1162  0.6057  0.1015
  225MPD1     H 3472   0.758   1.346  12.256  1.6636 -2.0689  0.1729
  225MPD1    H1 3473   0.847   1.583  12.606  0.4620  2.2101 -0.1125
  225MPD1    H2 3474   1.120   1.549  12.290 -0.2083 -0.3837  0.2500
  225MPD1    H3 3475   1.043   1.661  12.496 -2.6648  0.4836  3.8854
  225MPD1     N 3476   0.657   1.422  12.502  0.0578 -0.4342  1.1420
  225MPD1    H5 3477   0.623   1.483  12.575  2.8832  4.0010 -1.2346
  225MPD1    N1 3478   0.991   1.379  12.144  0.1647  0.0894 -0.4030
  225MPD1    H6 3479   0.958   1.283  12.134 -0.3471  0.2326 -0.0736
  225MPD1    H7 3480   1.091   1.387  12.126  0.5834  0.6738  2.2370
  226MPD1     C 3481   2.233   1.209   9.562  0.3441  0.2711 -0.2542
  226MPD1    C1 3482   2.292   1.083   9.543 -0.2869  0.3495 -0.1719
  226MPD1    C2 3483   2.429   1.075   9.539  0.3931  1.1474 -0.1419
  226MPD1    C3 3484   2.516   1.184   9.560 -0.2250 -0.1597  0.0862
  226MPD1    C4 3485   2.453   1.299   9.590  0.2322 -0.3398  1.1392
  226MPD1    C5 3486   2.316   1.311   9.590 -0.4657  0.3154 -0.0381
  226MPD1     H 3487   2.477   0.982   9.512  0.6008  1.3270 -0.3900
  226MPD1    H1 3488   2.517   1.386   9.602 -1.2072  0.9229 -0.3367
  226MPD1    H2 3489   2.126   1.228   9.568  0.0985 -1.4564  1.1157
  226MPD1    H3 3490   2.274   1.408   9.614 -2.0314 -0.2242 -0.6195
  226MPD1     N 3491   2.658   1.158   9.538 -0.8709  0.2459 -0.5968
  226MPD1    H5 3492   2.687   1.061   9.524  0.5180  0.6030 -0.1835
  226MPD1    N1 3493   2.211   0.973   9.511  0.2656 -0.3118 -0.0738
  226MPD1    H6 3494   2.120   0.976   9.557 -0.3967 -0.5754 -1.3368
  226MPD1    H7 3495   2.259   0.884   9.525  1.0418  0.1862  0.3824
  227MPD1     C 3496   3.572   1.322   9.031  0.8477 -0.1741  0.6025
  227MPD1    C1 3497   3.564   1.197   9.085 -0.2948  0.9280  1.0053
  227MPD1    C2 3498   3.459   1.171   9.173  1.0826 -0.2253  0.0572
  227MPD1    C3 3499   3.371   1.275   9.211 -0.0131  0.0719 -0.2788
  227MPD1    C4 3500   3.381   1.401   9.158  0.4541 -0.7172  0.4374
  227MPD1    C5 3501   3.485   1.422   9.074  0.2652  0.4942 -0.5264
  227MPD1     H 3502   3.447   1.073   9.216 -0.5020 -0.1315 -0.1411
  227MPD1    H1 3503   3.323   1.485   9.194 -1.2994 -1.6294 -0.2874
  227MPD1    H2 3504   3.643   1.347   8.953  0.0002  1.5613  0.3969
  227MPD1    H3 3505   3.512   1.524   9.048  1.2350  0.3173 -0.2506
  227MPD1     N 3506   3.271   1.242   9.309 -0.0590  0.1086 -0.2028
  227MPD1    H5 3507   3.268   1.144   9.336  0.2615  0.2849  0.4722
  227MPD1    N1 3508   3.651   1.101   9.039 -0.1452 -0.2772  0.5791
  227MPD1    H6 3509   3.737   1.153   9.021 -0.2803  0.1983  1.3188
  227MPD1    H7 3510   3.664   1.024   9.104 -0.6171 -1.4748 -0.7376
  228MPD1     C 3511   2.802   3.741  13.047 -0.3332 -0.0241 -1.3382
  228MPD1    C1 3512   2.706   3.691  13.131  0.1180 -0.2576 -0.5645
  228MPD1    C2 3513   2.584   3.657  13.083 -0.1948 -0.3173 -0.2463
  228MPD1    C3 3514   2.549   3.680  12.950  0.1914 -0.1841  0.0603
  228MPD1    C4 3515   2.646   3.741  12.871 -0.2435  0.1165  0.4411
  228MPD1    C5 3516   2.769   3.774  12.920  0.3308  0.7213 -0.0700
  228MPD1     H 3517   2.511   3.604  13.143  0.6765  1.1623  2.1305
  228MPD1    H1 3518   2.629   3.763  12.767  2.9066  1.2558  0.1563
  228MPD1    H2 3519   2.895   3.779  13.087  0.1160  0.8149 -3.2006
  228MPD1    H3 3520   2.837   3.815  12.846 -1.9540  1.8491 -1.5418
  228MPD1     N 3521   2.418   3.633  12.901 -0.3973 -0.5093 -0.0424
  228MPD1    H5 3522   2.348   3.590  12.961  0.5196 -0.9829  0.6840
  228MPD1    N1 3523   2.745   3.655  13.263 -0.6909  0.7639  0.2796
  228MPD1    H6 3524   2.669   3.646  13.331  1.5332 -0.7869  2.5265
  228MPD1    H7 3525   2.799   3.736  13.295  0.1323  0.7625 -1.1203
  229MPD1     C 3526   1.780   2.269  15.069  0.3942 -0.1951  0.7126
  229MPD1    C1 3527   1.901   2.325  15.042  0.4659 -0.0396 -0.4329
  229MPD1    C2 3528   2.004   2.291  15.122 -0.5102 -0.9136 -0.4742
  229MPD1    C3 3529   1.997   2.196  15.222 -0.7330 -0.3990  0.5812
  229MPD1    C4 3530   1.872   2.139  15.246  0.8630  0.1176 -0.3862
  229MPD1    C5 3531   1.766   2.171  15.164  0.0218 -0.0365  0.3823
  229MPD1     H 3532   2.095   2.347  15.104 -0.5233 -0.3223  1.3241
  229MPD1    H1 3533   1.858   2.058  15.317  1.1259 -0.8353 -1.4066
  229MPD1    H2 3534   1.687   2.303  15.025 -0.6237 -2.3310  1.2199
  229MPD1    H3 3535   1.674   2.116  15.184 -0.0468 -0.0997 -0.0970
  229MPD1     N 3536   2.111   2.146  15.293 -0.1758  0.8741  0.5858
  229MPD1    H5 3537   2.090   2.080  15.367  0.0861 -0.1608 -0.2469
  229MPD1    N1 3538   1.906   2.437  14.959  0.4285  0.5515 -0.3032
  229MPD1    H6 3539   1.839   2.434  14.881 -0.1983 -3.2617  0.3949
  229MPD1    H7 3540   1.994   2.453  14.911  0.4465 -2.8140 -1.3743
  230MPD1     C 3541   2.197   1.785  16.070 -0.6127 -0.4771  0.4468
  230MPD1    C1 3542   2.334   1.798  16.047  0.3641  0.6346  0.0610
  230MPD1    C2 3543   2.370   1.852  15.925 -0.1098 -0.0672 -0.3794
  230MPD1    C3 3544   2.277   1.900  15.833  0.0896  0.0430  0.5505
  230MPD1    C4 3545   2.148   1.902  15.869  0.1688 -0.7184 -0.0993
  230MPD1    C5 3546   2.109   1.830  15.978  0.3602 -0.1816 -0.4061
  230MPD1     H 3547   2.476   1.850  15.901  0.4020  0.5826  1.8650
  230MPD1    H1 3548   2.065   1.931  15.805  0.5595  0.4496 -0.0735
  230MPD1    H2 3549   2.158   1.742  16.161 -1.4090  2.2334  1.3675
  230MPD1    H3 3550   2.004   1.821  16.002  0.1360  0.5665 -1.1232
  230MPD1     N 3551   2.305   1.947  15.699 -0.3358  0.2403  0.5852
  230MPD1    H5 3552   2.228   1.939  15.633 -0.3243  1.1655  0.4666
  230MPD1    N1 3553   2.419   1.726  16.133 -0.0467 -0.0868  0.3014
  230MPD1    H6 3554   2.514   1.760  16.127  0.0265 -0.4850 -0.8603
  230MPD1    H7 3555   2.386   1.718  16.229  0.7872 -0.3719  0.5643
  231MPD1     C 3556   0.599   3.619  15.529 -0.6369 -0.6639 -0.1053
  231MPD1    C1 3557   0.540   3.626  15.400  1.0443 -0.1595  0.2433
  231MPD1    C2 3558   0.614   3.687  15.300 -0.4419  0.3391  0.7900
  231MPD1    C3 3559   0.737   3.745  15.321  0.0309  0.6115  0.2440
  231MPD1    C4 3560   0.794   3.733  15.446  0.2258  0.0121 -0.4145
  231MPD1    C5 3561   0.721   3.683  15.549  0.5562  0.3188 -0.4966
  231MPD1     H 3562   0.567   3.689  15.202 -1.4664  1.3632  1.2910
  231MPD1    H1 3563   0.892   3.773  15.466  1.5799 -3.5103 -0.0316
  231MPD1    H2 3564   0.556   3.569  15.614 -1.4088 -1.2262 -0.8269
  231MPD1    H3 3565   0.764   3.687  15.649  1.2425  0.0889 -0.7804
  231MPD1     N 3566   0.799   3.800  15.207  0.2013 -0.5035 -0.5068
  231MPD1    H5 3567   0.759   3.785  15.115  0.4157  1.4171 -0.9182
  231MPD1    N1 3568   0.425   3.559  15.357 -0.1730  0.0444  0.7448
  231MPD1    H6 3569   0.371   3.608  15.285 -0.3502 -1.4792 -0.1621
  231MPD1    H7 3570   0.370   3.549  15.442  1.8970 -1.9625  1.8380
  232MPD1     C 3571   2.756   1.613   0.921  0.1161 -0.7128  0.3454
  232MPD1    C1 3572   2.686   1.494   0.931  0.5667  0.9380 -0.4654
  232MPD1    C2 3573   2.620   1.446   0.821 -0.3955  0.5624 -0.3601
  232MPD1    C3 3574   2.616   1.516   0.702  0.1116  0.7775  1.1222
  232MPD1    C4 3575   2.688   1.635   0.691  0.4815  0.0283 -0.2529
  232MPD1    C5 3576   2.750   1.685   0.801  1.0985  0.6291  0.4420
  232MPD1     H 3577   2.560   1.356   0.829 -1.6648  1.4170 -0.3110
  232MPD1    H1 3578   2.701   1.699   0.604  1.9880 -1.4840 -1.1370
  232MPD1    H2 3579   2.812   1.651   1.006 -0.4462  1.0884 -0.0788
  232MPD1    H3 3580   2.802   1.778   0.780 -0.8715  1.1908 -2.0229
  232MPD1     N 3581   2.544   1.457   0.595 -0.1611 -0.4787 -0.3925
  232MPD1    H5 3582   2.490   1.372   0.602  0.1683 -0.5295  1.4883
  232MPD1    N1 3583   2.680   1.424   1.050  0.0026 -0.6305 -0.0874
  232MPD1    H6 3584   2.613   1.348   1.066 -0.4875  0.2711  2.1949
  232MPD1    H7 3585   2.679   1.487   1.130  2.6834  0.2071 -0.7194
  233MPD1     C 3586   2.897   4.603  17.305 -0.6669 -0.1425  0.4842
  233MPD1    C1 3587   3.010   4.644  17.360 -0.3611 -0.7718 -0.4477
  233MPD1    C2 3588   3.044   4.601  17.488  0.0781  0.1910 -0.5327
  233MPD1    C3 3589   2.947   4.539  17.561  0.4980  0.1155  0.0650
  233MPD1    C4 3590   2.827   4.508  17.506 -0.3086  0.3273  0.1863
  233MPD1    C5 3591   2.808   4.535  17.374 -0.1740  0.0449  0.7246
  233MPD1     H 3592   3.145   4.624  17.519 -0.0047  0.7493 -0.6684
  233MPD1    H1 3593   2.753   4.450  17.560 -0.9367 -0.5617 -1.6351
  233MPD1    H2 3594   2.881   4.631  17.202 -2.3603  0.5342  0.9498
  233MPD1    H3 3595   2.720   4.494  17.327 -0.5986  3.6165 -1.5949
  233MPD1     N 3596   2.975   4.485  17.687  0.1345  0.0911 -0.1456
  233MPD1    H5 3597   2.905   4.421  17.723 -1.2146  0.2676 -2.4131
  233MPD1    N1 3598   3.106   4.690  17.270  0.3387 -0.6863 -0.4093
  233MPD1    H6 3599   3.064   0.004  17.195  0.9657  2.7652  1.7190
  233MPD1    H7 3600   3.187   4.726  17.321 -0.9914 -0.2349  1.4220
  234MPD1     C 3601   0.214   3.476   9.513 -0.4278 -0.5067  0.3596
  234MPD1    C1 3602   0.126   3.527   9.428  0.4316 -0.5618 -0.1361
  234MPD1    C2 3603   0.037   3.636   9.464  0.2363  0.7788 -0.1712
  234MPD1    C3 3604   0.033   3.677   9.595  0.3742  0.3859  0.3283
  234MPD1    C4 3605   0.118   3.617   9.685 -0.7708 -0.8694 -0.5397
  234MPD1    C5 3606   0.209   3.526   9.641  0.1294  0.2151 -0.6826
  234MPD1     H 3607   4.712   3.682   9.390  1.6220  1.1294 -1.1756
  234MPD1    H1 3608   0.102   3.635   9.791 -0.1226  4.2521 -1.3158
  234MPD1    H2 3609   0.289   3.404   9.482 -0.8176 -0.3957 -0.8412
  234MPD1    H3 3610   0.272   3.483   9.718 -0.7132  3.0165  1.5562
  234MPD1     N 3611   4.670   3.767   9.631 -0.3610  0.4143 -0.0493
  234MPD1    H5 3612   4.596   3.777   9.562  1.2700  1.5820 -1.6209
  234MPD1    N1 3613   0.142   3.495   9.294  0.2918  0.5710  0.4834
  234MPD1    H6 3614   0.058   3.498   9.237  2.0699 -1.5462 -2.2028
  234MPD1    H7 3615   0.184   3.403   9.292 -1.0385 -0.0074 -0.2096
  235MPD1     C 3616   0.647   1.236  10.520 -0.2844  0.0874  0.2383
  235MPD1    C1 3617   0.627   1.364  10.483  0.6176  0.1805  0.0976
  235MPD1    C2 3618   0.738   1.428  10.420  0.7801  0.4202 -0.0787
  235MPD1    C3 3619   0.860   1.366  10.404 -0.5119  0.3197 -0.1667
  235MPD1    C4 3620   0.868   1.236  10.438 -0.8953  0.0627  0.5991
  235MPD1    C5 3621   0.764   1.168  10.487  0.5754 -0.4520 -0.0411
  235MPD1     H 3622   0.724   1.533  10.394 -2.8999 -0.8411 -3.1875
  235MPD1    H1 3623   0.960   1.178  10.439 -0.5362  0.6083 -0.4093
  235MPD1    H2 3624   0.572   1.176  10.569  0.7815 -0.6776  0.9355
  235MPD1    H3 3625   0.779   1.067  10.524  0.0079 -0.5738 -0.1520
  235MPD1     N 3626   0.975   1.441  10.366  0.0121  0.4823 -0.1327
  235MPD1    H5 3627   0.953   1.526  10.315 -0.4774 -0.7642 -2.0084
  235MPD1    N1 3628   0.517   1.436  10.524  0.0532  1.0649  0.0933
  235MPD1    H6 3629   0.435   1.389  10.560  1.3142 -0.6306  0.7571
  235MPD1    H7 3630   0.476   1.500  10.456 -0.1635  0.4090 -0.3927
  236MPD1     C 3631   0.087   3.402  10.527 -0.1578  0.1616  0.5967
  236MPD1    C1 3632   0.197   3.480  10.534  0.3304 -0.0712  0.0626
  236MPD1    C2 3633   0.321   3.421  10.487 -0.0854 -0.0880 -0.1869
  236MPD1    C3 3634   0.328   3.291  10.445  0.4356  0.8920 -0.5921
  236MPD1    C4 3635   0.211   3.221  10.434  0.0526 -0.7322 -0.3167
  236MPD1    C5 3636   0.091   3.275  10.472  0.1993 -0.0403  0.7913
  236MPD1     H 3637   0.415   3.475  10.494 -0.3978  0.0746  2.6157
  236MPD1    H1 3638   0.210   3.119  10.396 -1.2180 -0.1179 -1.9447
  236MPD1    H2 3639   4.729   3.443  10.547  0.0084  1.4322 -1.2616
  236MPD1    H3 3640   4.736   3.223  10.468  0.7511 -0.9831 -0.2199
  236MPD1     N 3641   0.443   3.221  10.412 -0.8307  0.2806 -0.5523
  236MPD1    H5 3642   0.438   3.122  10.389 -0.3288 -0.0913  0.9364
  236MPD1    N1 3643   0.183   3.614  10.581  0.3907 -0.2561 -0.1626
  236MPD1    H6 3644   0.090   3.637  10.616  0.1287  0.7183 -1.5011
  236MPD1    H7 3645   0.255   3.645  10.645  0.1282 -0.7267  0.3611
  237MPD1     C 3646   1.390   0.145  14.849  0.5129  0.5617  1.0611
  237MPD1    C1 3647   1.341   0.246  14.778 -0.6103 -0.5133  0.3828
  237MPD1    C2 3648   1.231   0.311  14.836 -0.2610  0.2344 -0.1654
  237MPD1    C3 3649   1.166   0.264  14.949  0.2217  0.1462  0.6627
  237MPD1    C4 3650   1.206   0.152  15.004 -0.5639  0.1736 -0.4894
  237MPD1    C5 3651   1.321   0.093  14.953  0.2763 -0.3198  0.2841
  237MPD1     H 3652   1.195   0.397  14.780 -0.5453  0.7579  0.8350
  237MPD1    H1 3653   1.148   0.095  15.077 -1.0998  2.9624  1.2674
  237MPD1    H2 3654   1.479   0.095  14.813  0.1469  1.7767 -1.5969
  237MPD1    H3 3655   1.350   0.000  15.002  0.7672  0.5166  1.5702
  237MPD1     N 3656   1.044   0.324  15.005 -0.1680 -0.5935  0.3962
  237MPD1    H5 3657   1.005   0.276  15.086  0.1943 -0.3555  0.7111
  237MPD1    N1 3658   1.385   0.276  14.645  0.4147 -0.0798 -0.4671
  237MPD1    H6 3659   1.398   0.375  14.629 -1.3704  0.6538  2.7294
  237MPD1    H7 3660   1.477   0.230  14.640  0.4329 -0.1622  0.6508
  238MPD1     C 3661   2.731   3.853  14.965 -0.2573 -0.1265 -0.6752
  238MPD1    C1 3662   2.746   3.775  14.854  0.7464 -0.1157 -0.4760
  238MPD1    C2 3663   2.638   3.769  14.763  0.0545 -0.0803 -0.6259
  238MPD1    C3 3664   2.538   3.855  14.781  0.0040 -0.3926 -0.5914
  238MPD1    C4 3665   2.519   3.936  14.897  0.5787 -0.0971  0.4944
  238MPD1    C5 3666   2.622   3.938  14.985 -0.0310  0.1290  0.3000
  238MPD1     H 3667   2.647   3.714  14.669 -0.5795 -1.3139  0.0270
  238MPD1    H1 3668   2.436   4.002  14.919 -0.3083 -0.2373 -2.4528
  238MPD1    H2 3669   2.796   3.858  15.051 -2.5143 -0.9968  1.0507
  238MPD1    H3 3670   2.619   3.997  15.076 -0.3346  0.8020 -0.1509
  238MPD1     N 3671   2.423   3.846  14.696  0.0466 -0.2239 -0.3962
  238MPD1    H5 3672   2.335   3.874  14.740 -0.3547 -1.6061 -0.3087
  238MPD1    N1 3673   2.844   3.670  14.859 -0.8970 -0.2576 -0.3170
  238MPD1    H6 3674   2.859   3.634  14.764 -3.5567 -1.8294 -0.1387
  238MPD1    H7 3675   2.926   3.705  14.907 -0.8014  1.3950 -1.6918
  239MPD1     C 3676   3.035   0.566  14.588 -0.6556 -0.5143 -0.4380
  239MPD1    C1 3677   3.070   0.430  14.584  0.1687 -0.3339 -0.5939
  239MPD1    C2 3678   2.993   0.346  14.507 -0.3156 -0.0515  0.0697
  239MPD1    C3 3679   2.893   0.392  14.428  0.0384  0.2242 -0.5646
  239MPD1    C4 3680   2.867   0.520  14.434 -0.2355 -0.3447 -0.2543
  239MPD1    C5 3681   2.946   0.612  14.501  0.5896 -0.8504 -0.4609
  239MPD1     H 3682   3.016   0.240  14.501 -0.7538 -0.0896 -1.0756
  239MPD1    H1 3683   2.795   0.553  14.360  1.6854  1.1665 -1.4424
  239MPD1    H2 3684   3.075   0.644  14.652 -0.5642 -2.3385  1.7287
  239MPD1    H3 3685   2.933   0.719  14.494 -0.0114 -0.8647  0.4050
  239MPD1     N 3686   2.828   0.311  14.329 -0.2803 -0.2186 -0.5444
  239MPD1    H5 3687   2.750   0.358  14.283 -0.9796 -0.0808  0.7766
  239MPD1    N1 3688   3.156   0.386  14.690  0.0007 -0.2636  1.1793
  239MPD1    H6 3689   3.220   0.465  14.697  0.7450 -0.7660  0.0515
  239MPD1    H7 3690   3.215   0.305  14.674 -0.6876 -0.7913  1.3043
  240MPD1     C 3691   1.031   0.202  13.187 -0.3400 -0.6138 -0.0933
  240MPD1    C1 3692   1.039   0.166  13.327  0.0528 -0.3032  0.6452
  240MPD1    C2 3693   1.151   0.099  13.373 -0.3867 -0.8654 -0.3502
  240MPD1    C3 3694   1.259   0.086  13.292 -0.3221  0.5275  0.4590
  240MPD1    C4 3695   1.249   0.128  13.162  0.1469  0.0758 -0.2965
  240MPD1    C5 3696   1.141   0.195  13.110 -0.4895  0.8514  0.4294
  240MPD1     H 3697   1.165   0.060  13.473 -1.5352  1.2741  0.6536
  240MPD1    H1 3698   1.325   0.118  13.086 -0.4012  1.5334 -1.0243
  240MPD1    H2 3699   0.938   0.241  13.147 -0.2856  0.1587  0.5211
  240MPD1    H3 3700   1.127   0.212  13.004  1.5461  0.6364  0.1174
  240MPD1     N 3701   1.387   0.044  13.349 -0.4750  0.2865  0.2049
  240MPD1    H5 3702   1.381   0.020  13.448  0.1247  0.2703  0.2339
  240MPD1    N1 3703   0.918   0.172  13.400 -0.2871  0.0110 -0.2336
  240MPD1    H6 3704   0.931   0.156  13.500 -2.4215  2.8976  0.4723
  240MPD1    H7 3705   0.869   0.257  13.376  0.0433 -0.0620 -1.1953
  241MPD1     C 3706   2.384   4.347  13.269  0.1299 -0.2827  0.2452
  241MPD1    C1 3707   2.289   4.388  13.177  0.7121 -0.5999  0.0789
  241MPD1    C2 3708   2.188   4.480  13.215  0.1374 -0.2800 -0.3025
  241MPD1    C3 3709   2.170   4.515  13.348 -0.1506  0.0982 -0.1117
  241MPD1    C4 3710   2.263   4.476  13.441  0.1759  0.0295  0.4060
  241MPD1    C5 3711   2.372   4.398  13.399  1.1667 -0.1580  0.5401
  241MPD1     H 3712   2.110   4.498  13.141 -0.0864 -3.1771 -0.7718
  241MPD1    H1 3713   2.251   4.495  13.547 -0.7213  0.9718  0.1349
  241MPD1    H2 3714   2.466   4.280  13.246  3.1390  2.9564  1.5405
  241MPD1    H3 3715   2.445   4.364  13.471  0.5404  0.1406  1.3192
  241MPD1     N 3716   2.057   4.579  13.397  0.8132  0.5808  0.5537
  241MPD1    H5 3717   2.048   4.585  13.498 -2.1713 -1.6083  0.4110
  241MPD1    N1 3718   2.295   4.350  13.041  0.0509  0.3134 -0.4035
  241MPD1    H6 3719   2.350   4.264  13.040 -2.3354 -1.1940 -1.1967
  241MPD1    H7 3720   2.201   4.337  13.004 -0.8843 -0.3280  2.2171
  242MPD1     C 3721   0.971   1.906  15.550 -0.2548  0.1109 -0.6888
  242MPD1    C1 3722   1.026   1.936  15.425  0.6266  0.5290 -0.6242
  242MPD1    C2 3723   1.112   2.037  15.419  0.5474 -0.3342 -0.1395
  242MPD1    C3 3724   1.136   2.108  15.536 -0.1116  0.2071  0.0389
  242MPD1    C4 3725   1.069   2.088  15.656  0.2558 -0.6784  0.1295
  242MPD1    C5 3726   0.990   1.982  15.661  0.2846 -0.2832  0.8010
  242MPD1     H 3727   1.163   2.076  15.332  0.1548 -1.4232 -0.8573
  242MPD1    H1 3728   1.086   2.148  15.745  1.3700 -1.2240  0.2779
  242MPD1    H2 3729   0.898   1.826  15.546  0.3143 -0.2784 -2.9075
  242MPD1    H3 3730   0.946   1.956  15.757 -0.4426 -0.7979  0.3344
  242MPD1     N 3731   1.236   2.205  15.549  0.0545 -0.1274  0.1122
  242MPD1    H5 3732   1.243   2.253  15.639  2.0790  0.6213 -0.4358
  242MPD1    N1 3733   0.975   1.886  15.304  0.3348 -0.7378  0.6237
  242MPD1    H6 3734   0.955   1.787  15.319 -0.3514 -0.8852 -1.2254
  242MPD1    H7 3735   1.048   1.889  15.233 -0.2153 -1.1425  0.0348
  243MPD1     C 3736   4.274   1.834   0.026 -0.3284  0.1087  0.3620
  243MPD1    C1 3737   4.229   1.706   0.060  0.4962  0.1961  0.4158
  243MPD1    C2 3738   4.171   1.626  17.722  0.0890 -1.1437  0.2713
  243MPD1    C3 3739   4.141   1.680  17.598  0.2380  0.2036 -0.2804
  243MPD1    C4 3740   4.181   1.810  17.566  0.3263 -0.5662  0.6047
  243MPD1    C5 3741   4.248   1.878  17.656  0.2890 -0.1432  0.0120
  243MPD1     H 3742   4.161   1.519  17.736 -0.1225 -1.1232  0.2847
  243MPD1    H1 3743   4.155   1.853  17.470  0.2016 -1.3401  0.2877
  243MPD1    H2 3744   4.338   1.894   0.090 -0.2211  0.1878  0.1808
  243MPD1    H3 3745   4.287   1.976  17.632  1.0243  0.1137  2.1841
  243MPD1     N 3746   4.088   1.589  17.501  0.6147 -0.7051  0.1891
  243MPD1    H5 3747   4.061   1.496  17.532 -0.0265 -0.8457 -0.7888
  243MPD1    N1 3748   4.289   1.643   0.174 -0.3802 -0.6720  0.7841
  243MPD1    H6 3749   4.305   1.715   0.245 -3.7035  2.1855 -1.3095
  243MPD1    H7 3750   4.225   1.584   0.227 -0.4027 -0.9603  0.4324
  244MPD1     C 3751   3.595   1.011   0.045  0.3647 -0.1142  0.2493
  244MPD1    C1 3752   3.692   1.094   0.082 -0.3273 -0.0440  0.1210
  244MPD1    C2 3753   3.771   1.153  17.744 -0.0677  0.5177  0.2182
  244MPD1    C3 3754   3.754   1.117  17.613 -1.0188  0.5206  0.4349
  244MPD1    C4 3755   3.658   1.028  17.579 -0.0407  0.0515  0.2474
  244MPD1    C5 3756   3.581   0.976  17.674  0.1591  0.6450 -0.0331
  244MPD1     H 3757   3.849   1.221   0.018  0.3977  0.0857 -0.0004
  244MPD1    H1 3758   3.644   0.995  17.476 -0.8001  1.0519  0.0360
  244MPD1    H2 3759   3.533   0.971   0.124 -2.3585  0.5379 -1.5647
  244MPD1    H3 3760   3.504   0.907  17.640  2.1499 -2.2839  1.3256
  244MPD1     N 3761   3.832   1.189  17.524 -0.9555  0.4483  0.1902
  244MPD1    H5 3762   3.899   1.251  17.568  0.0992 -1.3982  1.2280
  244MPD1    N1 3763   3.698   1.145   0.214 -0.7443  0.3544 -0.0406
  244MPD1    H6 3764   3.655   1.086   0.285  0.3328 -2.1389 -1.4792
  244MPD1    H7 3765   3.782   1.184   0.255  0.1179 -0.5829 -0.9077
  245MPD1     C 3766   4.448   1.734  13.173  0.1961  0.0800  0.5032
  245MPD1    C1 3767   4.429   1.739  13.310  0.5397  0.1582 -0.3971
  245MPD1    C2 3768   4.479   1.852  13.373  0.4618  0.2105 -0.0775
  245MPD1    C3 3769   4.538   1.965  13.303  0.9519 -0.1507 -0.0874
  245MPD1    C4 3770   4.549   1.950  13.167  0.6050  0.7643  0.0126
  245MPD1    C5 3771   4.510   1.838  13.101  0.3278  0.3188  0.3007
  245MPD1     H 3772   4.466   1.856  13.480 -0.1884  1.0602 -0.1929
  245MPD1    H1 3773   4.592   2.025  13.102  1.3661 -0.8481 -1.3223
  245MPD1    H2 3774   4.411   1.652  13.112  1.8309  0.0233 -0.4034
  245MPD1    H3 3775   4.522   1.830  12.993 -0.3652 -1.2863  0.3515
  245MPD1     N 3776   4.573   2.080  13.375 -0.2106 -0.1663 -0.7004
  245MPD1    H5 3777   4.564   2.074  13.476 -1.7209  1.0102 -0.7646
  245MPD1    N1 3778   4.376   1.629  13.385 -0.2134 -0.4940 -0.2166
  245MPD1    H6 3779   4.323   1.561  13.332  2.2189 -1.5207 -1.3384
  245MPD1    H7 3780   4.323   1.671  13.461  0.8793 -0.2026  0.3841
  246MPD1     C 3781   1.235   4.455  10.013  0.1204  0.1949  0.3362
  246MPD1    C1 3782   1.346   4.381  10.009 -0.2894 -0.4214 -0.5160
  246MPD1    C2 3783   1.354   4.282   9.917  0.3699  0.0111  0.2859
  246MPD1    C3 3784   1.262   4.255   9.822 -1.1706 -0.1895  0.5078
  246MPD1    C4 3785   1.142   4.320   9.840  0.4763 -0.1146  0.2064
  246MPD1    C5 3786   1.122   4.419   9.934 -0.3480  0.1128  0.3392
  246MPD1     H 3787   1.447   4.227   9.908 -0.4038 -1.5286  1.8483
  246MPD1    H1 3788   1.068   4.315   9.761  1.3489  1.0130 -0.6816
  246MPD1    H2 3789   1.232   4.546  10.073 -1.1086 -0.1462  0.7898
  246MPD1    H3 3790   1.030   4.476   9.927 -1.7695 -2.0199  1.5453
  246MPD1     N 3791   1.275   4.145   9.737  0.1429  0.0313 -1.0296
  246MPD1    H5 3792   1.365   4.097   9.736  0.0766 -0.1566  1.1864
  246MPD1    N1 3793   1.464   4.421  10.068  0.1570  0.7240 -0.6913
  246MPD1    H6 3794   1.432   4.472  10.150 -2.8194 -2.6309  0.2557
  246MPD1    H7 3795   1.518   4.342  10.104 -1.2221 -0.6727 -1.6835
  247MPD1     C 3796   0.063   1.965  16.740  0.1455  0.0728 -0.0696
  247MPD1    C1 3797   0.028   1.830  16.757  0.1809 -1.1575  0.1281
  247MPD1    C2 3798   0.038   1.744  16.647  0.5387  1.0714  0.4313
  247MPD1    C3 3799   0.061   1.796  16.521  0.6945  0.0927  0.6679
  247MPD1    C4 3800   0.086   1.928  16.500 -0.4231  0.4303  0.5086
  247MPD1    C5 3801   0.093   2.010  16.616  0.1193  0.1340 -0.1142
  247MPD1     H 3802   0.006   1.641  16.659 -1.6269  1.9667  2.3937
  247MPD1    H1 3803   0.096   1.964  16.398 -1.4364 -0.1742  0.1915
  247MPD1    H2 3804   0.074   2.038  16.819  0.6509  1.4821 -1.4315
  247MPD1    H3 3805   0.107   2.117  16.617 -0.5258  0.2053  1.1213
  247MPD1     N 3806   0.047   1.719  16.404  0.0712  0.1668 -0.0399
  247MPD1    H5 3807   0.047   1.762  16.312  0.2785 -0.6946 -0.4382
  247MPD1    N1 3808   0.011   1.775  16.886 -0.1835 -0.1801 -0.7409
  247MPD1    H6 3809   4.707   1.848  16.942  0.6537 -2.0395  2.3502
  247MPD1    H7 3810   4.686   1.697  16.893  1.0081 -1.0605  0.6062
  248MPD1     C 3811   0.963   0.733  17.490  0.0887  0.0278 -0.1281
  248MPD1    C1 3812   0.999   0.863  17.461 -0.6923 -0.0176 -0.0915
  248MPD1    C2 3813   0.948   0.959  17.547 -0.5139  0.3617  0.4550
  248MPD1    C3 3814   0.858   0.935  17.645 -0.2784  0.1941  0.0190
  248MPD1    C4 3815   0.813   0.807  17.676  0.3966 -0.2046  0.9380
  248MPD1    C5 3816   0.875   0.707  17.597 -0.3296  1.3211  0.0598
  248MPD1     H 3817   0.973   1.064  17.541 -0.8056  0.2376 -2.6614
  248MPD1    H1 3818   0.741   0.783  17.753  0.0799 -1.0743  0.3754
  248MPD1    H2 3819   0.990   0.651  17.425  3.0298  0.4524  0.5537
  248MPD1    H3 3820   0.828   0.610  17.608  1.4878  0.7463  2.5910
  248MPD1     N 3821   0.806   1.053  17.709  0.7956 -0.5917  0.4012
  248MPD1    H5 3822   0.845   1.140  17.674 -1.1481 -0.5249 -1.5802
  248MPD1    N1 3823   1.094   0.892  17.371  0.5835 -0.9293  0.1412
  248MPD1    H6 3824   1.103   0.838  17.286 -2.1664  1.1223 -1.4558
  248MPD1    H7 3825   1.069   0.988  17.349  3.7195  0.0717  0.9611
  249MPD1     C 3826   1.030   0.973   9.656  0.2579  1.0046  0.4297
  249MPD1    C1 3827   0.954   0.895   9.742 -0.4571  0.6610  0.6473
  249MPD1    C2 3828   1.015   0.824   9.846  0.2134 -0.4865  0.3703
  249MPD1    C3 3829   1.151   0.828   9.864 -0.1057 -0.5808 -0.4119
  249MPD1    C4 3830   1.223   0.914   9.778  0.1372 -0.5690 -0.2591
  249MPD1    C5 3831   1.168   0.980   9.670  0.6589  0.0039 -0.1287
  249MPD1     H 3832   0.957   0.767   9.919 -0.7276 -0.0967 -0.0801
  249MPD1    H1 3833   1.331   0.922   9.780  0.0700  0.8394 -1.6440
  249MPD1    H2 3834   0.985   1.040   9.584 -0.3176  0.1653  0.0125
  249MPD1    H3 3835   1.226   1.055   9.617 -1.0310  1.4982  0.1219
  249MPD1     N 3836   1.220   0.757   9.970  0.2816 -0.2439 -0.3394
  249MPD1    H5 3837   1.177   0.683  10.024  3.3427 -1.1223  0.9288
  249MPD1    N1 3838   0.817   0.924   9.754  0.4769  0.2814 -0.2742
  249MPD1    H6 3839   0.762   0.847   9.792 -0.8729  1.2744 -0.2033
  249MPD1    H7 3840   0.770   0.943   9.665  0.7757  3.0628  0.1676
  250MPD2     C 3841   3.146   0.899  12.724 -0.6894  0.1751  0.5041
  250MPD2    C1 3842   3.153   0.812  12.837 -0.4809  0.3330  0.3877
  250MPD2    C2 3843   3.157   0.676  12.819  0.1977  0.2309 -0.1802
  250MPD2    C3 3844   3.141   0.618  12.694  0.1061 -0.0331 -0.6456
  250MPD2    C4 3845   3.137   0.708  12.589 -0.6269 -0.0880 -1.3612
  250MPD2    C5 3846   3.146   0.842  12.604 -0.8285 -0.0369 -0.2334
  250MPD2     H 3847   3.156   0.608  12.903 -0.2420  0.0163 -0.3617
  250MPD2    H1 3848   3.125   0.670  12.488 -2.0506 -0.7055 -0.9578
  250MPD2    H2 3849   3.154   1.006  12.735 -1.9735  0.2646  0.5128
  250MPD2    H3 3850   3.143   0.899  12.512 -2.6342  0.3715  0.0721
  250MPD2     N 3851   3.110   0.485  12.669 -0.0774  0.1759  0.4019
  250MPD2    H5 3852   3.066   0.470  12.579 -0.4412 -2.1098  0.9623
  250MPD2    N1 3853   3.169   0.866  12.965  0.0457 -0.0191  0.0807
  250MPD2    H7 3854   3.194   0.806  13.043 -0.2012  0.4208  0.5000
  251TMC3    C1 3855   3.125   1.021  13.140 -0.3589 -0.2022 -0.3077
  251TMC3    C2 3856   3.037   1.117  13.179  0.0804  0.6111 -0.0458
  251TMC3    C3 3857   3.069   1.184  13.291 -0.1953 -0.8062 -0.5521
  251TMC3    C4 3858   3.248   0.992  13.194  0.6086 -0.1073  0.4295
  251TMC3    C5 3859   3.272   1.058  13.312 -0.6037  0.2488  0.0006
  251TMC3    C6 3860   3.181   1.151  13.359 -0.5037 -0.3279  0.0058
  251TMC3     C 3861   3.109   0.984  13.001 -0.0480 -0.2451 -0.0378
  251TMC3     O 3862   3.043   1.065  12.934 -0.2250 -0.4668  0.0331
  251TMC3     H 3863   2.954   1.146  13.116 -1.1167  2.2921  2.3022
  251TMC3    H1 3864   3.319   0.927  13.142 -1.7502 -2.4317  0.1138
  251TMC3    H2 3865   3.187   1.188  13.460 -0.7406  0.1471 -0.1553
  251TMC3    C7 3866   3.407   1.079  13.359 -0.7026 -0.2807 -0.3794
  251TMC3    C8 3867   2.976   1.275  13.348  1.0853  0.0390  0.5133
  251TMC3    O1 3868   3.429   1.104  13.482 -0.1924  0.8575  0.0885
  251TMC3    O2 3869   2.994   1.308  13.461 -0.0708  0.2666  0.6760
  252TMC3    C1 3870   3.373   2.589   9.702  0.0143  0.3546 -0.3773
  252TMC3    C2 3871   3.417   2.712   9.747  0.1936  0.1226 -0.3205
  252TMC3    C3 3872   3.536   2.711   9.819  0.2583  0.2356  0.2239
  252TMC3    C4 3873   3.433   2.476   9.745 -0.2498 -0.5729  0.3171
  252TMC3    C5 3874   3.548   2.483   9.816 -0.2834  0.8196  0.4095
  252TMC3    C6 3875   3.614   2.604   9.845  0.6164  0.4155 -0.5313
  252TMC3     C 3876   3.265   2.588   9.607 -1.1493  0.2141 -0.2376
  252TMC3     O 3877   3.216   2.699   9.587  0.2948  0.2519 -0.0206
  252TMC3     H 3878   3.371   2.801   9.706 -1.0725 -1.1375 -1.6144
  252TMC3    H1 3879   3.385   2.382   9.721 -1.7807 -0.0793  1.4545
  252TMC3    H2 3880   3.720   2.605   9.868  0.3867  0.6090  0.5172
  252TMC3    C7 3881   3.609   2.368   9.888  0.0317 -0.0465  0.0381
  252TMC3    C8 3882   3.607   2.838   9.832 -0.3333  0.1923  0.0853
  252TMC3    O1 3883   3.711   2.397   9.950  0.8692  0.0737  0.0915
  252TMC3    O2 3884   3.585   2.933   9.757  0.0585 -0.1786 -0.4562
  253MPD2     C 3885   0.641   0.776  15.409 -0.3958  0.3133 -0.2343
  253MPD2    C1 3886   0.526   0.700  15.392 -0.0369  1.6168  0.0523
  253MPD2    C2 3887   0.485   0.614  15.493  0.0554 -0.5972 -0.0105
  253MPD2    C3 3888   0.537   0.606  15.619  0.0300  0.7485  0.0779
  253MPD2    C4 3889   0.667   0.670  15.628 -0.0398  0.3678 -0.0044
  253MPD2    C5 3890   0.708   0.754  15.532  0.2996  0.0288  0.5415
  253MPD2     H 3891   0.389   0.568  15.469 -0.5771  1.4038 -1.3101
  253MPD2    H1 3892   0.730   0.657  15.715  0.4802 -0.9874 -0.5901
  253MPD2    H2 3893   0.691   0.836  15.333  0.2802 -1.2142 -0.9928
  253MPD2    H3 3894   0.805   0.800  15.548 -0.6524  2.4508 -0.5514
  253MPD2     N 3895   0.476   0.538  15.722  0.2784 -0.3305 -0.4001
  253MPD2    H5 3896   0.523   0.551  15.811  0.6039  0.1705 -0.6479
  253MPD2    N1 3897   0.441   0.699  15.281 -0.2634  0.1315 -0.0349
  253MPD2    H7 3898   0.360   0.640  15.297  0.7601 -0.9473  1.1430
  254TMC3    C1 3899   0.298   0.416  15.824 -0.2283 -0.6137  1.0342
  254TMC3    C2 3900   0.168   0.377  15.807  0.0920 -0.8662 -0.3982
  254TMC3    C3 3901   0.129   0.266  15.879 -0.0218 -0.2371  0.1854
  254TMC3    C4 3902   0.384   0.352  15.907 -0.7708 -1.1285  0.2694
  254TMC3    C5 3903   0.338   0.250  15.984  0.2527  0.3787  0.7316
  254TMC3    C6 3904   0.214   0.205  15.966  0.3406 -0.1550 -0.0011
  254TMC3     C 3905   0.355   0.472  15.708 -0.4618 -0.1216  0.2461
  254TMC3     O 3906   0.285   0.463  15.610 -0.4324  0.4725  0.3263
  254TMC3     H 3907   0.104   0.434  15.741  0.0598 -0.8462 -0.3494
  254TMC3    H1 3908   0.484   0.392  15.921 -0.4610 -1.9123  0.2834
  254TMC3    H2 3909   0.177   0.121  16.024  0.0853  0.9022  1.3672
  254TMC3    C7 3910   0.403   0.214  16.107 -0.8586  0.2144  0.9158
  254TMC3    C8 3911   4.735   0.278  15.936 -0.0119 -0.2061  0.0220
  254TMC3    O1 3912   0.354   0.123  16.169  0.1957  0.2818  0.3294
  254TMC3    O2 3913   4.714   0.209  16.034 -0.1231 -0.0749  0.1054
  255MPD2     C 3914   2.522   3.031  10.726  0.3964 -0.3140 -0.2268
  255MPD2    C1 3915   2.624   3.119  10.757 -0.4218  0.0859 -0.3729
  255MPD2    C2 3916   2.751   3.066  10.760  0.0161 -0.3436 -0.0992
  255MPD2    C3 3917   2.782   2.942  10.723 -0.2507  0.4730 -0.5180
  255MPD2    C4 3918   2.681   2.854  10.691  0.2745  0.4295  0.4333
  255MPD2    C5 3919   2.551   2.899  10.689 -0.0744  0.4847  0.0289
  255MPD2     H 3920   2.837   3.123  10.793 -1.8358  0.9726  2.4098
  255MPD2    H1 3921   2.698   2.751  10.664 -1.4031  0.1415  0.4821
  255MPD2    H2 3922   2.420   3.065  10.715  0.4399  0.1066  0.7000
  255MPD2    H3 3923   2.468   2.832  10.671 -0.1813  0.4782  0.5480
  255MPD2     N 3924   2.917   2.904  10.715  0.0277  0.2448 -0.5483
  255MPD2    H5 3925   2.987   2.973  10.738  0.8095  0.0413 -2.3187
  255MPD2    N1 3926   2.592   3.256  10.784 -0.1457  0.3278  0.1766
  255MPD2    H7 3927   2.496   3.281  10.763  0.3310  1.7112 -0.3884
  256TMC3    C1 3928   2.648   3.496  10.795  0.4705 -0.3516  0.5622
  256TMC3    C2 3929   2.749   3.588  10.796  0.5538 -0.3764 -0.1704
  256TMC3    C3 3930   2.725   3.717  10.764 -0.3926 -0.2898 -0.7608
  256TMC3    C4 3931   2.515   3.525  10.789  0.5079 -0.0438  0.3453
  256TMC3    C5 3932   2.495   3.658  10.757  0.4615  0.0363  0.5415
  256TMC3    C6 3933   2.596   3.755  10.751 -0.2779  0.4448 -0.2329
  256TMC3     C 3934   2.690   3.358  10.799  0.1073 -0.3869 -0.4283
  256TMC3     O 3935   2.809   3.337  10.814 -0.3372 -0.2031  0.7950
  256TMC3     H 3936   2.853   3.560  10.789 -0.4247 -4.0978  0.5085
  256TMC3    H1 3937   2.436   3.451  10.794  0.5592  0.1283  3.5081
  256TMC3    H2 3938   2.581   3.855  10.713  0.8955  0.4053 -0.8250
  256TMC3    C7 3939   2.385   3.686  10.666 -0.2777  0.2802  0.5381
  256TMC3    C8 3940   2.788   3.734  10.640 -0.1119 -0.3551  0.5091
  256TMC3    O1 3941   2.327   3.593  10.614  0.0423  0.2264 -0.2858
  256TMC3    O2 3942   2.778   3.632  10.570 -1.2650 -0.4919  0.0953
  257MPD2     C 3943   2.501   0.670  13.225  0.0492  0.2496 -0.1485
  257MPD2    C1 3944   2.465   0.577  13.129  0.0972  0.5418  0.1677
  257MPD2    C2 3945   2.470   0.439  13.164 -0.1396  0.2631 -0.1214
  257MPD2    C3 3946   2.491   0.402  13.296 -0.0082 -0.2531 -0.1002
  257MPD2    C4 3947   2.523   0.504  13.387  0.1930 -0.0389  0.3270
  257MPD2    C5 3948   2.531   0.633  13.352  0.9065  0.1263 -0.3881
  257MPD2     H 3949   2.467   0.364  13.086 -0.7199  0.7381 -0.5584
  257MPD2    H1 3950   2.536   0.479  13.492  2.2018  0.8915  0.3045
  257MPD2    H2 3951   2.502   0.776  13.205  1.9638  0.0324 -1.1898
  257MPD2    H3 3952   2.558   0.713  13.419  1.5101  0.5426 -1.1316
  257MPD2     N 3953   2.464   0.270  13.338  0.8331  0.1434 -0.0378
  257MPD2    H5 3954   2.418   0.207  13.274  1.9740  0.0069 -0.7334
  257MPD2    N1 3955   2.424   0.618  12.997 -0.1807  0.1129 -0.1797
  257MPD2    H7 3956   2.380   0.548  12.938 -0.0367  1.1582 -1.5145
  258TMC3    C1 3957   2.453   0.081  13.474 -0.0562 -0.4301  0.6259
  258TMC3    C2 3958   2.538   0.016  13.394  0.3147  0.5564  0.3824
  258TMC3    C3 3959   2.591   4.640  13.450  0.6076 -0.3498 -0.6508
  258TMC3    C4 3960   2.413   0.031  13.591 -0.7927 -0.5489 -0.5071
  258TMC3    C5 3961   2.470   4.661  13.650 -0.0764  0.7957 -0.0908
  258TMC3    C6 3962   2.557   4.588  13.575  0.4535 -0.8211 -0.0279
  258TMC3     C 3963   2.463   0.230  13.466 -0.1471 -0.3663  0.7581
  258TMC3     O 3964   2.477   0.291  13.572  0.0180  0.4764  0.0762
  258TMC3     H 3965   2.576   0.065  13.305  0.4965  1.0207  0.7101
  258TMC3    H1 3966   2.347   0.092  13.651 -0.0601 -2.1868  1.9673
  258TMC3    H2 3967   2.604   4.497  13.611 -0.6394 -0.9660  1.0412
  258TMC3    C7 3968   2.435   4.627  13.787  0.0265  0.0083 -0.4946
  258TMC3    C8 3969   2.665   4.557  13.349 -0.3381  0.1682  0.4620
  258TMC3    O1 3970   2.325   4.662  13.827  0.8985  0.1039 -0.3778
  258TMC3    O2 3971   2.751   4.474  13.376 -0.5744 -0.3477  0.8525
  259MPD2     C 3972   0.914   2.301   0.431  0.3648  0.2790  0.2651
  259MPD2    C1 3973   0.979   2.203   0.503 -0.1874  0.2915  0.0670
  259MPD2    C2 3974   1.065   2.118   0.442 -0.0685 -0.1225 -0.7528
  259MPD2    C3 3975   1.080   2.120   0.302  0.1370 -0.1455 -0.4061
  259MPD2    C4 3976   1.012   2.212   0.226  0.1209 -0.0656  0.1429
  259MPD2    C5 3977   0.935   2.300   0.293  0.2110 -0.2202 -0.3674
  259MPD2     H 3978   1.132   2.045   0.485 -2.6750 -2.3039 -0.3786
  259MPD2    H1 3979   1.007   2.208   0.118  1.9638  2.3422 -0.0300
  259MPD2    H2 3980   0.862   2.384   0.477 -1.3654  0.1797 -1.4873
  259MPD2    H3 3981   0.874   2.373   0.241 -1.6514 -0.6338  1.2382
  259MPD2     N 3982   1.175   2.039   0.242  0.4653  0.0180  0.0784
  259MPD2    H5 3983   1.205   1.952   0.286  1.2705  0.7240  0.9180
  259MPD2    N1 3984   0.969   2.185   0.645 -0.3483  0.0218 -0.0346
  259MPD2    H7 3985   1.022   2.106   0.682 -1.7638 -0.2135  1.5006
  260TMC3    C1 3986   1.346   1.969   0.096  0.1605  0.6291 -0.2649
  260TMC3    C2 3987   1.448   2.019   0.020  0.3694 -0.8317 -0.3545
  260TMC3    C3 3988   1.547   1.929  17.746 -0.3370 -0.8702 -0.0961
  260TMC3    C4 3989   1.335   1.833   0.137 -0.1507  0.0186 -0.2798
  260TMC3    C5 3990   1.431   1.751   0.094 -0.6378 -0.2849 -0.7855
  260TMC3    C6 3991   1.542   1.802   0.027  0.1832 -0.3122 -0.3109
  260TMC3     C 3992   1.245   2.069   0.126 -0.0426  0.1183  0.1169
  260TMC3     O 3993   1.247   2.173   0.062 -0.3192  0.2966 -0.0332
  260TMC3     H 3994   1.447   2.117  17.731 -1.2927 -0.7574 -0.1500
  260TMC3    H1 3995   1.249   1.787   0.183  0.1322 -0.3263 -0.0980
  260TMC3    H2 3996   1.593   1.725  17.728  0.4842  1.4679 -2.4240
  260TMC3    C7 3997   1.439   1.615   0.155  0.3421  0.4441 -0.1910
  260TMC3    C8 3998   1.682   1.972  17.746 -0.1994 -0.1458  0.5989
  260TMC3    O1 3999   1.495   1.530   0.091  0.0788  0.4136 -0.2328
  260TMC3    O2 4000   1.713   2.078  17.687  0.1039  0.3655  0.5014
  261MPD2     C 4001   2.648   0.193  12.243  0.1729  0.5488  0.4602
  261MPD2    C1 4002   2.747   0.275  12.299 -0.3755 -0.5309 -0.1103
  261MPD2    C2 4003   2.793   0.381  12.224  0.1714  0.0549  0.3135
  261MPD2    C3 4004   2.747   0.399  12.098 -0.2754 -0.0007 -0.2693
  261MPD2    C4 4005   2.662   0.305  12.038 -0.4106 -0.1151 -0.2594
  261MPD2    C5 4006   2.602   0.209  12.112  0.0077  0.0579 -0.0460
  261MPD2     H 4007   2.865   0.445  12.271  0.7821 -0.7405  0.4574
  261MPD2    H1 4008   2.627   0.304  11.936  0.6519  2.0195 -0.6428
  261MPD2    H2 4009   2.602   0.119  12.307 -0.3223 -2.2811 -3.1655
  261MPD2    H3 4010   2.531   0.139  12.070  0.2121 -0.0470 -0.2151
  261MPD2     N 4011   2.785   0.524  12.035 -0.6890 -0.1181 -0.5336
  261MPD2    H5 4012   2.845   0.584  12.090 -2.4853  0.4699  0.7737
  261MPD2    N1 4013   2.806   0.253  12.424  0.1600 -0.0206  0.0271
  261MPD2    H7 4014   2.880   0.319  12.445 -0.0290 -0.5318  2.2651
  262TMC3    C1 4015   2.778   0.713  11.885  0.4794  0.0714 -0.1541
  262TMC3    C2 4016   2.702   0.801  11.815  0.5107 -0.0826  0.3187
  262TMC3    C3 4017   2.737   0.933  11.808  0.9279 -0.2531  0.5718
  262TMC3    C4 4018   2.893   0.752  11.946 -0.4821 -0.2703  0.8454
  262TMC3    C5 4019   2.931   0.884  11.927  0.3579 -0.9604 -0.2253
  262TMC3    C6 4020   2.848   0.983  11.875  0.8277 -0.0259  0.1529
  262TMC3     C 4021   2.731   0.574  11.915  0.2648 -0.4567  0.6909
  262TMC3     O 4022   2.634   0.529  11.853  0.2428  0.3385 -0.5000
  262TMC3     H 4023   2.605   0.772  11.775  0.9642  1.5652 -2.0108
  262TMC3    H1 4024   2.966   0.689  11.996  0.5412 -0.0103 -0.3293
  262TMC3    H2 4025   2.891   1.082  11.860 -0.4069  0.4787 -0.0484
  262TMC3    C7 4026   3.059   0.925  11.991 -0.2467  0.2904 -0.7454
  262TMC3    C8 4027   2.663   1.030  11.737 -0.9108 -0.0333  0.1165
  262TMC3    O1 4028   3.084   0.853  12.084 -0.2917  0.2182  0.4915
  262TMC3    O2 4029   2.661   1.146  11.780 -0.3677 -0.3102  0.0714
  263MPD2     C 4030   3.840   0.392  11.890 -0.2291  0.1592  0.5616
  263MPD2    C1 4031   3.951   0.366  11.814 -0.2329  0.4797  0.0833
  263MPD2    C2 4032   3.953   0.420  11.687 -0.1151 -0.2011 -0.6737
  263MPD2    C3 4033   3.845   0.486  11.634 -0.1357  0.6008 -0.4161
  263MPD2    C4 4034   3.736   0.507  11.709  0.3632  0.5554 -0.4047
  263MPD2    C5 4035   3.738   0.462  11.841  0.0861 -0.1748 -0.5551
  263MPD2     H 4036   4.032   0.404  11.614 -0.5944  2.1160 -1.7145
  263MPD2    H1 4037   3.645   0.553  11.671 -0.1111 -0.0621 -0.0234
  263MPD2    H2 4038   3.825   0.365  11.994  0.9013  1.3998  1.0452
  263MPD2    H3 4039   3.658   0.478  11.912  1.8862  0.5549  1.2927
  263MPD2     N 4040   3.853   0.525  11.498  0.1635 -0.0845 -0.3026
  263MPD2    H5 4041   3.942   0.501  11.456  0.4288  0.6175 -0.1486
  263MPD2    N1 4042   4.043   0.274  11.861 -0.2868  0.3999 -0.4039
  263MPD2    H7 4043   4.036   0.236  11.955  1.5453  0.3532 -0.2820
  264TMC3    C1 4044   3.793   0.635  11.301  0.0591 -0.9444  0.1213
  264TMC3    C2 4045   3.823   0.769  11.288 -0.1594  0.5447  0.0394
  264TMC3    C3 4046   3.923   0.812  11.208 -0.5728 -0.0339 -0.1088
  264TMC3    C4 4047   3.858   0.536  11.232 -0.0524  0.0728 -0.0010
  264TMC3    C5 4048   3.952   0.589  11.147 -0.8535 -0.1763  0.3197
  264TMC3    C6 4049   3.998   0.719  11.145 -0.7953 -0.6069  0.1754
  264TMC3     C 4050   3.753   0.604  11.440  0.4656 -0.1000 -0.1582
  264TMC3     O 4051   3.640   0.642  11.469  0.2132  0.1213  0.4393
  264TMC3     H 4052   3.781   0.827  11.369  0.7368 -0.2939  1.0957
  264TMC3    H1 4053   3.838   0.430  11.243 -2.6252  0.7244  1.5467
  264TMC3    H2 4054   4.084   0.741  11.083 -0.6489 -0.1890  0.5305
  264TMC3    C7 4055   3.980   0.514  11.022  0.0294 -0.5765 -0.3424
  264TMC3    C8 4056   3.982   0.941  11.231  0.7864 -0.4568 -0.3066
  264TMC3    O1 4057   4.080   0.551  10.959  0.0345  0.4814 -0.1070
  264TMC3    O2 4058   4.082   0.961  11.166  0.5617 -0.4069  0.0339
  265MPD2     C 4059   1.453   4.736  15.472 -1.0007 -0.7030 -0.6003
  265MPD2    C1 4060   1.435   0.104  15.386  0.3359  0.5592 -0.5214
  265MPD2    C2 4061   1.518   0.107  15.271  0.1300  0.4976  0.1736
  265MPD2    C3 4062   1.610   0.006  15.249 -0.0145  0.2791 -1.0496
  265MPD2    C4 4063   1.626   4.641  15.339  0.8259 -0.2022 -0.1380
  265MPD2    C5 4064   1.547   4.645  15.449 -0.0155  0.4603  0.4910
  265MPD2     H 4065   1.496   0.175  15.189  3.2566 -0.1461 -1.1788
  265MPD2    H1 4066   1.702   4.566  15.319  1.6279  0.3526  0.8879
  265MPD2    H2 4067   1.403   4.713  15.565 -1.1404 -1.3985 -0.8470
  265MPD2    H3 4068   1.563   4.567  15.523 -0.4499 -1.1091 -1.0737
  265MPD2     N 4069   1.709   4.738  15.144  0.3800 -0.4922 -0.3377
  265MPD2    H5 4070   1.772   4.660  15.157  1.4491  0.9762  3.2186
  265MPD2    N1 4071   1.325   0.191  15.400 -0.0518 -0.6317 -0.3141
  265MPD2    H7 4072   1.320   0.269  15.334  1.6723  1.7626  2.3612
  266TMC3    C1 4073   1.140   0.296  15.515  0.2342  0.2636 -0.7221
  266TMC3    C2 4074   1.094   0.318  15.642 -0.0448 -0.7502 -0.5710
  266TMC3    C3 4075   1.076   0.452  15.680  0.9021  0.2152 -0.2371
  266TMC3    C4 4076   1.155   0.400  15.435 -0.0100  0.3230  0.3841
  266TMC3    C5 4077   1.116   0.532  15.466 -0.2385  0.8497 -0.3074
  266TMC3    C6 4078   1.078   0.560  15.594 -0.3829  0.2969  0.6278
  266TMC3     C 4079   1.228   0.175  15.498 -0.1080 -0.3819  0.3874
  266TMC3     O 4080   1.194   0.077  15.564 -0.0357 -0.0782  0.3898
  266TMC3     H 4081   1.095   0.244  15.721  0.3354 -1.1024 -0.9119
  266TMC3    H1 4082   1.190   0.380  15.334 -1.6281 -0.1554 -0.0661
  266TMC3    H2 4083   1.044   0.657  15.627 -0.9712  0.1256  0.5284
  266TMC3    C7 4084   1.109   0.628  15.360 -0.3117  0.1842 -0.0083
  266TMC3    C8 4085   1.023   0.475  15.807  0.0786  0.3335 -0.1593
  266TMC3    O1 4086   1.156   0.595  15.254 -0.1965 -0.3537  0.5648
  266TMC3    O2 4087   0.939   0.397  15.856  0.6430 -0.6161  0.8703
  267MPD2     C 4088   4.059   1.762   0.913 -0.4851  0.0196  0.1891
  267MPD2    C1 4089   4.072   1.690   0.797 -0.0168 -0.0154 -0.3687
  267MPD2    C2 4090   4.070   1.748   0.671 -0.2197  0.6746  0.1873
  267MPD2    C3 4091   4.034   1.881   0.665 -0.5715 -0.1779 -0.1988
  267MPD2    C4 4092   4.033   1.961   0.782 -0.5625  0.0572  0.0898
  267MPD2    C5 4093   4.044   1.896   0.907  0.4324  0.5299 -0.2260
  267MPD2     H 4094   4.061   1.689   0.581 -0.6364  1.2542 -0.1530
  267MPD2    H1 4095   4.023   2.069   0.786 -0.5427  0.2177 -4.3484
  267MPD2    H2 4096   4.053   1.716   1.011  0.4770 -0.6579 -0.0681
  267MPD2    H3 4097   4.038   1.959   0.995 -1.4852 -0.7108  0.5218
  267MPD2     N 4098   4.027   1.947   0.540  0.1902 -0.6892  0.2154
  267MPD2    H5 4099   4.025   2.048   0.539  1.1704 -0.6703  0.4277
  267MPD2    N1 4100   4.093   1.549   0.820  0.6402 -0.1858 -0.4188
  267MPD2    H7 4101   4.113   1.525   0.917  0.3456  1.1530 -0.0284
  268TMC3    C1 4102   4.109   1.320   0.780 -0.2929 -0.6290  0.5099
  268TMC3    C2 4103   4.170   1.226   0.704 -0.3106 -0.4777  0.7292
  268TMC3    C3 4104   4.220   1.112   0.769  0.6909  0.2101 -0.4295
  268TMC3    C4 4105   4.047   1.292   0.900  0.4575 -0.6305  0.2761
  268TMC3    C5 4106   4.096   1.177   0.963  0.9393  0.1600  0.2165
  268TMC3    C6 4107   4.182   1.087   0.901 -0.3034  0.2811  0.0993
  268TMC3     C 4108   4.093   1.455   0.726  0.0595 -0.3190 -0.2937
  268TMC3     O 4109   4.083   1.464   0.605  0.0708 -0.0405  0.6318
  268TMC3     H 4110   4.202   1.265   0.608 -1.1160  0.9131  1.0245
  268TMC3    H1 4111   3.973   1.357   0.945  0.4595 -0.9727  0.7642
  268TMC3    H2 4112   4.213   0.995   0.950  0.5463 -0.2925 -1.5204
  268TMC3    C7 4113   4.079   1.158   1.107 -0.2396  0.0351 -0.6248
  268TMC3    C8 4114   4.283   1.010   0.689 -0.8210 -0.8722  1.1255
  268TMC3    O1 4115   4.149   1.069   1.155  0.3095  0.1081  0.1747
  268TMC3    O2 4116   4.293   0.900   0.746 -0.1735 -0.2023 -0.0034
  269MPD2     C 4117   4.519   0.649  15.421  0.2334 -0.0400 -0.0311
  269MPD2    C1 4118   4.394   0.648  15.482  0.1632  0.5681  0.4117
  269MPD2    C2 4119   4.333   0.773  15.504 -0.5737  0.5531 -0.2672
  269MPD2    C3 4120   4.382   0.889  15.447 -0.0709 -0.0636 -0.2095
  269MPD2    C4 4121   4.509   0.879  15.388 -0.2238 -0.3084  0.2631
  269MPD2    C5 4122   4.572   0.761  15.370  1.1830  0.1776  0.2019
  269MPD2     H 4123   4.236   0.776  15.553 -2.1897  0.0001 -3.3939
  269MPD2    H1 4124   4.567   0.961  15.348 -0.3937 -0.8034 -1.0050
  269MPD2    H2 4125   4.578   0.559  15.408 -0.2890 -0.1831 -1.4989
  269MPD2    H3 4126   4.674   0.756  15.333  0.8730 -2.3878 -0.3363
  269MPD2     N 4127   4.306   1.008  15.457  0.0686 -0.1776  0.4462
  269MPD2    H5 4128   4.219   0.997  15.508 -0.5294 -1.2841 -0.8271
  269MPD2    N1 4129   4.336   0.528  15.523  0.2076  0.1023 -0.1033
  269MPD2    H7 4130   4.385   0.443  15.497 -1.8509  0.0282 -3.7415
  270TMC3    C1 4131   4.177   0.377  15.617  0.7391  0.0506 -0.0726
  270TMC3    C2 4132   4.041   0.342  15.629 -0.1711  0.0214  0.2578
  270TMC3    C3 4133   4.010   0.206  15.614  0.2271 -0.3595  0.4037
  270TMC3    C4 4134   4.275   0.281  15.601 -0.3096  0.3921  0.2430
  270TMC3    C5 4135   4.244   0.152  15.591 -0.1475 -0.3366 -0.4986
  270TMC3    C6 4136   4.112   0.110  15.606  0.1393 -0.5807  0.4570
  270TMC3     C 4137   4.207   0.516  15.580 -0.2361 -0.6666 -0.1134
  270TMC3     O 4138   4.135   0.601  15.625 -0.0758  0.1197 -0.7574
  270TMC3     H 4139   3.960   0.412  15.619 -3.1117 -3.5632 -1.0738
  270TMC3    H1 4140   4.378   0.308  15.583 -0.2094 -0.6188 -0.6511
  270TMC3    H2 4141   4.084   0.005  15.603  1.3994 -0.8990  0.2062
  270TMC3    C7 4142   4.353   0.051  15.580 -0.0442  0.1748 -0.2063
  270TMC3    C8 4143   3.876   0.164  15.570 -0.4127 -0.4384 -0.4941
  270TMC3    O1 4144   4.464   0.083  15.627  0.5797  0.4876 -0.2147
  270TMC3    O2 4145   3.782   0.224  15.614 -0.5708 -0.4778 -0.2867
  271MPD2     C 4146   3.150   0.206  13.904  1.0161 -0.2571 -0.3765
  271MPD2    C1 4147   3.145   0.257  14.029 -0.2956 -0.2426 -0.0828
  271MPD2    C2 4148   3.064   0.368  14.054 -0.0799  0.0922 -0.5039
  271MPD2    C3 4149   2.997   0.435  13.955  0.0607  0.4213  0.2615
  271MPD2    C4 4150   3.002   0.367  13.826 -0.0330 -0.1706  0.2913
  271MPD2    C5 4151   3.080   0.263  13.800  0.5739 -0.0727 -0.0088
  271MPD2     H 4152   3.057   0.414  14.153  1.8726 -2.9605  1.0578
  271MPD2    H1 4153   2.967   0.412  13.734  0.6178 -1.2009 -0.4582
  271MPD2    H2 4154   3.194   0.110  13.879 -0.2669 -0.8425 -0.3612
  271MPD2    H3 4155   3.077   0.221  13.701  0.8573 -3.1082  1.2671
  271MPD2     N 4156   2.909   0.546  13.968 -0.4450 -0.0987  0.7476
  271MPD2    H5 4157   2.851   0.567  13.887  0.0987  0.4688  0.5053
  271MPD2    N1 4158   3.203   0.187  14.141  0.0738 -0.1404  0.5001
  271MPD2    H7 4159   3.175   0.228  14.229 -1.0321  1.1170 -0.4356
  272TMC3    C1 4160   3.347   0.036  14.265  0.2498  0.4019 -0.0906
  272TMC3    C2 4161   3.474   4.736  14.251  0.5650  0.4803  0.0356
  272TMC3    C3 4162   3.531   4.681  14.365 -0.1047  0.1042 -0.0563
  272TMC3    C4 4163   3.277   0.043  14.381  0.4694 -0.1447  0.3407
  272TMC3    C5 4164   3.339   4.735  14.491 -0.1542  0.4290  0.5623
  272TMC3    C6 4165   3.458   4.671  14.486  0.2485 -0.5808  0.2912
  272TMC3     C 4166   3.282   0.075  14.131 -0.0108  0.4995  0.0891
  272TMC3     O 4167   3.337   0.029  14.030 -0.1144  0.3576  0.4086
  272TMC3     H 4168   3.532   0.007  14.160 -0.4540 -0.6944 -0.7441
  272TMC3    H1 4169   3.176   0.084  14.385  0.4177 -0.2017 -0.4523
  272TMC3    H2 4170   3.515   4.655  14.577  0.4377  1.9822  0.6461
  272TMC3    C7 4171   3.282   0.033  14.616  0.5300  0.0441  0.1284
  272TMC3    C8 4172   3.677   4.655  14.356 -0.3106  0.4744  0.2722
  272TMC3    O1 4173   3.161   0.051  14.614 -0.0711 -0.3319 -0.0644
  272TMC3    O2 4174   3.736   4.691  14.255  0.0818  0.4323 -0.5449
  273MPD2     C 4175   4.236   3.473  11.748 -0.0557 -0.3118 -0.1336
  273MPD2    C1 4176   4.358   3.533  11.735  0.3843 -0.5510 -0.0544
  273MPD2    C2 4177   4.375   3.603  11.619  0.1806  0.8441 -0.1387
  273MPD2    C3 4178   4.276   3.598  11.523  0.8898  0.0297 -0.9170
  273MPD2    C4 4179   4.160   3.532  11.545  0.2474 -0.0023 -0.2505
  273MPD2    C5 4180   4.138   3.465  11.659  0.3317  1.0291 -0.5603
  273MPD2     H 4181   4.465   3.660  11.598  0.6623  0.8580  1.8775
  273MPD2    H1 4182   4.089   3.521  11.464 -1.0628  0.3330  0.8557
  273MPD2    H2 4183   4.213   3.418  11.839 -1.4379  0.2412 -0.1394
  273MPD2    H3 4184   4.050   3.406  11.683  0.7221  1.3975  1.8424
  273MPD2     N 4185   4.293   3.666  11.403  0.1500 -0.1472 -0.3786
  273MPD2    H5 4186   4.388   3.700  11.396  0.0278  0.6778  2.1781
  273MPD2    N1 4187   4.448   3.542  11.845 -0.4870 -0.4019 -0.1098
  273MPD2    H7 4188   4.422   3.506  11.936 -0.9320 -2.2440 -0.9514
  274TMC3    C1 4189   4.273   3.809  11.241  0.2693 -0.8792  0.1698
  274TMC3    C2 4190   4.256   3.823  11.104  0.0186  0.0063  0.4822
  274TMC3    C3 4191   4.305   3.936  11.047 -0.1235 -0.3665  0.4730
  274TMC3    C4 4192   4.340   3.902  11.314  0.2754  0.2832  0.4107
  274TMC3    C5 4193   4.379   4.019  11.256 -0.0566  0.3448  0.0996
  274TMC3    C6 4194   4.371   4.037  11.121  0.0041  0.1105 -1.0986
  274TMC3     C 4195   4.206   3.705  11.307 -0.0842  0.1683 -0.2912
  274TMC3     O 4196   4.085   3.694  11.304 -0.6008  0.1805  0.1322
  274TMC3     H 4197   4.199   3.750  11.046  0.1167  0.0101  0.3804
  274TMC3    H1 4198   4.328   3.891  11.421  3.0778  0.3354  0.7256
  274TMC3    H2 4199   4.372   4.138  11.081 -3.1921  1.7746  3.0247
  274TMC3    C7 4200   4.423   4.128  11.336 -0.0400 -0.3254 -0.3820
  274TMC3    C8 4201   4.226   3.988  10.934 -0.6471 -0.1513 -0.0050
  274TMC3    O1 4202   4.403   4.243  11.308  0.0658 -0.0838 -0.3102
  274TMC3    O2 4203   4.130   3.916  10.911 -0.2155 -0.2405 -0.3003
  275MPD2     C 4204   4.101   1.670  14.376 -0.0531 -0.0231 -0.2791
  275MPD2    C1 4205   4.161   1.568  14.446  0.1882 -0.0066  0.5814
  275MPD2    C2 4206   4.087   1.455  14.479  0.1770  1.1008  0.0444
  275MPD2    C3 4207   3.952   1.464  14.465  0.1220  0.3281 -1.0943
  275MPD2    C4 4208   3.890   1.574  14.419 -0.8976 -0.0229  0.0806
  275MPD2    C5 4209   3.968   1.672  14.362  0.2506 -0.1046  0.7696
  275MPD2     H 4210   4.133   1.370  14.528 -1.1638  0.2664 -0.1397
  275MPD2    H1 4211   3.782   1.579  14.411 -1.0374 -1.8116  0.8735
  275MPD2    H2 4212   4.153   1.751  14.325 -0.1269  0.9597  1.1985
  275MPD2    H3 4213   3.920   1.754  14.310 -1.8071 -0.6952  1.7566
  275MPD2     N 4214   3.857   1.362  14.493 -0.0445 -0.3942 -0.2996
  275MPD2    H5 4215   3.757   1.373  14.483 -0.3027 -1.8139  0.6102
  275MPD2    N1 4216   4.297   1.565  14.477  0.4483 -0.2811 -0.2027
  275MPD2    H7 4217   4.318   1.488  14.540 -1.3925 -1.1472 -0.6354
  276TMC3    C1 4218   4.514   1.643  14.514 -0.4663  0.3846  0.2408
  276TMC3    C2 4219   4.552   1.512  14.522 -0.2441 -0.2533 -0.0875
  276TMC3    C3 4220   4.667   1.478  14.588 -0.3111 -0.0086 -0.1881
  276TMC3    C4 4221   4.597   1.740  14.546  0.5392 -0.3652  0.3306
  276TMC3    C5 4222   4.711   1.699  14.615 -0.4898  0.5923  0.4146
  276TMC3    C6 4223   0.007   1.574  14.638 -0.4135 -0.4309  0.8427
  276TMC3     C 4224   4.374   1.679  14.472 -0.0694  0.3416  0.2772
  276TMC3     O 4225   4.348   1.797  14.448 -0.2129 -0.1407 -0.5927
  276TMC3     H 4226   4.486   1.428  14.507 -2.1238  1.2077  0.0236
  276TMC3    H1 4227   4.567   1.841  14.518  0.8861 -0.3183  0.1348
  276TMC3    H2 4228   0.105   1.551  14.679 -0.3513 -1.2857  0.2112
  276TMC3    C7 4229   0.047   1.802  14.679  0.5593 -0.2860  0.0438
  276TMC3    C8 4230   4.699   1.342  14.619  0.5765  0.2332  0.1058
  276TMC3    O1 4231   0.118   1.772  14.771 -0.0432  0.4632 -1.2415
  276TMC3    O2 4232   0.039   1.325  14.709  0.7528 -0.6053 -0.5163
  277MPD2     C 4233   1.510   0.930  13.156 -0.4066  0.0763  0.2465
  277MPD2    C1 4234   1.388   0.953  13.214  0.1123 -0.1546  0.1481
  277MPD2    C2 4235   1.362   0.869  13.318 -0.6009 -0.6115 -0.0421
  277MPD2    C3 4236   1.445   0.768  13.366 -0.3532  0.6577 -0.0916
  277MPD2    C4 4237   1.565   0.745  13.300 -0.1589 -0.4596 -0.0933
  277MPD2    C5 4238   1.593   0.827  13.195 -0.7972 -0.2959 -0.3668
  277MPD2     H 4239   1.274   0.885  13.379 -0.8987 -1.3686 -0.2732
  277MPD2    H1 4240   1.637   0.671  13.334 -0.9450 -0.4425  1.6216
  277MPD2    H2 4241   1.545   0.997  13.078  0.6402 -0.7953 -0.0400
  277MPD2    H3 4242   1.687   0.831  13.141 -0.9736  0.2700 -0.6315
  277MPD2     N 4243   1.408   0.691  13.481 -0.2457 -0.3409 -0.4581
  277MPD2    H5 4244   1.316   0.707  13.519 -0.5637  0.2273 -1.4720
  277MPD2    N1 4245   1.315   1.070  13.179  0.2834  0.1300  0.3842
  277MPD2    H7 4246   1.348   1.136  13.109 -0.1374 -1.3911 -1.2377
  278TMC3    C1 4247   1.402   0.523  13.634 -0.0083  0.1063  0.1338
  278TMC3    C2 4248   1.383   0.386  13.631  0.0690  0.6320  0.6329
  278TMC3    C3 4249   1.276   0.333  13.701  0.5505  0.2657  0.5987
  278TMC3    C4 4250   1.305   0.601  13.696 -0.2906 -0.1957 -0.6977
  278TMC3    C5 4251   1.200   0.541  13.764  0.3990 -0.6708 -0.1500
  278TMC3    C6 4252   1.175   0.405  13.768 -0.2418 -0.4018  0.1217
  278TMC3     C 4253   1.482   0.588  13.535  0.4688  0.2902  0.1516
  278TMC3     O 4254   1.586   0.533  13.508 -0.0509 -0.6002 -0.2233
  278TMC3     H 4255   1.459   0.331  13.577 -1.4354 -0.2675 -0.5811
  278TMC3    H1 4256   1.329   0.706  13.710 -0.1116 -0.0603 -2.0475
  278TMC3    H2 4257   1.093   0.353  13.814 -0.6999 -1.9239 -2.4458
  278TMC3    C7 4258   1.109   0.624  13.837  0.1243  0.1941 -0.0112
  278TMC3    C8 4259   1.280   0.194  13.698  0.2859 -0.1356  0.0925
  278TMC3    O1 4260   1.147   0.735  13.869 -0.2748  0.0467 -0.2249
  278TMC3    O2 4261   1.374   0.138  13.647  0.1801  0.5698  0.3685
  279MPD2     C 4262   1.029   4.307   0.385 -0.6931  0.1370  0.7433
  279MPD2    C1 4263   0.958   4.408   0.448 -0.2811  0.3491  0.5263
  279MPD2    C2 4264   0.880   4.495   0.370  0.6487  0.3122  0.2668
  279MPD2    C3 4265   0.874   4.489   0.233 -0.3714 -0.8350 -0.4596
  279MPD2    C4 4266   0.963   4.410   0.172 -0.0332  1.1078  0.4036
  279MPD2    C5 4267   1.035   4.314   0.246  0.2346  0.0411 -0.3175
  279MPD2     H 4268   0.823   4.571   0.423 -0.4472  0.6038 -1.3150
  279MPD2    H1 4269   0.951   4.401   0.065  0.1965  0.4050  0.4364
  279MPD2    H2 4270   1.077   4.223   0.434 -1.3894  0.5382  2.1400
  279MPD2    H3 4271   1.064   4.223   0.196  1.6549 -0.2834  1.0964
  279MPD2     N 4272   0.801   4.577   0.156  0.1466 -0.2254 -0.5579
  279MPD2    H5 4273   0.829   4.589   0.059 -0.3287 -1.4618 -0.8483
  279MPD2    N1 4274   0.967   4.411   0.592 -1.1522  0.0850  0.1120
  279MPD2    H7 4275   1.036   4.352   0.636 -0.4269  0.2365 -0.8152
  280TMC3    C1 4276   0.748   4.497   0.628  0.5275  0.1796 -0.5117
  280TMC3    C2 4277   0.690   4.385   0.581 -0.4503  0.4101 -0.2293
  280TMC3    C3 4278   0.558   4.390   0.541 -0.0954  0.2203 -0.4066
  280TMC3    C4 4279   0.668   4.606   0.661  0.3646  0.5035  0.6490
  280TMC3    C5 4280   0.535   4.609   0.633 -0.5863 -0.1830  0.3164
  280TMC3    C6 4281   0.481   4.499   0.571  0.0489  0.3259  0.3535
  280TMC3     C 4282   0.883   4.495   0.670 -0.1210 -0.3253  0.2873
  280TMC3     O 4283   0.904   4.526   0.788  0.2607  0.2130 -0.2179
  280TMC3     H 4284   0.754   4.298   0.570 -0.2532  0.5158  0.0894
  280TMC3    H1 4285   0.704   4.695   0.712  1.0997  1.4917 -1.5819
  280TMC3    H2 4286   0.375   4.480   0.577 -0.0767  0.6782 -0.7346
  280TMC3    C7 4287   0.445   4.699   0.703 -0.7547 -0.3733 -0.2887
  280TMC3    C8 4288   0.506   4.268   0.481 -0.0984 -0.1040 -0.5401
  280TMC3    O1 4289   0.489   0.036   0.790 -0.1611  0.5380  0.1511
  280TMC3    O2 4290   0.393   4.233   0.518 -0.1484  0.1757 -0.0773
  281TMC3    C1 4291   3.698   0.973  13.872 -0.2021 -0.4852 -0.1556
  281TMC3    C2 4292   3.807   1.045  13.840 -0.8482 -0.1763  0.3818
  281TMC3    C3 4293   3.892   0.999  13.739 -0.5488  0.5831 -0.7231
  281TMC3    C4 4294   3.680   0.847  13.817  0.7883 -0.2010 -0.0202
  281TMC3    C5 4295   3.773   0.794  13.730  0.1579  0.3059 -0.5934
  281TMC3    C6 4296   3.888   0.863  13.700  0.0053  0.4595 -0.1248
  281TMC3     C 4297   3.578   1.034  13.929  0.1565  0.6033  0.4896
  281TMC3     O 4298   3.505   0.975  14.006  0.4281 -0.2011 -0.1997
  281TMC3     H 4299   3.810   1.149  13.871 -1.0427 -0.4089  1.1888
  281TMC3    H1 4300   3.580   0.805  13.820  0.3056  0.9468 -0.0923
  281TMC3    H2 4301   3.956   0.817  13.628  1.3765 -0.7771  1.9765
  281TMC3    C7 4302   3.780   0.652  13.740 -0.0526  0.0836 -0.5482
  281TMC3    C8 4303   3.866   1.088  13.628 -0.0490  0.6149  0.1756
  281TMC3    O1 4304   3.871   0.614  13.814 -0.2275  1.1426  0.6375
  281TMC3    O2 4305   3.774   1.171  13.645 -0.2039 -0.7260  0.7266
  282MPD2     C 4306   0.861   1.843  14.977 -0.4059 -0.3915  0.6848
  282MPD2    C1 4307   0.869   1.984  14.968  0.5226  0.6621  0.2754
  282MPD2    C2 4308   0.860   2.047  14.845 -0.1483  0.1566 -0.1555
  282MPD2    C3 4309   0.826   1.976  14.731  1.0106 -0.4331 -0.3166
  282MPD2    C4 4310   0.827   1.835  14.738 -0.6061 -0.6486  0.3366
  282MPD2    C5 4311   0.854   1.770  14.859  0.6768 -0.1218 -0.2891
  282MPD2     H 4312   0.879   2.153  14.829 -0.2252  0.1162 -0.5110
  282MPD2    H1 4313   0.817   1.765  14.655  0.4578 -2.6768  1.9279
  282MPD2    H2 4314   0.859   1.781  15.066  0.9345 -0.1048  0.9176
  282MPD2    H3 4315   0.847   1.662  14.864 -2.7489  0.0295 -1.5029
  282MPD2     N 4316   0.802   2.044  14.614 -0.1640 -0.0137  0.2276
  282MPD2    H5 4317   0.833   2.141  14.616  0.6369 -0.2977  2.0072
  282MPD2    N1 4318   0.874   2.057  15.086  0.3710 -0.9738  0.1911
  282MPD2    H7 4319   0.869   1.997  15.168 -0.2510  0.0585  0.9119
  283TMC3    C1 4320   0.848   2.227  15.237 -0.6057  0.1822  0.6634
  283TMC3    C2 4321   0.920   2.325  15.298 -0.0599  0.3715  0.3845
  283TMC3    C3 4322   0.885   2.359  15.424 -0.3705 -0.3802 -0.2521
  283TMC3    C4 4323   0.738   2.168  15.296  0.8027 -0.2254  0.2371
  283TMC3    C5 4324   0.704   2.215  15.417  0.0783 -0.5104  0.4196
  283TMC3    C6 4325   0.775   2.312  15.482  0.5908  0.3080  0.5028
  283TMC3     C 4326   0.881   2.194  15.100 -0.7216 -0.2112 -0.0505
  283TMC3     O 4327   0.928   2.279  15.026 -0.7469 -0.3679 -0.0125
  283TMC3     H 4328   1.003   2.379  15.254 -0.2733  0.8810  0.5971
  283TMC3    H1 4329   0.679   2.097  15.238 -1.7356  1.3314  0.9093
  283TMC3    H2 4330   0.753   2.341  15.584  1.5300  2.7371  0.0118
  283TMC3    C7 4331   0.653   2.107  15.504  0.1254  0.6165 -0.2374
  283TMC3    C8 4332   0.969   2.447  15.499 -0.9581  0.1151 -0.0169
  283TMC3    O1 4333   0.612   2.141  15.610  0.3916  0.1352  0.1323
  283TMC3    O2 4334   0.982   2.430  15.614  0.2887 -0.1207 -0.2929
  284MPD2     C 4335   4.258   2.271  12.089 -0.3430 -0.3088  0.6574
  284MPD2    C1 4336   4.382   2.244  12.046  0.3609 -0.3747  0.4866
  284MPD2    C2 4337   4.454   2.143  12.111 -0.5264  0.2792  0.8425
  284MPD2    C3 4338   4.402   2.065  12.210 -0.1976  0.4849  0.3658
  284MPD2    C4 4339   4.266   2.082  12.243 -0.5060 -0.3580  0.3436
  284MPD2    C5 4340   4.201   2.184  12.183 -0.0725 -0.3824  0.2727
  284MPD2     H 4341   4.554   2.114  12.082 -0.4569  1.1395  0.1990
  284MPD2    H1 4342   4.221   2.017  12.316 -0.0052 -0.9032  0.1727
  284MPD2    H2 4343   4.195   2.345  12.041 -0.4613  0.1854  1.5712
  284MPD2    H3 4344   4.095   2.186  12.208  0.0792  0.0124  0.8754
  284MPD2     N 4345   4.482   1.964  12.260 -0.1972 -0.7072  0.0803
  284MPD2    H5 4346   4.577   1.960  12.225  0.2079 -2.0370  1.3332
  284MPD2    N1 4347   4.440   2.291  11.920 -0.2708 -0.5799 -0.9143
  284MPD2    H7 4348   4.527   2.248  11.891  0.4317 -0.9439  1.6771
  285TMC3    C1 4349   4.461   2.391  11.712 -0.1594  0.8125  0.2475
  285TMC3    C2 4350   4.519   2.277  11.670  0.1371 -0.2776 -0.6144
  285TMC3    C3 4351   4.639   2.276  11.607  0.1047 -0.6465  0.1414
  285TMC3    C4 4352   4.524   2.515  11.694 -0.5204  0.4253 -0.0063
  285TMC3    C5 4353   4.648   2.515  11.640  0.3971 -0.4334  0.3594
  285TMC3    C6 4354   4.703   2.399  11.586  0.6410  0.2459  0.4136
  285TMC3     C 4355   4.390   2.388  11.840 -0.5368 -0.9158 -0.2683
  285TMC3     O 4356   4.317   2.479  11.874  0.2291  0.4524  0.2184
  285TMC3     H 4357   4.481   2.180  11.697 -1.0516 -0.0042 -1.3056
  285TMC3    H1 4358   4.484   2.608  11.734  0.9508  1.9697 -2.1330
  285TMC3    H2 4359   0.032   2.409  11.503 -3.0772 -0.6436 -2.7841
  285TMC3    C7 4360   4.703   2.639  11.586 -1.1579  0.3815  0.2714
  285TMC3    C8 4361   4.663   2.166  11.513  0.2681  0.2121 -0.1917
  285TMC3    O1 4362   0.091   2.637  11.582 -0.2191 -0.2966  0.1396
  285TMC3    O2 4363   4.562   2.111  11.464 -0.6427  0.3461 -0.4562
  286MPD2     C 4364   4.226   4.118   1.682  0.2420  0.0188  0.0335
  286MPD2    C1 4365   4.191   4.158   1.556 -0.0412  0.3761 -0.4842
  286MPD2    C2 4366   4.251   4.104   1.446 -0.0907 -0.1003  1.0228
  286MPD2    C3 4367   4.357   4.017   1.461  0.3525 -0.4181 -0.6980
  286MPD2    C4 4368   4.396   3.986   1.584  0.2753 -0.3606  0.9764
  286MPD2    C5 4369   4.333   4.040   1.692 -0.9146 -0.2921 -0.0587
  286MPD2     H 4370   4.217   4.137   1.348 -1.4508  0.0385  1.5465
  286MPD2    H1 4371   4.483   3.923   1.603  0.6304 -0.4412 -0.9180
  286MPD2    H2 4372   4.190   4.146   1.780  1.1761  0.5042  0.2447
  286MPD2    H3 4373   4.365   4.018   1.794  0.9657 -2.5525 -1.1314
  286MPD2     N 4374   4.435   3.962   1.350 -0.6885  0.0770  0.1518
  286MPD2    H5 4375   4.508   3.896   1.374 -0.4795 -0.2256 -1.3258
  286MPD2    N1 4376   4.088   4.253   1.536  0.2464  0.1027  0.0278
  286MPD2    H7 4377   4.067   4.271   1.438 -0.8907 -1.6696 -0.0598
  287TMC3    C1 4378   4.523   3.930   1.134 -0.3110  0.1968  0.2594
  287TMC3    C2 4379   4.487   3.890   1.005  0.9687  0.6511 -0.2224
  287TMC3    C3 4380   4.584   3.817   0.943 -1.0321  0.1079 -0.3701
  287TMC3    C4 4381   4.636   3.894   1.194  0.4808 -0.2669  0.0312
  287TMC3    C5 4382   4.731   3.812   1.127  0.2040 -0.6362 -0.2050
  287TMC3    C6 4383   4.704   3.772   0.998 -1.3076  0.0290  0.2082
  287TMC3     C 4384   4.415   3.989   1.215  0.3440 -0.6468 -0.0993
  287TMC3     O 4385   4.315   4.037   1.169  0.4356  0.2550 -0.0385
  287TMC3     H 4386   4.392   3.921   0.963  1.6188  0.9329 -1.4529
  287TMC3    H1 4387   4.657   3.936   1.292 -1.2842 -2.4542  1.3656
  287TMC3    H2 4388   0.029   3.710   0.937 -1.4064  0.1654 -0.0357
  287TMC3    C7 4389   0.126   3.842   1.170  0.6288 -0.2884  0.3517
  287TMC3    C8 4390   4.561   3.792   0.799 -0.3835  0.1877  0.5197
  287TMC3    O1 4391   0.144   3.922   1.261  0.4517 -0.0794 -0.0622
  287TMC3    O2 4392   4.446   3.784   0.755  0.2114 -0.0335  0.0276
  288TMC3    C1 4393   1.923   4.516  14.332 -0.0292  0.8202 -0.1807
  288TMC3    C2 4394   1.826   4.465  14.416  0.1558 -0.3001 -0.1367
  288TMC3    C3 4395   1.708   4.532  14.417 -0.3263  0.0327 -0.0264
  288TMC3    C4 4396   1.912   4.626  14.253 -0.1931 -0.1466  0.7595
  288TMC3    C5 4397   1.788   4.684  14.249  0.1318 -0.0394 -0.8712
  288TMC3    C6 4398   1.685   4.647  14.332  0.2278  0.0475 -0.3070
  288TMC3     C 4399   2.052   4.451  14.326  0.7846 -0.0219 -0.0468
  288TMC3     O 4400   2.121   4.474  14.228 -0.1019  0.9270 -0.5341
  288TMC3     H 4401   1.845   4.379  14.479 -0.5953 -1.5569 -1.6349
  288TMC3    H1 4402   2.001   4.653  14.198 -0.6100 -1.2090 -0.4190
  288TMC3    H2 4403   1.594   4.706  14.334  0.0589 -0.2875  3.0439
  288TMC3    C7 4404   1.759   0.034  14.143  0.4900  0.0841  0.6240
  288TMC3    C8 4405   1.646   4.547  14.545  1.1584  0.1504 -0.1175
  288TMC3    O1 4406   1.667   0.115  14.156  0.4531 -0.1167 -0.0352
  288TMC3    O2 4407   1.631   4.664  14.583  0.1456 -0.4777  0.1320
  289MPD2     C 4408   1.880   4.397  13.944  0.0043 -0.2482  0.0027
  289MPD2    C1 4409   1.764   4.420  13.880 -0.7061 -0.1901  0.1615
  289MPD2    C2 4410   1.655   4.330  13.905  0.2307  0.3035  0.8830
  289MPD2    C3 4411   1.664   4.223  13.992 -0.2190 -0.0094 -0.1993
  289MPD2    C4 4412   1.783   4.204  14.065  0.1726 -0.4497 -0.2885
  289MPD2    C5 4413   1.887   4.298  14.046 -0.0117  0.7272  0.1233
  289MPD2     H 4414   1.566   4.345  13.844 -0.8942 -0.4430  2.3315
  289MPD2    H1 4415   1.787   4.122  14.135 -2.2998 -0.5761 -0.2856
  289MPD2    H2 4416   1.963   4.465  13.931  0.1643 -0.2066  1.1882
  289MPD2    H3 4417   1.979   4.291  14.102 -0.1525 -0.3030  0.2355
  289MPD2     N 4418   1.551   4.134  14.012  0.6671 -0.2055  0.4733
  289MPD2    H5 4419   1.565   4.055  14.073  2.3027  0.6796  1.2380
  289MPD2    N1 4420   1.761   4.507  13.774 -0.5393 -0.0298 -0.0058
  289MPD2    H7 4421   1.854   4.545  13.754 -0.8757  0.1406 -1.2175
  290TMC3    C1 4422   1.317   4.071  14.020  0.4172  0.2721  0.2572
  290TMC3    C2 4423   1.189   4.122  14.016 -0.3034 -0.1072  0.1936
  290TMC3    C3 4424   1.096   4.029  14.009  0.1757  0.3413  0.3506
  290TMC3    C4 4425   1.352   3.946  13.993 -1.1951 -0.6018  0.0595
  290TMC3    C5 4426   1.256   3.855  13.972 -0.2530  0.9493  0.2099
  290TMC3    C6 4427   1.128   3.895  13.981  0.3916 -0.5307  0.5738
  290TMC3     C 4428   1.413   4.169  13.991  0.2828 -0.2769  0.1099
  290TMC3     O 4429   1.369   4.275  13.946 -0.4864 -0.2249 -0.2327
  290TMC3     H 4430   1.178   4.227  14.042 -0.9923 -0.1704  0.1385
  290TMC3    H1 4431   1.453   3.908  13.975  0.3248  3.0454  0.9325
  290TMC3    H2 4432   1.049   3.829  13.947 -1.2603  1.8425 -0.2767
  290TMC3    C7 4433   1.288   3.715  13.953 -0.7907  0.2934  0.1874
  290TMC3    C8 4434   0.960   4.066  13.980  0.9305  0.3945  0.6251
  290TMC3    O1 4435   1.407   3.690  13.942 -0.3597 -0.5873 -0.3410
  290TMC3    O2 4436   0.880   3.978  13.946  0.2712  0.2250 -0.0961
  291MPD2     C 4437   0.691   3.691  17.502 -0.1788  0.6897 -0.3238
  291MPD2    C1 4438   0.750   3.657  17.625  0.0603 -0.6044 -0.2816
  291MPD2    C2 4439   0.853   3.731  17.683 -0.4239  0.4022 -0.4575
  291MPD2    C3 4440   0.894   3.845  17.617 -0.1757  0.0652  0.1349
  291MPD2    C4 4441   0.827   3.881  17.499  0.2396 -0.0168 -0.3310
  291MPD2    C5 4442   0.726   3.806  17.440 -0.2240 -0.3942 -0.0070
  291MPD2     H 4443   0.905   3.691   0.012 -0.9719 -1.8320 -1.1516
  291MPD2    H1 4444   0.857   3.972  17.449  1.2288 -0.1704 -0.0101
  291MPD2    H2 4445   0.618   3.628  17.452 -0.3911  0.0247  0.8113
  291MPD2    H3 4446   0.687   3.832  17.342  0.6706 -1.5280 -0.6656
  291MPD2     N 4447   1.011   3.915  17.651 -0.4620 -0.3791 -0.1212
  291MPD2    H5 4448   1.044   3.993  17.595  1.4690 -0.0116  1.5293
  291MPD2    N1 4449   0.718   3.537  17.697  0.3308 -0.7011  0.6637
  291MPD2    H7 4450   0.768   3.521   0.026 -0.9799 -0.7432  1.4064
  292TMC3    C1 4451   0.596   3.340  17.742 -0.5533  0.5141  0.4731
  292TMC3    C2 4452   0.594   3.352   0.116 -0.3328  0.5471  0.5370
  292TMC3    C3 4453   0.575   3.243   0.196 -0.1458  0.9127 -0.3871
  292TMC3    C4 4454   0.575   3.217  17.682 -0.4324 -0.1985  0.0356
  292TMC3    C5 4455   0.549   3.106   0.006 -0.1373 -0.4674  0.1153
  292TMC3    C6 4456   0.546   3.125   0.143  0.1127  0.4937 -0.3961
  292TMC3     C 4457   0.616   3.454  17.659  0.2607 -0.6022  0.2539
  292TMC3     O 4458   0.555   3.451  17.554 -0.3879 -0.1941  0.4048
  292TMC3     H 4459   0.605   3.453   0.152  0.5992  1.0276 -1.1190
  292TMC3    H1 4460   0.586   3.205  17.575  1.0994 -0.8421  0.2619
  292TMC3    H2 4461   0.529   3.035   0.201  0.2277  1.1370  0.6405
  292TMC3    C7 4462   0.526   2.968  17.714  0.8223 -0.1485  0.1967
  292TMC3    C8 4463   0.567   3.274   0.338  0.1726  0.3870  0.4031
  292TMC3    O1 4464   0.538   2.879   0.033 -0.3284 -0.4867 -0.4106
  292TMC3    O2 4465   0.590   3.390   0.375 -0.4496 -0.4380  0.1806
  293MPD2     C 4466   2.525   0.590  12.296 -0.4411  0.0766  0.3159
  293MPD2    C1 4467   2.487   0.489  12.373  0.0176 -0.5626  0.7622
  293MPD2    C2 4468   2.542   0.459  12.496 -0.3519 -0.4282 -0.2295
  293MPD2    C3 4469   2.625   0.549  12.550 -0.4373  0.0669 -0.3069
  293MPD2    C4 4470   2.666   0.660  12.471 -0.1224  0.0746  0.4126
  293MPD2    C5 4471   2.612   0.685  12.348  0.0022  0.2337  0.3369
  293MPD2     H 4472   2.512   0.373  12.555  1.0689 -0.7148  0.0874
  293MPD2    H1 4473   2.737   0.731  12.510  0.5192  0.1713 -0.9136
  293MPD2    H2 4474   2.473   0.609  12.202 -1.1008  1.0769  0.8808
  293MPD2    H3 4475   2.641   0.772  12.291  0.5965  0.1314  0.4868
  293MPD2     N 4476   2.673   0.524  12.679 -0.3925 -0.0034 -0.9162
  293MPD2    H5 4477   2.647   0.439  12.728  1.0324 -0.0718 -0.2719
  293MPD2    N1 4478   2.387   0.410  12.321  0.1226 -0.0063 -0.4019
  293MPD2    H7 4479   2.332   0.446  12.244  1.2198  1.2087 -0.6058
  294TMC3    C1 4480   2.211   0.266  12.321  0.6610 -0.3447 -0.6161
  294TMC3    C2 4481   2.153   0.146  12.351 -0.0974 -0.6938 -0.4939
  294TMC3    C3 4482   2.019   0.135  12.343 -0.2907  0.3864 -0.1186
  294TMC3    C4 4483   2.137   0.379  12.276 -0.3901 -0.3087 -0.2038
  294TMC3    C5 4484   1.998   0.356  12.261  0.5754  0.1059 -0.3299
  294TMC3    C6 4485   1.937   0.244  12.307 -0.4418  0.1734  0.0348
  294TMC3     C 4486   2.336   0.290  12.375  0.2946 -0.1927 -0.3493
  294TMC3     O 4487   2.377   0.223  12.469  0.8414  0.0452 -0.1065
  294TMC3     H 4488   2.208   0.057  12.380  0.6381 -0.4442 -1.1102
  294TMC3    H1 4489   2.164   0.481  12.251 -0.6100  0.4514  2.6630
  294TMC3    H2 4490   1.831   0.226  12.291 -0.8659  2.4612  0.3511
  294TMC3    C7 4491   1.929   0.446  12.168 -0.1866 -0.2388  0.4074
  294TMC3    C8 4492   1.984   0.003  12.309  0.2808  0.0777 -0.3170
  294TMC3    O1 4493   2.001   0.515  12.102  0.1944 -0.0194 -0.0005
  294TMC3    O2 4494   2.067   4.671  12.256 -0.0887 -0.2251 -0.2010
  295MPD2     C 4495   2.458   4.539   1.047 -0.1046 -0.5344  0.2478
  295MPD2    C1 4496   2.518   4.417   1.045 -0.0284  0.2403 -0.1703
  295MPD2    C2 4497   2.496   4.332   1.150  0.4727  0.1819 -0.8810
  295MPD2    C3 4498   2.421   4.372   1.258 -0.3424  0.6587  0.0953
  295MPD2    C4 4499   2.367   4.496   1.264  0.8787  0.0544  0.6874
  295MPD2    C5 4500   2.381   4.582   1.155  1.0025 -0.7682 -0.3716
  295MPD2     H 4501   2.522   4.227   1.141  0.8281  0.1706  0.3451
  295MPD2    H1 4502   2.308   4.546   1.340  0.1021  0.1777 -0.0007
  295MPD2    H2 4503   2.467   4.610   0.966 -0.6930  1.4383  1.9007
  295MPD2    H3 4504   2.338   4.682   1.166  2.3497 -0.6022  3.2074
  295MPD2     N 4505   2.385   4.292   1.368  0.3228 -0.5170  0.0274
  295MPD2    H5 4506   2.343   4.344   1.444  3.5622  1.7147  0.3132
  295MPD2    N1 4507   2.586   4.377   0.933  0.5004 -0.1854 -0.4335
  295MPD2    H7 4508   2.585   4.443   0.856 -0.9745  1.5599  1.1006
  296TMC3    C1 4509   2.405   4.139   1.541  0.4485 -0.1116  0.3146
  296TMC3    C2 4510   2.324   4.224   1.619  0.2256  0.0009  0.2966
  296TMC3    C3 4511   2.311   4.190   1.752  0.2771  1.4227 -0.4212
  296TMC3    C4 4512   2.495   4.050   1.598  0.4706 -0.2178 -0.5749
  296TMC3    C5 4513   2.474   4.019   1.728 -0.5462  0.7279  0.4163
  296TMC3    C6 4514   2.387   4.097   1.811 -0.0714 -0.0382  0.1777
  296TMC3     C 4515   2.427   4.166   1.401  0.4240  0.4343  0.0617
  296TMC3     O 4516   2.503   4.096   1.336 -0.1236 -0.4017  0.3708
  296TMC3     H 4517   2.251   4.292   1.576  0.9908 -0.1970 -1.3354
  296TMC3    H1 4518   2.578   4.008   1.541  0.8002 -0.3320 -0.0041
  296TMC3    H2 4519   2.351   4.056   1.905 -0.5090 -0.5512 -0.2181
  296TMC3    C7 4520   2.515   3.891   1.789  0.6602 -0.5145  0.9023
  296TMC3    C8 4521   2.216   4.257   1.838  0.3601  0.6438  0.3151
  296TMC3    O1 4522   2.557   3.895   1.905 -0.3771  0.7317 -0.2634
  296TMC3    O2 4523   2.169   4.191   1.934 -0.2824  0.3693 -0.5574
  297MPD2     C 4524   0.132   0.557  16.224  0.2532 -0.2661 -0.4591
  297MPD2    C1 4525   0.152   0.627  16.106  0.7683 -0.4694 -0.3556
  297MPD2    C2 4526   0.279   0.680  16.073  0.5884  0.2641 -0.3548
  297MPD2    C3 4527   0.379   0.662  16.168  0.5835 -0.1096 -0.4815
  297MPD2    C4 4528   0.358   0.581  16.277  0.2976  1.3804 -0.5349
  297MPD2    C5 4529   0.238   0.528  16.305  0.7077 -0.6917  0.2172
  297MPD2     H 4530   0.293   0.748  15.990 -0.2134  1.4909  0.5098
  297MPD2    H1 4531   0.432   0.568  16.355 -0.1345 -0.7606 -0.4906
  297MPD2    H2 4532   0.033   0.517  16.242  0.3929  0.2596  1.4904
  297MPD2    H3 4533   0.217   0.473  16.396  0.0093  1.0887  1.1356
  297MPD2     N 4534   0.496   0.738  16.159  0.4142 -0.3186 -0.2716
  297MPD2    H5 4535   0.564   0.746  16.233 -1.6450 -3.3435  1.9727
  297MPD2    N1 4536   0.035   0.652  16.030  0.2601 -0.2526 -0.2007
  297MPD2    H7 4537   4.687   0.619  16.068  1.3393 -2.2699  0.5640
  298TMC3    C1 4538   4.643   0.772  15.872 -0.6148  0.4398 -0.1918
  298TMC3    C2 4539   4.651   0.876  15.781 -0.4159 -0.6656  0.1410
  298TMC3    C3 4540   4.552   0.972  15.777 -0.1500  0.2744  0.2438
  298TMC3    C4 4541   4.542   0.786  15.964 -0.3703 -0.3977  0.2337
  298TMC3    C5 4542   4.435   0.874  15.947  0.5840  0.1276 -0.1465
  298TMC3    C6 4543   4.438   0.978  15.851  0.2905 -0.1843  0.4667
  298TMC3     C 4544   0.033   0.716  15.904 -0.6500  0.6971  0.1696
  298TMC3     O 4545   0.129   0.730  15.828 -0.2614 -0.3059 -0.5006
  298TMC3     H 4546   0.003   0.883  15.724 -0.8909 -0.3298 -0.5811
  298TMC3    H1 4547   4.539   0.714  16.045  0.9666  1.0217  1.5575
  298TMC3    H2 4548   4.357   1.049  15.838  0.0981 -0.4810  0.0418
  298TMC3    C7 4549   4.327   0.867  16.034 -0.8118 -0.8353 -0.1293
  298TMC3    C8 4550   4.584   1.096  15.712  0.0722  0.4012  0.4129
  298TMC3    O1 4551   4.221   0.906  15.987 -0.1689 -0.3084 -0.2847
  298TMC3    O2 4552   4.682   1.080  15.644 -0.5237  0.6623 -0.6472
  299MPD2     C 4553   4.715   1.176  10.894  0.0993  0.0196  0.2090
  299MPD2    C1 4554   0.071   1.202  10.798 -0.4546  0.3790 -0.6584
  299MPD2    C2 4555   0.041   1.183  10.667 -0.3750  0.7470 -0.1813
  299MPD2    C3 4556   4.647   1.163  10.627 -0.0848 -0.2784 -0.7773
  299MPD2    C4 4557   4.549   1.153  10.722 -0.0042 -0.9222  0.4868
  299MPD2    C5 4558   4.584   1.166  10.849 -0.5178  0.0684 -0.2975
  299MPD2     H 4559   0.123   1.185  10.596 -0.2129 -0.5715 -0.0332
  299MPD2    H1 4560   4.443   1.141  10.702  0.2773 -1.0676 -0.8793
  299MPD2    H2 4561   4.734   1.177  11.001  0.1298 -1.4085  0.2215
  299MPD2    H3 4562   4.503   1.170  10.921 -0.3522 -1.2296 -0.0518
  299MPD2     N 4563   4.618   1.150  10.494 -0.2351 -0.3348  0.1609
  299MPD2    H5 4564   4.521   1.163  10.466 -0.6916 -2.4279  0.7629
  299MPD2    N1 4565   0.199   1.225  10.849 -0.0463  0.6322 -0.1677
  299MPD2    H7 4566   0.211   1.216  10.949  0.8789 -2.6941 -0.5919
  300TMC3    C1 4567   4.645   1.161  10.254  0.2293 -0.4322 -0.0037
  300TMC3    C2 4568   4.726   1.162  10.143  0.3363 -0.4621  0.4542
  300TMC3    C3 4569   4.692   1.246  10.040 -0.0603 -0.4165  0.2358
  300TMC3    C4 4570   4.517   1.213  10.247  0.2964  0.0988 -0.5701
  300TMC3    C5 4571   4.485   1.285  10.134 -0.7224  0.0719 -0.3929
  300TMC3    C6 4572   4.575   1.310  10.039 -0.4750  0.6834  0.0829
  300TMC3     C 4573   4.702   1.127  10.386 -0.3748 -0.4597 -0.0257
  300TMC3     O 4574   0.078   1.086  10.390 -0.1544 -0.1165 -0.9981
  300TMC3     H 4575   0.089   1.132  10.159  0.1302 -1.0248  0.7389
  300TMC3    H1 4576   4.437   1.198  10.319  0.1766  0.7806 -0.5701
  300TMC3    H2 4577   4.561   1.396   9.975 -0.0837  0.7846  0.1351
  300TMC3    C7 4578   4.391   1.390  10.168 -0.0724 -0.8785 -0.5016
  300TMC3    C8 4579   0.070   1.313   9.978 -1.1821  0.9876  0.4251
  300TMC3    O1 4580   4.298   1.416  10.089 -0.3730 -0.1425  0.2076
  300TMC3    O2 4581   0.083   1.318   9.858  0.2617  0.5955 -0.0363
  301MPD2     C 4582   2.582   2.116   1.792  0.0539  0.6788  0.1098
  301MPD2    C1 4583   2.574   2.068   1.663  0.2634  0.2828 -0.0383
  301MPD2    C2 4584   2.569   1.931   1.648  0.0465  0.5319 -0.4664
  301MPD2    C3 4585   2.559   1.843   1.750 -0.1929  0.6049  0.2112
  301MPD2    C4 4586   2.560   1.893   1.881  0.1902  0.0398 -0.2023
  301MPD2    C5 4587   2.567   2.033   1.898  0.2866  0.0983  0.1507
  301MPD2     H 4588   2.563   1.890   1.548 -1.1133 -2.1540  0.7034
  301MPD2    H1 4589   2.551   1.832   1.970  0.1461 -0.2508 -0.4079
  301MPD2    H2 4590   2.580   2.223   1.810  1.9052  0.7178  0.0879
  301MPD2    H3 4591   2.553   2.076   1.997  1.2412 -0.0906  0.3640
  301MPD2     N 4592   2.534   1.694   1.734 -0.5084  0.1859  0.2042
  301MPD2    H5 4593   2.519   1.646   1.823  0.9078 -1.2849 -0.3397
  301MPD2    N1 4594   2.585   2.144   1.546  0.2424 -0.3805  0.5394
  301MPD2    H7 4595   2.588   2.089   1.460 -0.6368 -0.0820  0.3211
  302TMC3    C1 4596   2.481   1.480   1.642  0.4496 -0.1095  0.6980
  302TMC3    C2 4597   2.563   1.429   1.743  0.1754  0.2200  0.6448
  302TMC3    C3 4598   2.619   1.305   1.725  0.4758  0.2099 -0.0609
  302TMC3    C4 4599   2.443   1.405   1.528  0.5303 -0.1768  0.1851
  302TMC3    C5 4600   2.493   1.277   1.521 -0.1611  0.6101  0.3787
  302TMC3    C6 4601   2.576   1.225   1.614 -0.1242  0.3573 -0.5003
  302TMC3     C 4602   2.506   1.623   1.616 -0.4682 -0.3710  0.0108
  302TMC3     O 4603   2.505   1.664   1.500 -0.1659  0.2540  0.3979
  302TMC3     H 4604   2.588   1.487   1.832  1.4448  1.4425 -0.5132
  302TMC3    H1 4605   2.399   1.456   1.443  1.4590 -1.0062 -0.8025
  302TMC3    H2 4606   2.614   1.124   1.607 -0.3419  0.3097 -0.9589
  302TMC3    C7 4607   2.462   1.195   1.404 -0.5724 -0.6746 -0.0417
  302TMC3    C8 4608   2.709   1.246   1.822  0.0289  0.0311  0.8051
  302TMC3    O1 4609   2.451   1.074   1.424 -0.1400  0.0202 -0.4116
  302TMC3    O2 4610   2.716   1.120   1.828  0.0603 -0.8393  0.0390
  303MPD2     C 4611   3.265   0.683  10.820 -0.3409  0.3594  0.2932
  303MPD2    C1 4612   3.139   0.628  10.838  0.2367  0.5689 -0.0677
  303MPD2    C2 4613   3.041   0.633  10.746  0.7528  0.2791 -0.7438
  303MPD2    C3 4614   3.069   0.705  10.628 -0.6157  0.5470 -0.0583
  303MPD2    C4 4615   3.191   0.770  10.610 -0.3250  0.1469 -0.5319
  303MPD2    C5 4616   3.290   0.748  10.702  0.0679  0.3977 -0.3754
  303MPD2     H 4617   2.939   0.604  10.770  0.7591  1.0829  0.2295
  303MPD2    H1 4618   3.216   0.825  10.521 -1.7350  0.2864 -0.8424
  303MPD2    H2 4619   3.341   0.674  10.896 -1.1510  0.2591  1.0979
  303MPD2    H3 4620   3.385   0.797  10.681  0.6339 -0.5938 -0.1350
  303MPD2     N 4621   2.976   0.712  10.521 -0.5150  0.2787  0.6170
  303MPD2    H5 4622   2.989   0.777  10.444 -1.6260 -0.3819 -0.1338
  303MPD2    N1 4623   3.125   0.574  10.969  0.1704  0.0293 -0.3369
  303MPD2    H7 4624   3.204   0.582  11.032  1.2958 -1.2352 -1.6003
  304TMC3    C1 4625   3.022   0.467  11.151  0.5256 -0.1874 -0.5518
  304TMC3    C2 4626   2.912   0.463  11.230  0.4342 -0.0862 -0.9457
  304TMC3    C3 4627   2.892   0.366  11.322  0.0313  0.4447 -0.4920
  304TMC3    C4 4628   3.127   0.383  11.171  0.1721 -0.0203  0.6240
  304TMC3    C5 4629   3.110   0.289  11.269 -0.4017  0.0080 -0.2651
  304TMC3    C6 4630   2.997   0.284  11.349  0.4993  0.7572 -0.4942
  304TMC3     C 4631   3.010   0.520  11.018  0.2322 -0.0771 -0.5047
  304TMC3     O 4632   2.903   0.499  10.967  0.1059 -0.0359  0.1204
  304TMC3     H 4633   2.828   0.524  11.199 -0.4002  0.9110  3.2427
  304TMC3    H1 4634   3.199   0.355  11.095  0.6130 -1.4044  1.5544
  304TMC3    H2 4635   2.983   0.207  11.425  2.0572 -0.0736 -1.0487
  304TMC3    C7 4636   3.168   0.164  11.234 -0.1843 -0.1119  0.6616
  304TMC3    C8 4637   2.775   0.292  11.293  0.2015 -0.3462 -0.0910
  304TMC3    O1 4638   3.276   0.160  11.179  0.3051 -0.3428  0.1297
  304TMC3    O2 4639   2.802   0.175  11.276 -0.2302 -0.0129  0.0383
  305MPD2     C 4640   1.425   2.539  14.083  0.0651 -0.4700 -0.4169
  305MPD2    C1 4641   1.331   2.444  14.110  0.7535  0.1416 -0.7620
  305MPD2    C2 4642   1.302   2.344  14.021 -0.2167  0.4895  0.8374
  305MPD2    C3 4643   1.367   2.336  13.897 -0.6050 -0.0183  0.5043
  305MPD2    C4 4644   1.467   2.432  13.872  0.1775  0.3787  0.1456
  305MPD2    C5 4645   1.493   2.529  13.962  0.1914 -0.0762  0.0559
  305MPD2     H 4646   1.228   2.274  14.059  0.9393 -1.1589  0.0449
  305MPD2    H1 4647   1.526   2.433  13.782  2.7045  2.7760  1.8194
  305MPD2    H2 4648   1.449   2.620  14.151  1.5517 -1.9431  0.7983
  305MPD2    H3 4649   1.571   2.604  13.951 -0.1001  0.3666  0.9782
  305MPD2     N 4650   1.328   2.249  13.792  0.1976 -0.3574  0.2190
  305MPD2    H5 4651   1.369   2.270  13.702  2.6428 -1.3540  1.1092
  305MPD2    N1 4652   1.274   2.453  14.242  0.4447 -0.5337  0.0058
  305MPD2    H7 4653   1.321   2.515  14.308  0.3255  1.1817 -1.5417
  306TMC3    C1 4654   1.136   2.426  14.426  0.6507 -0.2436  0.2710
  306TMC3    C2 4655   1.118   2.320  14.511  1.1089 -0.3316  0.3272
  306TMC3    C3 4656   1.167   2.313  14.640 -0.3047 -0.0691 -0.2739
  306TMC3    C4 4657   1.198   2.540  14.473  0.1296 -0.3433 -0.2819
  306TMC3    C5 4658   1.233   2.534  14.607  0.0011  0.3693 -0.1497
  306TMC3    C6 4659   1.227   2.421  14.692 -0.2713 -0.6400  0.0743
  306TMC3     C 4660   1.156   2.401  14.286  0.2427  0.4628  0.0258
  306TMC3     O 4661   1.100   2.304  14.244  0.0430 -0.2379 -0.2834
  306TMC3     H 4662   1.087   2.228  14.463 -0.3829 -0.6411  1.8802
  306TMC3    H1 4663   1.190   2.632  14.417  0.9557 -0.2374 -0.2248
  306TMC3    H2 4664   1.271   2.420  14.791 -0.0498 -1.1378 -0.0310
  306TMC3    C7 4665   1.283   2.660  14.661  0.4391  0.2804 -0.9842
  306TMC3    C8 4666   1.176   2.175  14.693  0.3969  0.0897  0.7956
  306TMC3    O1 4667   1.340   2.730  14.577  0.4396  0.0996  0.4979
  306TMC3    O2 4668   1.098   2.095  14.637 -0.3935 -0.3614  0.4295
  307MPD2     C 4669   3.880   0.365   0.660 -0.1565 -0.3526  0.0634
  307MPD2    C1 4670   3.917   0.247   0.726  0.3785 -0.8254 -0.1354
  307MPD2    C2 4671   3.877   0.229   0.855 -0.3690 -0.0160 -0.4207
  307MPD2    C3 4672   3.829   0.341   0.929  0.1685 -0.5206 -0.2521
  307MPD2    C4 4673   3.811   0.467   0.870  1.5210  0.0003  0.0378
  307MPD2    C5 4674   3.832   0.475   0.734  0.1464 -0.0116  0.1050
  307MPD2     H 4675   3.899   0.132   0.898 -0.8081 -0.0290 -0.2226
  307MPD2    H1 4676   3.772   0.557   0.917 -0.4390 -0.4872 -0.6506
  307MPD2    H2 4677   3.890   0.374   0.553  1.6108 -0.0226  0.2637
  307MPD2    H3 4678   3.820   0.569   0.681  0.9786  0.8264  1.4163
  307MPD2     N 4679   3.799   0.322   1.068  0.2978  0.1566 -1.2316
  307MPD2    H5 4680   3.803   0.228   1.105  1.8013  1.1957  1.2590
  307MPD2    N1 4681   3.994   0.141   0.670 -0.1461 -0.5291 -0.1861
  307MPD2    H7 4682   4.004   0.056   0.725 -0.0269 -0.1263  0.4106
  308TMC3    C1 4683   3.530   0.325   1.362 -0.2539 -0.7227  0.4657
  308TMC3    C2 4684   3.503   0.446   1.425  0.4385 -0.1286  0.4754
  308TMC3    C3 4685   3.613   0.527   1.429  0.2631  0.1960  0.3821
  308TMC3    C4 4686   3.644   0.301   1.292 -0.1495 -0.7048  0.0668
  308TMC3    C5 4687   3.750   0.383   1.293 -0.0552  0.7967 -0.1180
  308TMC3    C6 4688   3.727   0.494   1.361 -1.2755 -0.7541  0.1161
  308TMC3     C 4689   3.430   0.232   1.337 -0.0742 -0.0667  0.6581
  308TMC3     O 4690   3.458   0.113   1.334 -0.2447 -0.1854  0.1186
  308TMC3     H 4691   3.405   0.472   1.464 -0.0267 -0.6183 -0.3616
  308TMC3    H1 4692   3.636   0.222   1.219  0.1397 -0.1732 -0.5371
  308TMC3    H2 4693   3.820   0.549   1.365 -2.2421  1.0027 -1.5250
  308TMC3    C7 4694   3.794   0.425   1.160 -0.1339  0.4488  0.7347
  308TMC3    C8 4695   3.586   0.665   1.454  0.1176 -0.1827 -0.2022
  308TMC3    O1 4696   3.801   0.542   1.141  0.3261  0.3776  0.6474
  308TMC3    O2 4697   3.521   0.693   1.555 -0.1754  0.2903 -0.1988
  309MPD2     C 4698   2.874   0.874  17.544  0.4054  0.0132  0.5878
  309MPD2    C1 4699   2.809   0.798  17.453  0.1283 -0.4141 -0.1412
  309MPD2    C2 4700   2.675   0.784  17.461  0.0652  0.1012  0.2243
  309MPD2    C3 4701   2.606   0.849  17.567 -0.7704  0.3498 -0.7676
  309MPD2    C4 4702   2.677   0.917  17.664  0.0113 -0.5698  0.4097
  309MPD2    C5 4703   2.812   0.927  17.655  0.2415 -0.3986 -0.0482
  309MPD2     H 4704   2.628   0.728  17.381 -0.5888 -1.6444  1.8382
  309MPD2    H1 4705   2.626   0.945  17.755 -1.3386  1.7158 -1.0405
  309MPD2    H2 4706   2.981   0.892  17.537  0.6308 -1.9199 -1.2574
  309MPD2    H3 4707   2.868   0.986  17.727 -1.5320  1.4529 -0.2057
  309MPD2     N 4708   2.467   0.843  17.584  0.2994  0.6915  1.1631
  309MPD2    H5 4709   2.432   0.884  17.670 -1.9076  3.1796 -0.8743
  309MPD2    N1 4710   2.878   0.743  17.337 -0.9518  0.0391  0.3092
  309MPD2    H7 4711   2.821   0.717  17.258  0.6463  0.1787 -0.8884
  310TMC3    C1 4712   3.072   0.722  17.194 -0.1402 -0.5335 -0.5261
  310TMC3    C2 4713   2.996   0.760  17.084 -0.0362 -0.2770 -0.0422
  310TMC3    C3 4714   3.065   0.757  16.957 -0.0174 -0.4013  0.9011
  310TMC3    C4 4715   3.200   0.684  17.193  0.0149  0.9448  0.8510
  310TMC3    C5 4716   3.262   0.691  17.068  0.0341  0.0096  0.0307
  310TMC3    C6 4717   3.198   0.725  16.951  0.5398 -0.2427 -0.2501
  310TMC3     C 4718   3.017   0.743  17.329  0.0192  0.2734 -0.4988
  310TMC3     O 4719   3.106   0.756  17.415 -0.5088 -0.1325  0.3300
  310TMC3     H 4720   2.894   0.794  17.095 -0.0017  0.0707 -0.8676
  310TMC3    H1 4721   3.237   0.639  17.285  1.7094  1.6589  0.5294
  310TMC3    H2 4722   3.260   0.738  16.863 -1.2119  0.8702 -1.3137
  310TMC3    C7 4723   3.380   0.613  17.056  0.6644  0.2491  0.5442
  310TMC3    C8 4724   2.985   0.781  16.842 -0.0437  0.4091  0.6393
  310TMC3    O1 4725   3.409   0.591  16.943 -0.1376 -0.5576  0.7934
  310TMC3    O2 4726   3.045   0.802  16.736 -0.0258 -0.4896  0.8496
  311MPD2     C 4727   4.717   2.477  12.707  0.5508  0.4965  0.5449
  311MPD2    C1 4728   0.002   2.474  12.843 -0.5013 -0.2376 -0.6256
  311MPD2    C2 4729   4.657   2.399  12.924 -0.3428 -0.2629  0.3029
  311MPD2    C3 4730   4.547   2.333  12.870 -0.1476 -0.0187 -0.1363
  311MPD2    C4 4731   4.532   2.329  12.724 -0.1037  0.0054  0.0522
  311MPD2    C5 4732   4.614   2.411  12.651  0.0546  0.3855  0.0900
  311MPD2     H 4733   4.678   2.403  13.030  1.1751  0.6226 -0.0233
  311MPD2    H1 4734   4.449   2.273  12.684  1.6214  0.0396 -3.5553
  311MPD2    H2 4735   0.030   2.548  12.644  1.2687 -0.1471  0.4232
  311MPD2    H3 4736   4.595   2.421  12.545 -0.4118 -0.3551  0.1019
  311MPD2     N 4737   4.450   2.265  12.958 -0.0160  0.2012  0.3145
  311MPD2    H5 4738   4.489   2.236  13.047 -0.2737 -1.3234 -0.0588
  311MPD2    N1 4739   0.105   2.559  12.891  0.4687 -0.5552  0.4301
  311MPD2    H7 4740   0.138   2.628  12.824  0.6292 -1.3805 -0.3448
  312TMC3    C1 4741   4.269   2.131  13.012  0.6108  0.3485 -0.1610
  312TMC3    C2 4742   4.206   2.025  12.954  0.4019 -0.0992 -0.0154
  312TMC3    C3 4743   4.142   1.938  13.039  0.3979 -0.8129  0.2788
  312TMC3    C4 4744   4.271   2.156  13.147 -0.0619  0.5675  0.0297
  312TMC3    C5 4745   4.201   2.066  13.223 -1.2543  0.1079  0.0496
  312TMC3    C6 4746   4.137   1.959  13.174  0.3618 -0.3609  0.3192
  312TMC3     C 4747   4.329   2.222  12.921 -0.1301 -0.0774 -0.2966
  312TMC3     O 4748   4.271   2.240  12.813  0.6099  0.2067  0.1974
  312TMC3     H 4749   4.211   2.012  12.847  0.2793  2.9626 -0.3977
  312TMC3    H1 4750   4.330   2.234  13.194  3.5681 -2.6469  0.8561
  312TMC3    H2 4751   4.083   1.885  13.233 -0.7209  0.8849  0.9013
  312TMC3    C7 4752   4.186   2.090  13.369  0.8821 -0.4067  0.0201
  312TMC3    C8 4753   4.030   1.869  12.989 -0.4486  0.1209  0.5978
  312TMC3    O1 4754   4.250   2.177  13.424  0.0434 -0.2749 -0.3816
  312TMC3    O2 4755   3.997   1.763  13.045 -0.0356  0.0801  0.3406
  313MPD2     C 4756   4.715   1.685   9.987 -0.1997 -0.0356 -0.3240
  313MPD2    C1 4757   4.581   1.694  10.008  0.3397  0.3630  0.2111
  313MPD2    C2 4758   4.495   1.660   9.905 -0.3097  0.3982  0.3001
  313MPD2    C3 4759   4.535   1.619   9.787  0.0297 -0.0388 -0.4646
  313MPD2    C4 4760   4.670   1.593   9.767  0.3493 -0.0256  0.1805
  313MPD2    C5 4761   0.021   1.623   9.869 -0.3643 -0.2107 -0.0588
  313MPD2     H 4762   4.390   1.679   9.920 -0.4364  1.2787 -1.7508
  313MPD2    H1 4763   4.702   1.550   9.673  0.5351  2.4121 -0.8740
  313MPD2    H2 4764   0.051   1.734  10.046  0.6837 -2.3441  0.4573
  313MPD2    H3 4765   0.128   1.606   9.864 -0.2351  0.6605 -0.2801
  313MPD2     N 4766   4.438   1.558   9.698  0.8382 -0.2357 -0.2068
  313MPD2    H5 4767   4.473   1.509   9.617  0.1173  0.7742 -1.1339
  313MPD2    N1 4768   4.523   1.762  10.123  0.2030  0.0880 -0.3385
  313MPD2    H7 4769   4.425   1.789  10.117 -0.3176 -1.7892 -0.1063
  314TMC3    C1 4770   4.504   1.846  10.337 -0.3737  0.7381  0.0026
  314TMC3    C2 4771   4.561   1.897  10.457 -0.2367 -0.0256  0.0213
  314TMC3    C3 4772   4.480   1.969  10.545  0.5981  0.2602  1.1421
  314TMC3    C4 4773   4.373   1.870  10.306 -0.8093 -0.0600 -0.3333
  314TMC3    C5 4774   4.303   1.943  10.404  0.3436  0.1340 -0.3730
  314TMC3    C6 4775   4.351   1.998  10.519 -0.0671 -0.5997 -0.7839
  314TMC3     C 4776   4.591   1.784  10.238  0.5642  0.2973  0.7373
  314TMC3     O 4777   4.705   1.767  10.272  0.5770 -0.3929 -0.1689
  314TMC3     H 4778   4.668   1.882  10.464 -0.4207 -0.7718  1.3551
  314TMC3    H1 4779   4.313   1.829  10.226 -3.0422  0.1836  1.1986
  314TMC3    H2 4780   4.294   2.055  10.591  0.6344  1.3312 -1.7428
  314TMC3    C7 4781   4.177   2.009  10.361  0.7594 -0.6425  0.0348
  314TMC3    C8 4782   4.537   2.004  10.675  0.3847 -0.1763 -0.3473
  314TMC3    O1 4783   4.129   1.963  10.256 -0.0071  0.1735 -0.1010
  314TMC3    O2 4784   4.478   2.098  10.726  0.3907  0.7677 -0.1241
  315MPD2     C 4785   4.343   4.257   0.080 -0.2810  0.1114  0.2653
  315MPD2    C1 4786   4.413   4.300   0.199  0.0305 -0.2196  0.4193
  315MPD2    C2 4787   4.407   4.436   0.237 -0.1634 -0.1886 -0.4267
  315MPD2    C3 4788   4.362   4.524   0.146 -0.2140 -0.9902  0.2540
  315MPD2    C4 4789   4.302   4.491   0.022 -0.6247  0.6706  0.0440
  315MPD2    C5 4790   4.293   4.356  17.755  0.1768  0.5446  1.1070
  315MPD2     H 4791   4.456   4.476   0.325 -1.4672  1.2026 -0.3380
  315MPD2    H1 4792   4.262   4.566  17.714 -1.1662  0.5709  0.2580
  315MPD2    H2 4793   4.328   4.153   0.055  0.8283  0.0214 -0.0163
  315MPD2    H3 4794   4.240   4.341  17.662  2.4041 -0.8327  0.0637
  315MPD2     N 4795   4.380   4.660   0.183 -0.2167  0.1113 -0.3357
  315MPD2    H5 4796   4.398   4.678   0.282  0.8805 -1.2437 -0.2872
  315MPD2    N1 4797   4.476   4.205   0.277 -0.0238 -0.0525 -0.0749
  315MPD2    H7 4798   4.503   4.233   0.370  1.0090  0.1712 -0.4417
  316TMC3    C1 4799   4.427   0.148   0.155 -0.5952 -0.3971 -0.7616
  316TMC3    C2 4800   4.493   0.152   0.273 -0.6740 -0.2686 -0.1678
  316TMC3    C3 4801   4.509   0.270   0.335  0.2196  0.1336 -0.3486
  316TMC3    C4 4802   4.380   0.258   0.094 -0.0608  0.2051 -0.6122
  316TMC3    C5 4803   4.407   0.376   0.162  0.1298 -0.6949 -0.2381
  316TMC3    C6 4804   4.461   0.385   0.283 -0.0188  0.1275 -0.1349
  316TMC3     C 4805   4.387   0.024   0.093 -0.4085 -0.0746  0.7859
  316TMC3     O 4806   4.387   0.021  17.730 -0.8194  0.0821  0.6894
  316TMC3     H 4807   4.537   0.059   0.309 -0.6559 -0.1850  0.0275
  316TMC3    H1 4808   4.326   0.259  17.758  0.8713 -0.4559 -1.1501
  316TMC3    H2 4809   4.489   0.480   0.327  0.5289 -0.3718  0.5951
  316TMC3    C7 4810   4.389   0.503   0.098  0.9516 -0.1785 -0.4578
  316TMC3    C8 4811   4.580   0.285   0.458  0.3473 -0.7379 -0.3279
  316TMC3    O1 4812   4.361   0.595   0.175  0.1661  0.7263 -0.1554
  316TMC3    O2 4813   4.552   0.384   0.521  0.3514  0.1751  0.4371
  317MPD2     C 4814   1.450   4.272  12.580 -0.5891 -0.3069  0.3387
  317MPD2    C1 4815   1.490   4.144  12.552  0.1597  0.2911 -0.1843
  317MPD2    C2 4816   1.526   4.060  12.654  0.0676 -0.6617  0.3405
  317MPD2    C3 4817   1.530   4.104  12.787 -0.0005  0.3473  0.0888
  317MPD2    C4 4818   1.489   4.231  12.808  0.2736  0.2645  0.3467
  317MPD2    C5 4819   1.453   4.312  12.709  0.0440 -0.1621  0.5379
  317MPD2     H 4820   1.569   3.963  12.631  1.9869  0.4348 -0.7413
  317MPD2    H1 4821   1.488   4.285  12.902  0.8207  0.9517 -0.0402
  317MPD2    H2 4822   1.439   4.350  12.505 -1.6971 -0.3361  0.4657
  317MPD2    H3 4823   1.442   4.418  12.727 -0.8883 -0.6005  2.5097
  317MPD2     N 4824   1.574   4.013  12.890 -0.6513  0.5790 -0.6427
  317MPD2    H5 4825   1.592   3.917  12.862  1.5361  0.7861  0.0479
  317MPD2    N1 4826   1.503   4.094  12.420  0.5264 -0.5588 -0.0844
  317MPD2    H7 4827   1.544   4.001  12.412  1.0742 -0.4644  1.7653
  318TMC3    C1 4828   1.617   3.951  13.116  0.3942 -0.2889 -0.4591
  318TMC3    C2 4829   1.547   3.831  13.106 -0.7240 -0.1937 -0.0641
  318TMC3    C3 4830   1.576   3.723  13.186 -0.3504 -0.5809  0.1109
  318TMC3    C4 4831   1.725   3.952  13.193  0.5396 -0.8357 -0.0635
  318TMC3    C5 4832   1.753   3.840  13.271 -0.4628  0.1215 -0.0605
  318TMC3    C6 4833   1.678   3.722  13.278  0.3452  0.6396  0.0367
  318TMC3     C 4834   1.589   4.050  13.021 -0.3806 -0.5140 -0.0966
  318TMC3     O 4835   1.565   4.155  13.078 -0.6479 -0.4875  0.3619
  318TMC3     H 4836   1.475   3.823  13.026 -2.2506  0.1846  1.2763
  318TMC3    H1 4837   1.791   4.038  13.200 -0.9610  0.2567  0.7370
  318TMC3    H2 4838   1.683   3.644  13.354 -0.6668 -0.3331 -0.8961
  318TMC3    C7 4839   1.867   3.859  13.356 -0.4468  0.0698  0.5218
  318TMC3    C8 4840   1.503   3.601  13.160 -0.7057  0.2628  0.0041
  318TMC3    O1 4841   1.890   3.972  13.395  0.1516  0.3519  0.2947
  318TMC3    O2 4842   1.556   3.494  13.185  0.0217 -0.1802 -0.2792
  319MPD2     C 4843   2.749   0.243  16.108  0.4867 -0.1353 -1.2570
  319MPD2    C1 4844   2.649   0.197  16.192 -0.1142 -0.3899 -0.0800
  319MPD2    C2 4845   2.548   0.131  16.130  1.3056  0.6816  0.3588
  319MPD2    C3 4846   2.543   0.099  15.995  0.2657 -0.1795  0.8971
  319MPD2    C4 4847   2.625   0.165  15.907  0.0415 -0.2615  0.0179
  319MPD2    C5 4848   2.727   0.229  15.972  0.2146 -0.4297 -0.5628
  319MPD2     H 4849   2.468   0.084  16.185  2.3410 -0.5632  0.7977
  319MPD2    H1 4850   2.623   0.141  15.801  0.8047  0.7869 -0.2345
  319MPD2    H2 4851   2.839   0.297  16.137  0.2722 -0.6275  0.3589
  319MPD2    H3 4852   2.804   0.274  15.910  1.3805  0.4341  1.5101
  319MPD2     N 4853   2.442   0.015  15.937  0.4489 -0.2796 -0.2773
  319MPD2    H5 4854   2.422   0.028  15.838 -0.4272 -1.5464 -0.2625
  319MPD2    N1 4855   2.648   0.217  16.337 -0.0644  0.0758 -0.0980
  319MPD2    H7 4856   2.564   0.178  16.379  0.9124 -1.5416  0.3172
  320TMC3    C1 4857   2.275   4.592  15.943  0.1670  0.1639  0.6151
  320TMC3    C2 4858   2.181   4.645  15.851  0.7598  0.4973  0.4526
  320TMC3    C3 4859   2.062   4.575  15.839 -0.1021  0.2095  0.6470
  320TMC3    C4 4860   2.242   4.476  16.007  0.3586 -0.2618  0.2020
  320TMC3    C5 4861   2.132   4.410  15.977 -0.7361  0.2035  0.7692
  320TMC3    C6 4862   2.035   4.455  15.901  0.3904 -0.3100  0.5387
  320TMC3     C 4863   2.377   4.663  16.015  0.3357 -0.1158 -0.3397
  320TMC3     O 4864   2.413   4.612  16.120  0.1377  0.0082  0.2860
  320TMC3     H 4865   2.188   0.006  15.812 -1.7910  0.4318 -0.1382
  320TMC3    H1 4866   2.301   4.436  16.089  0.7938  1.3024  0.6520
  320TMC3    H2 4867   1.944   4.399  15.887 -0.2365  0.7998  0.1515
  320TMC3    C7 4868   2.104   4.290  16.053  0.0096  0.1603 -0.0003
  320TMC3    C8 4869   1.955   4.658  15.782 -0.0809  1.0641 -0.2168
  320TMC3    O1 4870   2.091   4.188  15.991  0.2119 -0.3646 -0.0557
  320TMC3    O2 4871   1.989   0.023  15.731 -0.1506  0.4459 -0.3663
  321TMC3    C1 4872   2.708   0.276  16.551 -0.6091  0.5731 -0.2161
  321TMC3    C2 4873   2.594   0.218  16.606 -0.0341 -0.2667 -0.2907
  321TMC3    C3 4874   2.530   0.269  16.720 -0.7195  0.5164 -0.1221
  321TMC3    C4 4875   2.773   0.371  16.625 -0.0293  0.4935  0.2085
  321TMC3    C5 4876   2.719   0.415  16.743 -0.1400 -0.6828  0.0165
  321TMC3    C6 4877   2.591   0.375  16.774  0.5992 -0.0452 -0.5369
  321TMC3     C 4878   2.753   0.262  16.409  0.3620 -0.0233 -0.1493
  321TMC3     O 4879   2.854   0.317  16.363 -0.4926 -0.0821  0.2255
  321TMC3     H 4880   2.550   0.128  16.566  2.1829 -1.9801  1.0908
  321TMC3    H1 4881   2.850   0.429  16.575 -0.9025  0.5464 -1.0804
  321TMC3    H2 4882   2.549   0.433  16.856  0.9087 -1.0928  0.3553
  321TMC3    C7 4883   2.803   0.411  16.851  0.7614 -0.9727  0.3085
  321TMC3    C8 4884   2.490   0.173  16.823  0.5282  0.5407  0.3417
  321TMC3    O1 4885   2.744   0.423  16.959 -0.0775  0.0061 -0.1329
  321TMC3    O2 4886   2.477   0.062  16.778 -0.1443  0.2425 -0.0055
  322MPD2     C 4887   1.129   1.516  13.644 -0.0767  0.0689  0.0795
  322MPD2    C1 4888   1.120   1.434  13.751 -0.1036  0.0418  0.1850
  322MPD2    C2 4889   1.182   1.311  13.742  0.2366 -0.8047 -0.0630
  322MPD2    C3 4890   1.264   1.273  13.636 -0.4813  0.7312  0.1711
  322MPD2    C4 4891   1.283   1.363  13.530  0.0340  0.1131 -0.5054
  322MPD2    C5 4892   1.220   1.487  13.541  0.0570 -0.7172 -0.3007
  322MPD2     H 4893   1.177   1.237  13.821  0.9910 -0.8206 -0.0384
  322MPD2    H1 4894   1.335   1.339  13.438  0.8051 -0.0176 -0.0437
  322MPD2    H2 4895   1.082   1.613  13.652  0.9208  0.3180  2.9480
  322MPD2    H3 4896   1.238   1.561  13.464  1.3789 -1.0845 -0.3451
  322MPD2     N 4897   1.311   1.144  13.634 -0.7162 -0.0620  0.5426
  322MPD2    H5 4898   1.280   1.088  13.712 -0.7235 -0.8182 -0.0111
  322MPD2    N1 4899   1.062   1.480  13.873  0.6293 -0.8894  0.5171
  322MPD2    H7 4900   1.040   1.579  13.884  0.7052 -0.6769 -1.1684
  323TMC3    C1 4901   1.102   1.512  14.103  0.3872 -0.3031 -0.1604
  323TMC3    C2 4902   1.157   1.629  14.071 -0.0218 -0.3985  0.0923
  323TMC3    C3 4903   1.229   1.684  14.165 -0.2589 -0.1011 -0.6090
  323TMC3    C4 4904   1.118   1.454  14.226  0.6897 -0.1997  0.2293
  323TMC3    C5 4905   1.199   1.516  14.314 -0.4325  0.0136 -0.1848
  323TMC3    C6 4906   1.266   1.625  14.281  0.3132  0.4588 -0.5085
  323TMC3     C 4907   1.072   1.421  13.993  0.1772 -0.6448  0.3455
  323TMC3     O 4908   1.053   1.303  14.014 -0.1165  0.2763  0.0279
  323TMC3     H 4909   1.138   1.685  13.980 -2.0026  0.7518  1.2108
  323TMC3    H1 4910   1.064   1.362  14.242  4.0914 -2.1939  0.0601
  323TMC3    H2 4911   1.333   1.673  14.353  0.8424  1.9174 -1.9858
  323TMC3    C7 4912   1.266   1.430  14.418 -0.6100  0.3669  0.4544
  323TMC3    C8 4913   1.326   1.786  14.121  0.1067  0.6505  0.5933
  323TMC3    O1 4914   1.235   1.313  14.403 -0.4261 -0.3200  0.3029
  323TMC3    O2 4915   1.389   1.841  14.210  0.1548  0.3495  0.3397
  324MPD2     C 4916   2.896   3.018  14.395 -0.0733 -0.0129 -0.1614
  324MPD2    C1 4917   2.892   2.946  14.273  0.2684 -0.1750  0.1174
  324MPD2    C2 4918   2.774   2.950  14.194 -0.1898 -0.1702  0.2639
  324MPD2    C3 4919   2.666   3.018  14.247  0.0076  0.0640 -0.4773
  324MPD2    C4 4920   2.681   3.095  14.365  0.3464 -0.2019 -0.2531
  324MPD2    C5 4921   2.795   3.096  14.440  0.2281 -0.1317 -0.2445
  324MPD2     H 4922   2.773   2.895  14.101 -0.3426  0.8087 -0.3136
  324MPD2    H1 4923   2.592   3.149  14.398  0.1933 -1.4781  1.3772
  324MPD2    H2 4924   2.986   3.016  14.455  0.4432 -1.5543 -0.9807
  324MPD2    H3 4925   2.806   3.169  14.520  0.0026 -0.9530  0.5379
  324MPD2     N 4926   2.537   3.024  14.180  0.3731  0.4540  0.2314
  324MPD2    H5 4927   2.471   3.090  14.219 -1.4586 -0.4187 -1.3839
  324MPD2    N1 4928   2.996   2.866  14.221 -0.2954 -0.0445  0.0726
  324MPD2    H7 4929   2.971   2.818  14.135 -2.0577  0.1734  0.4518
  325TMC3    C1 4930   2.363   2.955  14.030 -0.0506 -0.5041  0.0477
  325TMC3    C2 4931   2.297   2.847  13.992  0.0143  0.4692  0.4542
  325TMC3    C3 4932   2.171   2.857  13.938 -0.0390 -0.0319  0.1903
  325TMC3    C4 4933   2.301   3.078  14.042 -0.4183 -0.0127  0.4006
  325TMC3    C5 4934   2.171   3.081  14.001  0.7779 -0.1272 -0.2641
  325TMC3    C6 4935   2.106   2.973  13.939 -0.0237 -0.1997 -0.1367
  325TMC3     C 4936   2.501   2.944  14.078 -0.1954  0.1233  0.1234
  325TMC3     O 4937   2.560   2.844  14.033  0.2358  0.3587 -0.0585
  325TMC3     H 4938   2.349   2.753  13.980  2.2071  1.5680  1.3886
  325TMC3    H1 4939   2.359   3.165  14.072 -0.1879 -0.3564  0.9566
  325TMC3    H2 4940   1.999   2.985  13.925  0.1082  2.6201  1.3352
  325TMC3    C7 4941   2.120   3.210  13.980  0.2527 -0.0436  0.4661
  325TMC3    C8 4942   2.112   2.729  13.892 -0.1408  0.3358 -0.1609
  325TMC3    O1 4943   2.193   3.302  13.954  0.2704  0.3006  0.2726
  325TMC3    O2 4944   2.189   2.640  13.865 -0.3907 -0.2451 -0.0875
  326MPD2     C 4945   3.764   4.558  11.382 -0.2822 -0.9383 -0.2666
  326MPD2    C1 4946   3.822   4.536  11.253  0.1101 -0.1037  0.0442
  326MPD2    C2 4947   3.961   4.515  11.245 -0.4777 -0.4780  0.2794
  326MPD2    C3 4948   4.038   4.516  11.364  0.8799  0.4330 -0.1458
  326MPD2    C4 4949   3.977   4.520  11.484  0.3287 -0.8467  0.8138
  326MPD2    C5 4950   3.845   4.552  11.492 -1.5897 -0.1259 -0.7018
  326MPD2     H 4951   4.008   4.509  11.148  1.5872 -3.1549  1.4725
  326MPD2    H1 4952   4.022   4.499  11.580  2.0513 -3.6200 -0.6113
  326MPD2    H2 4953   3.658   4.570  11.401 -0.5631  1.3765 -3.2954
  326MPD2    H3 4954   3.799   4.562  11.589 -1.9625 -0.5721 -0.8291
  326MPD2     N 4955   4.180   4.503  11.355  0.9122  0.3655 -0.3963
  326MPD2    H5 4956   4.228   4.513  11.444  2.1786  2.2137 -1.2968
  326MPD2    N1 4957   3.754   4.532  11.129  0.4840  1.0515 -0.3986
  326MPD2    H7 4958   3.814   4.529  11.047  0.9316 -0.5368 -0.0016
  327TMC3    C1 4959   3.585   4.509  10.967  0.9606  0.5473 -0.1102
  327TMC3    C2 4960   3.487   4.583  10.907  0.3796  0.0061 -0.0387
  327TMC3    C3 4961   3.503   4.594  10.767  0.4573 -0.6222 -0.9771
  327TMC3    C4 4962   3.687   4.448  10.893  0.0974  1.0754 -0.0722
  327TMC3    C5 4963   3.686   4.459  10.759  0.2608 -0.9061 -0.3294
  327TMC3    C6 4964   3.601   4.542  10.695 -0.2324  0.3816  0.2090
  327TMC3     C 4965   3.614   4.539  11.106  0.1768 -0.2336  0.0791
  327TMC3     O 4966   3.518   4.568  11.181  0.0314 -0.3198 -0.0872
  327TMC3     H 4967   3.410   4.628  10.967 -0.6281  0.5034 -1.6954
  327TMC3    H1 4968   3.757   4.382  10.944  1.0813  0.7388 -1.8819
  327TMC3    H2 4969   3.599   4.537  10.587  1.3735  1.9407  0.0933
  327TMC3    C7 4970   3.790   4.408  10.675  0.5825 -0.0052 -0.0801
  327TMC3    C8 4971   3.402   4.678  10.697  0.4804 -0.0462  0.1029
  327TMC3    O1 4972   3.816   4.467  10.570  0.4603  0.0836  0.1392
  327TMC3    O2 4973   3.427   4.711  10.583  0.4197 -0.0678  0.0400
  328MPD2     C 4974   2.345   3.330  17.238 -0.1505 -0.9351  0.4575
  328MPD2    C1 4975   2.227   3.261  17.231 -0.8926  0.1012 -0.8298
  328MPD2    C2 4976   2.168   3.238  17.109  0.1321 -0.0106  0.6001
  328MPD2    C3 4977   2.228   3.303  16.997  0.4345  0.0285  0.2836
  328MPD2    C4 4978   2.347   3.369  17.006  0.1207  0.1689  0.0671
  328MPD2    C5 4979   2.409   3.376  17.127 -0.0280 -0.2264  0.0521
  328MPD2     H 4980   2.073   3.186  17.106  0.0822  0.1689 -0.7393
  328MPD2    H1 4981   2.400   3.395  16.915  1.4876 -0.4202  0.6891
  328MPD2    H2 4982   2.389   3.349  17.335  0.1808 -0.4211  0.2094
  328MPD2    H3 4983   2.505   3.425  17.135  0.5895 -1.3513 -0.5798
  328MPD2     N 4984   2.160   3.311  16.873 -0.1712  0.0815  0.3170
  328MPD2    H5 4985   2.188   3.387  16.812  1.2926 -0.8439 -0.1626
  328MPD2    N1 4986   2.174   3.203  17.342  0.8703  0.1291  0.6608
  328MPD2    H7 4987   2.214   3.231  17.431  0.1313  1.4821  0.5777
  329TMC3    C1 4988   1.986   3.124  17.463 -0.1677  0.3020 -0.5512
  329TMC3    C2 4989   2.003   3.221  17.554  0.4596 -0.2428 -0.1508
  329TMC3    C3 4990   1.898   3.233  17.644 -0.3780 -0.4832 -0.0559
  329TMC3    C4 4991   1.879   3.040  17.468 -0.6053 -0.6672 -0.2999
  329TMC3    C5 4992   1.775   3.070  17.548 -0.0101  0.0712 -0.1218
  329TMC3    C6 4993   1.781   3.163  17.640 -0.4821 -0.1664  0.5259
  329TMC3     C 4994   2.074   3.108  17.343 -0.4712  0.7470 -0.0321
  329TMC3     O 4995   2.047   3.019  17.265 -0.1939  0.6694  0.3927
  329TMC3     H 4996   2.073   3.302  17.542 -0.9566  0.8293 -1.1815
  329TMC3    H1 4997   1.848   2.978  17.384  0.8261 -1.6999 -0.0639
  329TMC3    H2 4998   1.705   3.173  17.717 -1.1514 -0.7652 -0.0581
  329TMC3    C7 4999   1.696   2.957  17.587 -0.2263 -0.2249 -0.1823
  329TMC3    C8 5000   1.910   3.324  17.756 -0.5412 -0.3055 -0.4040
  329TMC3    O1 5001   1.594   2.987  17.646 -0.1449  0.2456  0.0898
  329TMC3    O2 5002   2.024   3.353   0.032  0.5235 -0.0932  0.4636
  330TMC3    C1 5003   3.951   3.466   9.114 -0.1981 -0.4268 -0.2955
  330TMC3    C2 5004   3.838   3.424   9.182 -0.4466 -0.3472 -0.9059
  330TMC3    C3 5005   3.870   3.374   9.305  0.3186 -0.0113  0.1381
  330TMC3    C4 5006   4.078   3.471   9.165  0.6827 -0.2011  0.0016
  330TMC3    C5 5007   4.097   3.417   9.287 -0.1492  0.7381 -0.6073
  330TMC3    C6 5008   3.990   3.374   9.365  0.1895  0.1383 -0.6018
  330TMC3     C 5009   3.948   3.537   8.995  0.9515 -0.3990 -0.5061
  330TMC3     O 5010   4.044   3.528   8.918  0.3650 -0.7051  0.3927
  330TMC3     H 5011   3.736   3.444   9.149  0.4741  1.1566 -2.8756
  330TMC3    H1 5012   4.160   3.492   9.098  0.1345  0.6784 -0.4045
  330TMC3    H2 5013   4.011   3.332   9.462 -0.9167  0.9911 -0.0039
  330TMC3    C7 5014   4.241   3.407   9.333 -0.9718 -0.2185  0.5578
  330TMC3    C8 5015   3.753   3.335   9.384  0.1658 -0.6010  0.4052
  330TMC3    O1 5016   4.327   3.467   9.267 -0.3157  0.3840 -0.4450
  330TMC3    O2 5017   3.651   3.315   9.318 -0.0434 -0.3034  0.3893
  331MPD2     C 5018   3.124   2.082  12.746  0.0045 -0.4212 -0.3592
  331MPD2    C1 5019   3.030   2.169  12.690 -0.1163 -0.1102 -0.0292
  331MPD2    C2 5020   2.902   2.123  12.658  0.0130  0.0968  0.3086
  331MPD2    C3 5021   2.866   1.997  12.689 -0.3584  0.6665  0.3597
  331MPD2    C4 5022   2.963   1.915  12.741  0.6028  0.2183  0.2627
  331MPD2    C5 5023   3.086   1.955  12.770 -0.3786  0.1696  1.0279
  331MPD2     H 5024   2.826   2.192  12.625 -0.3421 -0.2326  0.4399
  331MPD2    H1 5025   2.935   1.814  12.771 -0.4342 -0.0318 -1.5797
  331MPD2    H2 5026   3.221   2.118  12.779 -1.8040  1.4607  2.9181
  331MPD2    H3 5027   3.157   1.884  12.812  1.4822  2.4036  1.6050
  331MPD2     N 5028   2.736   1.961  12.655  0.3528 -0.2484  0.3732
  331MPD2    H5 5029   2.679   2.037  12.618 -1.6204 -2.1391 -0.4787
  331MPD2    N1 5030   3.060   2.304  12.680 -0.1088 -0.1203  0.1357
  331MPD2    H7 5031   3.156   2.332  12.695 -0.3603  1.0768 -0.4542
  332TMC3    C1 5032   2.527   1.859  12.683  0.7861  0.0775 -0.6105
  332TMC3    C2 5033   2.487   1.868  12.550  0.1696  0.0808 -0.3817
  332TMC3    C3 5034   2.392   1.773  12.518  0.7530 -0.8408  0.5769
  332TMC3    C4 5035   2.469   1.761  12.770 -0.1151 -0.2355 -0.8128
  332TMC3    C5 5036   2.378   1.669  12.724  0.1455 -0.4100  0.3822
  332TMC3    C6 5037   2.338   1.675  12.592 -0.5765 -0.0070 -1.1506
  332TMC3     C 5038   2.673   1.843  12.690 -0.9042  0.0005 -0.2174
  332TMC3     O 5039   2.712   1.733  12.733 -0.2616  0.1750 -0.1426
  332TMC3     H 5040   2.528   1.931  12.472  0.5420  1.4515  0.9316
  332TMC3    H1 5041   2.508   1.762  12.871 -3.1631 -1.1231  0.3963
  332TMC3    H2 5042   2.280   1.589  12.561 -0.9296 -0.6706  1.3484
  332TMC3    C7 5043   2.395   1.540  12.788  0.4889 -0.8351  0.2025
  332TMC3    C8 5044   2.337   1.779  12.382 -0.1774  0.1286 -0.3979
  332TMC3    O1 5045   2.310   1.449  12.772  0.3573  0.0541 -0.3618
  332TMC3    O2 5046   2.229   1.725  12.374  0.2717 -0.1639 -0.0538
  333MPD2     C 5047   2.333   2.693  11.569  0.2448  0.6516 -0.0558
  333MPD2    C1 5048   2.356   2.608  11.465  0.2463  0.3673  0.6513
  333MPD2    C2 5049   2.312   2.481  11.472  0.0496 -0.1845  0.1286
  333MPD2    C3 5050   2.242   2.438  11.588 -0.5600 -0.0926  0.4329
  333MPD2    C4 5051   2.213   2.531  11.684  0.1003  0.3770  0.4402
  333MPD2    C5 5052   2.257   2.657  11.672 -0.0796  0.5960 -0.0491
  333MPD2     H 5053   2.331   2.406  11.397 -1.5322  1.0816 -1.5168
  333MPD2    H1 5054   2.154   2.508  11.773  0.0436 -1.7589 -0.1532
  333MPD2    H2 5055   2.367   2.796  11.565 -0.3797  0.8395 -0.5056
  333MPD2    H3 5056   2.231   2.730  11.747 -2.8570 -1.1277  0.7042
  333MPD2     N 5057   2.193   2.305  11.587 -0.5239  0.2203  0.9757
  333MPD2    H5 5058   2.203   2.252  11.501 -4.5319 -0.2375  0.8031
  333MPD2    N1 5059   2.434   2.663  11.362 -0.4560  0.0428 -0.1185
  333MPD2    H7 5060   2.485   2.750  11.377 -1.8206  0.7300  0.5177
  334TMC3    C1 5061   2.538   2.688  11.157  0.3653  0.5875  0.1516
  334TMC3    C2 5062   2.620   2.619  11.072  0.2589  0.1138  0.1521
  334TMC3    C3 5063   2.730   2.689  11.024  1.2785  0.1819 -0.2904
  334TMC3    C4 5064   2.546   2.826  11.156  0.0186 -0.8353  0.0580
  334TMC3    C5 5065   2.646   2.893  11.089 -0.2091 -0.1988 -0.3951
  334TMC3    C6 5066   2.750   2.824  11.042  0.3086 -0.1962 -0.6015
  334TMC3     C 5067   2.447   2.612  11.234  0.3336  0.4891  0.4751
  334TMC3     O 5068   2.405   2.516  11.173  0.1604 -0.1109  0.0572
  334TMC3     H 5069   2.618   2.511  11.061  0.4419  0.0208  1.0933
  334TMC3    H1 5070   2.474   2.889  11.207  0.2030  1.1384 -2.1343
  334TMC3    H2 5071   2.834   2.869  10.991  0.5536 -1.2379 -1.1265
  334TMC3    C7 5072   2.675   3.030  11.119 -0.1542 -0.2192  0.9210
  334TMC3    C8 5073   2.841   2.615  10.976 -0.1978  0.2221  1.1101
  334TMC3    O1 5074   2.792   3.058  11.129 -0.2434 -0.1018  0.0816
  334TMC3    O2 5075   2.818   2.498  10.949  0.3202  0.2315 -0.7854
  335TMC3    C1 5076   2.932   3.956  17.372  0.0494  0.2292  0.0785
  335TMC3    C2 5077   2.864   3.858  17.295 -0.7236  1.1134  0.0880
  335TMC3    C3 5078   2.917   3.730  17.294 -0.0842  0.1608 -0.2531
  335TMC3    C4 5079   3.045   3.930  17.436 -0.6611  0.3671 -0.1050
  335TMC3    C5 5080   3.101   3.807  17.427  0.3594 -0.0274  0.0375
  335TMC3    C6 5081   3.037   3.705  17.355 -0.5444 -0.0419  0.4371
  335TMC3     C 5082   2.925   4.086  17.308  0.4121 -0.1658 -0.0376
  335TMC3     O 5083   3.038   4.132  17.294  0.6125  0.1148 -0.3290
  335TMC3     H 5084   2.787   3.878  17.222 -0.3018 -1.1604 -0.9733
  335TMC3    H1 5085   3.083   4.003  17.506  0.1931  0.2836 -0.4771
  335TMC3    H2 5086   3.082   3.608  17.335 -1.7287  0.1754 -3.2423
  335TMC3    C7 5087   3.243   3.816  17.399  0.0607  0.3829  0.2640
  335TMC3    C8 5088   2.891   3.656  17.173 -0.1499 -0.6286  0.8875
  335TMC3    O1 5089   3.308   3.716  17.409  0.8888 -0.5158  0.1563
  335TMC3    O2 5090   2.875   3.721  17.066  0.4609 -0.2197  0.0128
  336MPD2     C 5091   2.155   1.291  16.238  0.5090 -0.0389 -0.0863
  336MPD2    C1 5092   2.125   1.246  16.114 -0.6353  0.8561 -0.0576
  336MPD2    C2 5093   2.173   1.115  16.071  0.5993  0.1557  0.2095
  336MPD2    C3 5094   2.250   1.036  16.156  1.3266 -0.5883 -0.4447
  336MPD2    C4 5095   2.284   1.092  16.277  0.2542 -0.2253 -0.4885
  336MPD2    C5 5096   2.235   1.210  16.312 -0.0756 -0.0360  0.3809
  336MPD2     H 5097   2.144   1.068  15.978  0.3422 -2.4297  1.5837
  336MPD2    H1 5098   2.339   1.042  16.357 -0.9492 -1.5067 -0.4718
  336MPD2    H2 5099   2.123   1.388  16.276  1.9895  0.1764  0.6420
  336MPD2    H3 5100   2.264   1.246  16.410  1.5075  1.1152 -0.5349
  336MPD2     N 5101   2.282   0.904  16.124 -0.2937 -0.2458 -0.5926
  336MPD2    H5 5102   2.246   0.866  16.036 -3.4339 -0.8609  0.9699
  336MPD2    N1 5103   2.061   1.321  16.015 -0.2708 -0.3419 -0.2415
  336MPD2    H7 5104   2.038   1.270  15.931  1.4728 -0.8843 -0.3897
  337TMC3    C1 5105   1.946   1.502  15.914 -0.5949  0.3218 -0.5492
  337TMC3    C2 5106   1.838   1.591  15.926 -0.0924  0.8022 -0.5594
  337TMC3    C3 5107   1.807   1.657  15.808 -0.6469 -0.4644  0.4719
  337TMC3    C4 5108   2.030   1.513  15.808 -0.3936 -0.1547  0.1456
  337TMC3    C5 5109   2.004   1.593  15.696 -0.8310 -0.1823  0.7505
  337TMC3    C6 5110   1.885   1.665  15.698  0.5412  0.0642 -0.0181
  337TMC3     C 5111   1.999   1.445  16.032  0.6419 -0.1538  0.2284
  337TMC3     O 5112   1.972   1.510  16.135 -0.0809 -0.1781  0.2955
  337TMC3     H 5113   1.766   1.582  16.007  2.0762 -0.1561  1.2763
  337TMC3    H1 5114   2.118   1.451  15.807 -1.5874 -1.7542 -3.1680
  337TMC3    H2 5115   1.858   1.718  15.607 -1.3014 -0.3018  0.3251
  337TMC3    C7 5116   2.108   1.656  15.611  0.0588  0.2806 -0.4368
  337TMC3    C8 5117   1.668   1.691  15.780  0.7827 -0.0753 -0.0185
  337TMC3    O1 5118   2.073   1.734  15.521  0.7047 -0.1792  0.0733
  337TMC3    O2 5119   1.596   1.739  15.867 -0.4216  0.1126  0.3886
  338MPD2     C 5120   2.330   0.740   1.291  0.3481  0.4382 -0.8994
  338MPD2    C1 5121   2.306   0.708   1.159 -0.3245  0.2561  0.1261
  338MPD2    C2 5122   2.179   0.712   1.114  0.4245  0.1178 -0.2877
  338MPD2    C3 5123   2.068   0.732   1.193  0.3867  0.1113  0.5723
  338MPD2    C4 5124   2.088   0.746   1.329  0.2152  0.3215 -0.0874
  338MPD2    C5 5125   2.218   0.750   1.373 -0.5620  0.4952  0.3589
  338MPD2     H 5126   2.159   0.708   1.008 -1.3581  0.7507  0.0234
  338MPD2    H1 5127   2.008   0.746   1.403  0.5795  1.3115  0.3029
  338MPD2    H2 5128   2.428   0.747   1.335 -0.3953  0.0458  0.8274
  338MPD2    H3 5129   2.234   0.763   1.480 -1.3189  0.0185  0.5281
  338MPD2     N 5130   1.939   0.747   1.134 -0.0150 -0.5099  0.3038
  338MPD2    H5 5131   1.946   0.728   1.034 -0.4631 -2.2778  0.5986
  338MPD2    N1 5132   2.402   0.678   1.063 -0.1921  0.2757  0.0108
  338MPD2    H7 5133   2.363   0.644   0.975  0.4959  1.7042 -0.8603
  339TMC3    C1 5134   1.723   0.795   1.107 -0.4313  0.0047  0.1492
  339TMC3    C2 5135   1.654   0.683   1.090 -0.1518  0.4581  0.1513
  339TMC3    C3 5136   1.617   0.652   0.965 -0.4022 -0.9365 -0.7228
  339TMC3    C4 5137   1.766   0.867   1.002  0.4117 -0.4696  0.1608
  339TMC3    C5 5138   1.721   0.840   0.874  0.0403  0.6598  0.7083
  339TMC3    C6 5139   1.656   0.725   0.855 -0.1439 -0.5149  0.2286
  339TMC3     C 5140   1.827   0.775   1.202 -0.2267 -0.4217  0.0037
  339TMC3     O 5141   1.796   0.772   1.318  0.1069  0.4484 -0.1042
  339TMC3     H 5142   1.612   0.637   1.178  1.5959 -4.3300 -1.4691
  339TMC3    H1 5143   1.823   0.958   1.017 -0.4402 -0.0888  1.1028
  339TMC3    H2 5144   1.615   0.695   0.760  0.4247  1.3124 -0.5918
  339TMC3    C7 5145   1.800   0.898   0.768 -0.8657  0.2117 -0.1667
  339TMC3    C8 5146   1.557   0.524   0.943 -0.4037  0.1386 -0.0712
  339TMC3    O1 5147   1.837   1.012   0.778 -0.3226  0.5675  0.4115
  339TMC3    O2 5148   1.505   0.512   0.835  0.7088  0.6743 -0.1079
  340MPD2     C 5149   2.236   3.981  10.261 -0.6415  1.0665  0.3525
  340MPD2    C1 5150   2.218   3.844  10.283 -0.3699  0.2764 -0.0943
  340MPD2    C2 5151   2.264   3.795  10.400 -0.7502  0.5073 -0.0660
  340MPD2    C3 5152   2.324   3.872  10.500  0.2010 -0.2791 -0.1186
  340MPD2    C4 5153   2.335   4.008  10.478 -1.0170 -0.4817  0.1035
  340MPD2    C5 5154   2.290   4.055  10.357  0.9066  0.1795  0.1542
  340MPD2     H 5155   2.257   3.688  10.415  0.1139  0.2085 -1.7681
  340MPD2    H1 5156   2.362   4.076  10.558 -2.0124 -0.3309  0.3064
  340MPD2    H2 5157   2.215   4.028  10.166  0.3299  1.2428  0.2298
  340MPD2    H3 5158   2.298   4.163  10.349 -0.6812  0.3659  1.1088
  340MPD2     N 5159   2.378   3.818  10.619  0.6250 -0.0792 -0.0843
  340MPD2    H5 5160   2.430   3.884  10.678  0.3695 -1.7890  2.0619
  340MPD2    N1 5161   2.174   3.776  10.173  0.7036  0.2752  0.3739
  340MPD2    H7 5162   2.160   3.834  10.091  1.9813  1.5055  1.0180
  341TMC3    C1 5163   2.112   3.593  10.040 -0.2749  0.0082  0.5238
  341TMC3    C2 5164   2.044   3.476  10.034  0.3458 -0.0016 -0.0712
  341TMC3    C3 5165   2.041   3.420   9.908  0.2072  0.2658 -0.3808
  341TMC3    C4 5166   2.182   3.643   9.935  0.0764  0.2684 -0.4745
  341TMC3    C5 5167   2.168   3.582   9.816 -0.2104  0.2015  0.3319
  341TMC3    C6 5168   2.094   3.469   9.793 -0.2338  0.0725  0.2313
  341TMC3     C 5169   2.139   3.644  10.172 -1.0552  0.4729 -0.1188
  341TMC3     O 5170   2.118   3.572  10.267 -0.1896  0.9219  0.2420
  341TMC3     H 5171   1.979   3.436  10.111  0.4861 -3.4000 -1.7323
  341TMC3    H1 5172   2.239   3.735   9.939  0.9183 -0.2670 -0.2015
  341TMC3    H2 5173   2.098   3.417   9.697 -1.1229  0.9370 -0.2726
  341TMC3    C7 5174   2.294   3.571   9.750 -0.1214 -0.3508 -0.1184
  341TMC3    C8 5175   1.980   3.289   9.908 -0.1841 -0.4045 -0.3986
  341TMC3    O1 5176   2.395   3.554   9.818  0.1349  0.3293 -0.0398
  341TMC3    O2 5177   1.989   3.232  10.018  0.3568  0.1672  0.4789
  342MPD2     C 5178   0.432   1.441  17.628 -1.1041  0.0766 -0.4167
  342MPD2    C1 5179   0.541   1.465  17.552  0.0208 -0.2292 -0.6511
  342MPD2    C2 5180   0.582   1.597  17.535 -0.4483  0.4892  0.1257
  342MPD2    C3 5181   0.520   1.703  17.605 -0.2003  0.1723  0.3871
  342MPD2    C4 5182   0.410   1.673  17.680  0.2036  0.4392  0.3217
  342MPD2    C5 5183   0.368   1.544  17.693 -0.1814 -0.6211 -0.3054
  342MPD2     H 5184   0.668   1.610  17.470 -2.4520  0.1932 -2.5557
  342MPD2    H1 5185   0.354   1.747  17.736  1.7062  0.7429  1.4118
  342MPD2    H2 5186   0.385   1.348  17.658  0.0131 -0.6029 -0.7579
  342MPD2    H3 5187   0.282   1.524  17.756 -0.5878  0.1315 -0.6281
  342MPD2     N 5188   0.556   1.843  17.597 -0.2095 -0.3652  0.0244
  342MPD2    H5 5189   0.516   1.911  17.661  0.9568 -2.7372  3.2626
  342MPD2    N1 5190   0.615   1.369  17.482  0.1530 -0.1628  0.4192
  342MPD2    H7 5191   0.686   1.405  17.419 -1.0719 -0.7636 -1.3208
  343TMC3    C1 5192   0.653   1.136  17.399 -0.3650 -0.5018  0.0510
  343TMC3    C2 5193   0.749   1.174  17.308  0.8781  0.7528  0.6509
  343TMC3    C3 5194   0.791   1.084  17.214  0.0689 -0.0809  0.0342
  343TMC3    C4 5195   0.594   1.014  17.385 -0.7578 -0.4632  0.1571
  343TMC3    C5 5196   0.632   0.931  17.280  0.0112 -0.7492  0.7087
  343TMC3    C6 5197   0.730   0.963  17.193 -0.0785  0.1799  0.1194
  343TMC3     C 5198   0.589   1.231  17.497  0.0438 -0.1417 -0.0561
  343TMC3     O 5199   0.501   1.178  17.564  0.3167 -0.3558 -0.0834
  343TMC3     H 5200   0.812   1.260  17.328  0.9060  0.9482 -0.2620
  343TMC3    H1 5201   0.505   0.995  17.444 -0.6564  0.7501  0.6957
  343TMC3    H2 5202   0.775   0.885  17.133 -0.1861  0.8483 -0.8362
  343TMC3    C7 5203   0.600   0.793  17.310 -0.5094  1.1743 -0.0606
  343TMC3    C8 5204   0.926   1.098  17.168  0.2816 -0.6229  0.1966
  343TMC3    O1 5205   0.592   0.713  17.217 -0.2237  0.0329  0.7099
  343TMC3    O2 5206   1.007   1.141  17.245  0.1575 -0.3194 -0.0556
  344MPD2     C 5207   0.873   1.626  10.919  0.0645 -0.0059  0.1681
  344MPD2    C1 5208   0.835   1.580  10.798  0.5171  0.8623 -0.4323
  344MPD2    C2 5209   0.871   1.650  10.683  0.2329 -0.2462  0.4033
  344MPD2    C3 5210   0.947   1.770  10.687 -0.5866  1.1761 -0.0158
  344MPD2    C4 5211   0.967   1.817  10.815  0.4583  0.2116 -0.1412
  344MPD2    C5 5212   0.926   1.748  10.929  0.2138  0.1178  0.2044
  344MPD2     H 5213   0.838   1.611  10.588 -0.9508  0.0601  0.6909
  344MPD2    H1 5214   1.018   1.911  10.830 -4.1644  2.4605  1.3931
  344MPD2    H2 5215   0.856   1.577  11.014 -1.6504 -0.5406 -0.4144
  344MPD2    H3 5216   0.924   1.803  11.022  0.9716 -0.7798  0.7514
  344MPD2     N 5217   1.012   1.838  10.574  0.1550 -0.1131 -0.1501
  344MPD2    H5 5218   1.068   1.922  10.589  2.5734 -1.7543 -0.0298
  344MPD2    N1 5219   0.765   1.453  10.788  0.2571 -0.1157  0.6234
  344MPD2    H7 5220   0.711   1.432  10.704  0.9798 -3.7647  1.0782
  345TMC3    C1 5221   1.063   1.919  10.366  0.6527  0.5072 -0.3434
  345TMC3    C2 5222   1.186   1.961  10.411 -0.5441  0.6403 -0.3722
  345TMC3    C3 5223   1.232   2.076  10.353 -0.4113 -0.6072  0.1767
  345TMC3    C4 5224   0.987   1.981  10.274  0.3148  0.6151 -0.3943
  345TMC3    C5 5225   1.031   2.102  10.244  0.8432 -0.1541 -0.3435
  345TMC3    C6 5226   1.149   2.153  10.280  0.1451  0.2263 -0.6321
  345TMC3     C 5227   0.992   1.814  10.440  0.6335  0.1321  0.9948
  345TMC3     O 5228   0.913   1.742  10.381 -0.2486 -0.2474  0.1527
  345TMC3     H 5229   1.255   1.897  10.465  0.5655  0.3908 -2.0983
  345TMC3    H1 5230   0.885   1.953  10.252 -0.0514  1.5713  0.1161
  345TMC3    H2 5231   1.185   2.248  10.243  0.3598 -0.4064 -2.0289
  345TMC3    C7 5232   0.928   2.194  10.202  0.8910  0.7252 -0.6885
  345TMC3    C8 5233   1.341   2.160  10.409  0.2991 -0.1412  0.0531
  345TMC3    O1 5234   0.925   2.296  10.272  0.3871 -0.0664 -0.4001
  345TMC3    O2 5235   1.323   2.280  10.418  0.0939  0.5135  0.0405
  346MPD2     C 5236   1.232   2.703  13.803 -0.7150 -0.3246 -0.0522
  346MPD2    C1 5237   1.314   2.811  13.777 -0.1260  0.6282  0.6370
  346MPD2    C2 5238   1.335   2.901  13.878  0.4109 -0.0315  0.0525
  346MPD2    C3 5239   1.270   2.893  14.000  0.1425 -0.2956  0.6102
  346MPD2    C4 5240   1.178   2.796  14.018  0.0583  0.1992 -0.1458
  346MPD2    C5 5241   1.166   2.700  13.929  0.2885 -0.3362 -0.4646
  346MPD2     H 5242   1.397   2.988  13.861 -0.7233  1.2181  2.3937
  346MPD2    H1 5243   1.111   2.790  14.103 -0.2714  1.8043 -0.2953
  346MPD2    H2 5244   1.209   2.619  13.739  0.5074 -1.5904  1.1599
  346MPD2    H3 5245   1.107   2.611  13.944 -1.1816  0.5800 -0.8615
  346MPD2     N 5246   1.300   2.989  14.097  0.3078  0.0935  0.4492
  346MPD2    H5 5247   1.376   3.051  14.070 -0.5483  1.2144  0.6179
  346MPD2    N1 5248   1.369   2.831  13.649 -0.1972 -1.1900 -0.0156
  346MPD2    H7 5249   1.445   2.898  13.643 -0.6452 -0.5067  1.8905
  347TMC3    C1 5250   1.287   3.135  14.275  0.3679  0.1111 -0.4584
  347TMC3    C2 5251   1.300   3.225  14.178 -0.4240  0.0049 -0.7357
  347TMC3    C3 5252   1.403   3.320  14.183  0.2530  0.7469  0.4088
  347TMC3    C4 5253   1.364   3.141  14.384  0.6446  0.5942 -0.0352
  347TMC3    C5 5254   1.455   3.243  14.396  0.4659  0.0517  0.4842
  347TMC3    C6 5255   1.482   3.328  14.291  0.0108  0.0251  0.2854
  347TMC3     C 5256   1.253   3.003  14.222  0.1555  0.3796  0.2252
  347TMC3     O 5257   1.149   2.957  14.272  0.0003 -0.0040  0.5708
  347TMC3     H 5258   1.251   3.229  14.081  1.1676  2.6450 -1.4581
  347TMC3    H1 5259   1.361   3.065  14.460 -2.8025 -0.7641 -1.5166
  347TMC3    H2 5260   1.546   3.415  14.294  3.6473 -2.7363  3.3434
  347TMC3    C7 5261   1.558   3.240  14.505 -0.0477  0.5161 -0.3301
  347TMC3    C8 5262   1.480   3.306  14.060  0.3109 -0.5301 -0.7992
  347TMC3    O1 5263   1.618   3.340  14.531  0.0886 -0.0744  0.5297
  347TMC3    O2 5264   1.485   3.194  14.014 -0.1473  0.3703 -0.4613
  348MPD2     C 5265   4.511   3.019  12.196 -0.0957 -0.7264 -0.1614
  348MPD2    C1 5266   4.629   3.099  12.195 -0.3458  0.6660  0.5880
  348MPD2    C2 5267   4.661   3.170  12.076 -0.6030  0.1786  0.0915
  348MPD2    C3 5268   4.576   3.155  11.965  0.1956  0.3717 -0.3643
  348MPD2    C4 5269   4.460   3.075  11.972 -0.3633  0.6143  0.4303
  348MPD2    C5 5270   4.431   3.001  12.085  0.5320 -0.4220 -0.1860
  348MPD2     H 5271   0.015   3.225  12.071  0.0504 -0.9350  0.0629
  348MPD2    H1 5272   4.389   3.059  11.891 -1.1453 -1.7967  1.5897
  348MPD2    H2 5273   4.496   2.954  12.281  3.2700 -0.4882  0.6424
  348MPD2    H3 5274   4.346   2.934  12.087  0.7661 -0.7715 -1.5893
  348MPD2     N 5275   4.608   3.222  11.843  0.0651  0.6253 -0.4234
  348MPD2    H5 5276   4.698   3.269  11.839  0.6644 -0.4749  0.2514
  348MPD2    N1 5277   4.726   3.088  12.302 -0.2267  0.1171  0.4967
  348MPD2    H7 5278   0.077   3.134  12.297  0.3678 -1.2178 -0.8206
  349TMC3    C1 5279   0.105   3.032  12.490  0.5990 -1.0095  0.3316
  349TMC3    C2 5280   0.149   2.914  12.542 -0.1945  0.4350  0.1006
  349TMC3    C3 5281   0.278   2.880  12.539  0.4549 -0.4374  0.5552
  349TMC3    C4 5282   0.194   3.127  12.438 -0.0838  0.1037  0.2581
  349TMC3    C5 5283   0.320   3.087  12.438 -0.3656 -0.1320  0.5074
  349TMC3    C6 5284   0.369   2.965  12.486 -0.1746 -0.8106  0.8021
  349TMC3     C 5285   4.715   3.010  12.417  0.2086 -0.1390 -0.7492
  349TMC3     O 5286   4.643   2.920  12.448 -0.5643 -0.3171 -0.2191
  349TMC3     H 5287   0.081   2.838  12.579 -0.1066 -0.4530 -1.5433
  349TMC3    H1 5288   0.157   3.223  12.403  2.9986  0.4268 -2.1386
  349TMC3    H2 5289   0.475   2.942  12.490 -0.3789 -1.4039  2.9786
  349TMC3    C7 5290   0.395   3.149  12.328 -0.5081  0.5406 -0.6618
  349TMC3    C8 5291   0.312   2.754  12.614 -0.8889  0.4858  0.1591
  349TMC3    O1 5292   0.324   3.190  12.233 -0.2158 -0.1163  0.0251
  349TMC3    O2 5293   0.238   2.716  12.701 -0.4739  0.3183  0.3423
  350MPD2     C 5294   3.606   1.325  10.075 -0.0883 -0.1512  0.1703
  350MPD2    C1 5295   3.636   1.202  10.025  0.3148 -0.8567 -0.0144
  350MPD2    C2 5296   3.712   1.191   9.910  0.2647 -0.3933  0.9018
  350MPD2    C3 5297   3.768   1.301   9.854  0.0846  0.1604 -0.5175
  350MPD2    C4 5298   3.742   1.425   9.908  0.4220 -0.1822 -0.6387
  350MPD2    C5 5299   3.658   1.437  10.014 -0.0344 -0.2291  0.1953
  350MPD2     H 5300   3.727   1.098   9.857  1.7002  1.5252 -2.1046
  350MPD2    H1 5301   3.792   1.518   9.882  0.3550  0.0848  0.1882
  350MPD2    H2 5302   3.538   1.352  10.155 -0.1941  3.5517 -1.1471
  350MPD2    H3 5303   3.634   1.532  10.062  0.6880  0.7760 -1.4108
  350MPD2     N 5304   3.852   1.276   9.740 -0.3807  0.5528 -0.2897
  350MPD2    H5 5305   3.871   1.178   9.721  0.2560  0.5251  0.4946
  350MPD2    N1 5306   3.563   1.087  10.069  0.5518 -0.1420 -0.4446
  350MPD2    H7 5307   3.572   1.003  10.013 -1.0041 -1.5778  1.4544
  351TMC3    C1 5308   3.418   0.956  10.203  0.2484  0.0919  0.2673
  351TMC3    C2 5309   3.513   0.861  10.182 -0.8909  0.0677  0.4902
  351TMC3    C3 5310   3.469   0.738  10.195 -0.3142  0.2309 -0.0933
  351TMC3    C4 5311   3.287   0.934  10.233  0.5311  0.5580 -0.5950
  351TMC3    C5 5312   3.248   0.810  10.245  0.0967  0.3239 -0.8123
  351TMC3    C6 5313   3.336   0.710  10.209 -0.3584  0.1320 -0.1773
  351TMC3     C 5314   3.460   1.085  10.166 -0.2545 -0.2961 -0.3893
  351TMC3     O 5315   3.395   1.180  10.217  0.3889 -0.5605  0.2816
  351TMC3     H 5316   3.620   0.879  10.170 -1.2860  0.7677 -2.0459
  351TMC3    H1 5317   3.212   1.012  10.234  0.0467  0.1176 -1.7680
  351TMC3    H2 5318   3.312   0.606  10.231  1.3690 -0.0495  0.8335
  351TMC3    C7 5319   3.108   0.791  10.194 -0.0889  0.5376 -0.1688
  351TMC3    C8 5320   3.554   0.631  10.151 -0.0634 -0.2251  0.5539
  351TMC3    O1 5321   3.037   0.887  10.170  0.6229  0.1505  0.1691
  351TMC3    O2 5322   3.495   0.531  10.113  0.2665 -0.7196  0.3767
  352MPD2     C 5323   2.848   3.099   1.362 -0.3668 -0.1706 -0.5924
  352MPD2    C1 5324   2.772   3.044   1.260  0.0665 -0.4902  0.2254
  352MPD2    C2 5325   2.764   2.904   1.243 -0.0908 -0.1952  0.8238
  352MPD2    C3 5326   2.820   2.820   1.334  0.5684 -0.2977  0.3672
  352MPD2    C4 5327   2.895   2.873   1.438  0.8459  0.2826 -0.7190
  352MPD2    C5 5328   2.905   3.011   1.454 -0.1805  0.9238  0.7105
  352MPD2     H 5329   2.705   2.866   1.161 -0.8178 -0.8668  1.6592
  352MPD2    H1 5330   2.940   2.799   1.504 -2.2292 -1.1415 -0.2355
  352MPD2    H2 5331   2.869   3.205   1.372  0.4717 -0.4065  0.1076
  352MPD2    H3 5332   2.967   3.054   1.533  0.3614  0.0341  0.7672
  352MPD2     N 5333   2.790   2.683   1.331  0.5591 -0.4128 -0.3784
  352MPD2    H5 5334   2.818   2.633   1.415 -0.5957  1.2389  0.9865
  352MPD2    N1 5335   2.719   3.139   1.166 -0.1714  0.3199 -0.4376
  352MPD2    H7 5336   2.734   3.239   1.177 -0.7966  0.5102 -1.2569
  353TMC3    C1 5337   2.748   2.469   1.262 -0.0918 -0.0936  0.5410
  353TMC3    C2 5338   2.694   2.441   1.389  0.2198 -0.1158 -0.4146
  353TMC3    C3 5339   2.634   2.315   1.400  0.3580 -0.5511  0.3396
  353TMC3    C4 5340   2.726   2.378   1.159 -0.2906  0.6087 -0.1101
  353TMC3    C5 5341   2.670   2.256   1.184  0.6040  0.0092 -0.2999
  353TMC3    C6 5342   2.618   2.226   1.305  0.1598  0.0105  0.0331
  353TMC3     C 5343   2.759   2.608   1.223  0.2149 -0.4224 -0.3956
  353TMC3     O 5344   2.757   2.638   1.103 -0.0495 -0.2656 -0.0418
  353TMC3     H 5345   2.686   2.511   1.471  1.1106  3.5261 -3.4373
  353TMC3    H1 5346   2.775   2.400   1.065 -1.2880  2.7295 -0.1354
  353TMC3    H2 5347   2.552   2.140   1.308 -0.7001  0.6702 -0.0028
  353TMC3    C7 5348   2.648   2.159   1.087  0.2409 -0.4677  1.0767
  353TMC3    C8 5349   2.595   2.281   1.534 -0.3726 -0.3774  0.7874
  353TMC3    O1 5350   2.575   2.064   1.113 -0.6186 -0.1404  0.5402
  353TMC3    O2 5351   2.558   2.370   1.612  0.3676  0.6148 -0.7144
  354TMC3    C1 5352   4.143   3.995  13.677 -0.2416  0.4621  0.4905
  354TMC3    C2 5353   4.176   4.130  13.699 -0.2990 -0.0213 -0.1842
  354TMC3    C3 5354   4.185   4.218  13.599  0.6852  0.3235  0.2791
  354TMC3    C4 5355   4.102   3.956  13.553  0.4669 -0.1302  0.3208
  354TMC3    C5 5356   4.138   4.043  13.447  0.0880 -0.4338 -0.0409
  354TMC3    C6 5357   4.166   4.178  13.465 -0.1311 -0.7579 -0.2552
  354TMC3     C 5358   4.100   3.913  13.783 -0.1247  0.5767  0.4564
  354TMC3     O 5359   4.038   3.810  13.755 -0.2967  0.7204 -0.3469
  354TMC3     H 5360   4.211   4.155  13.798 -0.3018 -0.0207 -0.1833
  354TMC3    H1 5361   4.074   3.852  13.538 -2.1949  0.8680 -1.5884
  354TMC3    H2 5362   4.158   4.244  13.379 -1.3100  1.1842  1.3154
  354TMC3    C7 5363   4.137   3.981  13.312 -0.2335 -0.0171  0.1711
  354TMC3    C8 5364   4.243   4.350  13.634 -0.0419  0.1969 -0.2567
  354TMC3    O1 5365   4.113   3.863  13.304 -0.1452 -0.0713 -0.4805
  354TMC3    O2 5366   4.253   4.382  13.753 -0.2693  0.0849 -0.1626
  355MPD2     C 5367   4.080   0.634  12.135 -0.1532 -0.7214 -0.0613
  355MPD2    C1 5368   4.148   0.614  12.022  0.8371  0.0117  0.0567
  355MPD2    C2 5369   4.253   0.528  12.034 -0.1329  0.1393  0.2726
  355MPD2    C3 5370   4.296   0.473  12.155  0.6932 -0.1193 -0.3350
  355MPD2    C4 5371   4.228   0.497  12.266  0.0422 -0.3174 -0.1517
  355MPD2    C5 5372   4.126   0.583  12.252  0.0394 -0.0309 -0.5299
  355MPD2     H 5373   4.325   0.527  11.953 -0.1543  1.1462  0.2500
  355MPD2    H1 5374   4.250   0.455  12.363  0.7047  2.1777  0.7768
  355MPD2    H2 5375   3.996   0.703  12.142  0.3049 -0.1994  0.2779
  355MPD2    H3 5376   4.080   0.623  12.342 -2.0273 -1.6259 -0.8917
  355MPD2     N 5377   4.420   0.404  12.178 -0.1291  0.4065  0.4376
  355MPD2    H5 5378   4.453   0.383  12.272  0.0956 -0.6412  0.1251
  355MPD2    N1 5379   4.125   0.692  11.905 -0.3524  0.3253  0.8355
  355MPD2    H7 5380   4.051   0.762  11.900  1.6258  2.1570 -2.7383
  356TMC3    C1 5381   4.632   0.329  12.109 -0.2506  0.7313  0.0601
  356TMC3    C2 5382   4.714   0.350  12.006 -0.5660  0.3112  0.0749
  356TMC3    C3 5383   0.090   0.421  12.039 -0.9867  0.4258  0.1994
  356TMC3    C4 5384   4.664   0.340  12.235  0.0759 -0.2513 -0.1477
  356TMC3    C5 5385   0.041   0.411  12.262 -0.0446  0.2978 -0.6317
  356TMC3    C6 5386   0.127   0.454  12.163 -0.0751  0.2164 -0.0842
  356TMC3     C 5387   4.494   0.359  12.074 -0.3887  0.0405 -0.1045
  356TMC3     O 5388   4.472   0.354  11.955 -0.0251  0.5607 -0.0318
  356TMC3     H 5389   4.690   0.331  11.902 -0.8217 -0.3888  0.2605
  356TMC3    H1 5390   4.603   0.307  12.318  0.0327  2.3650  0.8363
  356TMC3    H2 5391   0.225   0.490  12.193 -0.0773  1.6036 -1.7058
  356TMC3    C7 5392   0.059   0.448  12.404  0.2283 -0.1973  0.6031
  356TMC3    C8 5393   0.164   0.483  11.929 -1.0726  0.0645 -0.1591
  356TMC3    O1 5394   0.016   0.377  12.494 -0.0935 -0.4160 -0.4578
  356TMC3    O2 5395   0.152   0.423  11.823  0.6425  0.7636 -0.4611
  357MPD2     C 5396   3.449   4.633   0.826 -0.3968 -0.0632  0.2863
  357MPD2    C1 5397   3.430   4.494   0.804 -0.7054  0.8883  0.1172
  357MPD2    C2 5398   3.377   4.448   0.686  0.6921  0.2233 -0.2168
  357MPD2    C3 5399   3.326   4.531   0.588  0.2330  0.2860  0.1067
  357MPD2    C4 5400   3.352   4.665   0.604 -0.8110  0.2064 -0.3935
  357MPD2    C5 5401   3.404   4.713   0.722 -0.1929 -0.2836  0.5971
  357MPD2     H 5402   3.347   4.344   0.676  3.1329 -0.4280 -0.8070
  357MPD2    H1 5403   3.310   4.738   0.536  2.4736  0.9839 -1.5398
  357MPD2    H2 5404   3.490   4.673   0.919  0.5136 -1.0038  0.2874
  357MPD2    H3 5405   3.417   0.081   0.726 -1.2970 -0.1696  1.0503
  357MPD2     N 5406   3.252   4.489   0.471  0.7373 -0.2647 -0.6065
  357MPD2    H5 5407   3.232   4.561   0.402 -1.2998  0.1294  0.4009
  357MPD2    N1 5408   3.468   4.398   0.901  0.2916  0.0187 -0.3246
  357MPD2    H7 5409   3.425   4.308   0.881  0.9727 -0.5651  0.8337
  358TMC3    C1 5410   3.577   4.288   1.091 -0.0271 -0.3124 -0.3392
  358TMC3    C2 5411   3.659   4.209   1.015  0.2318 -0.3769  0.1257
  358TMC3    C3 5412   3.743   4.130   1.089  0.2695  0.2493 -0.9606
  358TMC3    C4 5413   3.585   4.302   1.229  0.0659  0.2908  0.5314
  358TMC3    C5 5414   3.665   4.212   1.287  1.0232  0.2316 -0.1746
  358TMC3    C6 5415   3.743   4.121   1.228  0.4204  0.4936  0.6590
  358TMC3     C 5416   3.543   4.407   1.014 -0.1288 -0.8829 -0.2790
  358TMC3     O 5417   3.592   4.503   1.069 -0.5543  1.0685 -0.2371
  358TMC3     H 5418   3.674   4.219   0.908 -0.5166  1.6382  0.2221
  358TMC3    H1 5419   3.526   4.373   1.286  2.2160  2.1682  0.4467
  358TMC3    H2 5420   3.822   4.073   1.283 -1.0684  0.2468  2.5668
  358TMC3    C7 5421   3.656   4.203   1.430 -0.1221  0.7244 -0.0237
  358TMC3    C8 5422   3.853   4.069   1.027  0.4396  0.2912 -0.6326
  358TMC3    O1 5423   3.602   4.298   1.485  0.2087  0.3935 -0.3588
  358TMC3    O2 5424   3.960   4.061   1.091  0.0568  0.5166 -0.7049
  359MPD2     C 5425   4.556   3.377  12.507  0.4866  0.1269  0.5054
  359MPD2    C1 5426   4.475   3.458  12.428  0.2252 -0.1595 -0.0107
  359MPD2    C2 5427   4.335   3.448  12.443  0.2332  0.2017  0.5161
  359MPD2    C3 5428   4.279   3.361  12.536 -0.4227 -0.6551  0.0878
  359MPD2    C4 5429   4.361   3.291  12.622  0.0904  0.0628 -0.5035
  359MPD2    C5 5430   4.498   3.294  12.595  0.6010  0.0952 -0.3342
  359MPD2     H 5431   4.271   3.511  12.382  0.2831  0.8942  1.1748
  359MPD2    H1 5432   4.322   3.242  12.710  0.1331  2.0862  0.6379
  359MPD2    H2 5433   4.664   3.379  12.515  0.6699 -0.1886 -2.0348
  359MPD2    H3 5434   4.564   3.231  12.653  0.7072 -0.0048 -0.5637
  359MPD2     N 5435   4.140   3.359  12.573  1.5095 -0.1179 -1.1714
  359MPD2    H5 5436   4.120   3.290  12.645  0.4505 -0.5284 -1.8511
  359MPD2    N1 5437   4.521   3.548  12.330  0.1936  0.4227 -0.7490
  359MPD2    H7 5438   4.454   3.563  12.255  1.5812 -1.1135 -2.2908
  360TMC3    C1 5439   4.681   3.642  12.181  0.2146 -0.4483  0.5686
  360TMC3    C2 5440   0.074   3.683  12.175 -0.2501  0.8214  0.3707
  360TMC3    C3 5441   0.121   3.684  12.048  0.2071  0.4814  0.4299
  360TMC3    C4 5442   4.609   3.603  12.076 -0.1879 -0.4968 -0.1797
  360TMC3    C5 5443   4.667   3.601  11.955 -0.0022 -0.6125 -0.1422
  360TMC3    C6 5444   0.051   3.648  11.935  0.1566  0.2158 -0.1789
  360TMC3     C 5445   4.655   3.579  12.310  0.6888 -0.8681  0.1278
  360TMC3     O 5446   0.010   3.548  12.380  0.2956 -0.4267 -0.2903
  360TMC3     H 5447   0.132   3.686  12.267 -2.9092 -0.1157  2.0968
  360TMC3    H1 5448   4.504   3.577  12.084 -0.5234  1.1580  0.7885
  360TMC3    H2 5449   0.095   3.644  11.836 -1.3220  0.4369 -0.8439
  360TMC3    C7 5450   4.578   3.590  11.837 -0.3457 -0.0362  0.0650
  360TMC3    C8 5451   0.218   3.781  12.031 -0.2162 -0.0237  0.3695
  360TMC3    O1 5452   4.633   3.629  11.732  0.1933  0.5230 -0.7021
  360TMC3    O2 5453   0.221   3.867  12.118  0.3257 -0.0693 -0.1258
  361MPD2     C 5454   1.770   1.758  16.680 -0.0236 -0.0611  0.0148
  361MPD2    C1 5455   1.674   1.777  16.780  0.2733  0.3672  0.4793
  361MPD2    C2 5456   1.715   1.800  16.909 -0.3526  0.1700  0.3351
  361MPD2    C3 5457   1.853   1.800  16.942 -0.1810 -0.1143  0.7801
  361MPD2    C4 5458   1.943   1.777  16.836  0.7980 -0.4850 -0.3237
  361MPD2    C5 5459   1.900   1.750  16.714 -0.5543 -0.7801  0.2457
  361MPD2     H 5460   1.645   1.814  16.990 -1.5643  0.0251 -0.6901
  361MPD2    H1 5461   2.051   1.779  16.844  0.6505  0.1293  1.5254
  361MPD2    H2 5462   1.751   1.747  16.574  1.8218 -0.4945 -0.2755
  361MPD2    H3 5463   1.972   1.734  16.635  0.8366 -0.0630  1.3462
  361MPD2     N 5464   1.895   1.823  17.077 -0.4512 -0.1839 -0.2348
  361MPD2    H5 5465   1.815   1.834  17.139 -0.7108  0.7510 -0.7449
  361MPD2    N1 5466   1.538   1.765  16.757  0.6066 -0.4864 -0.1857
  361MPD2    H7 5467   1.479   1.784  16.837  0.0961  2.3255 -1.2200
  362TMC3    C1 5468   1.326   1.727  16.649  0.4451 -0.2164  0.1799
  362TMC3    C2 5469   1.263   1.754  16.765  0.9003  0.2463  0.1463
  362TMC3    C3 5470   1.141   1.816  16.749  0.1783  0.3871  0.0923
  362TMC3    C4 5471   1.269   1.737  16.527  0.0972 -1.0015  0.0792
  362TMC3    C5 5472   1.143   1.798  16.517 -0.3952 -0.4815 -0.1329
  362TMC3    C6 5473   1.080   1.844  16.627 -0.1007 -0.4726 -0.3104
  362TMC3     C 5474   1.475   1.730  16.640  0.3601  0.2844  0.5387
  362TMC3     O 5475   1.519   1.689  16.531  0.3265  0.5199 -0.0220
  362TMC3     H 5476   1.305   1.732  16.863  2.6559  0.7004 -0.4899
  362TMC3    H1 5477   1.329   1.744  16.437 -1.7946 -0.5544 -1.1428
  362TMC3    H2 5478   0.994   1.909  16.616  1.6034  1.8893  0.3412
  362TMC3    C7 5479   1.114   1.865  16.397  0.7940 -0.4385 -0.6432
  362TMC3    C8 5480   1.082   1.871  16.877 -0.2132 -0.7330 -0.2355
  362TMC3    O1 5481   1.070   1.978  16.406 -0.1934  0.0920  0.6768
  362TMC3    O2 5482   1.114   1.819  16.986  0.4056 -0.3053 -0.6901
  363TMC3    C1 5483   3.941   0.473   9.374 -0.2512 -0.1922 -0.5491
  363TMC3    C2 5484   4.030   0.459   9.476  0.4603 -0.2294  0.3403
  363TMC3    C3 5485   3.994   0.490   9.608 -0.4901 -0.1873 -0.4572
  363TMC3    C4 5486   3.815   0.525   9.403 -0.0188 -0.3157 -0.5369
  363TMC3    C5 5487   3.779   0.551   9.538 -0.2518 -0.7044 -0.4179
  363TMC3    C6 5488   3.873   0.541   9.637  0.1246 -0.3847  0.1277
  363TMC3     C 5489   3.988   0.472   9.239  0.4532  0.3937  0.3195
  363TMC3     O 5490   4.105   0.492   9.220  0.1802  0.5610  0.1172
  363TMC3     H 5491   4.124   0.410   9.454  0.5562 -0.7413  1.8570
  363TMC3    H1 5492   3.737   0.528   9.328  0.5194  1.5779 -1.0130
  363TMC3    H2 5493   3.849   0.563   9.741 -0.8236  0.3346 -0.2483
  363TMC3    C7 5494   3.650   0.598   9.555  0.2718  0.1095  0.6039
  363TMC3    C8 5495   4.090   0.489   9.709 -0.6002  0.4568 -0.6809
  363TMC3    O1 5496   3.604   0.649   9.455 -0.0805 -0.2940  0.4731
  363TMC3    O2 5497   4.090   0.575   9.795 -0.4232 -0.1507  0.0502
  364MPD2     C 5498   3.026   0.280  10.756 -0.4781 -0.0004 -0.1007
  364MPD2    C1 5499   3.125   0.271  10.656  0.4627 -0.2746 -0.0951
  364MPD2    C2 5500   3.212   0.170  10.660  0.1194 -0.2320 -0.1236
  364MPD2    C3 5501   3.196   0.066  10.754  0.2444  0.0874  0.2879
  364MPD2    C4 5502   3.095   0.076  10.850  0.0568  0.3813  0.1971
  364MPD2    C5 5503   3.009   0.187  10.851 -0.3846 -0.2743 -0.3121
  364MPD2     H 5504   3.287   0.157  10.583  0.7418 -1.8777  0.7582
  364MPD2    H1 5505   3.093   0.004  10.931 -0.8827  2.3392  1.8977
  364MPD2    H2 5506   2.955   0.360  10.750  1.3735  1.5768 -0.9264
  364MPD2    H3 5507   2.920   0.198  10.911 -0.0729  1.7506 -0.2213
  364MPD2     N 5508   3.284   4.696  10.767 -0.4209  0.0253  0.4722
  364MPD2    H5 5509   3.275   4.635  10.847  0.4783  1.4644  1.6851
  364MPD2    N1 5510   3.121   0.373  10.563  0.6079  0.1947  0.0010
  364MPD2    H7 5511   3.048   0.443  10.567  0.8895  0.5358 -0.8093
  365TMC3    C1 5512   3.343   0.359  10.465 -0.0843 -0.1970 -0.2866
  365TMC3    C2 5513   3.394   0.277  10.367 -0.6707  0.3718 -0.0265
  365TMC3    C3 5514   3.526   0.274  10.361 -0.5938 -0.0764  1.1041
  365TMC3    C4 5515   3.414   0.436  10.547  0.2606 -0.2719  0.2118
  365TMC3    C5 5516   3.557   0.431  10.522  0.4509 -0.6774  0.0367
  365TMC3    C6 5517   3.616   0.347  10.432  0.1419 -0.3180  0.4831
  365TMC3     C 5518   3.204   0.399  10.455  0.0499  1.0537 -0.0610
  365TMC3     O 5519   3.177   0.473  10.363  0.2622  0.4114  0.2154
  365TMC3     H 5520   3.326   0.219  10.305  0.2466 -2.3836  1.5477
  365TMC3    H1 5521   3.365   0.505  10.614 -0.8159 -0.3420 -0.4913
  365TMC3    H2 5522   3.723   0.349  10.414  0.0653 -0.7318 -0.0314
  365TMC3    C7 5523   3.646   0.529  10.587  0.0580  0.0963  0.3589
  365TMC3    C8 5524   3.589   0.155  10.297 -0.7469 -0.0586 -0.5488
  365TMC3    O1 5525   3.750   0.561  10.530 -0.4520 -0.0147 -0.4667
  365TMC3    O2 5526   3.693   0.163  10.237  0.3307  0.1412 -0.0779
  366MPD2     C 5527   1.931   0.107  15.425  0.2444 -0.3996  0.8428
  366MPD2    C1 5528   1.972   0.208  15.346 -0.0606  0.0396  0.3861
  366MPD2    C2 5529   2.042   0.177  15.229 -0.6066  0.1867 -0.1890
  366MPD2    C3 5530   2.103   0.048  15.212  0.3201  0.2280 -0.9004
  366MPD2    C4 5531   2.062   4.689  15.299 -0.1096 -1.1750  0.3938
  366MPD2    C5 5532   1.970   4.716  15.402 -0.2259  0.0720 -0.0315
  366MPD2     H 5533   2.068   0.254  15.157 -1.5381 -1.5655 -2.3966
  366MPD2    H1 5534   2.100   4.588  15.290  2.6057 -0.0390 -0.7880
  366MPD2    H2 5535   1.875   0.121  15.517 -1.2559 -0.8888  0.0159
  366MPD2    H3 5536   1.949   4.638  15.474  2.3499 -2.5521 -2.0810
  366MPD2     N 5537   2.196   0.029  15.108  0.2100  0.1380  0.0457
  366MPD2    H5 5538   2.231   0.109  15.057  0.8532  0.8508  1.6076
  366MPD2    N1 5539   1.952   0.344  15.375 -0.3461  0.3131  0.3155
  366MPD2    H7 5540   1.983   0.403  15.299 -0.9389  0.4829  0.2013
  367TMC3    C1 5541   1.902   0.534  15.486 -0.3423  0.0100 -0.3123
  367TMC3    C2 5542   1.999   0.598  15.561  0.0984 -0.1572 -1.0940
  367TMC3    C3 5543   2.040   0.720  15.513 -0.0028 -0.3784 -0.2553
  367TMC3    C4 5544   1.850   0.584  15.367 -0.2359  0.6430  0.2916
  367TMC3    C5 5545   1.891   0.708  15.332 -0.4078 -0.0249 -0.8490
  367TMC3    C6 5546   1.975   0.779  15.408  0.5356 -0.4151 -0.5786
  367TMC3     C 5547   1.912   0.394  15.497 -0.2335  0.0034 -0.7058
  367TMC3     O 5548   1.882   0.340  15.604 -0.1389  0.3945 -0.1400
  367TMC3     H 5549   2.043   0.554  15.649 -0.9426  1.4931  0.2519
  367TMC3    H1 5550   1.773   0.528  15.314 -0.2007  0.6720  0.2105
  367TMC3    H2 5551   1.993   0.884  15.390 -1.1276 -0.0777 -0.2891
  367TMC3    C7 5552   1.809   0.782  15.231 -0.9354  0.0409 -0.3692
  367TMC3    C8 5553   2.137   0.785  15.593 -0.5219 -0.7065 -0.8189
  367TMC3    O1 5554   1.816   0.904  15.230  0.2239  0.1846  0.4284
  367TMC3    O2 5555   2.208   0.722  15.674  0.2242 -0.8332 -0.3373
  368MPD2     C 5556   3.198   2.420  13.255 -0.5098 -0.3293 -0.7321
  368MPD2    C1 5557   3.173   2.470  13.136 -0.2857  0.7468  0.6202
  368MPD2    C2 5558   3.257   2.430  13.031  0.0360  0.2444  0.5724
  368MPD2    C3 5559   3.367   2.342  13.041 -0.8158 -0.3414  0.2266
  368MPD2    C4 5560   3.387   2.302  13.174 -0.2243 -0.1864 -0.3255
  368MPD2    C5 5561   3.306   2.337  13.278 -0.0014 -0.6750  0.3494
  368MPD2     H 5562   3.233   2.473  12.935 -0.2594  0.1842  0.6215
  368MPD2    H1 5563   3.465   2.230  13.196 -0.3501 -0.4022 -0.5898
  368MPD2    H2 5564   3.128   2.439  13.335  0.6890  0.8506  0.0249
  368MPD2    H3 5565   3.322   2.298  13.378  1.2079  0.3669  0.5562
  368MPD2     N 5566   3.447   2.306  12.927 -0.0859  0.2450 -0.4648
  368MPD2    H5 5567   3.524   2.245  12.951 -1.4692 -0.7430  1.4708
  368MPD2    N1 5568   3.065   2.563  13.120 -0.3386  0.0350  0.4583
  368MPD2    H7 5569   2.998   2.556  13.195 -1.5384  0.7172 -0.5487
  369TMC3    C1 5570   2.946   2.750  13.042  0.1319  0.6003 -0.2162
  369TMC3    C2 5571   2.963   2.886  13.014 -0.3485 -0.7870  0.3534
  369TMC3    C3 5572   2.849   2.950  12.971 -0.1693 -0.4695  0.8006
  369TMC3    C4 5573   2.829   2.683  13.033 -0.1486 -0.5983  0.5134
  369TMC3    C5 5574   2.720   2.752  12.986  0.2239  0.2956  0.2226
  369TMC3    C6 5575   2.730   2.883  12.950 -0.1657  0.0366  0.2811
  369TMC3     C 5576   3.067   2.667  13.031  0.5660 -0.1810  0.6540
  369TMC3     O 5577   3.164   2.708  12.968 -0.5913  0.0814 -0.1888
  369TMC3     H 5578   3.062   2.930  13.019 -1.1185  0.9502  0.4366
  369TMC3    H1 5579   2.824   2.578  13.058 -2.4393 -0.7147 -0.4766
  369TMC3    H2 5580   2.645   2.940  12.914  0.2591 -0.4550 -1.5386
  369TMC3    C7 5581   2.600   2.674  12.956  0.4590 -0.3386  0.5789
  369TMC3    C8 5582   2.863   3.091  12.945  0.1647  0.0895 -0.1021
  369TMC3    O1 5583   2.595   2.557  12.996  0.1971  0.0851  0.1205
  369TMC3    O2 5584   2.763   3.148  12.901  0.0604  0.0663  0.0522
  370TMC3    C1 5585   3.240   3.024  16.346  0.0283  0.9512 -0.9819
  370TMC3    C2 5586   3.162   2.959  16.437 -0.3917  0.4337 -0.0951
  370TMC3    C3 5587   3.091   2.843  16.399  0.2058  0.2456  0.8222
  370TMC3    C4 5588   3.270   2.968  16.225 -0.0120  0.0109  0.3255
  370TMC3    C5 5589   3.204   2.852  16.191 -0.5914  0.6751 -0.3238
  370TMC3    C6 5590   3.124   2.784  16.279  0.4654 -0.2860  0.3354
  370TMC3     C 5591   3.350   3.104  16.416 -0.0257 -0.1407 -0.0641
  370TMC3     O 5592   3.376   3.070  16.530  0.1217 -0.4785  0.3501
  370TMC3     H 5593   3.159   2.997  16.538  3.6660 -2.9611  1.2957
  370TMC3    H1 5594   3.326   3.030  16.157 -0.0455  0.3639  0.6185
  370TMC3    H2 5595   3.079   2.691  16.245 -0.5590 -0.2325  1.5373
  370TMC3    C7 5596   3.250   2.783  16.067 -0.1178 -0.7918  0.0560
  370TMC3    C8 5597   3.012   2.768  16.498  0.4490  0.8554  0.3739
  370TMC3    O1 5598   3.320   2.848  15.990 -0.1139  0.0981 -0.1419
  370TMC3    O2 5599   3.006   2.649  16.477  0.2109  0.1425  0.6519
  371TMC3    C1 5600   4.262   1.236  15.457 -0.2042  0.3961  0.5638
  371TMC3    C2 5601   4.183   1.226  15.573  0.1079 -0.4072 -0.5770
  371TMC3    C3 5602   4.098   1.331  15.607 -0.1996 -0.1250 -0.7854
  371TMC3    C4 5603   4.253   1.338  15.377 -0.0737  0.3565 -0.3531
  371TMC3    C5 5604   4.171   1.442  15.415 -0.0604 -0.1635 -0.0967
  371TMC3    C6 5605   4.097   1.440  15.532  0.0487 -1.0997 -0.1752
  371TMC3     C 5606   4.341   1.129  15.399  0.2067 -0.0904  0.7272
  371TMC3     O 5607   4.414   1.139  15.305 -0.4480  0.2673 -0.5951
  371TMC3     H 5608   4.207   1.145  15.642 -2.7388  1.2902  2.4014
  371TMC3    H1 5609   4.313   1.348  15.287  0.9948 -0.8769  0.2355
  371TMC3    H2 5610   4.031   1.523  15.552  0.6586 -0.6743  0.0805
  371TMC3    C7 5611   4.128   1.531  15.308 -0.0097  0.2983 -0.5116
  371TMC3    C8 5612   4.029   1.319  15.735  0.9932  0.7524  0.6214
  371TMC3    O1 5613   4.074   1.636  15.340  0.6146 -0.5296 -0.2297
  371TMC3    O2 5614   4.041   1.211  15.789 -0.6414  0.2587 -0.2930
  372MPD2     C 5615   3.079   2.978  13.368 -0.3055 -0.0263 -0.3045
  372MPD2    C1 5616   3.114   2.848  13.363 -0.0458 -0.5423 -0.6369
  372MPD2    C2 5617   3.040   2.751  13.433 -0.2715  0.3972  0.1358
  372MPD2    C3 5618   2.911   2.783  13.478 -0.4274  0.6660 -0.2561
  372MPD2    C4 5619   2.864   2.912  13.452  0.4302  0.2126 -0.5057
  372MPD2    C5 5620   2.951   3.009  13.400  0.5911  0.0951 -0.3282
  372MPD2     H 5621   3.075   2.650  13.452  2.1297  1.4429  1.3536
  372MPD2    H1 5622   2.767   2.953  13.476  0.2271 -0.7207  0.2657
  372MPD2    H2 5623   3.145   3.056  13.334  2.1879 -1.0345  2.2700
  372MPD2    H3 5624   2.930   3.115  13.404  2.3228  0.3461  2.1588
  372MPD2     N 5625   2.840   2.682  13.551 -0.4347  0.1183 -0.1604
  372MPD2    H5 5626   2.884   2.592  13.565 -0.8013  0.0620  0.6655
  372MPD2    N1 5627   3.235   2.808  13.315  0.3838  0.1133  0.0062
  372MPD2    H7 5628   3.275   2.720  13.343  1.6089  0.8945  0.6752
  373TMC3    C1 5629   2.709   2.599  13.716  0.1994 -0.1972 -0.4259
  373TMC3    C2 5630   2.703   2.632  13.848  0.6449  0.4822 -0.1823
  373TMC3    C3 5631   2.714   2.529  13.938  0.3506 -0.0051  0.1778
  373TMC3    C4 5632   2.711   2.465  13.671 -0.4084 -0.3324  0.7243
  373TMC3    C5 5633   2.712   2.369  13.765  0.5662 -0.5312 -0.4333
  373TMC3    C6 5634   2.718   2.397  13.901 -0.4805 -0.1270  0.1527
  373TMC3     C 5635   2.730   2.706  13.631  0.5448 -0.7814 -0.3830
  373TMC3     O 5636   2.679   2.809  13.670  0.5327  0.6076  0.0529
  373TMC3     H 5637   2.738   2.725  13.892  0.5535  0.1853  0.5212
  373TMC3    H1 5638   2.726   2.444  13.565  1.5157  2.9661  0.3396
  373TMC3    H2 5639   2.723   2.315  13.971  2.4514 -1.9643 -2.1706
  373TMC3    C7 5640   2.733   2.229  13.726  0.4670 -0.7070 -0.1954
  373TMC3    C8 5641   2.824   2.564  14.022 -0.5256 -0.3480  0.1120
  373TMC3    O1 5642   2.775   2.206  13.612  0.3575 -0.3312 -0.1202
  373TMC3    O2 5643   2.921   2.604  13.964 -0.2450  0.2855 -0.0265
  374TMC3    C1 5644   3.651   3.709   9.697 -0.3494  1.3492  0.0752
  374TMC3    C2 5645   3.778   3.674   9.714  0.2446 -0.3128 -0.1789
  374TMC3    C3 5646   3.858   3.681   9.605  0.9812  0.0959 -0.3230
  374TMC3    C4 5647   3.600   3.733   9.575 -0.1821 -0.5025 -0.5242
  374TMC3    C5 5648   3.683   3.728   9.467  0.6177  0.3181  0.0577
  374TMC3    C6 5649   3.817   3.716   9.482 -0.4418  1.0174  0.5275
  374TMC3     C 5650   3.557   3.667   9.803  0.6532 -0.5460 -0.1587
  374TMC3     O 5651   3.455   3.610   9.764 -0.1025  0.1071  0.2514
  374TMC3     H 5652   3.810   3.605   9.791  2.6629  3.0320  1.8637
  374TMC3    H1 5653   3.492   3.732   9.560 -0.3806 -0.5418  0.8936
  374TMC3    H2 5654   3.876   3.722   9.391  1.4624 -3.0235  1.5167
  374TMC3    C7 5655   3.632   3.729   9.334 -0.1452 -0.5743  0.0919
  374TMC3    C8 5656   4.004   3.640   9.618 -0.3585  0.1377 -0.0524
  374TMC3    O1 5657   3.703   3.682   9.246  0.3908 -0.6753 -0.4738
  374TMC3    O2 5658   4.066   3.595   9.525 -0.3438 -0.0806  0.1579
  375MPD2     C 5659   4.573   3.780  17.083 -0.1058 -0.7646 -0.3588
  375MPD2    C1 5660   4.492   3.667  17.075  0.0813 -0.6841 -0.1969
  375MPD2    C2 5661   4.529   3.552  17.003  0.5304  0.0576 -0.2562
  375MPD2    C3 5662   4.645   3.555  16.930  0.2521  0.3256  0.2891
  375MPD2    C4 5663   4.718   3.671  16.932  0.2928 -0.2791  0.6026
  375MPD2    C5 5664   4.682   3.776  17.002 -0.3554  0.2546  0.4457
  375MPD2     H 5665   4.465   3.465  16.999 -0.0540  0.4967 -0.4940
  375MPD2    H1 5666   0.068   3.681  16.873  0.7501 -0.5364  1.2475
  375MPD2    H2 5667   4.552   3.874  17.133 -0.8379 -0.7993 -0.6007
  375MPD2    H3 5668   0.008   3.862  16.991 -0.2143 -0.0098 -0.8756
  375MPD2     N 5669   4.706   3.454  16.848  0.4616  0.3143 -0.1173
  375MPD2    H5 5670   0.059   3.470  16.810  1.0972  0.5731  1.5607
  375MPD2    N1 5671   4.368   3.661  17.145  0.1365 -0.1267  0.4702
  375MPD2    H7 5672   4.326   3.568  17.152 -2.1857  0.8354 -0.6694
  376TMC3    C1 5673   4.702   3.266  16.694 -0.0065  0.6304 -0.2644
  376TMC3    C2 5674   0.092   3.255  16.698  0.0007 -0.4078  0.9826
  376TMC3    C3 5675   0.156   3.185  16.604 -0.4689 -0.0131 -0.3188
  376TMC3    C4 5676   4.626   3.196  16.603 -0.2566  0.6155 -0.2785
  376TMC3    C5 5677   4.690   3.130  16.507  0.2535 -0.2843  0.5652
  376TMC3    C6 5678   0.092   3.129  16.503  1.0307 -0.6243  1.0203
  376TMC3     C 5679   4.633   3.343  16.802 -0.6500  0.5624 -0.4287
  376TMC3     O 5680   4.523   3.300  16.836  1.1924 -0.1421 -0.1425
  376TMC3     H 5681   0.144   3.315  16.772 -0.2005  0.7156  0.2069
  376TMC3    H1 5682   4.520   3.214  16.594 -0.5141 -0.6721  0.2856
  376TMC3    H2 5683   0.152   3.084  16.424 -0.1629  1.6375 -1.2037
  376TMC3    C7 5684   4.619   3.094  16.389 -0.4453 -0.1228 -0.3151
  376TMC3    C8 5685   0.300   3.163  16.596  0.3970 -0.4128 -0.4302
  376TMC3    O1 5686   4.515   3.152  16.362  0.5764 -0.4432 -0.0623
  376TMC3    O2 5687   0.354   3.134  16.494  0.2047 -0.0251  0.3410
  377MPD2     C 5688   2.149   3.165  12.497 -0.0359  0.4329 -0.0794
  377MPD2    C1 5689   2.228   3.128  12.602  0.2644  0.0450 -0.4225
  377MPD2    C2 5690   2.183   3.060  12.712 -0.2061  0.2795  0.2446
  377MPD2    C3 5691   2.048   3.014  12.712  0.5267  0.2518  0.0327
  377MPD2    C4 5692   1.971   3.043  12.601 -0.6123 -0.3940 -0.3594
  377MPD2    C5 5693   2.020   3.115  12.496  0.0813  0.0139 -0.4734
  377MPD2     H 5694   2.254   3.039  12.790  0.4454  1.4741 -0.0344
  377MPD2    H1 5695   1.870   3.005  12.587 -1.0227  0.6810 -0.2783
  377MPD2    H2 5696   2.192   3.217  12.411  0.6264  1.2159  0.7317
  377MPD2    H3 5697   1.954   3.136  12.413 -0.7469 -0.2159  0.1231
  377MPD2     N 5698   2.004   2.937  12.821  0.1709  0.5247  0.1887
  377MPD2    H5 5699   2.069   2.921  12.897  1.2398  0.0456 -0.8359
  377MPD2    N1 5700   2.357   3.188  12.597  0.5891 -0.2516  0.4003
  377MPD2    H7 5701   2.383   3.255  12.526  1.4457  0.3108  1.2407
  378TMC3    C1 5702   2.634   3.386  12.448  0.1626  0.4067  0.2203
  378TMC3    C2 5703   2.570   3.350  12.558 -0.4774  0.2394  0.1093
  378TMC3    C3 5704   2.592   3.228  12.623  0.2359  0.0500 -0.3521
  378TMC3    C4 5705   2.746   3.318  12.417  0.2156 -0.2562 -0.4176
  378TMC3    C5 5706   2.791   3.218  12.497  0.3426  0.0463  0.1435
  378TMC3    C6 5707   2.714   3.166  12.602  0.4628  0.2742  0.0537
  378TMC3     C 5708   2.540   3.419  12.341 -0.1864 -0.3773  0.2902
  378TMC3     O 5709   2.420   3.409  12.368 -0.1325 -0.3666  0.4075
  378TMC3     H 5710   2.478   3.401  12.584 -0.1154  2.2747 -2.5593
  378TMC3    H1 5711   2.804   3.335  12.327  2.6336  2.1440  1.5651
  378TMC3    H2 5712   2.737   3.075  12.656 -0.4800  0.7529  1.2550
  378TMC3    C7 5713   2.935   3.217  12.519 -0.3464 -0.6624  0.2750
  378TMC3    C8 5714   2.476   3.149  12.672 -0.3260 -0.1670 -0.1910
  378TMC3    O1 5715   2.977   3.205  12.631 -0.0717 -0.5121 -0.6906
  378TMC3    O2 5716   2.488   3.057  12.752  0.3381 -0.7346 -0.4463
  379MPD2     C 5717   2.541   0.840  16.564 -0.2379  0.2518 -0.1610
  379MPD2    C1 5718   2.676   0.869  16.535 -0.4050  0.2629 -0.5171
  379MPD2    C2 5719   2.773   0.850  16.631  0.1067 -0.2941  0.2392
  379MPD2    C3 5720   2.746   0.807  16.760  0.1558 -0.9938 -0.6757
  379MPD2    C4 5721   2.614   0.797  16.797  0.4978  0.3866 -0.1352
  379MPD2    C5 5722   2.518   0.810  16.694 -0.1433  0.3794 -0.0336
  379MPD2     H 5723   2.877   0.870  16.607  0.3304 -2.8158 -0.8889
  379MPD2    H1 5724   2.587   0.764  16.896 -0.0435 -2.4045 -1.2192
  379MPD2    H2 5725   2.460   0.838  16.492  0.8450  1.2335 -1.4038
  379MPD2    H3 5726   2.416   0.787  16.721 -0.3143  0.4983 -0.5916
  379MPD2     N 5727   2.850   0.786  16.860  0.4388 -0.2626 -0.1490
  379MPD2    H5 5728   2.820   0.768  16.955 -4.2583  1.5259 -1.2761
  379MPD2    N1 5729   2.709   0.921  16.401 -0.1225 -0.0600  0.3176
  379MPD2    H7 5730   2.629   0.933  16.340  1.1810 -0.9041 -1.5949
  380TMC3    C1 5731   2.823   1.002  16.219  0.3171  0.2395 -0.4192
  380TMC3    C2 5732   2.922   0.968  16.132  0.2516  0.0890 -0.2027
  380TMC3    C3 5733   2.904   0.981  15.999 -0.7866  0.3544 -0.1449
  380TMC3    C4 5734   2.701   1.047  16.173 -0.2400  0.3105 -0.0217
  380TMC3    C5 5735   2.687   1.057  16.041  0.3613  0.2223  0.0347
  380TMC3    C6 5736   2.783   1.018  15.949  0.3194 -0.0382 -0.0617
  380TMC3     C 5737   2.832   0.940  16.351  0.5315  0.1382 -0.0022
  380TMC3     O 5738   2.943   0.908  16.396 -0.5577  0.0967  0.0385
  380TMC3     H 5739   3.020   0.936  16.168  0.1271 -1.3997 -1.1711
  380TMC3    H1 5740   2.623   1.088  16.237 -0.3384  1.7531 -1.0393
  380TMC3    H2 5741   2.756   1.030  15.844 -0.9134  0.3662  0.2930
  380TMC3    C7 5742   2.564   1.109  15.989  0.6437  0.2459 -0.2675
  380TMC3    C8 5743   3.007   1.030  15.916  0.4774  0.0072  0.3027
  380TMC3    O1 5744   2.534   1.222  16.033  0.1786 -0.1722 -0.5452
  380TMC3    O2 5745   2.975   1.116  15.833  0.3408 -0.1861  0.3818
  381TMC3    C1 5746   3.066   2.016  16.298 -0.6823  0.0471 -0.1946
  381TMC3    C2 5747   3.179   2.079  16.348  0.3044  0.0474  0.0268
  381TMC3    C3 5748   3.170   2.184  16.434 -0.2431 -0.6976  0.1689
  381TMC3    C4 5749   2.943   2.065  16.333 -0.3588  0.0278 -0.2563
  381TMC3    C5 5750   2.931   2.168  16.423 -0.1163 -0.1162  0.2618
  381TMC3    C6 5751   3.044   2.232  16.475 -0.2038 -0.4916 -0.4105
  381TMC3     C 5752   3.065   1.887  16.235  0.8717 -0.0904  0.4046
  381TMC3     O 5753   2.966   1.856  16.173  0.1275  0.0605 -0.4307
  381TMC3     H 5754   3.273   2.034  16.319 -0.3864  0.3225 -2.6848
  381TMC3    H1 5755   2.856   2.011  16.297 -0.3142 -0.7726  0.8432
  381TMC3    H2 5756   3.030   2.326  16.526 -1.4962 -0.4361 -0.8602
  381TMC3    C7 5757   2.795   2.187  16.473 -0.4396  0.8316  0.1288
  381TMC3    C8 5758   3.273   2.276  16.410  0.0828  0.4629  0.1307
  381TMC3    O1 5759   2.705   2.126  16.411 -0.0203 -0.2271 -0.5426
  381TMC3    O2 5760   3.328   2.261  16.303  0.0241 -0.5743 -0.4660
  382MPD2     C 5761   2.217   4.426  17.005  0.3540  0.3177 -0.6569
  382MPD2    C1 5762   2.189   4.413  17.136  1.2466 -0.5097  0.1651
  382MPD2    C2 5763   2.187   4.285  17.191 -0.0693  0.2320  0.1430
  382MPD2    C3 5764   2.203   4.171  17.106 -0.6619 -0.2188  0.4304
  382MPD2    C4 5765   2.225   4.193  16.974  0.2358  0.9895  0.2690
  382MPD2    C5 5766   2.226   4.321  16.920 -0.0943  0.1130 -0.4108
  382MPD2     H 5767   2.162   4.262  17.294  2.1831 -1.7292  0.2750
  382MPD2    H1 5768   2.231   4.112  16.902  1.0889 -0.1976  1.6761
  382MPD2    H2 5769   2.217   4.522  16.954 -1.9619  0.1780 -0.9180
  382MPD2    H3 5770   2.229   4.333  16.812 -1.2775  3.6893 -0.0559
  382MPD2     N 5771   2.196   4.037  17.147  0.4315  0.4289  0.3352
  382MPD2    H5 5772   2.202   3.965  17.075 -0.3135 -1.1952  1.9027
  382MPD2    N1 5773   2.161   4.525  17.220  0.7604 -0.1932  0.4451
  382MPD2    H7 5774   2.143   4.510  17.319 -1.8742  1.4105  0.2066
  383TMC3    C1 5775   2.165   3.845  17.280 -0.3572  0.8855 -0.2520
  383TMC3    C2 5776   2.103   3.771  17.185  0.9883  0.4789  0.5402
  383TMC3    C3 5777   2.074   3.643  17.204 -0.1457 -0.5321 -0.1021
  383TMC3    C4 5778   2.196   3.788  17.406  0.3236  1.1141 -1.1248
  383TMC3    C5 5779   2.177   3.646  17.410 -0.0055 -1.3479 -1.0476
  383TMC3    C6 5780   2.120   3.571  17.309 -0.1066  0.5699  0.6786
  383TMC3     C 5781   2.168   3.991  17.272 -0.8224 -0.5380 -0.3677
  383TMC3     O 5782   2.165   4.057  17.375  0.6933 -0.4038 -0.1726
  383TMC3     H 5783   2.058   3.828  17.104 -0.3936 -2.7208 -0.9410
  383TMC3    H1 5784   2.252   3.840  17.483  0.1648  0.0250 -0.2678
  383TMC3    H2 5785   2.103   3.465  17.323  0.2138  0.2069 -1.6270
  383TMC3    C7 5786   2.235   3.567  17.521  0.4065  0.4304  0.1069
  383TMC3    C8 5787   1.988   3.572  17.107 -0.1886 -0.5264 -0.1761
  383TMC3    O1 5788   2.265   3.452  17.493 -0.3629  0.5423  0.0529
  383TMC3    O2 5789   1.965   3.642  17.012 -0.2218 -0.3217  0.2026
  384MPD2     C 5790   3.241   1.602  11.743  0.3247 -0.1075  0.0129
  384MPD2    C1 5791   3.262   1.553  11.876  0.7238 -0.4576 -0.2220
  384MPD2    C2 5792   3.392   1.548  11.927 -0.0817 -0.3205 -0.6517
  384MPD2    C3 5793   3.502   1.580  11.851 -0.0613  0.2199 -0.6244
  384MPD2    C4 5794   3.477   1.609  11.716 -0.3672  0.1041 -0.0977
  384MPD2    C5 5795   3.349   1.621  11.663  0.3837  0.5101  0.2087
  384MPD2     H 5796   3.400   1.517  12.030  2.2935 -1.9096 -1.2912
  384MPD2    H1 5797   3.558   1.648  11.655 -1.0029 -0.0221 -1.0214
  384MPD2    H2 5798   3.144   1.625  11.701 -0.9948  1.5098  3.9670
  384MPD2    H3 5799   3.325   1.644  11.560 -0.1006 -1.9114 -0.2256
  384MPD2     N 5800   3.638   1.593  11.901 -0.4183  0.1232  0.0608
  384MPD2    H5 5801   3.708   1.625  11.835  0.4647  1.7053  1.7856
  384MPD2    N1 5802   3.154   1.517  11.965 -0.3318 -0.1966 -0.1816
  384MPD2    H7 5803   3.179   1.507  12.063  1.5338 -0.2000 -0.6472
  385TMC3    C1 5804   3.809   1.560  12.054  0.2307  0.4333  0.0006
  385TMC3    C2 5805   3.854   1.471  11.957  0.0013  0.0301  0.6947
  385TMC3    C3 5806   3.910   1.351  11.993  0.3889 -0.4562 -0.1500
  385TMC3    C4 5807   3.827   1.535  12.185 -0.0148  0.1059  0.7530
  385TMC3    C5 5808   3.889   1.418  12.218 -0.6076 -0.6215 -0.9287
  385TMC3    C6 5809   3.930   1.325  12.123 -0.2503  0.5934 -0.8616
  385TMC3     C 5810   3.677   1.591  12.034 -0.2195 -0.2711  0.2662
  385TMC3     O 5811   3.602   1.578  12.130 -0.1245 -0.3789  0.1653
  385TMC3     H 5812   3.865   1.508  11.856 -0.8473  1.0291  0.9783
  385TMC3    H1 5813   3.809   1.604  12.266 -1.7758 -1.1470  1.4183
  385TMC3    H2 5814   3.970   1.229  12.153 -2.7181 -0.0335  0.4932
  385TMC3    C7 5815   3.814   1.332  12.308 -0.4361  0.2899  0.1763
  385TMC3    C8 5816   3.877   1.245  11.895 -0.0761 -0.0482 -0.2224
  385TMC3    O1 5817   3.866   1.239  12.364 -0.5099 -0.2950 -0.3883
  385TMC3    O2 5818   3.797   1.277  11.809  0.4616 -0.1268  0.1572
  386TMC3    C1 5819   3.929   3.618  12.037 -0.2673  0.2105  0.1576
  386TMC3    C2 5820   3.862   3.605  11.918  0.0899  0.2011  0.1165
  386TMC3    C3 5821   3.790   3.716  11.885  0.2470  0.5078 -0.2194
  386TMC3    C4 5822   3.903   3.708  12.140  0.4653  0.0923  0.3939
  386TMC3    C5 5823   3.825   3.814  12.095 -0.3222  0.0031  0.4876
  386TMC3    C6 5824   3.760   3.818  11.972 -0.3789  0.0703  0.2111
  386TMC3     C 5825   4.018   3.508  12.072 -0.9767  0.5570 -0.4672
  386TMC3     O 5826   4.132   3.534  12.101 -0.4112 -0.5536  0.2759
  386TMC3     H 5827   3.898   3.536  11.842 -2.2474 -1.4044  0.4319
  386TMC3    H1 5828   3.957   3.710  12.235  0.8472  3.6928  0.1208
  386TMC3    H2 5829   3.702   3.903  11.937  1.1875  1.1034  0.1073
  386TMC3    C7 5830   3.730   3.853  12.202 -0.3280 -0.1133  0.1262
  386TMC3    C8 5831   3.697   3.697  11.773 -0.0371 -0.5082  0.1533
  386TMC3    O1 5832   3.621   3.890  12.164 -0.0490  0.0868 -0.2566
  386TMC3    O2 5833   3.629   3.794  11.744  0.1287 -0.6073  0.2590
  387MPD2     C 5834   1.281   3.582   9.634 -0.2938  0.3354 -0.3705
  387MPD2    C1 5835   1.237   3.589   9.764  0.1212 -0.3659 -0.3179
  387MPD2    C2 5836   1.153   3.488   9.809  0.3025 -0.6384 -0.3206
  387MPD2    C3 5837   1.114   3.382   9.731 -0.3546 -0.4490 -0.4899
  387MPD2    C4 5838   1.162   3.382   9.601 -0.6501 -0.0357  0.1598
  387MPD2    C5 5839   1.231   3.488   9.548  0.1259 -0.0240 -0.3451
  387MPD2     H 5840   1.123   3.483   9.913 -0.3086 -1.4135 -0.5429
  387MPD2    H1 5841   1.130   3.307   9.529  2.5813 -0.6992 -0.5496
  387MPD2    H2 5842   1.357   3.648   9.594 -0.3625 -0.0725 -1.1795
  387MPD2    H3 5843   1.271   3.474   9.449 -0.0807  1.7493 -0.6768
  387MPD2     N 5844   1.039   3.274   9.788  0.4002  0.0817 -0.2416
  387MPD2    H5 5845   1.030   3.275   9.889  1.3771 -1.1042 -0.1353
  387MPD2    N1 5846   1.287   3.682   9.859 -0.7858 -0.1272 -0.2490
  387MPD2    H7 5847   1.273   3.656   9.956 -2.4212 -0.2822 -0.5328
  388TMC3    C1 5848   1.433   3.814   9.975 -0.3007 -0.5224 -0.3144
  388TMC3    C2 5849   1.463   3.945  10.005 -0.6265 -0.0806  0.2063
  388TMC3    C3 5850   1.497   3.972  10.137  0.3874 -0.5011 -0.8093
  388TMC3    C4 5851   1.427   3.715  10.071  0.1472 -0.1031  0.0031
  388TMC3    C5 5852   1.446   3.750  10.205  0.0173  0.0112  0.4921
  388TMC3    C6 5853   1.486   3.877  10.236  0.0170  0.2873  0.1257
  388TMC3     C 5854   1.375   3.783   9.848  0.1166  0.7563  0.7975
  388TMC3     O 5855   1.410   3.850   9.752  0.1778  0.1706  0.4803
  388TMC3     H 5856   1.468   4.026   9.933  2.1599  1.4137  2.0406
  388TMC3    H1 5857   1.407   3.612  10.042  0.5672  0.2204 -1.4504
  388TMC3    H2 5858   1.513   3.893  10.340 -0.8302  0.7689  0.2720
  388TMC3    C7 5859   1.448   3.638  10.300  0.2153  0.0304  0.6787
  388TMC3    C8 5860   1.565   4.099  10.177  0.6584 -1.2531  0.0459
  388TMC3    O1 5861   1.530   3.655  10.390  0.0991 -0.5731 -0.4649
  388TMC3    O2 5862   1.602   4.172  10.088  0.1380  0.2653 -0.0063
  389MPD2     C 5863   0.666   1.947  11.021  0.0772  0.0488 -0.4892
  389MPD2    C1 5864   0.602   1.861  10.933 -1.3778 -0.5843  0.0099
  389MPD2    C2 5865   0.525   1.755  10.989  0.1665 -0.5157 -0.1387
  389MPD2    C3 5866   0.528   1.733  11.130 -0.1937  0.1416 -0.0324
  389MPD2    C4 5867   0.591   1.820  11.215  0.4216  0.3878 -0.1858
  389MPD2    C5 5868   0.657   1.925  11.160  0.8523 -0.5362  0.1188
  389MPD2     H 5869   0.466   1.687  10.928 -1.0254  1.9091 -1.6990
  389MPD2    H1 5870   0.593   1.805  11.323 -1.1090  0.0279 -0.2156
  389MPD2    H2 5871   0.731   2.027  10.988  1.0157 -0.7372 -0.5686
  389MPD2    H3 5872   0.724   1.981  11.225  0.0461 -0.0588  0.5525
  389MPD2     N 5873   0.474   1.621  11.195  0.2445 -0.8210  0.0368
  389MPD2    H5 5874   0.494   1.615  11.294  1.3955  1.1807 -0.0792
  389MPD2    N1 5875   0.611   1.905  10.800 -0.8809  0.2347  0.3586
  389MPD2    H7 5876   0.650   1.994  10.772  2.0176 -0.4044  2.3573
  390TMC3    C1 5877   0.368   1.418  11.252  0.1769  0.0241 -0.1658
  390TMC3    C2 5878   0.237   1.408  11.249  0.4270 -0.4734  0.7639
  390TMC3    C3 5879   0.162   1.477  11.351  0.4345  0.0696 -0.3880
  390TMC3    C4 5880   0.426   1.454  11.380 -0.7651  0.3946 -0.0257
  390TMC3    C5 5881   0.356   1.500  11.486  0.4121  0.5443 -0.1391
  390TMC3    C6 5882   0.221   1.524  11.466 -1.2476 -0.6735 -0.4117
  390TMC3     C 5883   0.412   1.506  11.146 -0.3597 -0.2929  0.1181
  390TMC3     O 5884   0.373   1.484  11.029  0.6643  0.4854  0.5631
  390TMC3     H 5885   0.189   1.373  11.159 -0.3909 -1.5765  1.6153
  390TMC3    H1 5886   0.534   1.459  11.394 -0.6849 -0.7986 -0.2224
  390TMC3    H2 5887   0.157   1.548  11.551  1.4254  2.3630  0.7403
  390TMC3    C7 5888   0.425   1.588  11.572 -0.0402 -0.5460 -0.0426
  390TMC3    C8 5889   0.024   1.425  11.371 -0.2167 -0.8288  0.6094
  390TMC3    O1 5890   0.494   1.671  11.513  0.0594  0.1807  0.1027
  390TMC3    O2 5891   0.008   1.313  11.323 -0.8105 -0.2106 -0.1229
  391MPD2     C 5892   4.163   3.355  11.205 -0.1910 -0.2258 -0.8281
  391MPD2    C1 5893   4.287   3.383  11.175  0.3632 -0.3787  0.2375
  391MPD2    C2 5894   4.319   3.428  11.045 -0.2846 -0.3415 -0.5479
  391MPD2    C3 5895   4.224   3.426  10.945  0.1830  0.1607  0.0821
  391MPD2    C4 5896   4.092   3.411  10.981 -0.4655 -0.4874 -0.0285
  391MPD2    C5 5897   4.063   3.374  11.110  0.2602 -0.0193  0.1722
  391MPD2     H 5898   4.424   3.433  11.019 -0.8403  2.0817 -2.2812
  391MPD2    H1 5899   4.006   3.427  10.916  0.8358  3.2794 -0.8299
  391MPD2    H2 5900   4.130   3.324  11.304 -0.2697  1.6293 -0.2664
  391MPD2    H3 5901   3.962   3.366  11.149  0.0188 -0.0402 -0.4572
  391MPD2     N 5902   4.269   3.458  10.820  0.6377  1.2078 -0.4680
  391MPD2    H5 5903   4.369   3.468  10.811  1.3032 -2.5030  3.0317
  391MPD2    N1 5904   4.375   3.363  11.277  0.2490  0.0370  0.0890
  391MPD2    H7 5905   4.334   3.337  11.367  0.0606 -0.1610 -0.0551
  392TMC3    C1 5906   4.274   3.524  10.597  0.5683 -0.3001 -0.4573
  392TMC3    C2 5907   4.224   3.513  10.470  0.2482 -0.7893  0.2482
  392TMC3    C3 5908   4.312   3.552  10.368 -0.3723 -0.2316  1.0834
  392TMC3    C4 5909   4.395   3.575  10.628  0.0323  0.2909 -0.3873
  392TMC3    C5 5910   4.468   3.622  10.524 -0.2626  0.0579  0.0655
  392TMC3    C6 5911   4.436   3.614  10.394  0.2546  1.0702 -1.1812
  392TMC3     C 5912   4.194   3.479  10.711 -0.2724  0.6927  0.5203
  392TMC3     O 5913   4.087   3.425  10.686 -0.2485 -0.9393  0.3290
  392TMC3     H 5914   4.130   3.468  10.440 -0.7047  0.3215  1.5778
  392TMC3    H1 5915   4.440   3.598  10.724  0.7424 -3.8565  0.3049
  392TMC3    H2 5916   4.504   3.652  10.319  1.6981 -0.1649 -0.5061
  392TMC3    C7 5917   4.580   3.711  10.566  0.0657 -0.2845  0.5439
  392TMC3    C8 5918   4.260   3.591  10.242 -0.2332 -0.0294  0.1262
  392TMC3    O1 5919   4.640   3.668  10.666  0.5048  0.1662  0.2207
  392TMC3    O2 5920   4.143   3.635  10.243  0.3946  0.6079 -0.7292
  393TMC3    C1 5921   3.547   1.442  10.447 -0.2572 -0.2130  0.4465
  393TMC3    C2 5922   3.433   1.382  10.497  0.0361 -0.4583  0.4106
  393TMC3    C3 5923   3.446   1.254  10.540 -0.0009  0.3813  0.4875
  393TMC3    C4 5924   3.663   1.380  10.423 -0.4400 -0.1433  0.0884
  393TMC3    C5 5925   3.676   1.258  10.489 -0.3645 -0.0492  0.1019
  393TMC3    C6 5926   3.570   1.196  10.551  0.9934 -0.4251 -0.4441
  393TMC3     C 5927   3.528   1.582  10.412 -0.4108  0.3433 -0.9123
  393TMC3     O 5928   3.412   1.623  10.389 -0.2905  0.2433 -0.2673
  393TMC3     H 5929   3.342   1.441  10.494  0.9222  1.1122  3.6884
  393TMC3    H1 5930   3.749   1.433  10.385 -1.8304  0.8801 -1.6464
  393TMC3    H2 5931   3.579   1.089  10.562  2.6185 -0.0608  1.7134
  393TMC3    C7 5932   3.782   1.168  10.440  0.3914  0.6745  0.0093
  393TMC3    C8 5933   3.326   1.175  10.566 -0.3371 -0.5203 -0.3466
  393TMC3    O1 5934   3.799   1.063  10.502 -0.1989 -0.7574 -0.0037
  393TMC3    O2 5935   3.335   1.071  10.632 -0.1775 -0.4037  0.3556
  394TMC3    C1 5936   0.580   1.889  10.566 -0.1142 -0.1436 -0.0310
  394TMC3    C2 5937   0.558   1.810  10.465 -0.3962  0.4599  0.0389
  394TMC3    C3 5938   0.566   1.868  10.341  0.0241  0.7259  0.2261
  394TMC3    C4 5939   0.614   2.028  10.554  0.6011  0.1498 -0.0039
  394TMC3    C5 5940   0.621   2.079  10.432  0.0714  0.0951  0.2727
  394TMC3    C6 5941   0.606   1.997  10.322  0.4761  0.0694 -0.0484
  394TMC3     C 5942   0.550   1.836  10.696  0.0174 -0.5151  0.5267
  394TMC3     O 5943   0.493   1.729  10.692 -0.3452  0.5586 -0.2178
  394TMC3     H 5944   0.540   1.704  10.482  2.8484  0.4102  3.1484
  394TMC3    H1 5945   0.630   2.095  10.637  1.0333  0.9452 -0.7329
  394TMC3    H2 5946   0.633   2.023  10.220 -0.5882 -2.5736 -1.0240
  394TMC3    C7 5947   0.642   2.219  10.416  0.1392  0.2680  0.0781
  394TMC3    C8 5948   0.562   1.785  10.227 -0.4345  0.6183 -0.2640
  394TMC3    O1 5949   0.673   2.283  10.514  0.2550 -0.3537 -0.2960
  394TMC3    O2 5950   0.653   1.798  10.144 -0.9200  0.5607  0.1286
  395TMC3    C1 5951   0.313   3.175  14.813 -0.2655  0.3824 -0.1707
  395TMC3    C2 5952   0.253   3.111  14.706 -0.2681  0.5011 -0.1775
  395TMC3    C3 5953   0.289   3.147  14.581  1.0726 -0.2985  0.0077
  395TMC3    C4 5954   0.426   3.247  14.794  0.7681 -0.6323 -0.1769
  395TMC3    C5 5955   0.473   3.260  14.666  0.7260 -0.4710  1.1475
  395TMC3    C6 5956   0.406   3.215  14.560  0.4600  0.0186  1.0301
  395TMC3     C 5957   0.258   3.159  14.951 -0.0807  0.9567  0.1197
  395TMC3     O 5958   0.344   3.178  15.034  0.7546 -0.2919  0.2264
  395TMC3     H 5959   0.169   3.045  14.728 -0.4879  0.3051 -1.6528
  395TMC3    H1 5960   0.477   3.293  14.878  1.5876 -1.7555 -0.0625
  395TMC3    H2 5961   0.440   3.254  14.464 -0.1460  0.7918  1.1299
  395TMC3    C7 5962   0.563   3.372  14.654  0.0319 -0.7337  0.5213
  395TMC3    C8 5963   0.197   3.134  14.466  0.1037  0.0999 -0.3550
  395TMC3    O1 5964   0.536   3.464  14.726 -0.3106 -0.4711  0.1709
  395TMC3    O2 5965   0.249   3.175  14.362  0.2406 -0.3944  0.6598
  396MPD2     C 5966   0.102   4.038  17.149  0.2783  0.7830  0.7100
  396MPD2    C1 5967   0.233   4.000  17.116  0.3063 -0.0703 -0.0473
  396MPD2    C2 5968   0.320   4.101  17.062  0.4280  0.4184  0.3184
  396MPD2    C3 5969   0.264   4.223  17.019 -0.5050  0.1384  0.0379
  396MPD2    C4 5970   0.133   4.254  17.048  0.3401  0.4059  0.3788
  396MPD2    C5 5971   0.048   4.159  17.096  0.2176 -0.6937  0.0753
  396MPD2     H 5972   0.424   4.077  17.046  0.3585  0.3766 -0.0908
  396MPD2    H1 5973   0.096   4.356  17.038 -0.9514  0.1505  2.3585
  396MPD2    H2 5974   0.031   3.979  17.207  0.2490  1.8117  1.6994
  396MPD2    H3 5975   4.688   4.195  17.116 -0.1551 -1.3615 -0.6111
  396MPD2     N 5976   0.355   4.318  16.962 -0.7352  0.5639 -0.0262
  396MPD2    H5 5977   0.455   4.311  16.974 -0.4664  0.1575 -2.4095
  396MPD2    N1 5978   0.276   3.876  17.163  0.0650  0.1634  0.3305
  396MPD2    H7 5979   0.203   3.823  17.209  0.5977  0.3989  1.4477
  397TMC3    C1 5980   0.414   3.676  17.187  0.5895  0.0225 -0.1822
  397TMC3    C2 5981   0.530   3.623  17.138  0.8899 -0.3838  0.5479
  397TMC3    C3 5982   0.530   3.552  17.020  0.2999  0.4653  0.0495
  397TMC3    C4 5983   0.298   3.610  17.164  0.0911  0.2834  0.4588
  397TMC3    C5 5984   0.298   3.519  17.062 -0.2331 -0.1217  0.5344
  397TMC3    C6 5985   0.411   3.494  16.984  0.3751  0.7159  0.0619
  397TMC3     C 5986   0.406   3.821  17.159 -0.3451  0.2239 -0.3910
  397TMC3     O 5987   0.507   3.877  17.121  0.3682  0.1121  0.2388
  397TMC3     H 5988   0.622   3.678  17.156  0.0339  0.7794  1.3435
  397TMC3    H1 5989   0.222   3.643  17.234 -0.0177 -0.4327  0.6736
  397TMC3    H2 5990   0.416   3.424  16.901 -0.7765  1.5102 -0.6681
  397TMC3    C7 5991   0.202   3.405  17.080 -0.0572 -0.0485  0.4856
  397TMC3    C8 5992   0.603   3.596  16.907 -0.0639 -0.4992  0.0049
  397TMC3    O1 5993   0.237   3.304  17.025  0.3695  0.0408  0.3344
  397TMC3    O2 5994   0.548   3.641  16.807  0.6863 -0.0774 -0.1786
  398MPD2     C 5995   3.137   1.083   0.240  0.4703 -0.0946 -0.3444
  398MPD2    C1 5996   3.119   1.071   0.376  0.0643  0.1756  0.5277
  398MPD2    C2 5997   3.193   1.148   0.468 -0.6910  0.0677 -0.3286
  398MPD2    C3 5998   3.296   1.226   0.419 -0.9797 -0.5314 -0.0428
  398MPD2    C4 5999   3.308   1.240   0.280 -0.1539 -0.2870  0.5050
  398MPD2    C5 6000   3.229   1.172   0.195  0.2179 -0.7566 -0.5784
  398MPD2     H 6001   3.180   1.140   0.575 -2.8119 -2.7936 -0.7981
  398MPD2    H1 6002   3.391   1.303   0.250 -0.9567  1.2933  1.5720
  398MPD2    H2 6003   3.071   1.028   0.175 -0.8689  0.3734  0.6056
  398MPD2    H3 6004   3.230   1.182   0.087 -1.4873 -1.5926 -0.6705
  398MPD2     N 6005   3.381   1.289   0.508 -0.9298  0.0205  0.4309
  398MPD2    H5 6006   3.457   1.339   0.464  1.8512 -2.9288  1.9370
  398MPD2    N1 6007   3.026   0.983   0.442  0.2499 -0.6437 -0.0208
  398MPD2    H7 6008   3.055   0.962   0.536 -0.7968 -0.3869  0.3576
  399TMC3    C1 6009   2.864   0.810   0.465 -0.7289 -0.7174 -0.0915
  399TMC3    C2 6010   2.932   0.788   0.586 -0.2737 -0.0692  0.1704
  399TMC3    C3 6011   2.950   0.661   0.626  0.3655  0.0350  0.1539
  399TMC3    C4 6012   2.805   0.707   0.399 -0.5475 -0.1830 -0.4349
  399TMC3    C5 6013   2.826   0.583   0.443 -0.7688  1.0882 -0.3558
  399TMC3    C6 6014   2.889   0.554   0.567  0.2375 -0.4743  0.0329
  399TMC3     C 6015   2.918   0.921   0.387 -0.1474 -0.0643  0.0009
  399TMC3     O 6016   2.865   0.948   0.281  0.9229 -0.0180  0.0830
  399TMC3     H 6017   2.985   0.859   0.649  1.8027  0.5293 -2.2470
  399TMC3    H1 6018   2.747   0.737   0.312  0.1599  1.3926 -0.3543
  399TMC3    H2 6019   2.895   0.451   0.602  0.3872 -0.1700  0.8944
  399TMC3    C7 6020   2.774   0.465   0.374  0.1679  0.0076  0.5383
  399TMC3    C8 6021   3.077   0.623   0.687 -0.2293 -0.2651 -0.3189
  399TMC3    O1 6022   2.752   0.363   0.437  0.1969  0.3993 -0.1018
  399TMC3    O2 6023   3.110   0.699   0.780  0.1265 -0.4134 -0.0601
  400TMC3    C1 6024   1.975   3.298  16.725  0.3916  0.0311 -0.4391
  400TMC3    C2 6025   1.883   3.215  16.671  0.3490  0.5614  0.9718
  400TMC3    C3 6026   1.789   3.273  16.593  0.2761  0.4910 -1.0889
  400TMC3    C4 6027   1.970   3.437  16.707  0.0713  0.2953 -0.5714
  400TMC3    C5 6028   1.869   3.488  16.623  0.2441 -0.0277 -0.3342
  400TMC3    C6 6029   1.775   3.403  16.572 -0.5920  0.1706  0.5405
  400TMC3     C 6030   2.042   3.248  16.844  0.0932 -0.6639  1.0767
  400TMC3     O 6031   1.994   3.148  16.894  0.3699 -0.1423  0.3445
  400TMC3     H 6032   1.884   3.107  16.686 -2.5924  0.3360 -0.5337
  400TMC3    H1 6033   2.035   3.508  16.757  0.1083 -1.4501  1.8464
  400TMC3    H2 6034   1.690   3.436  16.513  0.0726  0.5436 -0.2021
  400TMC3    C7 6035   1.852   3.630  16.588  0.6281  0.3709 -0.2090
  400TMC3    C8 6036   1.666   3.192  16.585  0.2656  0.2142 -0.5616
  400TMC3    O1 6037   1.805   3.649  16.479 -0.6302  0.3794  0.2134
  400TMC3    O2 6038   1.563   3.256  16.604 -0.3815  0.5861 -0.1222
  401MPD2     C 6039   4.425   2.390   0.379 -0.8460 -0.7355  0.7462
  401MPD2    C1 6040   4.476   2.368   0.500  0.4508 -0.4704 -0.1750
  401MPD2    C2 6041   4.484   2.234   0.543 -0.5954  1.2422  0.3721
  401MPD2    C3 6042   4.423   2.134   0.472  0.2612  0.5122  0.6212
  401MPD2    C4 6043   4.362   2.165   0.357 -0.2653 -0.0415  1.1912
  401MPD2    C5 6044   4.361   2.295   0.305  0.6287 -0.1442  0.8317
  401MPD2     H 6045   4.544   2.212   0.631  0.0658  0.8562 -0.1779
  401MPD2    H1 6046   4.308   2.086   0.306  0.3719 -0.1722  0.7191
  401MPD2    H2 6047   4.411   2.486   0.332  2.5830 -0.9396 -0.6170
  401MPD2    H3 6048   4.324   2.318   0.206 -1.6990 -0.2077  1.6925
  401MPD2     N 6049   4.438   2.005   0.532  0.2543  0.0774  0.2532
  401MPD2    H5 6050   4.492   2.006   0.618 -1.4803  0.7511  1.3333
  401MPD2    N1 6051   4.526   2.461   0.596  0.8361  0.5446 -0.1307
  401MPD2    H7 6052   4.568   2.423   0.680  2.2755 -0.2068 -1.1798
  402TMC3    C1 6053   4.425   1.776   0.550 -0.1589 -0.2557 -0.5808
  402TMC3    C2 6054   4.380   1.785   0.679  0.2375  0.2590 -0.1504
  402TMC3    C3 6055   4.407   1.678   0.763 -0.0500  0.2741  0.0437
  402TMC3    C4 6056   4.474   1.662   0.502 -0.8540 -0.7025 -0.3400
  402TMC3    C5 6057   4.485   1.553   0.586  0.1234  0.5312 -0.5124
  402TMC3    C6 6058   4.468   1.563   0.715  0.2744  0.0068 -0.1373
  402TMC3     C 6059   4.422   1.888   0.459  0.0027  0.2029  0.2182
  402TMC3     O 6060   4.422   1.869   0.334 -0.7297  0.1176 -0.4627
  402TMC3     H 6061   4.340   1.875   0.724  1.9457 -0.2679  2.4101
  402TMC3    H1 6062   4.470   1.645   0.395  2.4546 -1.0472 -0.4034
  402TMC3    H2 6063   4.460   1.472   0.774  1.6375 -0.7985 -1.2068
  402TMC3    C7 6064   4.514   1.420   0.528  0.9470  0.0248  0.2621
  402TMC3    C8 6065   4.444   1.716   0.902 -0.0918 -0.4010  0.5887
  402TMC3    O1 6066   4.426   1.335   0.512  0.0694  0.3168 -0.0689
  402TMC3    O2 6067   4.407   1.824   0.947 -0.4968 -0.2948  0.1640
  403MPD2     C 6068   2.619   1.052  13.209 -0.1143 -0.6910  0.1711
  403MPD2    C1 6069   2.720   0.969  13.258  0.1207  0.9541 -0.0489
  403MPD2    C2 6070   2.771   0.992  13.395  0.3867 -0.5185  0.2352
  403MPD2    C3 6071   2.715   1.089  13.472 -0.5205 -0.5525 -0.4846
  403MPD2    C4 6072   2.611   1.159  13.425  0.6312 -0.0256  0.5394
  403MPD2    C5 6073   2.574   1.149  13.293 -0.4833  0.0758  0.2633
  403MPD2     H 6074   2.848   0.932  13.442  1.1585 -0.0937 -0.4980
  403MPD2    H1 6075   2.566   1.235  13.487 -0.6362 -0.4703  0.1648
  403MPD2    H2 6076   2.587   1.040  13.106  1.3287 -0.7372 -0.2729
  403MPD2    H3 6077   2.495   1.218  13.266 -0.5469 -0.2683 -0.4177
  403MPD2     N 6078   2.754   1.086  13.606 -0.7219 -0.0112  0.0929
  403MPD2    H5 6079   2.835   1.026  13.614  1.2774  2.8826  1.4361
  403MPD2    N1 6080   2.763   0.872  13.169  0.6319 -0.4194  0.4821
  403MPD2    H7 6081   2.700   0.859  13.090 -1.0163  0.0455  1.7287
  404TMC3    C1 6082   2.858   0.672  13.092  0.0044 -0.7619  0.5863
  404TMC3    C2 6083   2.867   0.545  13.138 -0.0115  0.1890  0.0956
  404TMC3    C3 6084   2.821   0.445  13.065  0.4245 -0.7172 -0.2709
  404TMC3    C4 6085   2.806   0.696  12.970 -0.0526 -0.1484  0.4485
  404TMC3    C5 6086   2.769   0.592  12.891  0.0731 -0.2614  0.9548
  404TMC3    C6 6087   2.773   0.465  12.940  0.3069  0.4197 -0.3646
  404TMC3     C 6088   2.853   0.771  13.196 -0.1817 -0.4702  0.0042
  404TMC3     O 6089   2.912   0.748  13.303  0.2895 -0.3110 -0.2470
  404TMC3     H 6090   2.907   0.528  13.237  2.2846 -0.5083 -0.9617
  404TMC3    H1 6091   2.795   0.799  12.938 -1.6320  0.3073  2.4621
  404TMC3    H2 6092   2.725   0.382  12.889  1.9482 -1.2935  0.8923
  404TMC3    C7 6093   2.738   0.622  12.750  0.3412  0.2746 -0.8035
  404TMC3    C8 6094   2.834   0.314  13.123 -0.0240 -0.0217 -0.4634
  404TMC3    O1 6095   2.772   0.736  12.725  0.0441 -0.4572  0.1036
  404TMC3    O2 6096   2.831   0.222  13.045 -0.1973 -0.4128 -0.4370
  405MPD2     C 6097   3.475   2.139  15.418 -0.2222 -0.3152  0.5761
  405MPD2    C1 6098   3.491   2.067  15.300  0.6356  0.3741  0.0972
  405MPD2    C2 6099   3.399   2.067  15.197  0.1084 -0.5395 -0.5474
  405MPD2    C3 6100   3.289   2.145  15.211  0.2994  0.2957  0.1005
  405MPD2    C4 6101   3.261   2.204  15.332  0.3265  0.3537 -0.0556
  405MPD2    C5 6102   3.358   2.212  15.422  0.3237  0.6211  0.6288
  405MPD2     H 6103   3.406   2.009  15.106  0.9972  1.6749 -1.8575
  405MPD2    H1 6104   3.170   2.256  15.356 -0.4821 -0.7273 -0.7488
  405MPD2    H2 6105   3.554   2.144  15.492  0.7849  0.0382 -0.5261
  405MPD2    H3 6106   3.333   2.266  15.512 -0.8841  2.3600 -0.7493
  405MPD2     N 6107   3.192   2.139  15.115  0.2612 -0.3146  0.0336
  405MPD2    H5 6108   3.227   2.098  15.029  2.1162  0.5729  0.3813
  405MPD2    N1 6109   3.603   1.984  15.295  0.5892  0.6180  0.1266
  405MPD2    H7 6110   3.664   1.973  15.376 -0.1226  1.4083  0.7682
  406TMC3    C1 6111   2.793   2.060  14.882  0.2860  0.5663  0.4383
  406TMC3    C2 6112   2.860   1.981  14.795  1.1962  0.7919  0.1212
  406TMC3    C3 6113   2.981   1.940  14.834 -0.5489 -0.6210 -0.2098
  406TMC3    C4 6114   2.857   2.120  14.993  0.6479 -0.0147 -0.7990
  406TMC3    C5 6115   2.987   2.083  15.019  0.2380  0.1628  0.9241
  406TMC3    C6 6116   3.055   1.989  14.948  0.4074  0.3340 -0.1538
  406TMC3     C 6117   2.672   2.120  14.835 -0.2589  0.2265 -0.0863
  406TMC3     O 6118   2.673   2.197  14.739 -0.4003  0.1870 -0.1921
  406TMC3     H 6119   2.814   1.954  14.700  0.4980 -0.9594  0.9568
  406TMC3    H1 6120   2.803   2.194  15.051 -0.4383 -1.8857  0.5622
  406TMC3    H2 6121   3.141   1.935  14.987  1.1190  0.3379 -1.7106
  406TMC3    C7 6122   3.057   2.150  15.128 -0.1909 -0.2208 -0.0085
  406TMC3    C8 6123   3.034   1.817  14.774  0.8756 -0.3167 -0.6460
  406TMC3    O1 6124   2.993   2.180  15.227  0.0583 -0.2171  0.4902
  406TMC3    O2 6125   2.957   1.743  14.718  0.4412  0.1454  0.7284
  407MPD2     C 6126   0.238   3.160   9.837 -0.3610  0.4081 -0.5387
  407MPD2    C1 6127   0.365   3.220   9.832 -0.1523 -0.4102  0.3323
  407MPD2    C2 6128   0.392   3.320   9.923 -0.1797 -0.2195  0.4909
  407MPD2    C3 6129   0.294   3.363  10.016 -0.4813 -0.0242  0.2132
  407MPD2    C4 6130   0.170   3.307  10.010 -0.1198 -0.1493  0.1340
  407MPD2    C5 6131   0.145   3.208   9.923  0.1209 -0.4677 -0.2802
  407MPD2     H 6132   0.486   3.368   9.897  0.0014 -1.5789 -1.3125
  407MPD2    H1 6133   0.091   3.338  10.078  1.1372  1.9109  0.6775
  407MPD2    H2 6134   0.208   3.081   9.769  0.2501  0.3752 -0.7641
  407MPD2    H3 6135   0.046   3.162   9.930  0.0856 -0.0436  2.0091
  407MPD2     N 6136   0.321   3.454  10.121 -0.0005 -0.1004  0.1374
  407MPD2    H5 6137   0.236   3.485  10.169  0.0497 -0.0645  0.2037
  407MPD2    N1 6138   0.464   3.192   9.740  0.0074 -0.3064  0.2633
  407MPD2    H7 6139   0.546   3.250   9.733  0.4251 -0.7778  1.2644
  408TMC3    C1 6140   0.596   3.076   9.582 -0.1338 -0.0642  0.1561
  408TMC3    C2 6141   0.619   2.947   9.532 -0.5683  0.6540 -0.1112
  408TMC3    C3 6142   0.725   2.934   9.453 -0.1978 -0.3903  0.0144
  408TMC3    C4 6143   0.662   3.191   9.534  0.8268  0.8137 -0.0922
  408TMC3    C5 6144   0.745   3.162   9.427 -0.1638 -0.0160 -0.3679
  408TMC3    C6 6145   0.791   3.038   9.394  0.0776 -0.2869 -0.1974
  408TMC3     C 6146   0.466   3.090   9.648  0.0362  0.2022 -0.4880
  408TMC3     O 6147   0.393   2.996   9.656 -0.4651  0.1178  0.2156
  408TMC3     H 6148   0.566   2.857   9.560 -0.5790  0.5749 -0.3805
  408TMC3    H1 6149   0.642   3.289   9.577  1.7830  1.0424 -0.1521
  408TMC3    H2 6150   0.874   3.013   9.329  2.0892  2.4496  1.2754
  408TMC3    C7 6151   0.830   3.274   9.385  0.6576  1.0286 -0.1029
  408TMC3    C8 6152   0.788   2.804   9.447  0.2801  1.4479  0.3704
  408TMC3    O1 6153   0.817   3.376   9.452  0.1628 -0.1002 -0.6638
  408TMC3    O2 6154   0.716   2.713   9.472  0.2780  0.2099 -1.1540
  409MPD2     C 6155   0.867   2.985  16.512 -0.1072  0.4993  0.0577
  409MPD2    C1 6156   0.925   3.013  16.637 -0.3470 -0.0353  0.1510
  409MPD2    C2 6157   1.029   3.107  16.640 -0.3957  0.1128 -0.4771
  409MPD2    C3 6158   1.071   3.182  16.534 -0.0761  0.1423 -0.6529
  409MPD2    C4 6159   1.007   3.151  16.416 -0.9131  0.2093 -0.0899
  409MPD2    C5 6160   0.907   3.051  16.400  0.2604  0.2224 -0.2429
  409MPD2     H 6161   1.072   3.135  16.736 -3.7061 -1.8820  1.5769
  409MPD2    H1 6162   1.024   3.208  16.325  1.3194  0.9085  0.7707
  409MPD2    H2 6163   0.787   2.911  16.512 -1.6489  2.1522  0.3154
  409MPD2    H3 6164   0.848   3.030  16.311 -2.2961 -2.6060  2.1007
  409MPD2     N 6165   1.174   3.275  16.554 -0.0226  0.1875  0.3505
  409MPD2    H5 6166   1.205   3.277  16.651 -0.5523  0.6460  0.5089
  409MPD2    N1 6167   0.886   2.948  16.755 -0.1688 -0.2851 -0.4786
  409MPD2    H7 6168   0.935   2.978  16.839 -0.3810  0.2062 -0.5352
  410TMC3    C1 6169   1.272   3.491  16.527 -0.5339 -1.0274 -0.3539
  410TMC3    C2 6170   1.353   3.475  16.642  0.2667  0.6255 -0.3463
  410TMC3    C3 6171   1.461   3.556  16.664  0.4509  0.1950 -0.7511
  410TMC3    C4 6172   1.307   3.598  16.449 -0.3842  0.5177 -0.0319
  410TMC3    C5 6173   1.413   3.674  16.478  0.3929 -0.4927  0.9044
  410TMC3    C6 6174   1.497   3.663  16.581 -0.4113 -0.1268 -0.1598
  410TMC3     C 6175   1.208   3.378  16.462 -0.1017 -0.0223  0.3577
  410TMC3     O 6176   1.190   3.383  16.337  0.8053  0.1984  1.0446
  410TMC3     H 6177   1.331   3.399  16.716 -0.7261 -0.7698 -2.0922
  410TMC3    H1 6178   1.231   3.618  16.375  1.0078  1.4903 -1.1852
  410TMC3    H2 6179   1.591   3.715  16.593  0.1518 -0.8338 -1.5709
  410TMC3    C7 6180   1.425   3.800  16.402 -0.2615 -0.5150 -0.4789
  410TMC3    C8 6181   1.528   3.552  16.795  0.3047  0.5686  0.0455
  410TMC3    O1 6182   1.327   3.868  16.378 -0.0995  0.3787 -0.1471
  410TMC3    O2 6183   1.588   3.649  16.840 -0.4049 -0.0566  0.0320
  411MPD2     C 6184   1.230   4.339  14.504 -0.0033  0.0573  0.6877
  411MPD2    C1 6185   1.144   4.342  14.605 -0.3012 -0.0453  0.5683
  411MPD2    C2 6186   1.052   4.243  14.610 -0.0113  1.1757  0.1136
  411MPD2    C3 6187   1.064   4.130  14.538  0.0791  0.0629  0.3713
  411MPD2    C4 6188   1.180   4.113  14.469  0.2630  0.5703  0.3091
  411MPD2    C5 6189   1.255   4.220  14.446  0.0057  0.0416  0.4347
  411MPD2     H 6190   0.970   4.259  14.679  0.8015 -3.3022  2.0979
  411MPD2    H1 6191   1.180   4.034  14.394  0.1598  0.0494  0.8562
  411MPD2    H2 6192   1.296   4.422  14.482  1.3349 -1.5298 -1.4068
  411MPD2    H3 6193   1.341   4.222  14.379 -0.2715  0.0017  0.0741
  411MPD2     N 6194   0.958   4.035  14.525  1.1384  0.7248  0.4991
  411MPD2    H5 6195   0.975   3.957  14.463 -0.6247  1.3363 -0.7505
  411MPD2    N1 6196   1.136   4.460  14.675  0.4949  0.5732  0.3639
  411MPD2    H7 6197   1.204   4.532  14.657  1.4779 -0.0938  1.4104
  412TMC3    C1 6198   0.735   3.963  14.536 -0.1830  1.0303 -0.3861
  412TMC3    C2 6199   0.605   3.981  14.581  0.2333  0.6294 -0.1073
  412TMC3    C3 6200   0.503   3.896  14.546 -0.0712 -0.5898 -0.1472
  412TMC3    C4 6201   0.760   3.872  14.439 -1.1767 -0.2128 -0.3349
  412TMC3    C5 6202   0.657   3.804  14.382 -0.2145  0.3255  0.3501
  412TMC3    C6 6203   0.535   3.819  14.436 -0.1946  0.3016  0.0228
  412TMC3     C 6204   0.836   4.045  14.592 -1.1592 -0.5304 -0.7948
  412TMC3     O 6205   0.804   4.106  14.690  0.2089 -0.1855 -0.2819
  412TMC3     H 6206   0.580   4.059  14.652  2.0653  0.8669  0.2974
  412TMC3    H1 6207   0.857   3.846  14.398 -1.6184 -2.8643  0.2863
  412TMC3    H2 6208   0.456   3.754  14.398  0.9195  0.1766 -2.1041
  412TMC3    C7 6209   0.645   3.811  14.236  0.2031 -0.3050  0.5860
  412TMC3    C8 6210   0.375   3.958  14.525  0.1429 -0.3055 -0.3248
  412TMC3    O1 6211   0.738   3.769  14.174  0.3447  0.3262  0.3917
  412TMC3    O2 6212   0.390   4.059  14.452 -0.1081 -0.2830 -0.1487
  413MPD2     C 6213   1.923   2.233  15.779 -0.2280 -0.1242 -0.0364
  413MPD2    C1 6214   1.929   2.292  15.655 -0.1051  0.3734  0.2026
  413MPD2    C2 6215   2.051   2.339  15.604  0.5019 -0.3397  0.1078
  413MPD2    C3 6216   2.166   2.324  15.672 -0.1623 -0.2523 -0.4607
  413MPD2    C4 6217   2.160   2.270  15.799 -0.3446  0.3792 -0.7520
  413MPD2    C5 6218   2.043   2.225  15.844 -0.0289 -0.1271 -0.4782
  413MPD2     H 6219   2.054   2.392  15.510  3.1688 -1.4250 -0.4274
  413MPD2    H1 6220   2.249   2.253  15.859 -0.5156 -1.4083 -1.0302
  413MPD2    H2 6221   1.833   2.186  15.817  1.2065 -1.5974  1.5103
  413MPD2    H3 6222   2.041   2.174  15.940  1.4725  1.4161  0.3678
  413MPD2     N 6223   2.282   2.372  15.606 -0.3314  0.9530 -0.2994
  413MPD2    H5 6224   2.271   2.395  15.507 -0.0142 -0.6270 -0.7003
  413MPD2    N1 6225   1.803   2.299  15.588  0.2396  0.1041 -0.0322
  413MPD2    H7 6226   1.718   2.250  15.613  1.9256 -1.3882  2.8559
  414TMC3    C1 6227   2.509   2.371  15.569 -0.7112  0.4683  0.8050
  414TMC3    C2 6228   2.632   2.329  15.626 -0.4205  0.2875 -0.4861
  414TMC3    C3 6229   2.738   2.291  15.545  0.7161 -0.0293  0.4405
  414TMC3    C4 6230   2.501   2.392  15.429 -0.7347  0.9757 -0.8408
  414TMC3    C5 6231   2.614   2.362  15.358 -0.0566  0.1678 -0.0001
  414TMC3    C6 6232   2.727   2.304  15.407 -0.3771  0.1212 -0.5551
  414TMC3     C 6233   2.404   2.373  15.662  0.2580 -0.6587 -0.8688
  414TMC3     O 6234   2.431   2.375  15.783  0.3245 -0.1121  0.2169
  414TMC3     H 6235   2.630   2.295  15.729 -3.4270  1.5812 -0.1395
  414TMC3    H1 6236   2.418   2.439  15.378  0.2478  2.1271 -1.3929
  414TMC3    H2 6237   2.800   2.255  15.344 -1.6751 -1.9053 -0.4637
  414TMC3    C7 6238   2.635   2.429  15.232  0.0714 -0.3377 -0.0958
  414TMC3    C8 6239   2.839   2.198  15.596 -0.7400  0.0178 -0.1172
  414TMC3    O1 6240   2.534   2.461  15.172  0.0078  0.1777 -0.6995
  414TMC3    O2 6241   2.851   2.098  15.524 -0.1194 -0.1336  0.0413
  415TMC3    C1 6242   2.799   0.622  10.377 -0.1015  0.2334 -0.1619
  415TMC3    C2 6243   2.763   0.742  10.321  0.3554  0.0849 -0.5230
  415TMC3    C3 6244   2.681   0.744  10.211  0.2151  0.1424 -0.7561
  415TMC3    C4 6245   2.711   0.520  10.353 -0.4518  0.7253  0.1411
  415TMC3    C5 6246   2.609   0.537  10.265 -0.0295  0.3095  0.0002
  415TMC3    C6 6247   2.599   0.643  10.185  0.2127  0.5165  0.4401
  415TMC3     C 6248   2.879   0.614  10.501  0.3806  0.9230  0.2385
  415TMC3     O 6249   2.855   0.520  10.571  0.4288 -0.4096  0.8131
  415TMC3     H 6250   2.820   0.827  10.354  1.3072 -1.6612  2.3290
  415TMC3    H1 6251   2.736   0.425  10.400 -0.3515  0.0590 -1.2773
  415TMC3    H2 6252   2.534   0.647  10.098  0.0922  1.8919  0.6025
  415TMC3    C7 6253   2.532   0.419  10.222  0.1509 -0.6251 -0.3314
  415TMC3    C8 6254   2.654   0.880  10.150  0.0039  0.4170 -1.1224
  415TMC3    O1 6255   2.497   0.414  10.106 -0.5087 -0.4853 -0.0125
  415TMC3    O2 6256   2.535   0.900  10.135  0.1463  0.1187 -0.7019
  416MPD2     C 6257   4.574   4.262  11.799  0.4186 -0.5133  0.1555
  416MPD2    C1 6258   4.498   4.337  11.710 -0.2059  0.1975 -0.2794
  416MPD2    C2 6259   4.454   4.273  11.597  0.1035  0.0282 -0.0479
  416MPD2    C3 6260   4.495   4.145  11.573  0.4262  0.3163  0.2211
  416MPD2    C4 6261   4.577   4.072  11.657 -0.1014  0.2710  0.6180
  416MPD2    C5 6262   4.622   4.139  11.766 -0.2480 -0.5834  0.0352
  416MPD2     H 6263   4.390   4.327  11.528 -0.4461  0.7245  1.0098
  416MPD2    H1 6264   4.622   3.977  11.633 -2.3248 -1.2646  2.5779
  416MPD2    H2 6265   4.607   4.302  11.894  1.8889  3.1573 -1.8726
  416MPD2    H3 6266   4.699   4.095  11.829 -1.4106 -1.8805  0.5572
  416MPD2     N 6267   4.475   4.077  11.452  0.5613  0.7226 -0.1955
  416MPD2    H5 6268   4.501   3.979  11.455 -0.8726  0.3010 -1.3220
  416MPD2    N1 6269   4.463   4.470  11.756 -0.1974 -0.1862  0.3645
  416MPD2    H7 6270   4.526   4.501  11.829  2.0092 -1.1869 -1.1202
  417TMC3    C1 6271   4.343   4.663  11.804  0.0275  0.1747 -0.2047
  417TMC3    C2 6272   4.376   4.649  11.938 -0.8512  0.6590  0.0403
  417TMC3    C3 6273   4.332   0.002  12.026 -0.1952  0.4547 -0.0123
  417TMC3    C4 6274   4.260   0.013  11.754 -0.4555  0.2522  0.7098
  417TMC3    C5 6275   4.217   0.110  11.848 -0.5433  1.6332 -0.7060
  417TMC3    C6 6276   4.254   0.105  11.981  0.8506 -0.1504 -0.0967
  417TMC3     C 6277   4.364   4.552  11.715 -0.5106  0.2256 -0.9906
  417TMC3     O 6278   4.292   4.542  11.611 -0.2635 -0.0838 -0.2800
  417TMC3     H 6279   4.439   4.566  11.967 -0.0009  2.1785  2.5637
  417TMC3    H1 6280   4.240   0.022  11.648  1.3675 -0.0048  0.3477
  417TMC3    H2 6281   4.211   0.178  12.049 -0.4521  0.6503 -1.7777
  417TMC3    C7 6282   4.143   0.215  11.783  0.7717 -0.0077  0.0983
  417TMC3    C8 6283   4.340   4.723  12.170  0.2349  0.0010 -0.0802
  417TMC3    O1 6284   4.176   0.234  11.668  0.3586 -0.1458  0.1118
  417TMC3    O2 6285   4.358   0.083  12.238  0.0887 -0.1995 -0.1865
  418TMC3    C1 6286   3.760   1.215   0.628  0.0033 -0.5509  0.7492
  418TMC3    C2 6287   3.640   1.275   0.592 -0.1144 -0.3013 -0.2019
  418TMC3    C3 6288   3.538   1.268   0.682 -0.9342 -0.4619 -0.1494
  418TMC3    C4 6289   3.776   1.150   0.749  0.0047  0.0559  0.3087
  418TMC3    C5 6290   3.677   1.159   0.841  0.4917 -0.4740  0.6203
  418TMC3    C6 6291   3.557   1.211   0.806  0.2880 -0.1927 -0.4856
  418TMC3     C 6292   3.859   1.200   0.513 -0.1931  0.1942 -0.6583
  418TMC3     O 6293   3.863   1.285   0.427 -0.2084 -0.0712  0.3044
  418TMC3     H 6294   3.630   1.317   0.492 -2.1962 -2.2487 -0.8186
  418TMC3    H1 6295   3.866   1.094   0.770 -0.1632 -0.2114  0.3151
  418TMC3    H2 6296   3.477   1.203   0.879  2.0211  1.3655  1.5904
  418TMC3    C7 6297   3.687   1.079   0.965 -0.0755 -0.5915  0.3314
  418TMC3    C8 6298   3.401   1.261   0.640  0.3350 -0.3682  0.2506
  418TMC3    O1 6299   3.783   1.005   0.964  0.5323 -0.3685  0.0007
  418TMC3    O2 6300   3.332   1.190   0.715 -0.0390 -0.4233 -0.6946
  419MPD2     C 6301   1.960   4.026  12.232  0.2057  0.1751 -0.0322
  419MPD2    C1 6302   1.907   4.146  12.196 -0.7371 -0.4477 -1.0828
  419MPD2    C2 6303   1.875   4.240  12.298 -0.3197  0.1754  0.5121
  419MPD2    C3 6304   1.907   4.206  12.425 -0.5256  0.5319 -0.4109
  419MPD2    C4 6305   1.961   4.088  12.456  0.4188 -0.3548  0.8529
  419MPD2    C5 6306   1.988   4.002  12.362  0.7707 -0.1796 -0.2079
  419MPD2     H 6307   1.854   4.342  12.268 -0.6774  0.3185  1.2709
  419MPD2    H1 6308   1.973   4.049  12.556  1.7893 -0.0259  0.8115
  419MPD2    H2 6309   1.984   3.949  12.160 -1.5669  2.2588 -2.8946
  419MPD2    H3 6310   2.012   3.899  12.383 -0.9513 -0.9838 -2.1837
  419MPD2     N 6311   1.874   4.309  12.524 -0.0704 -0.3688  0.5103
  419MPD2    H5 6312   1.853   4.401  12.487  0.0240  0.5128  2.6382
  419MPD2    N1 6313   1.884   4.183  12.063  0.3443  0.7951 -0.3293
  419MPD2    H7 6314   1.832   4.268  12.046  0.4710  1.5223  2.9152
  420TMC3    C1 6315   1.832   4.406  12.734 -0.9049  0.0744 -0.4589
  420TMC3    C2 6316   1.813   4.528  12.675  0.0417 -0.7561 -0.0632
  420TMC3    C3 6317   1.766   4.625  12.758  0.1412  0.0278 -0.3036
  420TMC3    C4 6318   1.795   4.383  12.861 -0.2799  0.5901 -0.6291
  420TMC3    C5 6319   1.749   4.484  12.933  0.5286  0.3150 -0.7947
  420TMC3    C6 6320   1.742   4.613  12.890 -0.3088 -0.1703  0.1554
  420TMC3     C 6321   1.870   4.288  12.664  0.1294 -0.2213  0.1191
  420TMC3     O 6322   1.888   4.188  12.730 -0.2042 -0.2227 -0.1512
  420TMC3     H 6323   1.838   4.551  12.572  1.4932 -0.1797  0.4169
  420TMC3    H1 6324   1.788   4.284  12.905 -3.6263  1.4735  0.8163
  420TMC3    H2 6325   1.713   4.697  12.953  1.8738 -1.2407  2.6088
  420TMC3    C7 6326   1.730   4.445  13.071 -0.5321 -0.1462 -0.5638
  420TMC3    C8 6327   1.738   0.015  12.705 -0.5647  0.3922 -0.2786
  420TMC3    O1 6328   1.797   4.356  13.122  0.0754 -0.7289 -0.3162
  420TMC3    O2 6329   1.802   0.043  12.607 -0.5947 -0.1410 -0.3039
  421TMC3    C1 6330   2.793   1.141  13.826  0.1304 -0.0459 -0.0761
  421TMC3    C2 6331   2.784   1.239  13.922  0.6657 -0.0427  0.3037
  421TMC3    C3 6332   2.850   1.217  14.039  0.0826  0.0522 -0.0280
  421TMC3    C4 6333   2.877   1.035  13.833  0.0911 -0.5953  0.5958
  421TMC3    C5 6334   2.952   1.024  13.947 -1.0196 -0.2784  0.0392
  421TMC3    C6 6335   2.936   1.111  14.050 -0.2323  0.0331 -0.0229
  421TMC3     C 6336   2.718   1.172  13.708 -0.6861 -0.2689 -0.0605
  421TMC3     O 6337   2.666   1.282  13.690 -0.0975  0.7570  0.4617
  421TMC3     H 6338   2.710   1.318  13.911  1.2305  0.1955 -1.7207
  421TMC3    H1 6339   2.867   0.947  13.771  0.7580 -0.5486  0.4201
  421TMC3    H2 6340   3.001   1.114  14.136  1.5701  1.8002 -1.4523
  421TMC3    C7 6341   3.051   0.917  13.968  0.0779 -0.1995 -0.0388
  421TMC3    C8 6342   2.864   1.325  14.132  0.7784  0.8676  0.2010
  421TMC3    O1 6343   3.110   0.923  14.076  0.0111 -0.2604  0.2915
  421TMC3    O2 6344   2.971   1.324  14.189  0.3079  0.0256 -0.1758
  422TMC3    C1 6345   0.516   2.695  12.992 -0.7062  0.1894  0.3525
  422TMC3    C2 6346   0.481   2.830  13.008  0.0051 -0.0861 -0.2126
  422TMC3    C3 6347   0.347   2.852  13.017  0.3160 -0.2801  0.1435
  422TMC3    C4 6348   0.417   2.595  13.000  0.4068 -0.0832 -0.4894
  422TMC3    C5 6349   0.284   2.632  13.014  0.0525 -0.2998 -0.1281
  422TMC3    C6 6350   0.243   2.763  13.017  0.4369 -0.4522 -0.3466
  422TMC3     C 6351   0.626   2.666  12.905 -0.6130  0.4845 -0.0270
  422TMC3     O 6352   0.677   2.757  12.844 -0.1828  0.2826  0.1692
  422TMC3     H 6353   0.556   2.904  12.984  0.1948 -0.0012  0.6418
  422TMC3    H1 6354   0.430   2.492  12.970  1.4361 -0.9131  2.8423
  422TMC3    H2 6355   0.140   2.789  13.038  0.5769 -0.7656  0.7598
  422TMC3    C7 6356   0.179   2.530  13.001 -0.7034 -0.0289 -0.5271
  422TMC3    C8 6357   0.324   2.992  12.978  0.4572 -0.4613  0.0591
  422TMC3    O1 6358   0.195   2.426  13.061 -0.2355 -0.1546 -0.0236
  422TMC3    O2 6359   0.423   3.061  12.978 -0.0878 -0.7797 -0.3731
  423MPD2     C 6360   2.097   2.972   0.634  0.4052  0.7006  0.3285
  423MPD2    C1 6361   2.232   3.012   0.623  0.6929 -0.7383 -0.1859
  423MPD2    C2 6362   2.305   2.966   0.517  0.1355  0.1466 -0.4035
  423MPD2    C3 6363   2.245   2.879   0.420 -0.3789 -0.1647 -0.0402
  423MPD2    C4 6364   2.117   2.836   0.431 -0.4497 -0.3838  0.5358
  423MPD2    C5 6365   2.047   2.892   0.537 -0.9534 -0.2711  0.4289
  423MPD2     H 6366   2.412   2.984   0.510 -0.0701  1.2518 -0.7615
  423MPD2    H1 6367   2.074   2.769   0.358  1.1858 -1.9670  1.0280
  423MPD2    H2 6368   2.024   2.992   0.712 -0.1737 -1.0339  0.2136
  423MPD2    H3 6369   1.941   2.871   0.544 -1.2115  1.2234  0.9834
  423MPD2     N 6370   2.311   2.821   0.317  0.7227 -0.8116  0.5493
  423MPD2    H5 6371   2.266   2.746   0.264  2.4394 -0.3909 -1.5154
  423MPD2    N1 6372   2.301   3.085   0.717 -0.2339  0.9826  0.3225
  423MPD2    H7 6373   2.398   3.112   0.702  0.0578 -1.2478 -1.7305
  424TMC3    C1 6374   2.345   3.184   0.928  0.3154  0.0146  0.0102
  424TMC3    C2 6375   2.479   3.174   0.911 -0.3058 -0.3048  0.1864
  424TMC3    C3 6376   2.562   3.222   1.013 -0.3022  0.2341 -0.2476
  424TMC3    C4 6377   2.293   3.259   1.031  0.1126  0.0382 -0.5268
  424TMC3    C5 6378   2.373   3.332   1.116  0.1181  0.0152  0.5717
  424TMC3    C6 6379   2.514   3.300   1.116 -0.1005  0.2126  0.3859
  424TMC3     C 6380   2.245   3.121   0.838 -0.7071 -0.4806  0.0505
  424TMC3     O 6381   2.129   3.110   0.869  0.4015  0.6348  0.2443
  424TMC3     H 6382   2.519   3.112   0.831 -1.6706 -1.9726  0.7958
  424TMC3    H1 6383   2.186   3.253   1.046  0.3773 -0.3283  1.2683
  424TMC3    H2 6384   2.579   3.327   1.198 -0.7844  2.0434  0.3344
  424TMC3    C7 6385   2.326   3.411   1.233 -0.2077 -0.0992 -0.0648
  424TMC3    C8 6386   2.651   3.107   1.056  0.4009 -0.4841  0.2827
  424TMC3    O1 6387   2.407   3.440   1.316 -0.2829 -0.9105 -0.3646
  424TMC3    O2 6388   2.632   3.002   0.993 -1.0822  0.3575  0.5519
  425MPD2     C 6389   1.473   2.114  17.390  0.3332 -0.8102 -0.1257
  425MPD2    C1 6390   1.404   2.003  17.433  0.4152 -0.5612 -0.7302
  425MPD2    C2 6391   1.274   2.008  17.470  0.1705  0.2207  0.3483
  425MPD2    C3 6392   1.212   2.134  17.472  0.0426 -0.0766 -0.1653
  425MPD2    C4 6393   1.287   2.246  17.436 -0.3183 -0.0838 -1.0214
  425MPD2    C5 6394   1.417   2.237  17.402  0.6192  0.0570  0.4000
  425MPD2     H 6395   1.221   1.917  17.496  1.7225 -0.8785 -0.2995
  425MPD2    H1 6396   1.245   2.346  17.430  2.0487  0.9924  0.6920
  425MPD2    H2 6397   1.577   2.101  17.363  0.6384  1.4595  0.0194
  425MPD2    H3 6398   1.479   2.326  17.398 -0.6432  1.0197  1.9619
  425MPD2     N 6399   1.074   2.135  17.508 -0.5917  0.1335 -0.0147
  425MPD2    H5 6400   1.035   2.042  17.512  0.2419 -0.1821  0.7793
  425MPD2    N1 6401   1.471   1.882  17.413 -0.4561 -0.5793 -0.7036
  425MPD2    H7 6402   1.558   1.884  17.361  0.4550  2.3656  0.9381
  426TMC3    C1 6403   1.503   1.646  17.412  0.2868  0.3490 -0.6454
  426TMC3    C2 6404   1.523   1.644  17.276  0.6230  0.1546 -0.2984
  426TMC3    C3 6405   1.504   1.522  17.215  0.8922  0.5038  0.1635
  426TMC3    C4 6406   1.471   1.530  17.481 -0.3305  0.1734 -0.6399
  426TMC3    C5 6407   1.464   1.408  17.420  0.0545 -0.4494  0.6826
  426TMC3    C6 6408   1.476   1.407  17.283  0.6155 -0.2830  0.0899
  426TMC3     C 6409   1.432   1.764  17.459  0.7593 -0.1917 -0.2587
  426TMC3     O 6410   1.343   1.753  17.539 -0.6565 -0.6600 -0.0458
  426TMC3     H 6411   1.538   1.730  17.213 -1.5865  3.0475  3.1363
  426TMC3    H1 6412   1.435   1.542  17.582 -1.6596 -0.3835 -1.0526
  426TMC3    H2 6413   1.460   1.311  17.236  1.1084 -0.4074  0.1775
  426TMC3    C7 6414   1.404   1.292  17.488 -0.7835  0.3908  0.1651
  426TMC3    C8 6415   1.447   1.521  17.083 -0.3797  0.4122 -0.1599
  426TMC3    O1 6416   1.414   1.182  17.434  0.3317 -0.8124 -0.6239
  426TMC3    O2 6417   1.525   1.532  16.990 -0.2024 -0.1001 -0.0730
  427MPD2     C 6418   0.177   4.449  14.981  0.1871 -0.7488  0.1354
  427MPD2    C1 6419   0.130   4.344  15.062 -0.0315  0.0135 -0.0797
  427MPD2    C2 6420   4.735   4.314  15.066  0.0102  0.3062  0.1314
  427MPD2    C3 6421   4.645   4.394  14.994  0.2022  0.1331 -0.2378
  427MPD2    C4 6422   4.692   4.503  14.925 -0.3039  0.4028  0.6935
  427MPD2    C5 6423   0.087   4.530  14.915  0.0927  0.1089 -0.1673
  427MPD2     H 6424   4.714   4.230  15.132 -0.0593 -0.6535 -1.1226
  427MPD2    H1 6425   4.624   4.560  14.862 -1.4588  0.0961  1.6767
  427MPD2    H2 6426   0.282   4.474  14.968 -0.2465  0.9758  0.0098
  427MPD2    H3 6427   0.122   4.617  14.861 -2.6717  0.9441 -0.6193
  427MPD2     N 6428   4.507   4.363  14.990  0.1768 -0.3190 -0.3491
  427MPD2    H5 6429   4.453   4.431  14.937 -0.4703 -0.7941 -0.3038
  427MPD2    N1 6430   0.218   4.264  15.150 -0.5932  0.4859  0.2505
  427MPD2    H7 6431   0.178   4.200  15.218 -1.3587 -1.3500 -1.9625
  428TMC3    C1 6432   0.423   4.206  15.252  0.0674 -0.6373 -0.4682
  428TMC3    C2 6433   0.368   4.107  15.328  0.3814 -0.1051 -0.2359
  428TMC3    C3 6434   0.440   4.061  15.433 -0.1241 -0.0228  0.2958
  428TMC3    C4 6435   0.561   4.234  15.263  0.0231  0.3574  0.2193
  428TMC3    C5 6436   0.631   4.167  15.357  0.2250  0.1596  0.3639
  428TMC3    C6 6437   0.574   4.082  15.444 -0.5813  0.0894 -0.3796
  428TMC3     C 6438   0.356   4.278  15.153  0.4310 -0.3401  0.5510
  428TMC3     O 6439   0.423   4.344  15.078 -0.0606 -0.3738  0.3950
  428TMC3     H 6440   0.264   4.076  15.327  0.2738  0.3593 -1.9334
  428TMC3    H1 6441   0.612   4.304  15.198 -0.1096  0.0842 -0.1767
  428TMC3    H2 6442   0.648   4.036  15.509 -1.4336 -1.6507 -0.6690
  428TMC3    C7 6443   0.751   4.231  15.408  0.0561 -0.1683  0.6188
  428TMC3    C8 6444   0.379   3.966  15.530  0.5868 -0.6275 -0.6006
  428TMC3    O1 6445   0.772   4.231  15.526  0.0155 -0.2186 -0.3067
  428TMC3    O2 6446   0.266   3.918  15.513 -0.3607 -0.2970  0.4712
  429MPD2     C 6447   1.106   4.023  17.247  0.0140 -0.2209 -0.2934
  429MPD2    C1 6448   1.205   3.970  17.322 -0.2375  0.2027  0.2164
  429MPD2    C2 6449   1.315   4.048  17.352  0.0936 -0.4182  0.3470
  429MPD2    C3 6450   1.332   4.174  17.286 -0.4877 -0.1561 -0.2862
  429MPD2    C4 6451   1.234   4.222  17.205  0.3644 -0.3120 -0.5043
  429MPD2    C5 6452   1.119   4.150  17.196 -0.3519  0.2287  0.6343
  429MPD2     H 6453   1.392   4.004  17.414 -0.5966 -3.0506 -0.6671
  429MPD2    H1 6454   1.237   4.316  17.150 -0.6843  0.0813  0.1099
  429MPD2    H2 6455   1.018   3.965  17.220  0.9728 -2.8944  2.3122
  429MPD2    H3 6456   1.037   4.182  17.133  1.3415  1.4803 -0.9547
  429MPD2     N 6457   1.462   4.232  17.291 -1.3028  0.0681  0.3394
  429MPD2    H5 6458   1.527   4.176  17.345  0.7947  1.5089 -0.7098
  429MPD2    N1 6459   1.206   3.839  17.382 -0.0822 -0.4435  0.0035
  429MPD2    H7 6460   1.283   3.816  17.445 -1.9596 -0.5722  2.2375
  430TMC3    C1 6461   1.652   4.351  17.226 -0.8925 -0.6230  0.3507
  430TMC3    C2 6462   1.696   4.463  17.156 -0.5898 -0.1696  0.1843
  430TMC3    C3 6463   1.805   4.449  17.082  0.2889  0.0918  0.1865
  430TMC3    C4 6464   1.721   4.234  17.224  0.0195  0.5084 -0.7760
  430TMC3    C5 6465   1.835   4.224  17.150  0.7262  0.4299 -0.0666
  430TMC3    C6 6466   1.877   4.333  17.084 -0.2765  0.0861 -0.1927
  430TMC3     C 6467   1.505   4.348  17.240 -0.6457  0.3095 -0.0953
  430TMC3     O 6468   1.442   4.437  17.192  0.0250  0.2531 -0.2366
  430TMC3     H 6469   1.636   4.549  17.132  0.8055  1.1913  1.5915
  430TMC3    H1 6470   1.700   4.143  17.279 -0.8319  0.1631 -1.6693
  430TMC3    H2 6471   1.961   4.314  17.018 -1.3390 -2.3252 -0.8472
  430TMC3    C7 6472   1.840   4.105  17.069  0.2075 -0.2132 -0.4531
  430TMC3    C8 6473   1.824   4.530  16.963  0.1814  0.3781 -0.8503
  430TMC3    O1 6474   1.858   3.997  17.118 -0.2593 -0.5536 -0.1836
  430TMC3    O2 6475   1.860   4.461  16.868 -0.6049 -0.2160 -0.0865
  431MPD2     C 6476   1.658   4.582  12.353  0.3197 -0.2703  0.4906
  431MPD2    C1 6477   1.773   4.625  12.286 -0.4547  0.8541  0.9521
  431MPD2    C2 6478   1.796   4.585  12.159  0.3172 -0.2917  0.2347
  431MPD2    C3 6479   1.702   4.512  12.091  0.5887  0.2817  0.3885
  431MPD2    C4 6480   1.591   4.465  12.158 -0.2566 -0.1301  0.0539
  431MPD2    C5 6481   1.570   4.494  12.289 -0.9379  0.1978  0.0332
  431MPD2     H 6482   1.877   4.624  12.098  0.5282 -0.1513  0.6076
  431MPD2    H1 6483   1.506   4.415  12.114  0.2858 -0.5859 -0.4588
  431MPD2    H2 6484   1.637   4.597  12.458 -0.8701 -1.0611  0.3682
  431MPD2    H3 6485   1.475   4.465  12.333 -1.6828  0.0271 -1.6515
  431MPD2     N 6486   1.714   4.465  11.956  0.3701 -0.2929  0.0604
  431MPD2    H5 6487   1.644   4.398  11.927 -0.7165  0.1908  1.5892
  431MPD2    N1 6488   1.856   4.717  12.356  1.3179  0.6990  0.2267
  431MPD2    H7 6489   1.820   0.025  12.437 -2.2518  1.4883 -1.8184
  432TMC3    C1 6490   1.837   4.402  11.765  0.6491  0.1893  0.1028
  432TMC3    C2 6491   1.950   4.437  11.700 -0.5092 -0.2286 -0.1089
  432TMC3    C3 6492   2.053   4.348  11.701  0.5869 -0.0502 -0.9333
  432TMC3    C4 6493   1.831   4.283  11.831 -0.0221 -0.6079 -0.4802
  432TMC3    C5 6494   1.935   4.198  11.828 -0.2373  0.1099  0.5134
  432TMC3    C6 6495   2.052   4.231  11.763 -0.7726 -0.4730 -0.4889
  432TMC3     C 6496   1.813   4.500  11.868 -0.3482  0.5806  0.9337
  432TMC3     O 6497   1.900   4.587  11.876  0.2623 -0.3576 -0.0301
  432TMC3     H 6498   1.975   4.538  11.670  1.1493 -0.6963 -0.2771
  432TMC3    H1 6499   1.740   4.242  11.874 -0.6433 -0.5979 -1.7976
  432TMC3    H2 6500   2.129   4.159  11.736  2.1405  2.4242  0.1115
  432TMC3    C7 6501   1.962   4.139  11.958  0.5458  0.7583 -0.4401
  432TMC3    C8 6502   2.183   4.396  11.658 -0.7179  0.2048 -0.6398
  432TMC3    O1 6503   2.062   4.075  11.962  0.0069 -0.4134 -0.6000
  432TMC3    O2 6504   2.194   4.462  11.554  0.1015  0.1135 -0.0513
  433MPD2     C 6505   0.491   3.498  10.800 -0.1798 -0.4186 -0.3806
  433MPD2    C1 6506   0.534   3.402  10.885 -0.3672  0.1505 -0.1313
  433MPD2    C2 6507   0.610   3.447  10.998  0.5011  0.7525 -0.4573
  433MPD2    C3 6508   0.655   3.577  11.009 -0.2624 -0.1238 -0.3443
  433MPD2    C4 6509   0.604   3.670  10.922  0.2145 -0.4123 -0.0717
  433MPD2    C5 6510   0.524   3.629  10.817 -0.0627 -0.4590  0.8922
  433MPD2     H 6511   0.663   3.378  11.063 -0.7338 -0.9492 -1.2286
  433MPD2    H1 6512   0.635   3.774  10.918  2.2710 -0.9769  1.2425
  433MPD2    H2 6513   0.440   3.464  10.710 -0.3067 -0.8639 -0.1437
  433MPD2    H3 6514   0.490   3.698  10.740  1.6576 -1.6619 -0.9378
  433MPD2     N 6515   0.730   3.606  11.121  0.0880  1.0717 -0.3774
  433MPD2    H5 6516   0.748   3.523  11.176  0.2221  1.4435  0.1317
  433MPD2    N1 6517   0.500   3.265  10.857  0.5320 -0.4473 -0.0085
  433MPD2    H7 6518   0.470   3.238  10.763 -0.2031 -1.9969  0.6640
  434TMC3    C1 6519   0.549   3.035  10.875  0.2589 -0.0483  0.3503
  434TMC3    C2 6520   0.639   2.949  10.928  0.0022  1.1993 -0.5572
  434TMC3    C3 6521   0.672   2.826  10.875  0.1778  0.1218  0.1996
  434TMC3    C4 6522   0.503   3.009  10.747 -0.3344  0.2509  0.4476
  434TMC3    C5 6523   0.536   2.891  10.686  0.2375  0.5373 -0.4326
  434TMC3    C6 6524   0.625   2.799  10.748 -0.8326  0.0383 -0.5396
  434TMC3     C 6525   0.535   3.161  10.941  0.2093 -0.1622 -0.0696
  434TMC3     O 6526   0.558   3.165  11.063  0.3882  0.1739  1.2121
  434TMC3     H 6527   0.659   2.959  11.034 -1.3197 -3.0214  0.0777
  434TMC3    H1 6528   0.425   3.067  10.700 -1.0345  0.0071  1.3061
  434TMC3    H2 6529   0.654   2.708  10.697 -0.5350 -0.5203  0.6170
  434TMC3    C7 6530   0.463   2.849  10.565 -0.4919 -0.1008 -0.6759
  434TMC3    C8 6531   0.797   2.766  10.935 -0.2006 -0.3021  0.1394
  434TMC3    O1 6532   0.413   2.940  10.504  0.4952  0.3512 -0.6539
  434TMC3    O2 6533   0.841   2.827  11.029 -0.0506  0.4717  0.1943
  435MPD2     C 6534   3.363   3.217  15.564 -0.6723  0.5990  0.3142
  435MPD2    C1 6535   3.287   3.162  15.668  0.7317  0.2315 -0.3630
  435MPD2    C2 6536   3.344   3.066  15.751  0.6024  0.8231 -0.2833
  435MPD2    C3 6537   3.478   3.032  15.750 -0.6180 -0.2948  0.0456
  435MPD2    C4 6538   3.553   3.096  15.655 -0.7321  0.4038  1.3376
  435MPD2    C5 6539   3.496   3.179  15.562  0.4481  0.2412 -0.3274
  435MPD2     H 6540   3.282   3.013  15.823 -0.6719 -0.8350 -2.6144
  435MPD2    H1 6541   3.661   3.090  15.656 -0.6294  2.3000  1.4964
  435MPD2    H2 6542   3.315   3.262  15.478 -2.2446 -0.0564  0.8499
  435MPD2    H3 6543   3.569   3.211  15.489  1.2542 -0.8964 -0.0312
  435MPD2     N 6544   3.530   2.941  15.844 -0.5609  0.4426 -0.3327
  435MPD2    H5 6545   3.465   2.902  15.911 -0.2026  1.1543  0.4351
  435MPD2    N1 6546   3.153   3.198  15.689  0.2154  0.0673  0.8999
  435MPD2    H7 6547   3.083   3.141  15.734 -1.4771  0.4804 -1.2046
  436TMC3    C1 6548   2.751   3.324  15.668 -0.4169 -0.5867 -0.1718
  436TMC3    C2 6549   2.882   3.278  15.689 -0.0307 -0.0622  0.5308
  436TMC3    C3 6550   2.987   3.364  15.653 -0.5266  0.8286 -1.1117
  436TMC3    C4 6551   2.718   3.452  15.624 -0.2705  0.0493  0.2282
  436TMC3    C5 6552   2.827   3.533  15.598  0.0267 -0.3199  0.1408
  436TMC3    C6 6553   2.959   3.497  15.606 -0.5406  0.5313 -0.2558
  436TMC3     C 6554   2.655   3.260  15.762  0.8525 -0.2677 -0.3129
  436TMC3     O 6555   2.576   3.331  15.820  0.2251  0.0826 -0.0553
  436TMC3     H 6556   2.906   3.186  15.740  2.4492  2.2552  3.5042
  436TMC3    H1 6557   2.619   3.495  15.630 -0.5226 -0.9032  2.8805
  436TMC3    H2 6558   3.040   3.568  15.596  2.1757 -2.8133 -2.1026
  436TMC3    C7 6559   2.798   3.673  15.572  0.7297 -0.1092 -0.1204
  436TMC3    C8 6560   3.127   3.331  15.651  0.0636 -0.0587  0.1371
  436TMC3    O1 6561   2.883   3.759  15.605  0.0259 -0.0389  0.1333
  436TMC3    O2 6562   3.197   3.419  15.604 -0.0037  0.1688 -0.0762
  437TMC3    C1 6563   1.521   0.399  13.136  0.7334  0.4012  0.1158
  437TMC3    C2 6564   1.432   0.426  13.235  0.0902  0.5803  0.5644
  437TMC3    C3 6565   1.329   0.511  13.209 -0.4594  0.1112 -0.3043
  437TMC3    C4 6566   1.523   0.477  13.027  0.0379  0.1210 -0.5620
  437TMC3    C5 6567   1.436   0.581  13.017  0.5877 -0.1362 -0.1898
  437TMC3    C6 6568   1.333   0.599  13.107  0.1513 -0.4723 -0.4338
  437TMC3     C 6569   1.645   0.331  13.160  0.3229  0.6360  0.8065
  437TMC3     O 6570   1.713   0.315  13.059 -0.4468  0.1523 -0.3952
  437TMC3     H 6571   1.422   0.375  13.330  0.7090 -1.2189 -0.3178
  437TMC3    H1 6572   1.585   0.443  12.945  2.2578 -0.5721  1.3877
  437TMC3    H2 6573   1.248   0.661  13.082  0.5828 -0.2210 -1.2816
  437TMC3    C7 6574   1.451   0.673  12.911 -0.6273  0.1599  0.8279
  437TMC3    C8 6575   1.207   0.488  13.272 -0.2485 -0.5217  0.7802
  437TMC3    O1 6576   1.358   0.750  12.891  0.1718  0.5060  0.1781
  437TMC3    O2 6577   1.205   0.478  13.392 -0.3896  0.8689  0.4524
  438MPD2     C 6578   3.834   0.518  16.773 -0.1680  0.4797  0.0941
  438MPD2    C1 6579   3.953   0.484  16.839  0.4241  0.3889 -0.3158
  438MPD2    C2 6580   3.964   0.536  16.965  0.8937 -0.4741  0.1187
  438MPD2    C3 6581   3.876   0.615  17.026 -0.5377  0.1342  0.1742
  438MPD2    C4 6582   3.759   0.648  16.958 -0.0351 -0.0150 -0.0549
  438MPD2    C5 6583   3.740   0.602  16.830  0.4750  0.1256 -0.2581
  438MPD2     H 6584   4.061   0.525  17.012  0.6842  1.6154  1.0103
  438MPD2    H1 6585   3.681   0.706  17.005 -1.2491 -2.5446  1.0556
  438MPD2    H2 6586   3.807   0.478  16.676 -1.3313  0.2179  0.5310
  438MPD2    H3 6587   3.646   0.623  16.779  0.0191  1.7055  1.2374
  438MPD2     N 6588   3.899   0.658  17.157 -0.6622 -0.4541  0.2228
  438MPD2    H5 6589   3.822   0.701  17.208 -2.0161 -0.0213 -2.1875
  438MPD2    N1 6590   4.060   0.417  16.776  0.4546  0.6223  0.2335
  438MPD2    H7 6591   4.142   0.410  16.836  0.5048  2.3728  0.3424
  439TMC3    C1 6592   4.220   0.347  16.619 -0.1843  0.3637  0.6018
  439TMC3    C2 6593   4.282   0.397  16.501 -0.0145  0.0588 -0.2562
  439TMC3    C3 6594   4.416   0.364  16.481 -0.2132 -0.6692  0.3327
  439TMC3    C4 6595   4.287   0.279  16.715 -0.2765  0.3690  0.0872
  439TMC3    C5 6596   4.424   0.246  16.687  0.3280 -0.5075 -0.1145
  439TMC3    C6 6597   4.485   0.291  16.572  0.2407  0.1644 -0.2906
  439TMC3     C 6598   4.082   0.386  16.644  0.2952  0.1203  0.2524
  439TMC3     O 6599   4.014   0.428  16.549 -0.1333 -0.2332  0.3375
  439TMC3     H 6600   4.220   0.460  16.438 -0.2080  0.1994  0.0749
  439TMC3    H1 6601   4.251   0.240  16.810  0.4606 -1.6278 -0.4521
  439TMC3    H2 6602   4.592   0.286  16.555  0.3494 -0.1551  0.4937
  439TMC3    C7 6603   4.507   0.182  16.781 -0.9906 -0.2961 -0.6011
  439TMC3    C8 6604   4.472   0.387  16.350  0.3833 -0.3761  0.3789
  439TMC3    O1 6605   4.618   0.229  16.801 -0.1887  0.3780  0.9807
  439TMC3    O2 6606   4.592   0.356  16.343 -0.4268 -0.6020 -0.1588
  440MPD2     C 6607   2.839   1.720  15.113 -0.5986 -0.1094 -0.0323
  440MPD2    C1 6608   2.866   1.806  15.221  0.2961 -0.2477  0.9182
  440MPD2    C2 6609   2.986   1.802  15.285 -0.0351 -0.2111 -0.3734
  440MPD2    C3 6610   3.093   1.720  15.243 -0.0226  0.4313  0.0700
  440MPD2    C4 6611   3.068   1.640  15.137 -0.6002 -0.3087 -0.6365
  440MPD2    C5 6612   2.941   1.638  15.075 -1.0305  0.0645  0.3202
  440MPD2     H 6613   3.008   1.874  15.363  2.5013  0.0201 -1.3053
  440MPD2    H1 6614   3.148   1.574  15.104  0.5988  1.1860 -0.7223
  440MPD2    H2 6615   2.739   1.709  15.075 -0.5292  3.3604 -1.2259
  440MPD2    H3 6616   2.913   1.560  15.005 -1.1732 -0.1099  0.5715
  440MPD2     N 6617   3.221   1.712  15.313  0.2532  0.2731 -0.3495
  440MPD2    H5 6618   3.288   1.652  15.265 -0.7755 -0.5558 -0.7778
  440MPD2    N1 6619   2.767   1.886  15.289 -0.1082 -0.4190  0.1843
  440MPD2    H7 6620   2.787   1.933  15.377  1.6781  1.4413 -1.2146
  441TMC3    C1 6621   3.364   1.722  15.500 -0.2511  0.0723 -0.3187
  441TMC3    C2 6622   3.415   1.810  15.588 -0.1303  0.2321  0.1403
  441TMC3    C3 6623   3.433   1.764  15.715 -0.0838  0.5074 -0.2485
  441TMC3    C4 6624   3.347   1.589  15.529 -0.0980  0.4024  0.2266
  441TMC3    C5 6625   3.355   1.558  15.659 -0.2542 -0.6543  0.1566
  441TMC3    C6 6626   3.402   1.634  15.757  0.3441 -0.5385 -0.3425
  441TMC3     C 6627   3.254   1.783  15.431  0.4470  0.0576 -1.0831
  441TMC3     O 6628   3.200   1.877  15.486 -0.1303  0.4801 -0.3314
  441TMC3     H 6629   3.441   1.910  15.557  0.7593  0.9822  3.2477
  441TMC3    H1 6630   3.295   1.519  15.465  1.6887 -1.6774  1.0603
  441TMC3    H2 6631   3.400   1.615  15.864 -4.1001  0.7756 -0.1591
  441TMC3    C7 6632   3.304   1.431  15.697 -0.5868 -0.5376  0.3941
  441TMC3    C8 6633   3.371   1.863  15.811  0.4184 -0.0850  0.5505
  441TMC3    O1 6634   3.206   1.380  15.641  0.5541  0.3613  0.1976
  441TMC3    O2 6635   3.379   1.839  15.932 -0.0086  0.4586  0.6308
  442MPD2     C 6636   0.793   1.718  16.197  0.5838  0.3048 -0.2762
  442MPD2    C1 6637   0.761   1.623  16.299  0.8718 -0.7450  0.0289
  442MPD2    C2 6638   0.753   1.493  16.258  0.0338  0.2835  0.1206
  442MPD2    C3 6639   0.757   1.457  16.128  0.2100  0.1797 -0.1097
  442MPD2    C4 6640   0.788   1.549  16.032  0.3240 -0.7308 -0.1525
  442MPD2    C5 6641   0.817   1.678  16.071  0.2750  0.6106  0.3263
  442MPD2     H 6642   0.729   1.423  16.337 -1.6413  2.9825  2.0064
  442MPD2    H1 6643   0.797   1.523  15.927 -1.5436 -0.9475 -0.2542
  442MPD2    H2 6644   0.824   1.816  16.231 -0.4999 -0.6093  3.3320
  442MPD2    H3 6645   0.856   1.746  15.996 -0.5664 -0.8900 -1.4770
  442MPD2     N 6646   0.737   1.325  16.086 -0.0589  0.3982 -0.0958
  442MPD2    H5 6647   0.747   1.309  15.986 -1.7607 -0.9581 -0.0551
  442MPD2    N1 6648   0.733   1.655  16.435  0.1197 -0.6649  0.1299
  442MPD2    H7 6649   0.698   1.583  16.496  0.1704  1.0502  2.2072
  443TMC3    C1 6650   0.731   1.783  16.638  0.1050 -0.5485  0.0625
  443TMC3    C2 6651   0.693   1.897  16.705  0.3823  0.1244 -0.2017
  443TMC3    C3 6652   0.623   1.883  16.825  0.4055  0.1585  0.0886
  443TMC3    C4 6653   0.710   1.657  16.690  0.5900 -0.2514 -0.3579
  443TMC3    C5 6654   0.647   1.652  16.818 -0.0049  0.1298 -0.2752
  443TMC3    C6 6655   0.591   1.762  16.873 -0.1938 -0.7720 -0.4805
  443TMC3     C 6656   0.740   1.784  16.493  0.6343 -0.2399  0.0471
  443TMC3     O 6657   0.768   1.888  16.440 -0.0407 -1.1325 -0.2379
  443TMC3     H 6658   0.729   1.996  16.680  2.2041 -0.7048 -0.8634
  443TMC3    H1 6659   0.754   1.564  16.656  0.2437 -0.3721 -0.4741
  443TMC3    H2 6660   0.519   1.745  16.952 -0.0817 -0.4608 -0.3101
  443TMC3    C7 6661   0.636   1.518  16.877 -0.2653  0.5010 -0.3876
  443TMC3    C8 6662   0.567   1.990  16.903  0.3772  0.0681  0.4111
  443TMC3    O1 6663   0.651   1.417  16.810 -0.2548  0.3510 -0.0247
  443TMC3    O2 6664   0.556   1.967  17.027 -0.1389 -0.1827  0.6307
  444MPD2     C 6665   1.201   1.104  17.027  0.1450  0.4751 -0.1356
  444MPD2    C1 6666   1.080   1.055  16.975 -0.9687  0.1064  0.3200
  444MPD2    C2 6667   1.084   1.003  16.845 -0.4302  0.2279 -0.5867
  444MPD2    C3 6668   1.199   1.000  16.767  0.0424  1.0708 -0.6139
  444MPD2    C4 6669   1.312   1.060  16.822  0.4586 -1.0671 -0.2014
  444MPD2    C5 6670   1.313   1.117  16.953  0.7858 -0.1491  0.1122
  444MPD2     H 6671   0.994   0.958  16.806 -0.6106  0.2006 -0.1304
  444MPD2    H1 6672   1.403   1.058  16.763 -0.1084  1.2383 -1.1485
  444MPD2    H2 6673   1.188   1.159  17.120 -0.2091 -0.3489  0.3117
  444MPD2    H3 6674   1.398   1.166  17.000  0.7191 -2.6627  2.8090
  444MPD2     N 6675   1.198   0.927  16.650 -0.5828  0.1217 -0.3827
  444MPD2    H5 6676   1.105   0.906  16.617 -0.8231 -0.8480  0.8987
  444MPD2    N1 6677   0.952   1.041  17.048  0.0461  0.4553  0.3772
  444MPD2    H7 6678   0.871   1.010  16.996 -0.9776  1.0524  1.6452
  445TMC3    C1 6679   1.269   0.810  16.457  0.2187 -0.3022 -0.6874
  445TMC3    C2 6680   1.195   0.703  16.483 -0.0220 -0.5489  0.3788
  445TMC3    C3 6681   1.219   0.584  16.428  0.4484 -0.3383 -0.2230
  445TMC3    C4 6682   1.377   0.798  16.375 -0.2719  0.6788 -0.0258
  445TMC3    C5 6683   1.399   0.681  16.308 -0.4270  0.1412  0.0600
  445TMC3    C6 6684   1.319   0.570  16.334 -0.3500  0.0204 -0.4422
  445TMC3     C 6685   1.306   0.885  16.579 -1.0175  0.2408 -0.6169
  445TMC3     O 6686   1.422   0.909  16.597  0.0715  0.1295 -0.2704
  445TMC3     H 6687   1.105   0.721  16.540 -0.7940  1.0391 -1.3407
  445TMC3    H1 6688   1.447   0.878  16.356  0.3938 -0.1340 -0.9683
  445TMC3    H2 6689   1.315   0.483  16.270  2.0802 -0.3353 -0.1424
  445TMC3    C7 6690   1.519   0.675  16.223  0.2149  0.0109 -0.1654
  445TMC3    C8 6691   1.160   0.465  16.482 -0.0572 -0.1509 -0.2924
  445TMC3    O1 6692   1.597   0.765  16.217  0.1461 -0.8762 -0.3499
  445TMC3    O2 6693   1.052   0.476  16.536  0.2343 -0.0005 -0.3339
  446MPD2     C 6694   0.456   2.750  11.466  0.4466  0.2557 -0.3685
  446MPD2    C1 6695   0.428   2.807  11.340 -0.9613  0.0618  0.1958
  446MPD2    C2 6696   0.515   2.893  11.280  0.3207  0.1427  0.6079
  446MPD2    C3 6697   0.628   2.939  11.348 -0.2582 -0.5941  0.6434
  446MPD2    C4 6698   0.647   2.890  11.472 -0.0373  0.6439  0.0546
  446MPD2    C5 6699   0.564   2.797  11.531  0.1736 -0.1426 -0.8270
  446MPD2     H 6700   0.500   2.925  11.177  0.4739 -0.9131  0.2619
  446MPD2    H1 6701   0.721   2.936  11.537  1.1168  0.0680 -0.8387
  446MPD2    H2 6702   0.394   2.680  11.522  0.5130  2.2881  2.2606
  446MPD2    H3 6703   0.581   2.765  11.634 -0.8929 -0.7595 -0.8372
  446MPD2     N 6704   0.723   3.028  11.279  0.5192 -0.3643 -0.5179
  446MPD2    H5 6705   0.697   3.054  11.184 -0.1254  0.8760 -0.0009
  446MPD2    N1 6706   0.324   2.762  11.261 -0.6073 -0.1004  0.3267
  446MPD2    H7 6707   0.312   2.818  11.177  0.3440 -0.0524  0.2264
  447TMC3    C1 6708   0.938   3.085  11.196 -0.1898 -0.7245 -0.0455
  447TMC3    C2 6709   0.873   3.154  11.102  0.5382 -0.2458 -0.2506
  447TMC3    C3 6710   0.936   3.151  10.980 -0.4521  0.0203 -0.5419
  447TMC3    C4 6711   1.061   3.028  11.194  0.8302  0.4698  0.6988
  447TMC3    C5 6712   1.119   3.027  11.074 -0.3376  0.0363 -0.0625
  447TMC3    C6 6713   1.056   3.084  10.964  0.2453  0.0861 -0.1314
  447TMC3     C 6714   0.854   3.047  11.311 -0.3349 -0.0329 -0.2124
  447TMC3     O 6715   0.914   3.001  11.409 -0.0274  0.0531 -0.5077
  447TMC3     H 6716   0.788   3.215  11.130  1.2679  0.3065  0.7904
  447TMC3    H1 6717   1.107   2.990  11.284  1.1412 -0.4890  0.1356
  447TMC3    H2 6718   1.098   3.083  10.864  1.1879  2.4429  0.2379
  447TMC3    C7 6719   1.223   2.933  11.055  0.0210 -0.0565  0.0580
  447TMC3    C8 6720   0.902   3.236  10.874 -0.1465  0.4644 -0.4342
  447TMC3    O1 6721   1.314   2.931  11.135  0.1790  0.5020 -0.3470
  447TMC3    O2 6722   0.816   3.197  10.793 -0.1860 -0.5945  0.0879
  448TMC3    C1 6723   0.003   1.329  17.733 -1.2452  0.0938  0.2682
  448TMC3    C2 6724   0.015   1.306  17.599  0.9508  0.0578 -0.1223
  448TMC3    C3 6725   0.045   1.175  17.559 -0.8788 -0.4280  0.3933
  448TMC3    C4 6726   0.001   1.227   0.067 -0.5767 -0.3194 -0.7051
  448TMC3    C5 6727   0.022   1.095   0.027  0.1796  0.0089 -0.5524
  448TMC3    C6 6728   0.055   1.073  17.655 -0.3930 -0.0966 -0.0785
  448TMC3     C 6729   4.719   1.465   0.037 -0.0091 -0.7553  0.4028
  448TMC3     O 6730   4.682   1.473   0.153  0.2501 -1.3982 -0.5606
  448TMC3     H 6731   4.724   1.382  17.529 -1.6271 -0.6389  0.2841
  448TMC3    H1 6732   4.732   1.256   0.171  0.4446 -0.2827 -0.6257
  448TMC3    H2 6733   0.053   0.968  17.626  0.9889  0.2087 -1.2912
  448TMC3    C7 6734   4.711   0.990   0.107  0.6677  0.4242 -0.1766
  448TMC3    C8 6735   0.053   1.132  17.422  0.4896  0.3343 -0.1277
  448TMC3    O1 6736   0.010   0.877   0.079 -0.2181  0.6792 -0.5336
  448TMC3    O2 6737   0.057   1.007  17.406 -0.0332 -0.3868  0.2240
  449MPD2     C 6738   0.432   1.090  13.935  0.4213 -0.1716  0.2409
  449MPD2    C1 6739   0.299   1.129  13.927 -0.3507  0.2536  0.3907
  449MPD2    C2 6740   0.201   1.040  13.898 -0.8756  0.5601 -0.9030
  449MPD2    C3 6741   0.232   0.908  13.871 -0.5123  0.2015  0.2087
  449MPD2    C4 6742   0.358   0.862  13.889 -0.1580  0.0062 -0.2948
  449MPD2    C5 6743   0.457   0.952  13.927  0.0810 -0.0089 -0.2684
  449MPD2     H 6744   0.097   1.065  13.889 -0.3629  2.5609 -1.1765
  449MPD2    H1 6745   0.390   0.761  13.869 -1.2541  0.1978 -2.9413
  449MPD2    H2 6746   0.513   1.152  13.972 -0.2174  1.9255 -1.8997
  449MPD2    H3 6747   0.556   0.919  13.954 -0.0348 -1.6565 -1.7775
  449MPD2     N 6748   0.124   0.822  13.853  0.0348  0.0874  0.2840
  449MPD2    H5 6749   0.037   0.867  13.881 -0.3579 -0.0179 -0.7658
  449MPD2    N1 6750   0.262   1.267  13.943  0.4432  0.0325 -0.6486
  449MPD2    H7 6751   0.163   1.285  13.930  0.3802  1.0054  1.3180
  450TMC3    C1 6752   0.280   1.508  13.922  0.9591  0.2950  0.6633
  450TMC3    C2 6753   0.324   1.564  13.805 -0.1324  0.4184  0.1927
  450TMC3    C3 6754   0.231   1.591  13.705  0.0367 -0.0666  0.5205
  450TMC3    C4 6755   0.147   1.503  13.953  0.1012  0.4292  0.2133
  450TMC3    C5 6756   0.053   1.521  13.850  0.3043  0.5918 -0.2769
  450TMC3    C6 6757   0.099   1.566  13.725  0.1184  0.0021 -0.2599
  450TMC3     C 6758   0.345   1.374  13.927  0.0603 -0.8371 -0.1378
  450TMC3     O 6759   0.464   1.376  13.896  0.1801  0.3420  0.1040
  450TMC3     H 6760   0.426   1.592  13.784  0.2536 -1.5491 -0.6368
  450TMC3    H1 6761   0.126   1.455  14.048 -1.7342  1.0275  0.0993
  450TMC3    H2 6762   0.028   1.595  13.648 -0.1695  1.7291  0.6475
  450TMC3    C7 6763   4.700   1.413  13.850 -0.5568 -0.0366 -0.9279
  450TMC3    C8 6764   0.272   1.635  13.574 -0.0488  0.1773  0.2053
  450TMC3    O1 6765   4.724   1.328  13.936 -0.3949 -0.4721  0.1898
  450TMC3    O2 6766   0.182   1.692  13.515  0.3741 -0.2311  0.5002
  451MPD2     C 6767   1.768   4.353   1.219 -0.0561 -0.0198 -0.1035
  451MPD2    C1 6768   1.754   4.216   1.231  0.8813  0.4438  0.5297
  451MPD2    C2 6769   1.873   4.138   1.217  0.6389 -0.1374  0.3403
  451MPD2    C3 6770   1.998   4.196   1.189  0.0500  0.0456  0.1994
  451MPD2    C4 6771   2.003   4.332   1.188 -0.0531  0.2022 -0.4089
  451MPD2    C5 6772   1.889   4.410   1.213 -0.8484 -0.2041 -0.1574
  451MPD2     H 6773   1.859   4.031   1.210  0.3293  0.0526 -2.1948
  451MPD2    H1 6774   2.099   4.377   1.165 -0.6766  0.6644 -2.0958
  451MPD2    H2 6775   1.680   4.416   1.221 -0.6236 -0.7909 -0.5074
  451MPD2    H3 6776   1.892   4.518   1.202  0.3389 -0.4553 -2.2310
  451MPD2     N 6777   2.122   4.130   1.168  0.2796 -0.5729  0.4879
  451MPD2    H5 6778   2.204   4.189   1.157  0.0629 -0.3158  0.2476
  451MPD2    N1 6779   1.628   4.153   1.246  0.0224  0.2465 -0.1333
  451MPD2    H7 6780   1.549   4.212   1.219 -1.1177 -1.6898 -1.0556
  452TMC3    C1 6781   2.260   3.946   1.117  0.1735  0.3426  0.4048
  452TMC3    C2 6782   2.277   3.809   1.122 -0.5206 -0.1674  0.8856
  452TMC3    C3 6783   2.378   3.758   1.054 -0.2594  0.3229  0.0965
  452TMC3    C4 6784   2.341   4.025   1.042 -0.5411 -0.2919  0.3786
  452TMC3    C5 6785   2.439   3.966   0.973 -0.2771 -0.3944  0.9859
  452TMC3    C6 6786   2.467   3.832   0.989  0.4863 -0.5897 -0.0872
  452TMC3     C 6787   2.127   3.995   1.159 -0.0009 -0.0079 -0.7645
  452TMC3     O 6788   2.039   3.912   1.192  0.1246  0.2907  0.1813
  452TMC3     H 6789   2.203   3.753   1.177 -1.9423 -1.3956 -2.3101
  452TMC3    H1 6790   2.320   4.131   1.032 -1.4790 -0.3012  2.3750
  452TMC3    H2 6791   2.560   3.796   0.947  1.5325 -1.1391  2.6493
  452TMC3    C7 6792   2.440   4.017   0.841  0.7377  0.3975 -0.2431
  452TMC3    C8 6793   2.329   3.657   0.965 -0.9529 -0.2871  0.2692
  452TMC3    O1 6794   2.379   4.115   0.811  0.2860 -0.0729 -0.3262
  452TMC3    O2 6795   2.209   3.647   0.970  0.3435 -0.2237  0.4503
  453TMC3    C1 6796   2.606   1.803  11.432  1.1855 -0.0737  0.1893
  453TMC3    C2 6797   2.554   1.684  11.459 -0.0425  0.5695  0.0069
  453TMC3    C3 6798   2.451   1.638  11.382 -0.0927 -0.0723 -0.7066
  453TMC3    C4 6799   2.554   1.883  11.338  0.4898  0.8165 -0.6045
  453TMC3    C5 6800   2.457   1.830  11.257 -0.6322  0.5981  0.3499
  453TMC3    C6 6801   2.397   1.713  11.276 -0.0474 -0.2262  0.0576
  453TMC3     C 6802   2.712   1.857  11.509  0.3642  0.0233 -0.0553
  453TMC3     O 6803   2.790   1.935  11.455 -0.3206 -0.1258 -0.2134
  453TMC3     H 6804   2.614   1.612  11.515  0.6435  1.3880  0.3398
  453TMC3    H1 6805   2.596   1.982  11.325  1.4429  0.3937 -0.6889
  453TMC3    H2 6806   2.330   1.681  11.197 -0.0841  0.5151 -0.2080
  453TMC3    C7 6807   2.433   1.876  11.123  0.2506  0.2103  0.4525
  453TMC3    C8 6808   2.472   1.503  11.336 -0.0271  0.2639 -0.4714
  453TMC3    O1 6809   2.531   1.921  11.069  0.3490  0.4109 -0.3182
  453TMC3    O2 6810   2.459   1.483  11.219 -0.3898  0.2286  0.3282
  454MPD2     C 6811   1.861   0.887  16.047  0.6316 -0.1578 -0.1634
  454MPD2    C1 6812   1.757   0.934  15.972 -0.0118 -0.2821 -0.3681
  454MPD2    C2 6813   1.690   1.044  16.016 -0.1636  0.3614  0.1096
  454MPD2    C3 6814   1.726   1.119  16.130  0.0724  0.1801  0.1047
  454MPD2    C4 6815   1.838   1.070  16.202  0.0198  1.1796  0.2554
  454MPD2    C5 6816   1.900   0.957  16.161 -0.0255  0.2026 -0.1352
  454MPD2     H 6817   1.605   1.075  15.957 -0.5444 -0.0927  0.4159
  454MPD2    H1 6818   1.888   1.125  16.281  0.5300 -0.5829  1.1465
  454MPD2    H2 6819   1.918   0.798  16.023 -0.4996  0.0160 -3.4328
  454MPD2    H3 6820   1.988   0.925  16.216 -0.9698 -1.2348  0.5183
  454MPD2     N 6821   1.644   1.206  16.195  0.3150  1.1739 -0.3151
  454MPD2    H5 6822   1.645   1.225  16.295 -0.2367  0.1921 -0.1235
  454MPD2    N1 6823   1.713   0.869  15.856 -0.2293 -0.2555  0.2159
  454MPD2    H7 6824   1.621   0.896  15.821 -0.8727 -0.5874  1.6642
  455TMC3    C1 6825   1.412   1.247  16.232  0.3560 -0.6923 -0.2098
  455TMC3    C2 6826   1.434   1.277  16.362 -0.2665  0.6968 -0.4218
  455TMC3    C3 6827   1.343   1.230  16.455  0.6537 -0.0912 -0.1636
  455TMC3    C4 6828   1.306   1.167  16.202  0.4519 -0.5338 -0.5106
  455TMC3    C5 6829   1.210   1.138  16.297 -1.0504 -0.6234 -0.5359
  455TMC3    C6 6830   1.232   1.159  16.428  0.3102 -0.1203  0.3117
  455TMC3     C 6831   1.523   1.247  16.139 -0.7446  0.1610 -0.7138
  455TMC3     O 6832   1.485   1.249  16.022 -0.2427 -0.3143  0.2843
  455TMC3     H 6833   1.513   1.340  16.403  0.3884 -1.5341  1.7010
  455TMC3    H1 6834   1.289   1.144  16.097  1.9345 -2.0507 -0.4279
  455TMC3    H2 6835   1.149   1.129  16.492  0.5640  0.4616  0.9201
  455TMC3    C7 6836   1.115   1.036  16.263 -0.1325  0.5563 -0.3986
  455TMC3    C8 6837   1.343   1.288  16.587 -0.6902 -0.2831  0.9724
  455TMC3    O1 6838   1.024   1.023  16.342 -0.4407 -0.1791 -0.2706
  455TMC3    O2 6839   1.452   1.297  16.649  0.1439  0.5096  0.3247
  456MPD2     C 6840   4.154   0.800  16.277 -0.0384 -0.4168  0.4974
  456MPD2    C1 6841   4.289   0.816  16.275 -1.2198 -0.5814 -0.1193
  456MPD2    C2 6842   4.363   0.788  16.388 -0.1554 -0.3369  0.3307
  456MPD2    C3 6843   4.292   0.754  16.507 -0.2016  0.0579  0.6049
  456MPD2    C4 6844   4.155   0.744  16.497  0.3402  0.1667  0.1858
  456MPD2    C5 6845   4.082   0.767  16.385  0.5233 -0.3178 -0.1056
  456MPD2     H 6846   4.470   0.776  16.374 -0.1997  0.4771 -0.7006
  456MPD2    H1 6847   4.101   0.708  16.584  0.6911  1.6026  1.0161
  456MPD2    H2 6848   4.097   0.814  16.186  0.3781 -1.1498  0.1195
  456MPD2    H3 6849   3.975   0.757  16.382  0.4218  0.7668 -0.1006
  456MPD2     N 6850   4.361   0.757  16.631  0.3627 -0.7720 -0.5747
  456MPD2    H5 6851   4.462   0.773  16.630  0.3787 -0.8551 -0.2952
  456MPD2    N1 6852   4.364   0.846  16.161  0.3704  0.0553 -0.3271
  456MPD2    H7 6853   4.464   0.838  16.174  0.3726  0.3709 -0.1611
  457TMC3    C1 6854   4.398   0.729  16.866  0.0563  0.2333 -0.1251
  457TMC3    C2 6855   4.509   0.805  16.862  0.4133  0.8344 -0.1532
  457TMC3    C3 6856   4.619   0.768  16.941  0.3035 -0.0191  0.1470
  457TMC3    C4 6857   4.375   0.642  16.970 -0.5168 -0.3998  0.2600
  457TMC3    C5 6858   4.474   0.630  17.067  0.0702 -0.4134 -0.4079
  457TMC3    C6 6859   4.599   0.684  17.046 -0.2967 -0.5967 -0.5021
  457TMC3     C 6860   4.306   0.730  16.754 -0.1942 -0.6119  0.3636
  457TMC3     O 6861   4.196   0.695  16.790 -0.6269 -0.2238 -0.6133
  457TMC3     H 6862   4.511   0.883  16.787 -1.0796  0.7977 -0.2335
  457TMC3    H1 6863   4.277   0.608  17.000 -1.1320  0.4409 -0.7981
  457TMC3    H2 6864   4.676   0.663  17.120  0.5149  0.4866 -1.0314
  457TMC3    C7 6865   4.435   0.603  17.203  0.0892 -0.5765 -0.2986
  457TMC3    C8 6866   4.728   0.862  16.971  0.2826 -0.5365  0.5286
  457TMC3    O1 6867   4.389   0.494  17.234 -0.4622  0.3150 -0.4365
  457TMC3    O2 6868   0.063   0.828  17.057 -0.3085 -0.3763  0.1366
  458MPD2     C 6869   1.790   0.950  12.642 -0.5016 -1.5215 -0.4843
  458MPD2    C1 6870   1.848   0.833  12.681 -0.3363 -0.1302  0.2837
  458MPD2    C2 6871   1.768   0.738  12.741  0.2292  0.7749  0.2801
  458MPD2    C3 6872   1.648   0.763  12.785 -0.4797  0.0605  0.0075
  458MPD2    C4 6873   1.588   0.888  12.757  0.8426  0.2769  0.0457
  458MPD2    C5 6874   1.663   0.979  12.686  0.4229 -0.4754 -0.5914
  458MPD2     H 6875   1.814   0.642  12.763  0.3235  0.9518  0.8515
  458MPD2    H1 6876   1.490   0.914  12.796  0.9547 -2.4642  2.2016
  458MPD2    H2 6877   1.845   1.027  12.590 -2.0996  0.8456  1.2815
  458MPD2    H3 6878   1.613   1.072  12.659  1.4970 -0.0900 -1.2636
  458MPD2     N 6879   1.580   0.665  12.863  0.0347 -0.0303 -0.1109
  458MPD2    H5 6880   1.640   0.587  12.889  0.1522 -0.9362 -3.1407
  458MPD2    N1 6881   1.989   0.821  12.647 -0.1066  0.8233  0.0016
  458MPD2    H7 6882   2.029   0.896  12.593 -0.6779 -1.1535 -3.1937
  459TMC3    C1 6883   2.209   0.727  12.673  1.0646 -0.0991 -0.6587
  459TMC3    C2 6884   2.255   0.825  12.590  0.3310 -0.5969 -0.6777
  459TMC3    C3 6885   2.375   0.893  12.616 -0.9481 -0.1737  0.2562
  459TMC3    C4 6886   2.279   0.684  12.784  0.2676  1.0084 -0.0316
  459TMC3    C5 6887   2.397   0.760  12.809  0.4114  0.0464  0.2527
  459TMC3    C6 6888   2.449   0.856  12.725  0.0212 -0.4390 -0.0922
  459TMC3     C 6889   2.067   0.713  12.690 -0.0056 -0.5390 -0.1536
  459TMC3     O 6890   2.025   0.630  12.768 -0.3182  0.5078 -0.3300
  459TMC3     H 6891   2.201   0.845  12.498 -1.2611  0.1613  0.4185
  459TMC3    H1 6892   2.236   0.612  12.852  1.2999 -2.2269 -2.8501
  459TMC3    H2 6893   2.535   0.916  12.753 -0.4694 -0.3761  1.3255
  459TMC3    C7 6894   2.444   0.748  12.945  0.0252 -0.3703 -0.4348
  459TMC3    C8 6895   2.438   0.979  12.512 -0.4990  0.4125  0.1360
  459TMC3    O1 6896   2.509   0.842  12.996 -0.1612 -1.0816 -0.1582
  459TMC3    O2 6897   2.559   0.986  12.515 -0.5932 -0.4264  0.5996
  460MPD2     C 6898   1.005   3.585  10.864 -0.4776 -0.2058  0.7438
  460MPD2    C1 6899   0.949   3.476  10.811  0.3727 -0.5131 -0.1990
  460MPD2    C2 6900   0.859   3.482  10.705 -0.6962  0.3008 -0.1733
  460MPD2    C3 6901   0.832   3.606  10.646 -0.1548  0.6635 -0.1075
  460MPD2    C4 6902   0.892   3.720  10.703  0.0940 -0.3058 -0.4268
  460MPD2    C5 6903   0.981   3.705  10.812 -0.4988 -0.3259  0.2793
  460MPD2     H 6904   0.804   3.395  10.672  1.4646 -1.5623  1.1100
  460MPD2    H1 6905   0.865   3.822  10.680 -0.6222 -0.7446 -1.5910
  460MPD2    H2 6906   1.081   3.576  10.941  3.1945 -1.5244 -3.0950
  460MPD2    H3 6907   1.032   3.786  10.863  0.4535 -0.7996  0.0842
  460MPD2     N 6908   0.732   3.610  10.543  0.4345 -0.1104 -0.2299
  460MPD2    H5 6909   0.691   3.523  10.510  0.8124 -0.6005  0.5950
  460MPD2    N1 6910   0.969   3.355  10.886 -0.1347 -0.0046 -0.2472
  460MPD2    H7 6911   1.047   3.368  10.949 -0.3479 -3.3002  0.6987
  461TMC3    C1 6912   0.558   3.710  10.421  0.4547 -0.5904 -1.0956
  461TMC3    C2 6913   0.551   3.616  10.325 -1.2693 -0.0940 -0.8935
  461TMC3    C3 6914   0.440   3.597  10.256  0.4951 -0.2255 -0.5624
  461TMC3    C4 6915   0.460   3.800  10.433  0.2003 -0.2032 -0.0068
  461TMC3    C5 6916   0.356   3.788  10.348  0.4198  0.4154 -0.2004
  461TMC3    C6 6917   0.339   3.686  10.263 -0.2693  0.1317 -0.8806
  461TMC3     C 6918   0.673   3.725  10.502  0.1083  0.0964  0.1663
  461TMC3     O 6919   0.677   3.836  10.553  0.2120  0.2806 -0.8067
  461TMC3     H 6920   0.634   3.548  10.311 -0.5944  0.8449 -1.4155
  461TMC3    H1 6921   0.463   3.876  10.510 -0.4732  0.2627 -0.4318
  461TMC3    H2 6922   0.247   3.674  10.207  0.8601 -0.5894 -2.5964
  461TMC3    C7 6923   0.283   3.897  10.308 -0.7045 -0.8396 -0.2644
  461TMC3    C8 6924   0.445   3.509  10.139 -0.1518 -0.0032  0.1457
  461TMC3    O1 6925   0.195   3.881  10.222 -0.4567 -0.1462  0.3858
  461TMC3    O2 6926   0.551   3.467  10.090  0.0990  0.0582  1.0010
  462TMC3    C1 6927   1.303   4.169  17.726  0.1651  0.0585 -1.3648
  462TMC3    C2 6928   1.420   4.122   0.028  0.0845  0.1517 -0.6805
  462TMC3    C3 6929   1.434   3.994   0.065 -0.1454  0.1191 -0.1145
  462TMC3    C4 6930   1.182   4.103  17.737 -0.2881 -0.3846 -0.2473
  462TMC3    C5 6931   1.196   3.978   0.033 -0.9359  0.8341 -0.5460
  462TMC3    C6 6932   1.320   3.917   0.064 -0.1593  0.1143 -0.5084
  462TMC3     C 6933   1.304   4.311  17.691  0.2488 -0.0297 -0.2996
  462TMC3     O 6934   1.399   4.378  17.725 -0.2300  0.0318  0.0270
  462TMC3     H 6935   1.508   4.185   0.017  0.8192 -0.7420  0.1347
  462TMC3    H1 6936   1.086   4.153  17.733 -1.1604 -1.8345  2.2258
  462TMC3    H2 6937   1.315   3.820   0.113 -0.2235  0.6839  0.6262
  462TMC3    C7 6938   1.088   3.885   0.006  0.4514 -0.2780 -0.3381
  462TMC3    C8 6939   1.554   3.945   0.123 -0.0440 -1.0241  0.5223
  462TMC3    O1 6940   1.086   3.797   0.091  0.3065 -0.2274  0.4170
  462TMC3    O2 6941   1.633   4.031   0.156  0.1632  0.1157 -0.5770
  463MPD2     C 6942   1.723   3.302   1.749  0.0929 -0.3494  0.4332
  463MPD2    C1 6943   1.710   3.220   1.639 -0.4274  0.0740  0.1541
  463MPD2    C2 6944   1.825   3.182   1.564 -0.2045 -0.2321  0.8336
  463MPD2    C3 6945   1.954   3.207   1.611 -0.3733  0.2232 -0.0357
  463MPD2    C4 6946   1.958   3.265   1.731 -0.3132  0.5394  0.1062
  463MPD2    C5 6947   1.846   3.321   1.799 -0.5532  0.2316 -0.5232
  463MPD2     H 6948   1.810   3.126   1.473  3.4383  2.1349 -1.2637
  463MPD2    H1 6949   2.054   3.289   1.777  0.5359  0.9530 -1.8984
  463MPD2    H2 6950   1.649   3.348   1.814 -3.5532  0.0486 -3.9502
  463MPD2    H3 6951   1.861   3.378   1.889  1.4580  0.7886 -1.2111
  463MPD2     N 6952   2.073   3.168   1.549  0.0933  0.7093  0.3442
  463MPD2    H5 6953   2.155   3.209   1.593  0.3919 -0.2289  0.6828
  463MPD2    N1 6954   1.585   3.181   1.587 -0.2460  0.3436 -0.6313
  463MPD2    H7 6955   1.580   3.121   1.506 -2.9067 -0.4122  0.0940
  464TMC3    C1 6956   1.354   3.133   1.586 -0.1466 -0.6172  0.0431
  464TMC3    C2 6957   1.326   3.172   1.458 -0.7388  0.4642 -0.2726
  464TMC3    C3 6958   1.210   3.128   1.396  0.4534 -0.4578  0.2668
  464TMC3    C4 6959   1.270   3.052   1.655  0.6685 -0.2072  0.6492
  464TMC3    C5 6960   1.156   3.005   1.591  0.1831  0.3825 -0.0628
  464TMC3    C6 6961   1.137   3.030   1.460 -0.0699 -0.1610  0.0458
  464TMC3     C 6962   1.469   3.192   1.659 -0.1405  0.4838  0.2438
  464TMC3     O 6963   1.458   3.201   1.775 -0.0001  0.6478 -1.0095
  464TMC3     H 6964   1.382   3.249   1.405 -1.0013  1.7329  1.2797
  464TMC3    H1 6965   1.286   3.022   1.758  0.5043  2.3903  1.4412
  464TMC3    H2 6966   1.050   2.991   1.409 -0.3108 -0.9348  1.0503
  464TMC3    C7 6967   1.096   2.885   1.634 -0.6969 -0.0278  0.0472
  464TMC3    C8 6968   1.161   3.184   1.271  0.4358 -0.3421  0.2941
  464TMC3    O1 6969   1.057   2.889   1.749  0.2864  0.3477  0.3091
  464TMC3    O2 6970   1.245   3.242   1.206  0.0352 -0.5529  0.9991
  465MPD2     C 6971   3.891   1.335  16.679  0.3373 -0.4717 -0.4471
  465MPD2    C1 6972   3.817   1.302  16.790  0.1301  0.2935  0.0606
  465MPD2    C2 6973   3.687   1.262  16.777  0.1957 -0.1512 -0.2342
  465MPD2    C3 6974   3.641   1.253  16.646  0.0082  0.5125 -0.6344
  465MPD2    C4 6975   3.708   1.294  16.537 -0.5596  0.7913  0.0852
  465MPD2    C5 6976   3.833   1.329  16.562 -0.8375  0.4821  0.3840
  465MPD2     H 6977   3.625   1.223  16.857  0.1786 -0.4774 -0.4052
  465MPD2    H1 6978   3.673   1.301  16.434 -0.8726  1.1697  0.2178
  465MPD2    H2 6979   3.990   1.379  16.686  1.0701 -2.5442  2.7133
  465MPD2    H3 6980   3.898   1.352  16.479 -0.7677 -2.2115 -0.3056
  465MPD2     N 6981   3.503   1.219  16.639  0.1961  0.2465  0.0118
  465MPD2    H5 6982   3.460   1.210  16.730 -0.4374 -0.4622 -0.3516
  465MPD2    N1 6983   3.866   1.307  16.926 -0.2872  0.6126  0.3259
  465MPD2    H7 6984   3.806   1.274  17.000 -2.5029 -0.8557 -2.1275
  466TMC3    C1 6985   3.116   1.128  16.708 -0.2041 -1.0047 -0.6072
  466TMC3    C2 6986   3.019   1.181  16.629  1.2479  0.2613  0.3775
  466TMC3    C3 6987   3.061   1.228  16.502  0.4034  0.2991  0.6403
  466TMC3    C4 6988   3.252   1.131  16.673 -0.0393 -0.4191 -0.4646
  466TMC3    C5 6989   3.290   1.182  16.554  0.2530  0.2162  0.1981
  466TMC3    C6 6990   3.197   1.230  16.468  0.0222 -1.1497  0.0781
  466TMC3     C 6991   3.095   1.108  16.847 -0.0701 -0.4921 -0.6137
  466TMC3     O 6992   3.183   1.070  16.922  0.2885 -0.1175 -0.0132
  466TMC3     H 6993   2.914   1.180  16.653  1.1987 -3.0870  0.0995
  466TMC3    H1 6994   3.322   1.072  16.732  0.6498 -0.3490 -1.2129
  466TMC3    H2 6995   3.234   1.290  16.386 -1.8951  2.0341  1.5779
  466TMC3    C7 6996   3.426   1.204  16.532  0.3364  0.6142 -0.0716
  466TMC3    C8 6997   2.991   1.343  16.462 -0.0046  0.3093 -0.1316
  466TMC3    O1 6998   3.463   1.195  16.417  0.3556 -0.4920  0.3953
  466TMC3    O2 6999   2.879   1.315  16.425  0.2155  0.1837  0.3671
  467TMC3    C1 7000   4.123   0.003  14.088 -0.0257 -0.4944 -0.3421
  467TMC3    C2 7001   4.052   0.100  14.020  0.0498 -0.1652 -0.0578
  467TMC3    C3 7002   3.944   0.056  13.955  1.3353  0.1802 -0.3994
  467TMC3    C4 7003   4.085   4.618  14.101 -0.0712 -0.1530  0.4709
  467TMC3    C5 7004   3.971   4.579  14.051  0.2860 -0.1135 -0.6920
  467TMC3    C6 7005   3.893   4.670  13.983 -0.7402  0.3072  0.3055
  467TMC3     C 7006   4.250   0.046  14.147  0.2299 -0.8645 -0.2437
  467TMC3     O 7007   4.343   4.710  14.161  0.0172  0.4600 -0.6187
  467TMC3     H 7008   4.088   0.199  13.996  1.3808 -1.1168 -2.0119
  467TMC3    H1 7009   4.144   4.553  14.163  0.5833 -0.3970 -0.4177
  467TMC3    H2 7010   3.797   4.635  13.947  0.5078 -0.2642 -2.3993
  467TMC3    C7 7011   3.920   4.447  14.087  0.5950 -0.1777  0.4298
  467TMC3    C8 7012   3.855   0.156  13.909 -0.0390  0.2414 -0.1090
  467TMC3    O1 7013   4.002   4.368  14.132  0.2708 -0.6732 -0.0655
  467TMC3    O2 7014   3.850   0.252  13.987  0.0650  0.6689  0.4716
  468MPD2     C 7015   2.542   3.523  11.137 -0.3222 -0.5027 -0.4367
  468MPD2    C1 7016   2.667   3.466  11.138  0.5998 -0.4658  0.0011
  468MPD2    C2 7017   2.675   3.326  11.140  0.8986 -0.4750 -0.0803
  468MPD2    C3 7018   2.559   3.245  11.134  0.7034  0.3380  1.0397
  468MPD2    C4 7019   2.443   3.313  11.128 -0.3457  0.5703 -0.0384
  468MPD2    C5 7020   2.429   3.445  11.130 -0.3208  0.9624 -0.6899
  468MPD2     H 7021   2.774   3.286  11.159  0.5375 -1.2240  0.2325
  468MPD2    H1 7022   2.351   3.256  11.132 -0.1166  0.3150  1.7130
  468MPD2    H2 7023   2.526   3.630  11.138  1.7444 -0.1649 -3.2718
  468MPD2    H3 7024   2.329   3.487  11.137 -0.6961  0.0463 -0.5137
  468MPD2     N 7025   2.559   3.108  11.133  0.2873  0.0058 -0.7254
  468MPD2    H5 7026   2.468   3.065  11.125 -0.1479  0.5649  1.3064
  468MPD2    N1 7027   2.791   3.535  11.155  0.5123  0.4443  0.0994
  468MPD2    H7 7028   2.871   3.473  11.147  1.2754  1.4514 -0.1976
  469TMC3    C1 7029   2.934   3.707  11.219  0.3966  0.1859  0.1170
  469TMC3    C2 7030   3.007   3.622  11.290  0.6748 -0.1883 -0.1727
  469TMC3    C3 7031   3.140   3.650  11.294  0.6799  0.0975 -0.7404
  469TMC3    C4 7032   2.984   3.813  11.154  0.8015  0.2564  0.6819
  469TMC3    C5 7033   3.118   3.849  11.174 -0.4384  0.0433 -0.2077
  469TMC3    C6 7034   3.200   3.768  11.247 -0.3139  0.3564  0.1903
  469TMC3     C 7035   2.805   3.669  11.173  0.7275 -0.0115 -0.8868
  469TMC3     O 7036   2.732   3.763  11.139  0.7784 -0.2073 -0.2742
  469TMC3     H 7037   2.958   3.548  11.353 -0.1799  1.8476  1.5702
  469TMC3    H1 7038   2.918   3.884  11.105  0.2664 -1.8235 -1.6385
  469TMC3    H2 7039   3.305   3.791  11.254  0.2019 -1.8633 -0.2180
  469TMC3    C7 7040   3.118   3.987  11.202  0.2163  0.4850 -0.1736
  469TMC3    C8 7041   3.224   3.548  11.345  0.6295  0.5753  0.0628
  469TMC3    O1 7042   3.073   4.055  11.110  0.0204  0.4595  0.4791
  469TMC3    O2 7043   3.171   3.438  11.355 -0.0737 -0.0440 -0.0377
  470TMC3    C1 7044   0.175   3.323   0.357  0.5212 -0.0688  0.2005
  470TMC3    C2 7045   0.243   3.409   0.442 -0.5937  0.5463  0.5638
  470TMC3    C3 7046   0.192   3.447   0.564  0.6612 -0.0436  0.1731
  470TMC3    C4 7047   0.056   3.270   0.398 -0.6375 -0.0254  0.1222
  470TMC3    C5 7048   0.002   3.317   0.516  0.7175 -0.3517 -0.1835
  470TMC3    C6 7049   0.069   3.403   0.599 -1.1969 -0.0083  0.0966
  470TMC3     C 7050   0.207   3.321   0.218 -0.2654  0.4718 -0.5253
  470TMC3     O 7051   0.284   3.402   0.168 -0.5274 -0.5342 -0.0223
  470TMC3     H 7052   0.341   3.441   0.410 -0.2921 -0.1750  0.7712
  470TMC3    H1 7053   4.732   3.228   0.322  1.4685 -0.4036 -1.4355
  470TMC3    H2 7054   0.032   3.413   0.700 -0.4126  1.4033  0.2456
  470TMC3    C7 7055   4.595   3.308   0.530 -0.5756 -0.1832  0.4853
  470TMC3    C8 7056   0.242   3.556   0.649  0.5384 -0.5034 -0.1446
  470TMC3    O1 7057   4.533   3.245   0.444  0.3112 -0.6459 -0.0422
  470TMC3    O2 7058   0.180   3.578   0.753 -0.4906  0.3060  0.0861
  471MPD2     C 7059   1.673   0.170  16.655  0.0724 -0.3950 -0.5355
  471MPD2    C1 7060   1.682   0.037  16.634 -0.7258  0.1715 -0.2130
  471MPD2    C2 7061   1.699   4.691  16.748  0.5203  0.3261 -0.0323
  471MPD2    C3 7062   1.732   0.004  16.868  0.5705  0.1731 -0.5189
  471MPD2    C4 7063   1.722   0.139  16.887  0.0156  0.6305  0.1532
  471MPD2    C5 7064   1.699   0.222  16.780 -0.1793  0.0066  0.5566
  471MPD2     H 7065   1.694   4.583  16.734  0.3671  0.2470  0.6408
  471MPD2    H1 7066   1.749   0.193  16.977  2.6911 -0.9666  0.2824
  471MPD2    H2 7067   1.646   0.232  16.570 -1.7693  0.6436  0.8213
  471MPD2    H3 7068   1.686   0.327  16.800  1.1241  0.4126 -0.6958
  471MPD2     N 7069   1.783   4.661  16.969  0.3934 -0.4471  0.1369
  471MPD2    H5 7070   1.782   4.702  17.062 -0.2209 -1.4632  0.5817
  471MPD2    N1 7071   1.641   4.721  16.508 -1.0064  0.3207  0.4293
  471MPD2    H7 7072   1.614   4.624  16.521  0.5666 -0.2755 -0.6506
  472TMC3    C1 7073   1.570   4.701  16.286  0.1776  0.3432 -0.9517
  472TMC3    C2 7074   1.474   0.020  16.209 -0.0935  0.2547  0.1852
  472TMC3    C3 7075   1.362   4.686  16.181  0.1966  0.4170  0.2535
  472TMC3    C4 7076   1.560   4.568  16.308 -0.9424  0.3246 -0.2614
  472TMC3    C5 7077   1.456   4.492  16.266 -0.2516  0.3315 -0.2061
  472TMC3    C6 7078   1.358   4.548  16.199 -0.1733 -0.2256 -0.1323
  472TMC3     C 7079   1.635   0.043  16.390  0.8752 -0.4344 -0.0110
  472TMC3     O 7080   1.678   0.151  16.362  0.0221  1.0039  0.0692
  472TMC3     H 7081   1.470   0.128  16.208 -1.3343  0.2060 -0.8393
  472TMC3    H1 7082   1.616   4.512  16.382 -0.4311  0.8742 -0.2280
  472TMC3    H2 7083   1.277   4.496  16.148 -1.3574  0.0608  1.4376
  472TMC3    C7 7084   1.461   4.348  16.291  1.1249  0.2043 -0.0304
  472TMC3    C8 7085   1.244   0.019  16.151  0.0406  0.0286  0.0400
  472TMC3    O1 7086   1.355   4.291  16.335  0.3555 -0.3542 -0.4987
  472TMC3    O2 7087   1.255   0.123  16.096  0.4005 -0.1033  0.0956
  473MPD2     C 7088   0.284   2.342  13.944 -0.3201  0.5915  0.1872
  473MPD2    C1 7089   0.304   2.434  13.848  0.3695 -0.1138  0.7438
  473MPD2    C2 7090   0.419   2.519  13.846 -0.1152  0.7606  0.7620
  473MPD2    C3 7091   0.505   2.520  13.957 -0.2267  0.7022 -0.2300
  473MPD2    C4 7092   0.480   2.416  14.055  0.3343 -0.4339  0.4686
  473MPD2    C5 7093   0.371   2.331  14.046 -1.0135 -0.5458  0.1412
  473MPD2     H 7094   0.434   2.593  13.768  1.5385  2.2021  2.4627
  473MPD2    H1 7095   0.548   2.401  14.138 -0.5109 -0.8783  1.0778
  473MPD2    H2 7096   0.188   2.291  13.945  0.8043 -1.5282 -0.8515
  473MPD2    H3 7097   0.339   2.266  14.126  0.2284 -0.5932  0.6030
  473MPD2     N 7098   0.621   2.604  13.973 -0.9782  0.1365 -0.2278
  473MPD2    H5 7099   0.686   2.591  14.050  0.3798  2.4208 -1.0034
  473MPD2    N1 7100   0.215   2.434  13.733 -0.1405  0.3442 -0.2091
  473MPD2    H7 7101   0.224   2.504  13.660  1.3439  0.4259  0.0447
  474TMC3    C1 7102   0.746   2.800  13.965 -0.1000  0.5152 -0.8908
  474TMC3    C2 7103   0.818   2.889  13.892 -0.4089 -0.4111 -0.4496
  474TMC3    C3 7104   0.901   2.976  13.958 -0.3747  0.8899 -0.1246
  474TMC3    C4 7105   0.758   2.802  14.105  0.7505  0.5524 -0.7212
  474TMC3    C5 7106   0.841   2.889  14.170 -0.0146 -0.8369 -0.6311
  474TMC3    C6 7107   0.912   2.986  14.095  0.4938  0.0152  0.8794
  474TMC3     C 7108   0.655   2.710  13.900 -0.0100 -0.1314 -0.0487
  474TMC3     O 7109   0.619   2.749  13.788  0.2198 -0.1803  0.1573
  474TMC3     H 7110   0.807   2.911  13.787 -0.5175  0.5763 -0.2355
  474TMC3    H1 7111   0.715   2.719  14.161 -1.1114  1.7087 -0.4476
  474TMC3    H2 7112   0.982   3.052  14.143 -1.8146  1.2104  2.6087
  474TMC3    C7 7113   0.809   2.902  14.312  0.4161  1.0510 -0.4681
  474TMC3    C8 7114   0.972   3.063  13.865 -0.9346  0.0074 -0.0911
  474TMC3    O1 7115   0.709   2.835  14.351  1.0588 -0.6434 -0.2558
  474TMC3    O2 7116   0.997   3.024  13.750 -0.2318 -0.2729  0.2996
  475MPD2     C 7117   4.106   0.986  10.089  0.0636 -0.3120 -0.1144
  475MPD2    C1 7118   4.055   1.102  10.046 -0.2842 -0.5313  0.3638
  475MPD2    C2 7119   3.952   1.161  10.117 -0.0851  0.5599  0.1831
  475MPD2    C3 7120   3.911   1.118  10.244  0.1799 -0.9518  0.9918
  475MPD2    C4 7121   3.962   0.993  10.280  0.1001  0.5007  0.2776
  475MPD2    C5 7122   4.060   0.931  10.209  0.3003 -0.1004  0.4131
  475MPD2     H 7123   3.915   1.259  10.091  1.4766  1.2192  0.4642
  475MPD2    H1 7124   3.928   0.936  10.365  0.8578  1.0055  0.9128
  475MPD2    H2 7125   4.186   0.937  10.035 -0.6613 -0.8212 -0.7141
  475MPD2    H3 7126   4.104   0.845  10.257 -1.8019 -0.5395  1.5696
  475MPD2     N 7127   3.824   1.204  10.316 -0.1128 -0.3779 -0.1265
  475MPD2    H5 7128   3.803   1.292  10.270 -1.2095 -0.1429  0.8204
  475MPD2    N1 7129   4.094   1.169   9.925  0.1519 -0.1979 -0.0943
  475MPD2    H7 7130   4.040   1.253   9.904 -0.7559 -0.5820  0.6859
  476TMC3    C1 7131   4.216   1.220   9.730 -0.1160 -0.3770  0.2555
  476TMC3    C2 7132   4.094   1.226   9.677  0.7706 -0.3798  0.0460
  476TMC3    C3 7133   4.043   1.342   9.629  1.2245 -0.1695  0.1919
  476TMC3    C4 7134   4.302   1.323   9.703 -0.0291 -0.1737  0.0395
  476TMC3    C5 7135   4.255   1.438   9.645 -0.1045  0.8257 -0.3969
  476TMC3    C6 7136   4.124   1.453   9.621  0.3632 -0.1280  0.6844
  476TMC3     C 7137   4.214   1.144   9.856 -0.3216  0.4257 -0.1988
  476TMC3     O 7138   4.301   1.062   9.883  0.5898  0.3834  0.2915
  476TMC3     H 7139   4.038   1.133   9.683  0.9124 -0.4984 -0.4294
  476TMC3    H1 7140   4.405   1.314   9.736  0.5572  0.6590 -1.5618
  476TMC3    H2 7141   4.089   1.553   9.598 -1.3568 -0.3737  2.2719
  476TMC3    C7 7142   4.302   1.560   9.707 -1.1421  0.2132 -0.9228
  476TMC3    C8 7143   3.914   1.379   9.679  0.7874  0.3174 -0.5352
  476TMC3    O1 7144   4.232   1.629   9.778 -0.0818  0.4707  0.1382
  476TMC3    O2 7145   3.879   1.494   9.674 -0.2153  0.1273  0.1925
  477MPD2     C 7146   1.541   2.852  11.905 -0.2703 -0.5513 -0.1104
  477MPD2    C1 7147   1.518   2.720  11.863 -0.8996  0.2670  0.2873
  477MPD2    C2 7148   1.476   2.622  11.956  0.2011 -0.5304  0.6677
  477MPD2    C3 7149   1.466   2.653  12.094 -0.8804  0.3748 -0.4816
  477MPD2    C4 7150   1.484   2.786  12.125 -0.4432  0.4577 -0.6175
  477MPD2    C5 7151   1.528   2.880  12.035 -0.0128  0.7749 -0.3624
  477MPD2     H 7152   1.451   2.520  11.929  0.4666  0.1337 -2.0591
  477MPD2    H1 7153   1.484   2.823  12.227  1.0410  0.0142 -0.4512
  477MPD2    H2 7154   1.581   2.928  11.840  1.7597 -1.3565  0.2117
  477MPD2    H3 7155   1.551   2.980  12.070  4.4206  0.6203 -2.7392
  477MPD2     N 7156   1.436   2.553  12.192 -0.4440  0.2432 -0.7070
  477MPD2    H5 7157   1.436   2.456  12.162 -0.9416  0.7338 -2.3071
  477MPD2    N1 7158   1.535   2.693  11.726 -0.7283 -0.2111  0.9779
  477MPD2    H7 7159   1.553   2.773  11.666  2.0003 -0.6894  1.1723
  478TMC3    C1 7160   1.544   2.577  11.522 -0.8842  0.5436  0.1206
  478TMC3    C2 7161   1.588   2.700  11.484  0.1851  0.3936  0.3948
  478TMC3    C3 7162   1.499   2.776  11.410  0.2260  1.5204  0.0290
  478TMC3    C4 7163   1.450   2.519  11.446  0.6513  0.4824 -0.8491
  478TMC3    C5 7164   1.373   2.592  11.366 -0.2369 -0.4055 -0.1760
  478TMC3    C6 7165   1.384   2.729  11.355  0.3833  0.2184 -0.1666
  478TMC3     C 7166   1.519   2.577  11.665  0.0005  0.0266 -0.5685
  478TMC3     O 7167   1.465   2.483  11.707  0.1786  0.0879 -0.2108
  478TMC3     H 7168   1.677   2.744  11.528  0.2060 -0.1526  0.8883
  478TMC3    H1 7169   1.435   2.414  11.471  1.1431  0.6123  0.0160
  478TMC3    H2 7170   1.305   2.791  11.315 -1.5477 -2.3927 -0.4119
  478TMC3    C7 7171   1.290   2.514  11.276  0.0192 -0.7344 -0.1817
  478TMC3    C8 7172   1.491   2.909  11.475 -0.4791 -0.3746 -0.1893
  478TMC3    O1 7173   1.319   2.393  11.273  0.0557 -0.4096 -0.0604
  478TMC3    O2 7174   1.575   2.931  11.561  0.4867  0.2700 -0.3131
  479MPD2     C 7175   1.010   4.386  15.196  0.6689 -0.2938  0.0906
  479MPD2    C1 7176   0.945   4.351  15.310 -0.8448  0.1111 -0.1984
  479MPD2    C2 7177   0.993   4.399  15.431 -0.2460  0.2148 -0.4898
  479MPD2    C3 7178   1.095   4.491  15.433  0.1838 -0.0160  0.0524
  479MPD2    C4 7179   1.155   4.538  15.319 -0.1032  0.5692  0.0727
  479MPD2    C5 7180   1.109   4.479  15.199 -0.1870 -0.7999  0.3668
  479MPD2     H 7181   0.957   4.372  15.530  2.5530  0.9839  0.7197
  479MPD2    H1 7182   1.245   4.598  15.310  0.4979 -0.6659 -2.1241
  479MPD2    H2 7183   0.972   4.359  15.097  1.4374 -1.9999  0.2674
  479MPD2    H3 7184   1.156   4.516  15.109  0.0753  0.2270  0.9203
  479MPD2     N 7185   1.132   4.557  15.550  0.5516  0.2568  0.3614
  479MPD2    H5 7186   1.176   4.648  15.555  0.7391  0.3346 -2.6831
  479MPD2    N1 7187   0.828   4.271  15.300  0.3482 -0.3383  0.0592
  479MPD2    H7 7188   0.807   4.238  15.206  0.5490 -1.5554  0.4447
  480TMC3    C1 7189   0.906   4.465  15.911  0.6485  0.5056  0.0825
  480TMC3    C2 7190   0.801   4.529  15.857 -0.0464  0.0859  0.1475
  480TMC3    C3 7191   0.819   4.612  15.743  0.4442 -0.2616  0.2711
  480TMC3    C4 7192   1.032   4.493  15.869  0.8966  0.3469  0.3440
  480TMC3    C5 7193   1.052   4.567  15.758  0.7130  0.2316 -0.3110
  480TMC3    C6 7194   0.946   4.640  15.704  0.1575  1.0986  0.3833
  480TMC3     C 7195   0.890   4.378  16.033 -0.8180 -0.1632 -0.2645
  480TMC3     O 7196   0.995   4.349  16.081 -0.9415  0.2980  0.7296
  480TMC3     H 7197   0.708   4.547  15.909 -0.1193 -2.4624  0.8911
  480TMC3    H1 7198   1.111   4.427  15.902  0.5059  0.0085  0.5967
  480TMC3    H2 7199   0.966   4.708  15.622 -0.3989 -0.4962 -1.0729
  480TMC3    C7 7200   1.129   4.488  15.666  0.7039 -0.0549  0.0224
  480TMC3    C8 7201   0.715   4.596  15.644 -0.7356  0.2927 -0.3031
  480TMC3    O1 7202   1.134   4.367  15.683  0.0647 -0.9555  0.5733
  480TMC3    O2 7203   0.620   4.526  15.676 -0.2698  0.0977  0.7233
  481MPD2     C 7204   2.141   4.197  13.782 -0.3640  0.2470 -0.4584
  481MPD2    C1 7205   2.059   4.095  13.823 -0.2021 -0.7486 -0.5409
  481MPD2    C2 7206   2.080   4.031  13.944  0.1436 -0.3602  0.0329
  481MPD2    C3 7207   2.181   4.070  14.036 -0.1961  0.1750  0.0430
  481MPD2    C4 7208   2.269   4.166  13.984  0.4631  0.2022  0.0263
  481MPD2    C5 7209   2.254   4.218  13.858  0.3122 -0.0458  0.7702
  481MPD2     H 7210   2.002   3.961  13.974 -1.6418  1.7699  0.3879
  481MPD2    H1 7211   2.359   4.194  14.038  0.7997 -0.2258 -0.3076
  481MPD2    H2 7212   2.125   4.251  13.689  4.8308 -0.6754 -1.8866
  481MPD2    H3 7213   2.324   4.295  13.827 -0.4183 -0.3046 -1.5027
  481MPD2     N 7214   2.188   4.021  14.166 -0.0685 -0.0759  0.0831
  481MPD2    H5 7215   2.263   4.058  14.222  1.0474 -0.8826 -0.8702
  481MPD2    N1 7216   1.950   4.061  13.735 -0.1966 -0.3796  0.2312
  481MPD2    H7 7217   1.935   4.128  13.660  1.6339  0.9471  1.0612
  482TMC3    C1 7218   1.743   3.965  13.670 -0.4844  0.6288 -0.5587
  482TMC3    C2 7219   1.683   3.843  13.661 -0.0692 -0.2712  0.0786
  482TMC3    C3 7220   1.547   3.843  13.647  0.1526 -1.0167 -0.7264
  482TMC3    C4 7221   1.670   4.080  13.684 -0.2545  0.3178 -0.3608
  482TMC3    C5 7222   1.538   4.068  13.675  0.8782  0.4142 -1.2231
  482TMC3    C6 7223   1.469   3.954  13.668 -0.6363  0.1390 -0.2660
  482TMC3     C 7224   1.861   3.957  13.753  0.0167 -0.5638  0.0809
  482TMC3     O 7225   1.882   3.850  13.811 -0.7181  0.1061  0.8320
  482TMC3     H 7226   1.739   3.751  13.651  1.0889  0.7580 -2.8642
  482TMC3    H1 7227   1.718   4.178  13.682  1.1992 -0.3693  0.8533
  482TMC3    H2 7228   1.362   3.941  13.653 -0.6232  1.0491 -1.1596
  482TMC3    C7 7229   1.465   4.181  13.624 -0.9132  0.7469 -0.1478
  482TMC3    C8 7230   1.488   3.717  13.611  0.4252 -0.6939 -0.4564
  482TMC3    O1 7231   1.346   4.193  13.653  0.5752  0.6216 -0.3655
  482TMC3    O2 7232   1.554   3.616  13.613  0.2112  0.5354 -0.4082
  483TMC3    C1 7233   4.609   2.661   0.678  0.1465  0.0669 -0.2057
  483TMC3    C2 7234   4.671   2.780   0.642 -0.0862  0.3600  0.2084
  483TMC3    C3 7235   0.034   2.832   0.716  0.5626  1.4234 -0.0686
  483TMC3    C4 7236   4.655   2.592   0.784 -0.1142 -0.2992  0.0880
  483TMC3    C5 7237   0.026   2.642   0.848 -0.4417 -0.1986 -0.2985
  483TMC3    C6 7238   0.087   2.761   0.823 -0.7177 -0.3030  0.2414
  483TMC3     C 7239   4.536   2.594   0.573 -0.4525  0.3088 -0.2887
  483TMC3     O 7240   4.518   2.660   0.472  0.1552 -0.4609 -0.5588
  483TMC3     H 7241   4.639   2.834   0.554  0.6709  0.3239 -0.0897
  483TMC3    H1 7242   4.597   2.510   0.826  0.4596 -1.8763 -2.2046
  483TMC3    H2 7243   0.180   2.791   0.869  0.0570 -1.1801 -0.7554
  483TMC3    C7 7244   0.053   2.574   0.965 -0.2221  0.9434  0.5672
  483TMC3    C8 7245   0.106   2.934   0.648 -0.5886 -0.1782  0.0987
  483TMC3    O1 7246   0.026   2.455   0.976  0.0735 -0.4075  0.1736
  483TMC3    O2 7247   0.095   2.958   0.527  0.0433  0.0118 -0.3428
  484MPD2     C 7248   2.299   1.218  12.278  0.9915 -0.8817  0.8758
  484MPD2    C1 7249   2.398   1.135  12.324  0.6635 -0.2391  0.1941
  484MPD2    C2 7250   2.525   1.126  12.268 -0.6059  1.1302  0.3245
  484MPD2    C3 7251   2.554   1.212  12.164 -0.4884 -0.3729 -0.0060
  484MPD2    C4 7252   2.462   1.300  12.119  0.4116  0.0979  0.7472
  484MPD2    C5 7253   2.330   1.295  12.167 -0.2328  0.1389  0.3710
  484MPD2     H 7254   2.594   1.051  12.303 -1.9654 -0.7745 -1.0899
  484MPD2    H1 7255   2.480   1.375  12.043  0.4791 -1.4939 -0.8096
  484MPD2    H2 7256   2.199   1.220  12.320 -0.0911 -0.0949 -1.6727
  484MPD2    H3 7257   2.255   1.362  12.126 -2.7433 -1.0988  2.8810
  484MPD2     N 7258   2.683   1.219  12.111  0.6074 -0.2717 -0.1443
  484MPD2    H5 7259   2.694   1.298  12.048 -1.6404  0.3192  0.2144
  484MPD2    N1 7260   2.352   1.049  12.432  0.2351  0.5250  0.2218
  484MPD2    H7 7261   2.254   1.053  12.460 -0.3148 -0.0771 -1.6462
  485TMC3    C1 7262   2.916   1.242  12.119 -1.0176  0.2437 -0.1628
  485TMC3    C2 7263   2.998   1.259  12.222 -0.1637  0.1938 -0.1094
  485TMC3    C3 7264   3.046   1.384  12.248 -0.1996 -1.0634 -0.1404
  485TMC3    C4 7265   2.881   1.343  12.026 -0.1064  0.1711 -0.4299
  485TMC3    C5 7266   2.948   1.458  12.048 -0.3572 -0.1942 -0.0188
  485TMC3    C6 7267   3.017   1.481  12.163 -0.2526  0.1168 -0.3908
  485TMC3     C 7268   2.796   1.161  12.155  0.0564  0.3327 -0.1686
  485TMC3     O 7269   2.807   1.069  12.235  0.4687 -0.1275  0.1469
  485TMC3     H 7270   3.019   1.178  12.291  1.6596  0.2775 -0.5663
  485TMC3    H1 7271   2.821   1.325  11.937 -0.4433 -0.7964 -0.0065
  485TMC3    H2 7272   3.035   1.584  12.193  2.4193 -1.2087  2.5768
  485TMC3    C7 7273   3.022   1.513  11.930  0.1917 -0.1922 -0.0726
  485TMC3    C8 7274   3.174   1.410  12.305  0.4164  0.0692 -0.6883
  485TMC3    O1 7275   2.965   1.504  11.822  0.0643  0.5757  0.4618
  485TMC3    O2 7276   3.239   1.504  12.264 -0.0018 -0.1517  0.0612
  486MPD2     C 7277   4.655   0.177  13.012  0.4131  0.7077  0.3472
  486MPD2    C1 7278   4.608   0.115  12.896 -0.3102 -0.8966  0.2676
  486MPD2    C2 7279   4.563   0.191  12.787  0.6538 -0.2551  0.2252
  486MPD2    C3 7280   4.547   0.333  12.806 -0.5187  0.2632 -0.1491
  486MPD2    C4 7281   4.586   0.390  12.926  0.0177 -0.0012  0.1037
  486MPD2    C5 7282   4.657   0.312  13.018 -0.9321  0.0750 -0.5375
  486MPD2     H 7283   4.526   0.152  12.692  1.1349  3.6031 -1.5307
  486MPD2    H1 7284   4.585   0.495  12.954  2.5396 -0.4566  1.9643
  486MPD2    H2 7285   4.693   0.114  13.092  0.6935 -0.3624 -0.6366
  486MPD2    H3 7286   4.689   0.366  13.107 -1.9616  3.6415 -2.3602
  486MPD2     N 7287   4.472   0.401  12.709  0.1649  0.3402  0.2300
  486MPD2    H5 7288   4.438   0.355  12.625  0.4207 -0.8250  0.7800
  486MPD2    N1 7289   4.625   4.711  12.897 -0.6722 -0.1783 -0.1647
  486MPD2    H7 7290   4.661   4.659  12.977 -0.0615 -1.2662 -1.1439
  487TMC3    C1 7291   4.618   4.488  12.825 -0.8043 -0.3646  0.1345
  487TMC3    C2 7292   4.575   4.393  12.736 -0.9781 -0.2236  0.2470
  487TMC3    C3 7293   4.615   4.256  12.743 -0.6192  0.1129  0.2795
  487TMC3    C4 7294   4.682   4.446  12.942 -0.4171 -0.5128  0.2219
  487TMC3    C5 7295   4.688   4.315  12.966 -0.5589 -0.1261  0.5637
  487TMC3    C6 7296   4.655   4.220  12.868 -0.1326  1.3161  0.2041
  487TMC3     C 7297   4.587   4.628  12.794 -0.3807 -0.1145 -0.1311
  487TMC3     O 7298   4.539   4.650  12.687  0.0431  0.2976  0.0725
  487TMC3     H 7299   4.523   4.423  12.646  2.6913  1.3702 -1.3129
  487TMC3    H1 7300   4.682   4.508  13.031 -0.9699 -0.0532 -0.1019
  487TMC3    H2 7301   4.692   4.119  12.880 -3.2469  0.5614  3.5773
  487TMC3    C7 7302   4.699   4.271  13.109  1.2427 -0.5402  0.0465
  487TMC3    C8 7303   4.500   4.166  12.712  0.1074  1.0595 -0.3990
  487TMC3    O1 7304   0.016   4.345  13.188 -0.3141 -0.3662 -0.7032
  487TMC3    O2 7305   4.521   4.063  12.652 -0.8816 -0.7301 -0.3339
  488MPD2     C 7306   0.256   1.139  16.197  0.5996 -0.0720 -0.1302
  488MPD2    C1 7307   0.322   1.205  16.298 -0.0992  0.8215  0.0375
  488MPD2    C2 7308   0.363   1.131  16.407 -0.4130 -0.0945  0.5953
  488MPD2    C3 7309   0.325   0.998  16.419 -0.4777 -0.7088  0.2178
  488MPD2    C4 7310   0.249   0.933  16.319  0.4553 -0.2560 -1.0305
  488MPD2    C5 7311   0.224   1.007  16.203  0.7752  0.3662 -0.2252
  488MPD2     H 7312   0.407   1.185  16.490 -1.2300 -3.3808  3.1485
  488MPD2    H1 7313   0.216   0.830  16.324 -0.3714  0.1689  1.9931
  488MPD2    H2 7314   0.219   1.182  16.105 -0.9219  2.2583  1.5650
  488MPD2    H3 7315   0.173   0.967  16.116 -2.8792 -1.6158  2.8059
  488MPD2     N 7316   0.360   0.951  16.549  0.1483 -0.1129  0.2704
  488MPD2    H5 7317   0.380   1.023  16.618 -0.2870 -0.9172  1.2369
  488MPD2    N1 7318   0.363   1.345  16.294 -0.0282 -0.1757 -0.0144
  488MPD2    H7 7319   0.417   1.381  16.372 -0.5586 -0.6469  0.5732
  489TMC3    C1 7320   0.384   0.787  16.717 -0.3543  0.6790  0.7303
  489TMC3    C2 7321   0.469   0.875  16.777 -0.2660 -0.8508  0.6070
  489TMC3    C3 7322   0.473   0.863  16.910  0.3590  0.2813  0.2456
  489TMC3    C4 7323   0.319   0.684  16.781 -0.5338  0.4946  0.1987
  489TMC3    C5 7324   0.338   0.675  16.919  0.0457 -0.8507 -0.3837
  489TMC3    C6 7325   0.407   0.767  16.982  0.0642  0.4851 -0.1635
  489TMC3     C 7326   0.333   0.820  16.591  0.2664  0.2188  0.2518
  489TMC3     O 7327   0.259   0.738  16.542  0.2076  0.4152  0.1165
  489TMC3     H 7328   0.512   0.965  16.735 -2.7453  0.3041  0.4990
  489TMC3    H1 7329   0.246   0.616  16.739 -1.1095  0.3955  1.3656
  489TMC3    H2 7330   0.416   0.751  17.089  2.3199 -2.9350 -0.8710
  489TMC3    C7 7331   0.264   0.569  16.986  0.1220 -0.6518  0.1357
  489TMC3    C8 7332   0.517   0.987  16.969 -0.1338 -0.1361 -0.7137
  489TMC3    O1 7333   0.207   0.486  16.917  0.1929  0.2787 -0.3452
  489TMC3    O2 7334   0.626   1.026  16.927  0.6073 -0.2331  0.2708
  490MPD2     C 7335   0.709   0.619   0.260  0.3922  0.8760 -0.4236
  490MPD2    C1 7336   0.787   0.544   0.184 -0.1789  0.3655 -0.3905
  490MPD2    C2 7337   0.910   0.592   0.149  0.2053  0.0134 -0.2984
  490MPD2    C3 7338   0.961   0.710   0.202 -0.6611 -0.6573 -0.8269
  490MPD2    C4 7339   0.877   0.791   0.273  0.3474  0.2090  0.0886
  490MPD2    C5 7340   0.752   0.742   0.299  1.1905 -0.0953  0.5743
  490MPD2     H 7341   0.969   0.531   0.081 -0.9178  0.2741 -1.4959
  490MPD2    H1 7342   0.905   0.892   0.301  0.3845  0.0583  0.5992
  490MPD2    H2 7343   0.608   0.593   0.291  0.1332  2.1303 -0.2156
  490MPD2    H3 7344   0.678   0.803   0.350 -0.9781 -2.2644  0.0289
  490MPD2     N 7345   1.090   0.759   0.176 -0.3322 -0.6693  0.4940
  490MPD2    H5 7346   1.118   0.839   0.233 -3.3474  1.3082 -0.7923
  490MPD2    N1 7347   0.747   0.422   0.128 -0.6553 -0.8262 -0.1587
  490MPD2    H7 7348   0.804   0.388   0.051  1.9271  2.2455  0.4070
  491TMC3    C1 7349   0.623   0.240   0.087  0.4483  0.4311  0.0626
  491TMC3    C2 7350   0.606   0.129   0.158  0.0280  1.0554  0.0755
  491TMC3    C3 7351   0.647   0.008   0.109 -0.5828 -0.4102 -0.2642
  491TMC3    C4 7352   0.686   0.238  17.721  0.9365  0.0407 -0.2025
  491TMC3    C5 7353   0.725   0.119  17.675 -0.5311 -0.1406  0.3319
  491TMC3    C6 7354   0.705   0.004  17.745 -0.1675  0.0208  0.2904
  491TMC3     C 7355   0.636   0.359   0.170 -0.3490 -0.2613  0.2229
  491TMC3     O 7356   0.577   0.371   0.277  0.1374 -0.0359 -0.0893
  491TMC3     H 7357   0.572   0.131   0.261  2.1463 -0.5070  0.8226
  491TMC3    H1 7358   0.691   0.327  17.659  0.9973 -0.0438 -0.3176
  491TMC3    H2 7359   0.728   4.651  17.695 -1.7378  0.5592 -1.4278
  491TMC3    C7 7360   0.749   0.097  17.533  0.2356 -0.4804  0.8930
  491TMC3    C8 7361   0.690   4.647   0.207 -1.0572 -0.2317  0.5507
  491TMC3    O1 7362   0.704   4.728  17.485 -0.4399 -0.1002 -0.2297
  491TMC3    O2 7363   0.628   4.637   0.313 -0.2672  0.2702 -0.2493
  492MPD2     C 7364   0.522   0.625  10.888 -0.4752  0.2865  0.6330
  492MPD2    C1 7365   0.559   0.701  10.991 -0.8532 -0.0734  0.0684
  492MPD2    C2 7366   0.584   0.652  11.119 -0.0960  0.5717  0.4096
  492MPD2    C3 7367   0.566   0.516  11.137  0.4269 -0.3986  0.6198
  492MPD2    C4 7368   0.551   0.434  11.022 -0.6020 -0.2255  0.6480
  492MPD2    C5 7369   0.525   0.490  10.897  0.0471  0.5917 -0.6206
  492MPD2     H 7370   0.587   0.717  11.206 -0.5674 -0.7789  1.4354
  492MPD2    H1 7371   0.534   0.328  11.030 -0.0139 -0.5950 -2.8939
  492MPD2    H2 7372   0.488   0.672  10.797  2.0109  0.6324 -0.1204
  492MPD2    H3 7373   0.514   0.415  10.820 -1.2697 -0.2927  0.4281
  492MPD2     N 7374   0.565   0.447  11.255  0.0345  0.7464 -0.0039
  492MPD2    H5 7375   0.554   0.346  11.250  1.0525  0.5239  2.2619
  492MPD2    N1 7376   0.565   0.845  10.970  0.5557 -0.2235  0.5624
  492MPD2    H7 7377   0.544   0.872  10.874  2.1021 -1.5185 -0.1554
  493TMC3    C1 7378   0.567   1.082  10.996  0.8748  0.7047 -0.1112
  493TMC3    C2 7379   0.684   1.147  10.960 -0.1875  1.1468  0.1275
  493TMC3    C3 7380   0.669   1.253  10.873  0.7171  1.0540  0.0720
  493TMC3    C4 7381   0.450   1.106  10.947 -0.3795 -0.2499 -0.6407
  493TMC3    C5 7382   0.437   1.220  10.865 -0.1518  0.0240 -0.9030
  493TMC3    C6 7383   0.547   1.283  10.816 -0.6943  0.7661 -0.6850
  493TMC3     C 7384   0.591   0.953  11.062 -0.2341  0.8153 -0.4092
  493TMC3     O 7385   0.662   0.945  11.162  0.1149  0.1985  0.1775
  493TMC3     H 7386   0.767   1.107  11.017 -1.4794 -5.7686 -2.8595
  493TMC3    H1 7387   0.367   1.037  10.957 -1.0021  0.7406  0.9740
  493TMC3    H2 7388   0.531   1.377  10.764 -1.7853 -0.1132 -1.9432
  493TMC3    C7 7389   0.317   1.237  10.781  0.2201 -0.4582 -0.6979
  493TMC3    C8 7390   0.775   1.350  10.884  0.4269 -0.5272 -0.5685
  493TMC3    O1 7391   0.337   1.272  10.665  1.2930  0.6813  0.2456
  493TMC3    O2 7392   0.866   1.316  10.957  0.1414  0.5193  0.0398
  494TMC3    C1 7393   1.716   2.704   0.213  0.2512  0.3945 -0.9456
  494TMC3    C2 7394   1.726   2.572   0.260 -0.3516 -0.6551  1.0224
  494TMC3    C3 7395   1.837   2.497   0.233  0.1224 -0.0483  0.3830
  494TMC3    C4 7396   1.820   2.764   0.146  0.8397  0.2961  0.4818
  494TMC3    C5 7397   1.934   2.690   0.136 -0.3974 -0.0921  0.4484
  494TMC3    C6 7398   1.947   2.560   0.179  0.3648 -0.5619 -0.5000
  494TMC3     C 7399   1.617   2.782   0.278  0.8469 -0.1514  0.1742
  494TMC3     O 7400   1.510   2.816   0.223 -0.4529  0.4350  0.1536
  494TMC3     H 7401   1.652   2.540   0.332  0.2700 -1.3473  1.3478
  494TMC3    H1 7402   1.805   2.867   0.113 -2.6385 -0.5127 -0.4428
  494TMC3    H2 7403   2.027   2.499   0.140  0.6775  2.3192 -4.3021
  494TMC3    C7 7404   2.039   2.738   0.049 -0.3037 -0.2336 -0.5225
  494TMC3    C8 7405   1.866   2.360   0.264 -0.0796 -0.2454 -0.1561
  494TMC3    O1 7406   2.105   2.651  17.754 -0.5765 -0.7056 -0.0780
  494TMC3    O2 7407   1.975   2.332   0.314  0.0196 -0.2867 -0.0192
  495TMC3    C1 7408   1.043   4.631  14.796 -0.2088 -0.0803 -0.1050
  495TMC3    C2 7409   1.009   4.694  14.680 -0.9720  0.4579 -0.5119
  495TMC3    C3 7410   0.896   0.031  14.676  0.3043  0.2183 -0.5457
  495TMC3    C4 7411   0.978   4.662  14.915 -0.0777 -0.0760  0.3003
  495TMC3    C5 7412   0.878   0.010  14.914  0.5859 -0.0570 -0.5583
  495TMC3    C6 7413   0.825   0.059  14.796 -0.1877 -0.0649 -0.7224
  495TMC3     C 7414   1.053   4.489  14.776 -0.0585  0.0069  0.5335
  495TMC3     O 7415   0.981   4.417  14.841  0.0483 -0.1845 -0.0806
  495TMC3     H 7416   1.064   4.682  14.588  1.2396  3.2882  0.4650
  495TMC3    H1 7417   0.998   4.606  15.006 -1.5686  0.4547  0.9498
  495TMC3    H2 7418   0.743   0.129  14.792 -0.9052 -0.6878  3.0287
  495TMC3    C7 7419   0.822   0.052  15.039  0.3600  0.2408  0.9844
  495TMC3    C8 7420   0.803   4.729  14.577 -0.0628  0.1447  0.1278
  495TMC3    O1 7421   0.894   0.104  15.125  1.0057  0.8929 -0.1253
  495TMC3    O2 7422   0.686   0.025  14.589  0.5389 -0.1046 -0.0709
  496MPD2     C 7423   2.244   4.495  15.525 -0.2862  0.5472  0.5923
  496MPD2    C1 7424   2.371   4.459  15.556 -0.7855  0.0757  0.0770
  496MPD2    C2 7425   2.396   4.327  15.590 -0.9739 -0.2125  0.3766
  496MPD2    C3 7426   2.293   4.233  15.594  0.1008 -0.0469 -0.7236
  496MPD2    C4 7427   2.164   4.271  15.573  0.2575 -0.6429  0.3718
  496MPD2    C5 7428   2.147   4.403  15.535  0.2656  0.7691  0.1374
  496MPD2     H 7429   2.500   4.296  15.591 -1.2595 -1.1579  0.5814
  496MPD2    H1 7430   2.079   4.205  15.576 -0.4367  0.2592  0.7033
  496MPD2    H2 7431   2.216   4.599  15.510  2.3686  1.1598 -0.0719
  496MPD2    H3 7432   2.046   4.440  15.519 -0.2605 -0.8601 -0.3119
  496MPD2     N 7433   2.326   4.099  15.618 -0.3978 -0.4537 -0.6716
  496MPD2    H5 7434   2.422   4.066  15.628 -0.2177  0.4527  0.5608
  496MPD2    N1 7435   2.474   4.560  15.554  0.3372 -0.3483  0.0280
  496MPD2    H7 7436   2.467   4.650  15.508 -1.2557 -1.6121 -2.1735
  497TMC3    C1 7437   2.308   3.864  15.662  0.9452 -0.6146  0.2936
  497TMC3    C2 7438   2.243   3.745  15.635  0.1929 -0.0017 -0.5309
  497TMC3    C3 7439   2.297   3.631  15.680 -0.4195 -0.4758 -0.3751
  497TMC3    C4 7440   2.416   3.871  15.742  0.3285  0.3226  0.2735
  497TMC3    C5 7441   2.476   3.756  15.771  0.1790 -0.1673 -0.5012
  497TMC3    C6 7442   2.420   3.635  15.747  0.4260 -0.3674  0.3661
  497TMC3     C 7443   2.243   3.990  15.613  0.3136  0.3704  1.0030
  497TMC3     O 7444   2.125   3.976  15.582 -0.1373 -0.2478 -0.0747
  497TMC3     H 7445   2.150   3.745  15.578  0.4837 -0.1802 -1.0051
  497TMC3    H1 7446   2.457   3.967  15.769  0.4983 -0.0097  1.1888
  497TMC3    H2 7447   2.471   3.547  15.782  1.6707  0.3945  0.4726
  497TMC3    C7 7448   2.586   3.752  15.869 -1.0681 -0.3330 -0.5674
  497TMC3    C8 7449   2.261   3.512  15.609 -0.2219 -0.5300  0.1083
  497TMC3    O1 7450   2.652   3.644  15.874  0.3161 -0.6077 -0.3664
  497TMC3    O2 7451   2.190   3.542  15.516 -0.5155  0.2602  0.4108
  498MPD2     C 7452   2.748   1.317   9.903 -0.1453 -0.1411  0.1529
  498MPD2    C1 7453   2.869   1.256   9.927 -0.0883 -0.1516  0.2893
  498MPD2    C2 7454   2.877   1.131   9.995 -0.4602  1.6769 -0.7445
  498MPD2    C3 7455   2.756   1.076  10.043 -0.6000  0.6209 -1.0350
  498MPD2    C4 7456   2.634   1.133  10.015 -0.2992  0.4793  0.3923
  498MPD2    C5 7457   2.634   1.246   9.942  0.0290  0.0434  0.0634
  498MPD2     H 7458   2.973   1.085  10.014 -0.8915  1.2519  0.4393
  498MPD2    H1 7459   2.533   1.101  10.037 -0.7938  3.0306  1.8080
  498MPD2    H2 7460   2.736   1.416   9.859 -1.7033 -0.4162 -0.0705
  498MPD2    H3 7461   2.541   1.293   9.911  1.0946  2.5525  0.6628
  498MPD2     N 7462   2.762   0.956  10.117  0.4158  0.5330 -0.3999
  498MPD2    H5 7463   2.856   0.925  10.139 -0.3793 -0.6457  1.2848
  498MPD2    N1 7464   2.987   1.317   9.894  0.9738  0.4071 -0.1832
  498MPD2    H7 7465   3.069   1.257   9.883 -0.6293 -1.5407 -1.4373
  499TMC3    C1 7466   3.131   1.482   9.801 -0.5615 -0.5345  0.4118
  499TMC3    C2 7467   3.211   1.383   9.748 -0.7504 -0.6607  0.0484
  499TMC3    C3 7468   3.346   1.406   9.722 -0.3996 -0.4958  0.0522
  499TMC3    C4 7469   3.176   1.608   9.805 -0.1480 -0.7234  0.0972
  499TMC3    C5 7470   3.315   1.626   9.789 -0.3791 -0.3176  0.3314
  499TMC3    C6 7471   3.398   1.538   9.741 -0.5342 -0.1991 -0.0977
  499TMC3     C 7472   3.000   1.447   9.851 -0.1010  0.4647 -0.4802
  499TMC3     O 7473   2.929   1.545   9.873  0.5933  0.1339  0.6594
  499TMC3     H 7474   3.174   1.281   9.740  1.9520 -1.5892 -0.4049
  499TMC3    H1 7475   3.116   1.692   9.839  1.5769  0.1645  0.8973
  499TMC3    H2 7476   3.506   1.550   9.746 -0.5235 -0.0718 -0.7034
  499TMC3    C7 7477   3.370   1.763   9.804 -0.5847 -0.9371 -0.2689
  499TMC3    C8 7478   3.431   1.299   9.693 -0.1657  0.5410 -0.0331
  499TMC3    O1 7479   3.292   1.855   9.781  0.1527  0.5131 -0.0308
  499TMC3    O2 7480   3.404   1.185   9.727  0.0219  0.5239 -0.0588
  500MPD2     C 7481   0.107   2.830  10.671 -0.2961  0.0733 -0.1381
  500MPD2    C1 7482   0.023   2.720  10.671 -0.1409 -0.5059 -0.7553
  500MPD2    C2 7483   4.628   2.725  10.637 -0.3955 -0.1900 -0.6245
  500MPD2    C3 7484   4.572   2.854  10.608 -0.6257 -0.4891  0.3481
  500MPD2    C4 7485   4.663   2.959  10.602  0.2348  0.4253  0.6586
  500MPD2    C5 7486   0.056   2.948  10.632 -0.3271 -0.1404 -0.4742
  500MPD2     H 7487   4.564   2.638  10.640 -2.3364  1.2460 -0.5223
  500MPD2    H1 7488   4.622   3.060  10.601 -2.7178 -0.7540  1.5724
  500MPD2    H2 7489   0.214   2.827  10.686 -0.1415  3.0105 -0.6508
  500MPD2    H3 7490   0.119   3.037  10.628 -3.1146  1.8427 -0.1754
  500MPD2     N 7491   4.432   2.877  10.583  0.5295 -0.2484 -0.1757
  500MPD2    H5 7492   4.408   2.973  10.562  1.9126  0.2706  0.6064
  500MPD2    N1 7493   0.069   2.595  10.711 -0.1958  0.3217 -0.0706
  500MPD2    H7 7494   0.004   2.524  10.680 -0.4626  0.6932 -0.3639
  501TMC3    C1 7495   0.206   2.424  10.791  0.6870  0.1482 -0.8110
  501TMC3    C2 7496   0.179   2.336  10.686  0.0268 -0.0225  0.1742
  501TMC3    C3 7497   0.278   2.246  10.662  0.1920  0.3142 -0.1433
  501TMC3    C4 7498   0.305   2.404  10.883 -0.3799  0.2968  0.4968
  501TMC3    C5 7499   0.395   2.308  10.862  0.6597  0.0595  0.0416
  501TMC3    C6 7500   0.386   2.229  10.750  0.9213 -0.1483  0.3524
  501TMC3     C 7501   0.194   2.571  10.769  0.8882  0.4092  0.7133
  501TMC3     O 7502   0.272   2.654  10.823  0.2153 -0.0613 -0.0963
  501TMC3     H 7503   0.095   2.356  10.621  1.1786  1.3556 -0.9011
  501TMC3    H1 7504   0.309   2.458  10.977 -1.1637  0.0595  0.6589
  501TMC3    H2 7505   0.460   2.151  10.740  2.3279  1.3787 -1.1437
  501TMC3    C7 7506   0.526   2.306  10.917 -0.4437  0.2976  0.2565
  501TMC3    C8 7507   0.296   2.196  10.529 -0.0443  0.2013  0.3926
  501TMC3    O1 7508   0.609   2.233  10.865  0.2223 -0.1991  0.3841
  501TMC3    O2 7509   0.293   2.073  10.532 -0.2980 -0.1871  0.0779
  502TMC3    C1 7510   0.366   0.713  15.068  0.3601 -0.5111 -0.4472
  502TMC3    C2 7511   0.313   0.811  14.986 -0.2447  0.6350 -0.3829
  502TMC3    C3 7512   0.193   0.783  14.923  0.0383 -0.7476  0.2581
  502TMC3    C4 7513   0.291   0.607  15.104  0.1039 -0.1362 -0.6129
  502TMC3    C5 7514   0.163   0.593  15.059  0.1811 -0.0926  0.1035
  502TMC3    C6 7515   0.110   0.680  14.961  0.4067  0.0951  0.0143
  502TMC3     C 7516   0.460   0.765  15.162  0.3159  1.4446 -0.6941
  502TMC3     O 7517   0.548   0.839  15.130 -0.6312 -0.4021 -0.0496
  502TMC3     H 7518   0.376   0.889  14.944  1.1191  0.2576  0.9530
  502TMC3    H1 7519   0.337   0.535  15.170  0.9271  0.9322 -0.0256
  502TMC3    H2 7520   0.010   0.668  14.922 -0.2827 -0.0087  1.8032
  502TMC3    C7 7521   0.086   0.482  15.121 -0.5407 -0.1116  1.2423
  502TMC3    C8 7522   0.129   0.887  14.858 -0.1881  0.1909  0.1394
  502TMC3    O1 7523   0.156   0.400  15.181 -0.2677  0.6183 -0.1933
  502TMC3    O2 7524   0.134   1.004  14.900  0.0479  0.0213 -0.2217
  503MPD2     C 7525   1.806   1.408  17.711  0.3757  0.6923 -0.1405
  503MPD2    C1 7526   1.925   1.407  17.658  0.2451 -0.3215  0.1929
  503MPD2    C2 7527   2.011   1.296  17.676 -0.2986  0.1740 -0.2528
  503MPD2    C3 7528   1.960   1.180  17.736 -0.0076 -0.2960  0.8070
  503MPD2    C4 7529   1.829   1.185   0.024  0.4431 -0.3098 -0.7617
  503MPD2    C5 7530   1.757   1.298   0.010 -0.3470  0.0762 -0.1993
  503MPD2     H 7531   2.114   1.300  17.642 -0.4838  0.2962 -0.7902
  503MPD2    H1 7532   1.783   1.105   0.081 -0.8713  0.8175 -0.2337
  503MPD2    H2 7533   1.740   1.493  17.701 -0.8264 -0.3309 -0.8800
  503MPD2    H3 7534   1.655   1.307   0.046 -0.5572 -1.6874 -0.3794
  503MPD2     N 7535   2.054   1.078  17.751 -0.6169  0.5671 -0.5328
  503MPD2    H5 7536   2.146   1.090  17.708 -0.5961  0.2496 -0.5775
  503MPD2    N1 7537   1.967   1.509  17.573  0.1236  0.3409 -0.1236
  503MPD2    H7 7538   2.055   1.504  17.523  0.8498 -0.2817  1.2150
  504TMC3    C1 7539   2.132   0.862   0.010 -0.3600 -0.0834  0.3244
  504TMC3    C2 7540   2.110   0.736   0.060  0.5331 -0.7734  0.0873
  504TMC3    C3 7541   2.142   0.631  17.735 -0.7791 -0.0750 -0.4322
  504TMC3    C4 7542   2.202   0.881  17.656 -0.3589 -0.0130  0.0383
  504TMC3    C5 7543   2.240   0.770  17.578 -1.1034 -0.3679 -0.1950
  504TMC3    C6 7544   2.207   0.643  17.617  0.0975 -0.3959 -0.2703
  504TMC3     C 7545   2.023   0.956   0.041  0.3340  0.1666 -0.8945
  504TMC3     O 7546   1.925   0.928   0.106 -0.4673  0.2081  0.0621
  504TMC3     H 7547   2.044   0.713   0.143  1.4059 -2.3553  0.3466
  504TMC3    H1 7548   2.237   0.977  17.617 -2.4962  0.1602 -1.4419
  504TMC3    H2 7549   2.239   0.549  17.574 -1.8101 -1.2003  0.0635
  504TMC3    C7 7550   2.374   0.766  17.518 -0.1548  0.1456  0.2791
  504TMC3    C8 7551   2.171   0.508   0.045 -0.0215  0.3230  0.0791
  504TMC3    O1 7552   2.399   0.700  17.421 -0.0949  0.3606 -0.0583
  504TMC3    O2 7553   2.143   0.410  17.738  0.1440  0.0527  0.1149
  505MPD2     C 7554   2.339   0.257  11.038 -0.3919 -1.1686  0.1759
  505MPD2    C1 7555   2.442   0.164  11.050 -0.3336  0.0155 -0.2798
  505MPD2    C2 7556   2.554   0.198  11.129 -0.2196  0.2898 -0.0099
  505MPD2    C3 7557   2.552   0.316  11.207 -0.0579 -0.2626  0.5640
  505MPD2    C4 7558   2.445   0.401  11.194 -0.3432 -0.5248  0.1452
  505MPD2    C5 7559   2.338   0.374  11.115  0.1351  0.3234  0.3101
  505MPD2     H 7560   2.636   0.128  11.133  0.9282  1.5948 -0.8326
  505MPD2    H1 7561   2.445   0.490  11.255  0.5764  0.0932 -0.7634
  505MPD2    H2 7562   2.258   0.226  10.974 -2.2480  0.8814  1.5376
  505MPD2    H3 7563   2.252   0.439  11.101 -2.1109 -2.6784  0.1809
  505MPD2     N 7564   2.664   0.362  11.271 -0.1899 -0.0599 -0.3002
  505MPD2    H5 7565   2.660   0.459  11.301 -0.4242 -0.1188 -0.1350
  505MPD2    N1 7566   2.434   0.037  10.994 -0.3082 -0.1818 -0.1263
  505MPD2    H7 7567   2.354   0.023  10.933 -0.6192 -0.7503  0.4191
  506TMC3    C1 7568   2.493   4.553  10.931  0.4980  0.2672  0.6559
  506TMC3    C2 7569   2.480   4.579  10.798  0.2415  0.3900  0.4371
  506TMC3    C3 7570   2.552   4.506  10.712  0.0779 -0.2740 -0.0432
  506TMC3    C4 7571   2.576   4.451  10.970  0.5185 -0.2082 -0.5277
  506TMC3    C5 7572   2.652   4.386  10.879 -0.3910  0.2660 -0.5423
  506TMC3    C6 7573   2.634   4.406  10.745  0.0731 -0.4725  0.2900
  506TMC3     C 7574   2.521   4.673  11.016 -0.5392 -0.3057  0.6861
  506TMC3     O 7575   2.605   4.654  11.100  0.6528 -0.4406  0.3639
  506TMC3     H 7576   2.424   4.665  10.765 -0.1831  0.4434  1.2784
  506TMC3    H1 7577   2.594   4.430  11.075 -0.0445  0.9800 -0.1959
  506TMC3    H2 7578   2.704   4.358  10.676  1.0305  0.8745  0.3147
  506TMC3    C7 7579   2.796   4.379  10.915 -0.2455  0.0826  0.8774
  506TMC3    C8 7580   2.543   4.534  10.574 -0.4061 -0.3210 -0.0237
  506TMC3    O1 7581   2.867   4.299  10.859  0.3604  0.5080 -0.3193
  506TMC3    O2 7582   2.575   4.446  10.493 -0.1628  0.6524  0.5113
  507TMC3    C1 7583   3.713   1.588  15.298 -0.0377 -0.1459 -0.0782
  507TMC3    C2 7584   3.758   1.527  15.187  1.0943 -0.3351 -0.1165
  507TMC3    C3 7585   3.770   1.614  15.079  0.1783 -0.5276  0.2736
  507TMC3    C4 7586   3.701   1.722  15.317  0.3211 -0.2265  0.0513
  507TMC3    C5 7587   3.729   1.803  15.208  1.0202  0.0267  0.3980
  507TMC3    C6 7588   3.762   1.750  15.084 -0.3734 -0.4727 -0.3293
  507TMC3     C 7589   3.686   1.507  15.421  0.3846 -0.2307  0.4471
  507TMC3     O 7590   3.692   1.574  15.524 -0.1832 -0.2373  0.3985
  507TMC3     H 7591   3.759   1.419  15.177  0.1975 -0.2364 -1.3122
  507TMC3    H1 7592   3.648   1.756  15.406  1.5444 -0.9571  1.0554
  507TMC3    H2 7593   3.786   1.815  15.001  2.7178 -1.0312  0.1044
  507TMC3    C7 7594   3.640   1.918  15.182 -0.2176  0.7729  0.3330
  507TMC3    C8 7595   3.697   1.560  14.967  0.4455  0.3656 -0.0489
  507TMC3    O1 7596   3.622   1.952  15.067  0.0970  0.2071  0.0412
  507TMC3    O2 7597   3.708   1.442  14.930  0.5702  0.4929 -0.3926
  508MPD2     C 7598   4.725   2.846  16.147 -0.9918  0.7465 -0.4726
  508MPD2    C1 7599   4.667   2.966  16.182  0.1073  0.1769  0.2873
  508MPD2    C2 7600   4.580   3.032  16.093 -0.3550  0.0985  0.2561
  508MPD2    C3 7601   4.561   2.987  15.971 -0.1668 -0.3721 -0.4836
  508MPD2    C4 7602   4.629   2.871  15.928 -0.7692 -0.3773 -0.9091
  508MPD2    C5 7603   4.703   2.804  16.019  0.2774 -0.0241  0.0369
  508MPD2     H 7604   4.551   3.134  16.115 -0.4850  0.4595 -1.6261
  508MPD2    H1 7605   4.620   2.828  15.829  1.5786 -0.2095 -1.1780
  508MPD2    H2 7606   0.053   2.798  16.216  0.3723  1.2515 -1.4408
  508MPD2    H3 7607   4.740   2.704  16.001 -0.2765 -0.6971  2.7678
  508MPD2     N 7608   4.496   3.058  15.867  0.1671 -0.4077  0.5476
  508MPD2    H5 7609   4.515   3.021  15.775 -1.5227 -0.6759  0.2990
  508MPD2    N1 7610   4.687   3.002  16.317 -0.1309 -0.9320  0.5245
  508MPD2    H7 7611   0.010   2.948  16.375  0.4493 -0.7337  0.0764
  509TMC3    C1 7612   4.323   3.487  15.769  0.2000  0.3457  0.0590
  509TMC3    C2 7613   4.448   3.551  15.757 -0.5214  0.5086 -0.6521
  509TMC3    C3 7614   4.563   3.470  15.777  0.0149 -0.3221 -0.9181
  509TMC3    C4 7615   4.313   3.355  15.788 -0.4033 -0.8477  0.4822
  509TMC3    C5 7616   4.428   3.277  15.795 -0.7221  0.1949  0.0684
  509TMC3    C6 7617   4.554   3.332  15.795 -0.5090 -0.2693  0.2291
  509TMC3     C 7618   4.200   3.567  15.747  0.2724  0.6784 -0.1965
  509TMC3     O 7619   4.099   3.536  15.810 -0.1656 -0.0290 -0.0956
  509TMC3     H 7620   4.453   3.658  15.746 -0.3311  0.5155 -0.5043
  509TMC3    H1 7621   4.215   3.310  15.782 -0.3516 -1.1449  1.8859
  509TMC3    H2 7622   4.642   3.270  15.809 -0.7774 -0.5567  0.6245
  509TMC3    C7 7623   4.408   3.165  15.890 -0.1906 -0.2540 -0.4291
  509TMC3    C8 7624   4.672   3.536  15.850 -0.3522 -0.0217  0.5571
  509TMC3    O1 7625   4.348   3.191  15.993 -0.1565  0.0150  0.0289
  509TMC3    O2 7626   4.735   3.464  15.924 -0.5237  0.1819  0.3729
  510MPD2     C 7627   1.991   0.252  14.350  0.0073  0.6810  0.5599
  510MPD2    C1 7628   2.096   0.198  14.427 -0.3547 -0.2436  0.4911
  510MPD2    C2 7629   2.216   0.192  14.367 -0.5537  0.2476 -0.8230
  510MPD2    C3 7630   2.238   0.233  14.239  0.3073  0.4487  0.3527
  510MPD2    C4 7631   2.137   0.277  14.156  0.5511 -0.6758 -0.2420
  510MPD2    C5 7632   2.016   0.300  14.218 -0.2643  0.3830 -0.0237
  510MPD2     H 7633   2.303   0.161  14.423 -0.4923 -0.6258 -1.4018
  510MPD2    H1 7634   2.152   0.317  14.057  0.9505  0.9612  0.4803
  510MPD2    H2 7635   1.892   0.270  14.390 -0.0057  0.6629  0.5363
  510MPD2    H3 7636   1.930   0.340  14.165  0.1880  1.0314 -0.2599
  510MPD2     N 7637   2.370   0.206  14.199 -0.1942  0.1999  0.0059
  510MPD2    H5 7638   2.421   0.171  14.279  0.1152 -0.6900 -0.5838
  510MPD2    N1 7639   2.087   0.160  14.562  0.0973  0.2381 -0.1202
  510MPD2    H7 7640   2.167   0.105  14.590 -1.2455 -0.0761  3.1304
  511TMC3    C1 7641   1.959   0.079  14.750  0.4225  0.2888 -0.0515
  511TMC3    C2 7642   1.891   0.135  14.861  0.3231  0.0260  0.9018
  511TMC3    C3 7643   1.854   0.048  14.961  0.2794 -0.3755 -0.4961
  511TMC3    C4 7644   2.001   4.693  14.751  0.4702 -0.4194  0.2420
  511TMC3    C5 7645   1.948   4.608  14.841 -0.4620  0.2679 -0.6342
  511TMC3    C6 7646   1.870   4.652  14.943 -0.6511  0.3278 -0.2624
  511TMC3     C 7647   1.973   0.163  14.633 -0.6335  0.8937 -0.2556
  511TMC3     O 7648   1.892   0.254  14.621  0.0326 -0.4116  0.0020
  511TMC3     H 7649   1.850   0.235  14.859 -2.2690 -0.9939  3.0114
  511TMC3    H1 7650   2.058   4.652  14.668  0.0030  2.5331 -1.5410
  511TMC3    H2 7651   1.823   4.577  15.006  2.3891 -1.8581 -0.5776
  511TMC3    C7 7652   1.947   4.468  14.794 -0.2416 -0.5395 -0.5020
  511TMC3    C8 7653   1.742   0.093  15.048 -0.4978 -0.5593 -0.8235
  511TMC3    O1 7654   1.971   4.455  14.671 -0.3089 -0.4265 -0.5938
  511TMC3    O2 7655   1.700   0.208  15.042 -0.0553 -0.2216 -0.1141
  512TMC3    C1 7656   0.437   4.524  13.747  0.0663  0.5780 -0.0597
  512TMC3    C2 7657   0.568   4.519  13.757  0.4666 -0.3398 -0.5143
  512TMC3    C3 7658   0.628   4.415  13.695 -0.1031 -0.8410 -0.4400
  512TMC3    C4 7659   0.360   4.433  13.676 -0.3290 -0.2993 -0.0919
  512TMC3    C5 7660   0.421   4.322  13.626 -0.6426 -0.4725  0.2671
  512TMC3    C6 7661   0.555   4.314  13.638  0.3217  0.2081 -0.1634
  512TMC3     C 7662   0.386   4.657  13.765 -0.0417  0.0597  0.4605
  512TMC3     O 7663   0.458   0.019  13.749 -0.2941  0.3253 -0.1515
  512TMC3     H 7664   0.622   4.580  13.828 -0.3475  0.5206 -0.6339
  512TMC3    H1 7665   0.255   4.446  13.653 -0.2910  0.4770  0.1766
  512TMC3    H2 7666   0.614   4.233  13.597  0.7434  1.0793 -1.2811
  512TMC3    C7 7667   0.343   4.214  13.576 -0.3967 -0.6515  0.0950
  512TMC3    C8 7668   0.777   4.408  13.698  0.0128 -0.0180  0.5735
  512TMC3    O1 7669   0.230   4.197  13.624 -0.0338 -0.5197  0.0600
  512TMC3    O2 7670   0.829   4.306  13.657 -0.4815  0.3398 -0.0614
  513MPD2     C 7671   2.568   4.148  13.672 -0.1634 -0.4060  0.0187
  513MPD2    C1 7672   2.663   4.191  13.573  0.0948  0.3801 -0.1276
  513MPD2    C2 7673   2.771   4.266  13.620  0.1963 -0.6857  0.3140
  513MPD2    C3 7674   2.781   4.298  13.752  0.4762 -0.0413  0.8981
  513MPD2    C4 7675   2.688   4.258  13.848  0.3687 -0.3683  0.0399
  513MPD2    C5 7676   2.580   4.184  13.806 -0.1452 -0.1050  1.0199
  513MPD2     H 7677   2.845   4.301  13.549  1.1966 -1.0866  1.1659
  513MPD2    H1 7678   2.695   4.273  13.955  0.6712  1.9095 -0.2987
  513MPD2    H2 7679   2.483   4.090  13.639  0.8357 -1.4177 -0.7897
  513MPD2    H3 7680   2.512   4.137  13.876 -0.2252  0.2353  1.1688
  513MPD2     N 7681   2.878   4.390  13.777  0.3036 -0.0818  0.2705
  513MPD2    H5 7682   2.929   4.424  13.696 -0.0497 -1.5289 -0.5540
  513MPD2    N1 7683   2.659   4.151  13.438  0.0361 -0.7021 -0.2145
  513MPD2    H7 7684   2.734   4.186  13.379 -0.9280  0.0086 -1.0055
  514TMC3    C1 7685   2.640   4.019  13.262  0.3141 -0.5586 -0.8181
  514TMC3    C2 7686   2.564   4.058  13.158  0.4448 -0.5976  0.7579
  514TMC3    C3 7687   2.626   4.123  13.049 -0.7197  0.5995  0.1938
  514TMC3    C4 7688   2.773   4.050  13.262  0.6180 -0.1077 -0.4219
  514TMC3    C5 7689   2.840   4.107  13.156  0.1602 -0.5405 -0.5420
  514TMC3    C6 7690   2.764   4.142  13.048  0.5369  0.2319 -0.3585
  514TMC3     C 7691   2.582   4.050  13.386 -0.0950 -0.5483 -0.0424
  514TMC3     O 7692   2.478   3.997  13.416 -0.0188 -0.2441  0.5123
  514TMC3     H 7693   2.459   4.030  13.163  0.0533  1.0489  1.5539
  514TMC3    H1 7694   2.830   4.011  13.345  0.3555  1.9907  0.7391
  514TMC3    H2 7695   2.807   4.212  12.978  0.4419  0.6765  0.0279
  514TMC3    C7 7696   2.927   4.221  13.207 -0.3338  0.4179  0.6878
  514TMC3    C8 7697   2.542   4.141  12.933  0.4278  0.5793 -0.3201
  514TMC3    O1 7698   2.899   4.243  13.325 -0.4524 -0.4911  0.9737
  514TMC3    O2 7699   2.426   4.115  12.943  0.3918  0.8550 -0.2479
  515MPD2     C 7700   0.815   1.543  14.433 -0.6200 -0.1226  0.0491
  515MPD2    C1 7701   0.787   1.420  14.500  1.2019  0.6208 -0.4340
  515MPD2    C2 7702   0.867   1.397  14.613 -0.1176  0.0812 -0.5727
  515MPD2    C3 7703   0.971   1.478  14.644 -0.0856  0.3466 -0.7511
  515MPD2    C4 7704   0.996   1.595  14.572  0.3781  0.7489 -0.0624
  515MPD2    C5 7705   0.915   1.623  14.464  0.0338  0.0161 -0.0634
  515MPD2     H 7706   0.858   1.295  14.649  0.7063 -0.4104 -1.7312
  515MPD2    H1 7707   1.070   1.670  14.596 -0.5645  2.2547 -1.9220
  515MPD2    H2 7708   0.760   1.576  14.346 -1.7804  0.9463  1.1883
  515MPD2    H3 7709   0.930   1.714  14.406  0.7958  0.2304  0.4586
  515MPD2     N 7710   1.060   1.443  14.751  0.5853  0.0997  0.0681
  515MPD2    H5 7711   1.140   1.505  14.755 -0.3103  1.2635 -0.0337
  515MPD2    N1 7712   0.686   1.318  14.472 -0.0966  0.2402  0.6799
  515MPD2    H7 7713   0.695   1.242  14.539  0.8554 -1.1968 -1.1162
  516TMC3    C1 7714   0.482   1.228  14.369  0.8950 -0.0301 -0.5219
  516TMC3    C2 7715   0.377   1.264  14.287 -0.1668 -0.0781 -0.6079
  516TMC3    C3 7716   0.265   1.184  14.298  0.0236 -0.5825  0.4738
  516TMC3    C4 7717   0.492   1.116  14.446  0.0361 -1.0074 -0.0463
  516TMC3    C5 7718   0.380   1.042  14.446 -0.4400 -0.4102 -0.0308
  516TMC3    C6 7719   0.259   1.077  14.385 -0.0871 -0.2472  0.1435
  516TMC3     C 7720   0.593   1.320  14.368 -0.6670  0.1447  0.8802
  516TMC3     O 7721   0.603   1.391  14.265  0.2063 -0.2482 -0.4199
  516TMC3     H 7722   0.389   1.353  14.227  1.5668  2.0721  2.8934
  516TMC3    H1 7723   0.580   1.091  14.505  0.2119  1.4200  0.7283
  516TMC3    H2 7724   0.162   1.033  14.406  0.8700 -1.4504  2.0733
  516TMC3    C7 7725   0.387   0.927  14.546  0.7133  0.0599 -0.6491
  516TMC3    C8 7726   0.136   1.249  14.288  0.0011 -0.1787  0.0763
  516TMC3    O1 7727   0.484   0.929  14.619  0.6218 -0.1066 -0.1788
  516TMC3    O2 7728   0.048   1.193  14.222 -0.0251  0.3020 -0.0367
  517MPD2     C 7729   0.406   2.616  17.368 -0.0324  0.4696 -0.5461
  517MPD2    C1 7730   0.480   2.600  17.483  0.7699 -0.3032 -0.4039
  517MPD2    C2 7731   0.525   2.715  17.550  0.3543 -0.9446 -0.5701
  517MPD2    C3 7732   0.477   2.845  17.511 -0.3743 -0.2028  0.0781
  517MPD2    C4 7733   0.407   2.853  17.397  0.0282  0.4401  0.1119
  517MPD2    C5 7734   0.388   2.747  17.318 -0.0971 -0.3648 -0.2360
  517MPD2     H 7735   0.593   2.701  17.633  0.2529 -2.0362 -0.6781
  517MPD2    H1 7736   0.373   2.947  17.356  1.2034  0.2261 -1.3759
  517MPD2    H2 7737   0.369   2.533  17.308  2.2334  0.0928 -1.4554
  517MPD2    H3 7738   0.328   2.748  17.227 -0.3390  2.0983 -0.0462
  517MPD2     N 7739   0.512   2.962  17.574 -0.0287 -0.0190 -0.0313
  517MPD2    H5 7740   0.475   3.045  17.531 -0.4804  1.0255  2.3890
  517MPD2    N1 7741   0.543   2.477  17.521  0.0226 -0.3678  0.9383
  517MPD2    H7 7742   0.618   2.488  17.588 -0.7091 -2.1292  2.0618
  518TMC3    C1 7743   0.621   2.256  17.497 -0.0113  0.1566 -0.1902
  518TMC3    C2 7744   0.585   2.125  17.506 -0.5115  0.8348 -0.9106
  518TMC3    C3 7745   0.682   2.040  17.539  0.1668  0.0823 -0.2588
  518TMC3    C4 7746   0.757   2.298  17.505 -0.1526 -0.0457 -0.7870
  518TMC3    C5 7747   0.852   2.199  17.521  0.7228 -0.5659  0.0040
  518TMC3    C6 7748   0.811   2.075  17.557  0.2082 -0.0889  0.8861
  518TMC3     C 7749   0.517   2.354  17.465 -0.2747  0.7808 -0.2399
  518TMC3     O 7750   0.428   2.328  17.384  0.6547  0.0722 -0.1502
  518TMC3     H 7751   0.482   2.094  17.502 -1.0060  2.6371 -1.8956
  518TMC3    H1 7752   0.788   2.399  17.482  0.2374  0.0075 -0.0170
  518TMC3    H2 7753   0.889   2.002  17.573 -1.5494 -1.8253  1.4707
  518TMC3    C7 7754   0.989   2.244  17.502 -0.4037 -0.1451 -0.2654
  518TMC3    C8 7755   0.652   1.900  17.509 -0.3738  0.2869  0.9383
  518TMC3    O1 7756   1.012   2.363  17.479 -0.1614  0.1285 -0.5147
  518TMC3    O2 7757   0.728   1.836  17.434 -0.3849 -0.9785 -0.2526
  519MPD2     C 7758   2.395   1.376  14.494  0.8306  0.9485  0.1951
  519MPD2    C1 7759   2.307   1.303  14.409  0.2548  0.4686  0.1583
  519MPD2    C2 7760   2.355   1.195  14.338  0.3490  0.1012  0.1732
  519MPD2    C3 7761   2.486   1.166  14.346  0.0835  0.6395  0.1133
  519MPD2    C4 7762   2.578   1.240  14.421  0.4884  0.1035 -0.0523
  519MPD2    C5 7763   2.530   1.341  14.500  0.0874  0.0767 -0.2095
  519MPD2     H 7764   2.301   1.124  14.276  1.5931 -0.1130 -0.6791
  519MPD2    H1 7765   2.685   1.223  14.419  0.4346 -0.1239 -1.3110
  519MPD2    H2 7766   2.357   1.462  14.548 -0.5706 -0.0436  0.8050
  519MPD2    H3 7767   2.599   1.402  14.558 -1.2226 -0.8640  2.3275
  519MPD2     N 7768   2.528   1.060  14.259 -0.2144  0.4341  0.5294
  519MPD2    H5 7769   2.461   1.016  14.196  0.7312 -1.4159  0.8359
  519MPD2    N1 7770   2.163   1.325  14.401 -0.1639  0.1504 -0.8346
  519MPD2    H7 7771   2.107   1.261  14.345  0.3538  1.2168 -2.5494
  520TMC3    C1 7772   2.662   0.904  14.154  0.1127  0.2725 -0.5670
  520TMC3    C2 7773   2.583   0.911  14.040  0.2074  0.0748  0.1972
  520TMC3    C3 7774   2.612   0.822  13.942 -0.2216  0.7262 -0.4242
  520TMC3    C4 7775   2.767   0.822  14.165 -0.3035  0.0139 -0.3675
  520TMC3    C5 7776   2.797   0.737  14.055 -0.4598 -0.5432 -0.1203
  520TMC3    C6 7777   2.721   0.741  13.945  0.8980  0.2650  0.5640
  520TMC3     C 7778   2.655   1.010  14.245  0.1140  0.2267 -0.4322
  520TMC3     O 7779   2.754   1.034  14.312  0.2528  0.6569  0.2495
  520TMC3     H 7780   2.506   0.986  14.027 -0.1476 -0.5343 -1.2248
  520TMC3    H1 7781   2.826   0.821  14.256  2.3648 -2.8658 -2.1539
  520TMC3    H2 7782   2.727   0.666  13.868 -1.0168 -0.9838  1.6148
  520TMC3    C7 7783   2.888   0.627  14.080 -0.4480 -0.2294 -0.1839
  520TMC3    C8 7784   2.552   0.843  13.813  0.2591  0.1627  0.5782
  520TMC3    O1 7785   2.964   0.641  14.175  0.1739  0.1909 -0.3632
  520TMC3    O2 7786   2.608   0.809  13.711  0.3691  0.1677  0.0249
  521MPD2     C 7787   3.422   4.135  17.324  0.9080 -0.1877  0.1286
  521MPD2    C1 7788   3.416   3.998  17.357  0.0384  0.5889  0.7464
  521MPD2    C2 7789   3.532   3.924  17.378 -0.2284 -0.3189  0.0448
  521MPD2    C3 7790   3.653   3.982  17.374 -0.2903 -0.0500 -0.3057
  521MPD2    C4 7791   3.660   4.122  17.346  0.4049 -0.6009  0.4259
  521MPD2    C5 7792   3.548   4.196  17.313  0.2174 -0.3854  0.0004
  521MPD2     H 7793   3.531   3.818  17.402 -0.7414 -0.3736 -0.2147
  521MPD2    H1 7794   3.755   4.173  17.336  0.3473  0.4825  5.4313
  521MPD2    H2 7795   3.331   4.186  17.294 -0.2208 -2.7986 -0.9167
  521MPD2    H3 7796   3.540   4.299  17.279  1.8396 -0.3078 -0.1454
  521MPD2     N 7797   3.766   3.897  17.377  0.1624  0.1029 -0.5904
  521MPD2    H5 7798   3.754   3.798  17.395 -0.7619  0.2496 -0.3982
  521MPD2    N1 7799   3.285   3.941  17.364  0.6678  1.1375  0.2050
  521MPD2    H7 7800   3.205   4.001  17.348 -1.0496 -1.3683 -0.4078
  522TMC3    C1 7801   3.970   3.810  17.345  0.4570  0.3256 -0.7154
  522TMC3    C2 7802   4.105   3.824  17.322  0.3622 -0.5921  0.0837
  522TMC3    C3 7803   4.175   3.734  17.256  0.1363  0.2845  0.0010
  522TMC3    C4 7804   3.906   3.705  17.281 -0.1014 -0.2681  0.2370
  522TMC3    C5 7805   3.976   3.618  17.201 -0.3830 -0.2963 -0.1032
  522TMC3    C6 7806   4.112   3.628  17.190 -0.3194  0.4205  0.0719
  522TMC3     C 7807   3.897   3.928  17.374  0.4477  0.0842  0.6791
  522TMC3     O 7808   3.955   4.037  17.378  0.0202 -0.1404 -0.0126
  522TMC3     H 7809   4.152   3.905  17.376 -0.3388  0.1145 -0.3697
  522TMC3    H1 7810   3.808   3.668  17.310  0.0923 -0.8741  0.1142
  522TMC3    H2 7811   4.160   3.554  17.127 -2.8747 -2.6922  1.7766
  522TMC3    C7 7812   3.906   3.500  17.158 -0.2275 -0.2781  0.3061
  522TMC3    C8 7813   4.306   3.759  17.215 -0.4401 -0.0577 -0.2070
  522TMC3    O1 7814   3.921   3.403  17.227 -0.0349 -0.2853 -0.4597
  522TMC3    O2 7815   4.346   3.870  17.242  0.0762  0.1604 -0.4869
  523MPD2     C 7816   0.363   4.241  10.380 -1.3468  0.5092  0.0784
  523MPD2    C1 7817   0.290   4.145  10.322 -0.1880  0.1676 -0.4443
  523MPD2    C2 7818   0.199   4.175  10.222 -0.1895  0.1875 -1.0667
  523MPD2    C3 7819   0.160   4.303  10.204  0.6996 -0.2796  0.9285
  523MPD2    C4 7820   0.232   4.398  10.269 -0.1574 -0.0802 -0.2860
  523MPD2    C5 7821   0.333   4.372  10.357 -0.2452  0.4626 -0.4897
  523MPD2     H 7822   0.151   4.093  10.170 -1.6732  1.3463 -1.5259
  523MPD2    H1 7823   0.196   4.499  10.257  0.3545 -0.0146 -1.2217
  523MPD2    H2 7824   0.444   4.218  10.448 -0.5583  1.9078 -0.3887
  523MPD2    H3 7825   0.388   4.446  10.414 -1.5244  1.6086 -0.7568
  523MPD2     N 7826   0.060   4.352  10.119  0.3267 -0.2062 -0.2740
  523MPD2    H5 7827   0.032   4.449  10.133 -0.1836 -0.2657 -0.9001
  523MPD2    N1 7828   0.324   4.013  10.362  0.5250 -0.2304 -0.1412
  523MPD2    H7 7829   0.404   4.010  10.425  0.3918 -0.2616  0.0276
  524TMC3    C1 7830   4.622   4.337   9.959  0.3191  0.5888 -0.3265
  524TMC3    C2 7831   4.579   4.291   9.839 -0.0126  0.3545  0.0430
  524TMC3    C3 7832   4.479   4.354   9.774 -0.2931  0.0223  0.3268
  524TMC3    C4 7833   4.571   4.450  10.013 -0.0099 -0.4025  0.2574
  524TMC3    C5 7834   4.476   4.520   9.941 -0.6367 -0.4569  0.4229
  524TMC3    C6 7835   4.433   4.471   9.819 -0.8543  0.4666  0.5297
  524TMC3     C 7836   4.735   4.269  10.027  0.1314  0.0080 -0.8273
  524TMC3     O 7837   0.028   4.157   9.981 -0.2546  0.5884  0.2033
  524TMC3     H 7838   4.608   4.188   9.818 -2.1794 -0.6446  1.9333
  524TMC3    H1 7839   4.586   4.473  10.118  1.0133  2.2085 -0.4500
  524TMC3    H2 7840   4.367   4.528   9.754  1.6991 -0.0295 -2.4705
  524TMC3    C7 7841   4.445   4.647   9.993 -0.9584  0.2109  0.4225
  524TMC3    C8 7842   4.431   4.297   9.648  0.4547  0.4691 -0.9837
  524TMC3    O1 7843   4.494   4.680  10.100 -0.7378 -0.5368  0.1660
  524TMC3    O2 7844   4.329   4.359   9.612 -0.3577 -0.2858  0.3613
  525MPD2     C 7845   3.535   0.335  14.470  0.0114  0.0583  0.3307
  525MPD2    C1 7846   3.652   0.388  14.527 -0.6164 -0.1517 -0.6647
  525MPD2    C2 7847   3.670   0.524  14.535 -0.4739 -0.0481 -0.3182
  525MPD2    C3 7848   3.573   0.604  14.487  0.2729 -0.1846 -0.9789
  525MPD2    C4 7849   3.458   0.557  14.420 -0.1540  0.1329 -0.3685
  525MPD2    C5 7850   3.447   0.418  14.403 -0.0524 -0.0123 -0.3084
  525MPD2     H 7851   3.756   0.565  14.587 -0.1295 -1.1114 -0.0611
  525MPD2    H1 7852   3.395   0.633  14.375  1.4867  1.7022  0.0093
  525MPD2    H2 7853   3.529   0.228  14.457 -1.9173  0.3070 -0.8973
  525MPD2    H3 7854   3.356   0.374  14.365  1.8138 -2.7883 -1.5483
  525MPD2     N 7855   3.579   0.743  14.505  0.6324  0.2341 -0.2047
  525MPD2    H5 7856   3.497   0.801  14.486  0.4166 -0.3409 -0.9981
  525MPD2    N1 7857   3.751   0.313  14.591  0.0233 -0.6607  0.1517
  525MPD2    H7 7858   3.831   0.364  14.628 -1.1570  1.2750  0.0877
  526TMC3    C1 7859   3.853   0.126  14.696  0.3200 -0.6846  0.2266
  526TMC3    C2 7860   3.814   0.020  14.779 -0.1763 -0.1384 -0.1589
  526TMC3    C3 7861   3.913   4.701  14.854  0.1791 -0.0131  0.1665
  526TMC3    C4 7862   3.979   0.172  14.675 -0.1969  0.4586 -0.4283
  526TMC3    C5 7863   4.071   0.100  14.745 -0.3642 -0.4364  0.4418
  526TMC3    C6 7864   4.043   4.728  14.819  0.1649  0.2157 -0.6204
  526TMC3     C 7865   3.737   0.189  14.640  0.3756 -0.0711  0.1081
  526TMC3     O 7866   3.643   0.117  14.609 -0.1708 -0.1514  0.1422
  526TMC3     H 7867   3.708   4.739  14.788 -0.2957  0.2385 -0.7101
  526TMC3    H1 7868   4.007   0.252  14.608 -0.1580  1.8089  1.1908
  526TMC3    H2 7869   4.120   4.667  14.866 -1.2915  0.2236  1.7389
  526TMC3    C7 7870   4.214   0.116  14.709  0.3354 -0.0221  0.3468
  526TMC3    C8 7871   3.886   4.651  14.986 -0.0351 -1.2073  0.4665
  526TMC3    O1 7872   4.288   0.045  14.779  0.4003  0.0609  0.1970
  526TMC3    O2 7873   3.983   4.613  15.051 -0.0834 -0.1189  0.4120
  527MPD2     C 7874   1.958   3.547   1.561 -0.1869 -0.1984 -0.2522
  527MPD2    C1 7875   1.896   3.508   1.443 -0.3025 -0.7213  0.2842
  527MPD2    C2 7876   1.976   3.466   1.344 -0.1081  0.2871  0.6180
  527MPD2    C3 7877   2.114   3.451   1.358 -0.7897  0.2132 -0.0302
  527MPD2    C4 7878   2.174   3.486   1.474  0.3907 -0.7312 -0.3418
  527MPD2    C5 7879   2.090   3.529   1.570 -0.5960  0.3490  0.2383
  527MPD2     H 7880   1.921   3.426   1.259 -1.3636  0.5669  1.2979
  527MPD2    H1 7881   2.277   3.470   1.501 -0.0155 -2.5537  0.1275
  527MPD2    H2 7882   1.907   3.586   1.648 -0.1828 -1.8492  0.4942
  527MPD2    H3 7883   2.128   3.542   1.671 -1.7561  1.6451  0.4907
  527MPD2     N 7884   2.188   3.412   1.242 -0.2645 -0.7252  0.5074
  527MPD2    H5 7885   2.129   3.389   1.162  3.1180 -0.0350 -2.1709
  527MPD2    N1 7886   1.760   3.512   1.420 -0.5772 -0.6277 -0.0238
  527MPD2    H7 7887   1.724   3.475   1.333  0.5500 -2.1264  0.1547
  528TMC3    C1 7888   1.536   3.582   1.451  0.0003 -0.3444 -1.2735
  528TMC3    C2 7889   1.534   3.602   1.318 -0.0994  0.3810  0.0491
  528TMC3    C3 7890   1.410   3.603   1.259 -0.8384  0.0094  0.1395
  528TMC3    C4 7891   1.423   3.559   1.528 -0.1823  0.2764  0.0381
  528TMC3    C5 7892   1.310   3.548   1.457  0.4112  0.0507 -0.0168
  528TMC3    C6 7893   1.300   3.567   1.322 -0.0134  0.2614 -0.2452
  528TMC3     C 7894   1.671   3.578   1.503  0.0505 -0.0430  0.2264
  528TMC3     O 7895   1.680   3.629   1.614  0.1353 -0.2347  0.2050
  528TMC3     H 7896   1.622   3.622   1.257 -0.1172 -1.6324 -0.6399
  528TMC3    H1 7897   1.442   3.542   1.633 -1.3684  1.6548  0.4802
  528TMC3    H2 7898   1.200   3.590   1.285 -0.0627  2.7134  1.3562
  528TMC3    C7 7899   1.192   3.482   1.509  0.4439 -0.4723 -0.5413
  528TMC3    C8 7900   1.411   3.607   1.114 -0.0221  0.5266  0.3145
  528TMC3    O1 7901   1.105   3.453   1.426  0.0139  0.6006  0.1966
  528TMC3    O2 7902   1.513   3.646   1.053 -0.1362 -0.2875  0.6058
  529MPD2     C 7903   3.815   1.234   1.546  0.5224  0.0537 -0.0744
  529MPD2    C1 7904   3.874   1.120   1.487 -0.3838 -0.2190  0.3539
  529MPD2    C2 7905   3.946   1.128   1.370 -0.0096 -0.6710 -0.2012
  529MPD2    C3 7906   3.950   1.246   1.300  0.1052  0.2289 -0.7114
  529MPD2    C4 7907   3.892   1.355   1.367  0.3888  0.4947 -0.5980
  529MPD2    C5 7908   3.841   1.358   1.491 -0.6085  0.1254 -0.4026
  529MPD2     H 7909   3.992   1.037   1.334 -1.3806 -1.6497  0.5182
  529MPD2    H1 7910   3.890   1.448   1.312  0.0005 -0.6712 -2.5409
  529MPD2    H2 7911   3.766   1.233   1.642 -0.3679  0.3526 -0.5193
  529MPD2    H3 7912   3.817   1.447   1.548 -0.9041  1.4712 -2.6376
  529MPD2     N 7913   4.001   1.253   1.168  0.4425 -0.4363 -0.4114
  529MPD2    H5 7914   3.986   1.343   1.122 -3.6927 -1.8166 -1.6902
  529MPD2    N1 7915   3.880   0.995   1.548 -0.5610  0.0151 -0.0477
  529MPD2    H7 7916   3.940   0.929   1.500 -0.6492  0.7240 -1.1453
  530TMC3    C1 7917   3.869   0.835   1.703  0.5547  0.7660  0.2151
  530TMC3    C2 7918   3.998   0.798   1.671 -1.5360 -0.4135 -0.1748
  530TMC3    C3 7919   4.020   0.665   1.682  0.0197 -0.2402 -0.1858
  530TMC3    C4 7920   3.773   0.751   1.747  0.2571 -0.1226  0.0838
  530TMC3    C5 7921   3.810   0.620   1.766 -0.8013  0.0700  0.6551
  530TMC3    C6 7922   3.930   0.573   1.725 -0.4754 -0.3072 -0.3225
  530TMC3     C 7923   3.821   0.962   1.660 -0.4956 -0.1091  0.6030
  530TMC3     O 7924   3.727   1.014   1.716  0.4696  0.0093 -0.3135
  530TMC3     H 7925   4.073   0.862   1.626 -1.1501  0.0678  1.1808
  530TMC3    H1 7926   3.684   0.798   1.787  0.1651  1.2184 -1.6727
  530TMC3    H2 7927   3.955   0.467   1.732  0.1664  0.0201  2.4515
  530TMC3    C7 7928   3.711   0.517   1.799  0.1702  0.0444  0.0383
  530TMC3    C8 7929   4.150   0.622   1.638 -0.2570 -0.1411 -0.3415
  530TMC3    O1 7930   3.743   0.400   1.780 -0.0157 -0.1609  0.0453
  530TMC3    O2 7931   4.247   0.689   1.672  0.4935  0.2687 -0.4637
  531MPD2     C 7932   3.370   4.481  13.264  1.6018 -0.4579  0.7692
  531MPD2    C1 7933   3.264   4.451  13.348 -0.1297  0.4918 -1.0242
  531MPD2    C2 7934   3.147   4.388  13.306 -0.4653 -0.3031  0.3866
  531MPD2    C3 7935   3.134   4.353  13.173 -0.1779 -0.5059 -0.2561
  531MPD2    C4 7936   3.237   4.385  13.090  0.2534  0.3930 -0.2044
  531MPD2    C5 7937   3.350   4.443  13.132  0.3943 -0.4576 -0.4023
  531MPD2     H 7938   3.069   4.365  13.378 -1.7136 -0.7083 -1.1087
  531MPD2    H1 7939   3.227   4.343  12.991  1.8172  1.2827 -0.7370
  531MPD2    H2 7940   3.456   4.542  13.290 -0.5783  3.1490 -0.4377
  531MPD2    H3 7941   3.422   4.469  13.055  0.4914  0.2107 -0.0903
  531MPD2     N 7942   3.028   4.269  13.124 -0.0317  0.4767 -0.0733
  531MPD2    H5 7943   3.029   4.238  13.028 -0.3677 -2.4036  0.8439
  531MPD2    N1 7944   3.283   4.476  13.486 -0.0552  0.1204 -0.1941
  531MPD2    H7 7945   3.375   4.499  13.522 -0.7008  0.8334  1.0103
  532TMC3    C1 7946   3.220   4.493  13.709  0.3281  0.8558  0.1127
  532TMC3    C2 7947   3.108   4.530  13.785  0.3880 -0.0181 -0.2443
  532TMC3    C3 7948   3.069   4.461  13.889  0.1548  0.4154  0.8023
  532TMC3    C4 7949   3.295   4.384  13.752  0.0838  0.0899  0.0902
  532TMC3    C5 7950   3.262   4.331  13.874 -0.3779 -0.3553 -0.5689
  532TMC3    C6 7951   3.150   4.369  13.942 -0.3001  0.2717 -0.4011
  532TMC3     C 7952   3.178   4.475  13.575  0.5438 -0.7070  0.8171
  532TMC3     O 7953   3.058   4.483  13.559 -0.2123 -0.0996  0.1204
  532TMC3     H 7954   3.047   4.614  13.752 -0.6799 -0.5197  0.4461
  532TMC3    H1 7955   3.379   4.338  13.702  0.3188  0.9593 -0.3026
  532TMC3    H2 7956   3.106   4.318  14.027  2.2479  2.0935  2.0330
  532TMC3    C7 7957   3.302   4.190  13.915 -0.4363  0.4474  0.2373
  532TMC3    C8 7958   2.927   4.433  13.898 -0.6474  0.1159 -0.3388
  532TMC3    O1 7959   3.267   4.157  14.028  0.2828 -0.1310 -0.3900
  532TMC3    O2 7960   2.885   4.412  14.011 -0.2553 -0.3490  0.1475
  533TMC3    C1 7961   3.680   0.946  14.551  0.2035 -0.5284 -0.1502
  533TMC3    C2 7962   3.793   1.019  14.531  0.6083 -0.7985  0.5213
  533TMC3    C3 7963   3.796   1.150  14.573  0.6718 -0.7445 -0.4919
  533TMC3    C4 7964   3.575   1.003  14.628 -0.4811 -0.2074 -0.1669
  533TMC3    C5 7965   3.598   1.130  14.682  0.6009  0.1797 -0.6027
  533TMC3    C6 7966   3.710   1.208  14.659 -0.2768  0.4397 -0.0271
  533TMC3     C 7967   3.697   0.805  14.545 -0.0600 -0.1574 -0.3969
  533TMC3     O 7968   3.810   0.765  14.565  0.1412 -1.2441  0.3079
  533TMC3     H 7969   3.870   0.990  14.461  0.5270  1.8888 -0.6617
  533TMC3    H1 7970   3.505   0.929  14.664 -0.1135 -0.3083  0.3409
  533TMC3    H2 7971   3.717   1.305  14.706 -0.6796  0.0544  0.8288
  533TMC3    C7 7972   3.591   1.106  14.825  0.9800 -0.0078  0.1683
  533TMC3    C8 7973   3.902   1.239  14.522  0.3551 -0.4305 -0.5486
  533TMC3    O1 7974   3.515   1.024  14.876  0.4950  0.3524  0.1295
  533TMC3    O2 7975   4.012   1.191  14.490 -0.0447  0.1524 -0.1803
  534MPD2     C 7976   0.974   2.607   1.666  0.3305  0.0500  0.8470
  534MPD2    C1 7977   1.007   2.664   1.548 -0.1667 -0.3542  0.0973
  534MPD2    C2 7978   0.993   2.592   1.432 -0.1486 -0.2750  0.0222
  534MPD2    C3 7979   0.946   2.465   1.434  0.2736  0.3941 -0.3215
  534MPD2    C4 7980   0.904   2.407   1.551 -0.1209 -0.3667 -0.7187
  534MPD2    C5 7981   0.922   2.481   1.668 -0.2106 -0.1827 -0.8583
  534MPD2     H 7982   1.026   2.644   1.343  0.8008 -0.6151  0.1665
  534MPD2    H1 7983   0.859   2.308   1.554 -1.4156  0.2521 -0.2432
  534MPD2    H2 7984   0.983   2.663   1.759 -0.7767  1.0947  0.3264
  534MPD2    H3 7985   0.890   2.441   1.764  0.5708  0.4672 -0.3342
  534MPD2     N 7986   0.933   2.383   1.322  0.1996 -0.1649  0.1269
  534MPD2    H5 7987   0.893   2.290   1.332 -2.0298  0.8117  0.4427
  534MPD2    N1 7988   1.062   2.796   1.533  0.0069 -1.2072  0.6967
  534MPD2    H7 7989   1.088   2.822   1.438  0.2742 -1.0560  0.8094
  535TMC3    C1 7990   0.968   2.321   1.092 -0.6258  0.2762  0.1248
  535TMC3    C2 7991   0.967   2.192   1.128  0.2743  0.8378 -0.1306
  535TMC3    C3 7992   0.938   2.091   1.035  0.3569  0.5031 -0.4266
  535TMC3    C4 7993   0.953   2.357   0.961  0.5125  0.6515  0.5998
  535TMC3    C5 7994   0.935   2.248   0.867  0.4824  0.5592  0.5192
  535TMC3    C6 7995   0.921   2.113   0.899  0.2968 -0.7545  0.8167
  535TMC3     C 7996   0.957   2.427   1.193  0.2140 -0.0757 -0.0114
  535TMC3     O 7997   0.973   2.543   1.156  0.3191  0.3142  0.5443
  535TMC3     H 7998   0.985   2.160   1.230 -0.1451  0.7577 -0.0806
  535TMC3    H1 7999   0.926   2.457   0.928  0.8694  0.4750 -0.2337
  535TMC3    H2 8000   0.901   2.034   0.828 -0.4594  2.0059 -2.0311
  535TMC3    C7 8001   0.916   2.279   0.732 -0.0312  0.0591 -0.0499
  535TMC3    C8 8002   0.899   1.954   1.080  0.5163  0.1833  0.0268
  535TMC3    O1 8003   0.874   2.396   0.716  0.4685 -0.1627 -0.4650
  535TMC3    O2 8004   0.802   1.901   1.029 -0.3360 -0.0526  0.2019
  536MPD2     C 8005   0.719   0.298  16.499 -0.0560 -0.2836  0.6068
  536MPD2    C1 8006   0.625   0.200  16.484  0.3023 -0.6457 -0.6068
  536MPD2    C2 8007   0.556   0.199  16.362 -0.1820 -0.1371 -0.2571
  536MPD2    C3 8008   0.578   0.292  16.258 -0.7393 -0.5814 -0.4742
  536MPD2    C4 8009   0.669   0.392  16.278  0.0991 -0.2106 -0.2299
  536MPD2    C5 8010   0.741   0.391  16.397  0.1647  0.0117  0.4836
  536MPD2     H 8011   0.474   0.129  16.346 -1.5814  1.4729 -0.1932
  536MPD2    H1 8012   0.688   0.475  16.211 -0.1889 -0.1781 -0.2732
  536MPD2    H2 8013   0.785   0.301  16.585  1.2578 -1.4369 -0.3469
  536MPD2    H3 8014   0.814   0.470  16.412  1.0435 -0.2714 -2.4492
  536MPD2     N 8015   0.506   0.300  16.140 -0.0215  0.2248  0.1694
  536MPD2    H5 8016   0.532   0.374  16.076 -1.3699  0.0705 -0.5581
  536MPD2    N1 8017   0.604   0.113  16.583  0.5715  0.5718 -0.6532
  536MPD2    H7 8018   0.649   0.133  16.672  0.9981  1.0550 -0.9802
  537TMC3    C1 8019   0.517   4.687  16.710 -1.4094  0.1253 -0.2373
  537TMC3    C2 8020   0.616   4.701  16.803 -0.1927 -0.1429 -0.3036
  537TMC3    C3 8021   0.611   4.631  16.922  0.2339 -0.1699  0.2375
  537TMC3    C4 8022   0.410   4.599  16.736 -0.3281 -0.5950 -0.1495
  537TMC3    C5 8023   0.423   4.515  16.848  0.0337 -0.6952  1.0331
  537TMC3    C6 8024   0.517   4.533  16.945  0.2903  0.5397  0.6238
  537TMC3     C 8025   0.519   0.008  16.581  0.4283  0.1002  0.4912
  537TMC3     O 8026   0.436   4.704  16.503  0.3892 -0.3079 -0.3484
  537TMC3     H 8027   0.707   0.018  16.785  0.5832 -0.8427  1.4630
  537TMC3    H1 8028   0.328   4.594  16.665 -0.7282 -0.1074  0.2785
  537TMC3    H2 8029   0.514   4.475  17.037 -0.8574 -0.0959  0.1731
  537TMC3    C7 8030   0.311   4.425  16.888 -0.4133  0.2635  0.0154
  537TMC3    C8 8031   0.679   4.692  17.039  0.3700 -0.2377  0.4302
  537TMC3    O1 8032   0.206   4.441  16.830 -0.6342  0.5877 -0.4474
  537TMC3    O2 8033   0.661   4.633  17.143  0.5105 -0.3178  0.0124
  538TMC3    C1 8034   1.273   3.712  11.445  0.0191  0.8333  0.5848
  538TMC3    C2 8035   1.363   3.641  11.382 -0.3783 -0.3452  0.2238
  538TMC3    C3 8036   1.385   3.654  11.246  0.0055  0.6530 -0.2624
  538TMC3    C4 8037   1.200   3.816  11.380 -0.2017  0.0676  0.3122
  538TMC3    C5 8038   1.222   3.818  11.239 -0.7377  0.1559 -0.5003
  538TMC3    C6 8039   1.313   3.740  11.168 -0.3742 -0.2903 -0.2983
  538TMC3     C 8040   1.261   3.699  11.591  0.6746 -0.3029 -0.4772
  538TMC3     O 8041   1.161   3.754  11.631  0.5785 -1.0835  0.3396
  538TMC3     H 8042   1.445   3.585  11.423 -0.4323  0.0419  0.8559
  538TMC3    H1 8043   1.120   3.867  11.433 -0.0725 -2.1846  2.6943
  538TMC3    H2 8044   1.322   3.731  11.060  0.2496  1.0064 -0.3595
  538TMC3    C7 8045   1.153   3.921  11.171 -0.0471  0.5824  0.1834
  538TMC3    C8 8046   1.483   3.565  11.184  0.3284  0.4896 -0.4043
  538TMC3    O1 8047   1.064   3.981  11.233 -0.1749  0.3186  0.3366
  538TMC3    O2 8048   1.528   3.474  11.254 -0.2115  0.6109  0.3129
  539MPD2     C 8049   1.398   3.132  11.647 -0.1757  0.4062  0.0169
  539MPD2    C1 8050   1.350   3.113  11.517  0.1987 -0.2995 -0.0905
  539MPD2    C2 8051   1.257   3.199  11.470 -0.6922 -0.7409  0.4483
  539MPD2    C3 8052   1.199   3.301  11.547 -0.5117  0.3437 -0.0493
  539MPD2    C4 8053   1.254   3.319  11.672 -0.6299  0.5321 -0.4952
  539MPD2    C5 8054   1.349   3.240  11.724  0.4005  0.1955  0.5788
  539MPD2     H 8055   1.214   3.185  11.372  0.1155  2.3366 -0.3493
  539MPD2    H1 8056   1.227   3.403  11.735 -2.1109 -1.6855  1.8490
  539MPD2    H2 8057   1.466   3.063  11.695 -2.7210 -1.8998  0.3440
  539MPD2    H3 8058   1.382   3.262  11.824 -2.4544  0.6313  1.4229
  539MPD2     N 8059   1.099   3.390  11.512  0.3524 -0.4129 -0.0826
  539MPD2    H5 8060   1.067   3.458  11.580  0.8214  0.1904 -0.4756
  539MPD2    N1 8061   1.384   2.995  11.440  0.5648 -0.2700  0.1760
  539MPD2    H7 8062   1.327   2.969  11.361 -0.2203  0.1292  0.6157
  540TMC3    C1 8063   0.970   3.547  11.390  0.5714  0.3326 -0.0214
  540TMC3    C2 8064   0.939   3.610  11.271 -0.3462 -0.1771  0.7231
  540TMC3    C3 8065   0.855   3.714  11.273  0.0724  0.0891  0.1163
  540TMC3    C4 8066   0.898   3.578  11.510 -0.0653  0.4158  0.0433
  540TMC3    C5 8067   0.812   3.688  11.500  0.8677  0.7510  0.1555
  540TMC3    C6 8068   0.793   3.759  11.388 -0.2414 -0.0372 -0.1421
  540TMC3     C 8069   1.066   3.436  11.385  1.1219 -0.0681  0.0656
  540TMC3     O 8070   1.109   3.401  11.279  0.2910  0.0025 -0.2227
  540TMC3     H 8071   0.985   3.587  11.176 -1.7807 -1.6127  0.3746
  540TMC3    H1 8072   0.909   3.521  11.601  2.4568  1.1399  0.1908
  540TMC3    H2 8073   0.718   3.836  11.377  0.0013  0.0389 -1.3552
  540TMC3    C7 8074   0.702   3.704  11.592 -0.1055 -0.4509 -0.0534
  540TMC3    C8 8075   0.770   3.730  11.159 -0.3305 -0.1059 -0.0511
  540TMC3    O1 8076   0.665   3.602  11.648 -0.1550 -0.2953  0.2704
  540TMC3    O2 8077   0.727   3.835  11.129  0.5427  0.3729  0.1713
  541MPD2     C 8078   4.245   4.655  13.633  0.0972 -0.2705  0.0030
  541MPD2    C1 8079   4.269   4.571  13.526  0.4383  0.4961 -0.2500
  541MPD2    C2 8080   4.288   4.634  13.405  0.5166 -0.8907 -0.0003
  541MPD2    C3 8081   4.286   0.026  13.379 -0.3453 -0.8962  0.6586
  541MPD2    C4 8082   4.271   0.107  13.485  0.2786 -0.7092 -0.3285
  541MPD2    C5 8083   4.254   0.050  13.611  0.2807 -0.3289 -0.4788
  541MPD2     H 8084   4.294   4.574  13.315  0.1579 -4.1507  2.1566
  541MPD2    H1 8085   4.286   0.213  13.465  1.2999 -0.7004  0.5606
  541MPD2    H2 8086   4.235   4.629  13.738  1.3733  1.1794  0.4877
  541MPD2    H3 8087   4.257   0.118  13.695 -1.3627  1.7767 -2.1344
  541MPD2     N 8088   4.293   0.092  13.252 -0.2019 -0.2283  0.0197
  541MPD2    H5 8089   4.288   0.193  13.245 -1.5648 -0.3246 -0.5104
  541MPD2    N1 8090   4.271   4.431  13.527 -0.4300  0.5458  0.6127
  541MPD2    H7 8091   4.286   4.376  13.443 -3.2474 -2.2686  1.9251
  542TMC3    C1 8092   4.275   0.118  13.024  0.2515  0.0384 -0.3388
  542TMC3    C2 8093   4.261   0.061  12.902  0.2343  0.5774  0.2998
  542TMC3    C3 8094   4.198   0.129  12.800  0.0994 -0.0758 -0.4022
  542TMC3    C4 8095   4.226   0.241  13.044  0.2341 -0.0056 -0.2961
  542TMC3    C5 8096   4.171   0.311  12.936  0.4182 -0.0865  0.0049
  542TMC3    C6 8097   4.153   0.259  12.816  0.1441 -0.4558  0.1628
  542TMC3     C 8098   4.298   0.029  13.131 -0.0573  0.4289 -0.6510
  542TMC3     O 8099   4.314   4.651  13.103  0.1810 -0.2857  0.0536
  542TMC3     H 8100   4.316   4.710  12.883 -0.7426 -0.1148  0.7713
  542TMC3    H1 8101   4.236   0.296  13.138  0.4625  0.4605 -0.5904
  542TMC3    H2 8102   4.107   0.309  12.731 -0.0043 -2.0664 -0.7015
  542TMC3    C7 8103   4.163   0.460  12.942  0.4198  0.2298 -0.2927
  542TMC3    C8 8104   4.182   0.072  12.665  0.7813 -0.4919 -0.3963
  542TMC3    O1 8105   4.087   0.509  12.859  0.2749  0.6891 -0.4814
  542TMC3    O2 8106   4.183   0.147  12.572  0.3895 -0.4248  0.2402
  543TMC3    C1 8107   4.002   0.723  17.353 -0.3124 -0.4880 -0.6289
  543TMC3    C2 8108   3.895   0.701  17.432 -0.8288  0.3387 -0.9579
  543TMC3    C3 8109   3.888   0.746  17.556 -0.1551  0.3552  0.1814
  543TMC3    C4 8110   4.115   0.787  17.396 -0.6715  0.3070 -0.4157
  543TMC3    C5 8111   4.097   0.855  17.516 -0.1607  0.4398 -0.0560
  543TMC3    C6 8112   3.988   0.827  17.590  0.1712  0.0943 -0.2892
  543TMC3     C 8113   4.020   0.672  17.222 -0.1085  0.3783  0.2851
  543TMC3     O 8114   4.132   0.639  17.192  0.0815  0.4228  0.1232
  543TMC3     H 8115   3.828   0.626  17.393  0.2104 -0.1945 -1.7199
  543TMC3    H1 8116   4.207   0.798  17.340 -1.3307  0.1384 -1.5217
  543TMC3    H2 8117   3.976   0.858  17.693 -0.2431  0.9160 -0.5905
  543TMC3    C7 8118   4.166   0.979  17.537  0.1377  0.5108 -0.4187
  543TMC3    C8 8119   3.832   0.645  17.648  0.0479 -1.3293  0.4494
  543TMC3    O1 8120   4.166   1.034  17.646  0.2903 -0.0879 -0.1664
  543TMC3    O2 8121   3.821   0.534  17.600  0.6720 -0.4484 -0.4113
  544MPD2     C 8122   3.718   0.502   0.380  0.4804  0.2124  0.4711
  544MPD2    C1 8123   3.730   0.426   0.270  0.3089 -0.8146  0.1008
  544MPD2    C2 8124   3.762   0.488   0.146 -0.0294  0.3411 -0.6163
  544MPD2    C3 8125   3.788   0.620   0.136  0.6734  0.5309  0.3079
  544MPD2    C4 8126   3.794   0.690   0.253  0.3083 -0.3025  0.0061
  544MPD2    C5 8127   3.745   0.633   0.374  0.1652 -0.6322 -0.8607
  544MPD2     H 8128   3.773   0.431   0.055  2.0319  0.6632 -0.5659
  544MPD2    H1 8129   3.807   0.798   0.261  1.8676 -0.4434 -0.7629
  544MPD2    H2 8130   3.678   0.449   0.466 -1.7972 -1.3303 -1.5181
  544MPD2    H3 8131   3.730   0.695   0.462 -0.1870 -1.3117 -0.4460
  544MPD2     N 8132   3.821   0.692   0.019  0.2668  0.5634  1.0568
  544MPD2    H5 8133   3.840   0.790   0.033  3.1610  0.0418  0.9686
  544MPD2    N1 8134   3.708   0.285   0.284  0.5833 -0.2672 -0.1888
  544MPD2    H7 8135   3.662   0.263   0.372  0.4362  2.9981  0.5590
  545TMC3    C1 8136   3.665   0.058   0.234  0.3652 -1.1235  0.1171
  545TMC3    C2 8137   3.710   0.027   0.360 -0.6300  0.8004  0.8271
  545TMC3    C3 8138   3.666   4.645   0.406 -0.4651  0.0261  0.4043
  545TMC3    C4 8139   3.611   4.705   0.153 -0.4741  0.1200  0.0313
  545TMC3    C5 8140   3.573   4.580   0.202  0.0254  0.0141 -0.2679
  545TMC3    C6 8141   3.596   4.551   0.337 -0.6617  1.0121 -0.2020
  545TMC3     C 8142   3.691   0.193   0.186  0.2760 -0.7926  0.2841
  545TMC3     O 8143   3.675   0.221   0.066 -0.7339 -0.3081  0.0537
  545TMC3     H 8144   3.759   0.096   0.428  0.6142  2.3780 -1.6904
  545TMC3    H1 8145   3.600   4.734   0.050 -2.2797 -2.1974 -0.4323
  545TMC3    H2 8146   3.585   4.458   0.391 -0.0425 -0.2727 -2.3020
  545TMC3    C7 8147   3.522   4.477   0.106 -1.0788  0.1328  0.3241
  545TMC3    C8 8148   3.700   4.614   0.547 -0.8974 -0.2677 -0.9508
  545TMC3    O1 8149   3.505   4.518  17.747  0.3266  0.2841 -0.1122
  545TMC3    O2 8150   3.706   4.706   0.625  0.5680 -0.2350 -0.3913
  546MPD2     C 8151   0.424   0.419  17.628 -0.4792 -0.3873  0.3646
  546MPD2    C1 8152   0.453   0.407  17.494 -0.0260 -0.8275  0.4190
  546MPD2    C2 8153   0.503   0.521  17.427 -0.1197 -0.2918  0.2019
  546MPD2    C3 8154   0.529   0.639  17.500 -0.1987  0.3301  0.9864
  546MPD2    C4 8155   0.510   0.642  17.639 -0.0353  0.4351  0.1734
  546MPD2    C5 8156   0.456   0.535  17.698  0.0030  0.2036 -0.3774
  546MPD2     H 8157   0.529   0.522  17.321 -0.9849 -0.5472 -0.0113
  546MPD2    H1 8158   0.528   0.733  17.696  1.6820 -0.6662  1.3838
  546MPD2    H2 8159   0.379   0.336  17.682 -0.1523 -0.5127  0.4442
  546MPD2    H3 8160   0.425   0.542   0.043 -0.1945 -1.0147 -0.3451
  546MPD2     N 8161   0.580   0.761  17.443  0.3663  1.5251  0.2103
  546MPD2    H5 8162   0.606   0.830  17.513  1.3918  1.9171 -0.5528
  546MPD2    N1 8163   0.437   0.278  17.438  0.0874 -0.0264  0.0424
  546MPD2    H7 8164   0.419   0.199  17.500  1.9204 -0.9163 -0.5433
  547TMC3    C1 8165   0.400   0.115  17.278  0.0318  0.8516 -0.4143
  547TMC3    C2 8166   0.334   0.080  17.160 -0.0418  0.6228 -0.0446
  547TMC3    C3 8167   0.267   4.694  17.154 -0.7271 -0.0215  0.0748
  547TMC3    C4 8168   0.415   0.016  17.371  0.4406 -0.5269  0.1122
  547TMC3    C5 8169   0.353   4.630  17.361  0.3311  0.5139  0.3863
  547TMC3    C6 8170   0.279   4.601  17.251 -0.2493 -0.7925 -0.4557
  547TMC3     C 8171   0.451   0.250  17.304  0.6021  0.3905  0.0942
  547TMC3     O 8172   0.476   0.327  17.209  1.1372 -0.4018  0.2992
  547TMC3     H 8173   0.316   0.153  17.082 -0.7552 -0.0538 -0.5142
  547TMC3    H1 8174   0.470   0.035  17.462 -0.3311 -3.2504  1.1305
  547TMC3    H2 8175   0.220   4.511  17.242  0.1760 -0.8581 -2.5336
  547TMC3    C7 8176   0.375   4.528  17.461  0.1003 -0.2535 -0.3720
  547TMC3    C8 8177   0.158   4.695  17.070 -0.0328 -0.3259 -0.2984
  547TMC3    O1 8178   0.352   4.557  17.582 -0.1341  0.3619  0.6550
  547TMC3    O2 8179   0.159   0.028  16.974  0.4630 -0.0712  0.6550
  548MPD2     C 8180   4.575   1.948  12.642  0.1969 -0.2566 -0.0947
  548MPD2    C1 8181   4.522   1.825  12.668  0.0475 -0.6312  0.0845
  548MPD2    C2 8182   4.611   1.713  12.666 -0.8997  0.1353  0.3592
  548MPD2    C3 8183   0.005   1.725  12.649  0.4025 -0.0896 -0.3193
  548MPD2    C4 8184   0.054   1.852  12.622 -0.0943 -0.4798 -1.0106
  548MPD2    C5 8185   4.708   1.960  12.618 -0.5477  0.3550 -0.0464
  548MPD2     H 8186   4.569   1.613  12.679 -0.2937 -0.5192 -2.9496
  548MPD2    H1 8187   0.157   1.881  12.605 -0.6804  2.5182  0.7234
  548MPD2    H2 8188   4.508   2.032  12.630 -1.2254 -1.2186  1.0349
  548MPD2    H3 8189   0.013   2.058  12.604 -0.9056  0.2843 -1.6429
  548MPD2     N 8190   0.089   1.607  12.645  0.2133  0.4880 -0.5481
  548MPD2    H5 8191   0.046   1.517  12.665  1.3281 -0.1324 -0.9587
  548MPD2    N1 8192   4.383   1.807  12.681 -0.2448 -0.0338 -0.1139
  548MPD2    H7 8193   4.330   1.885  12.644 -1.3846 -2.0159 -2.6432
  549TMC3    C1 8194   4.174   1.680  12.681 -0.6409  0.4718  0.0227
  549TMC3    C2 8195   4.118   1.759  12.587  0.0349  0.1090 -0.5585
  549TMC3    C3 8196   3.991   1.729  12.551 -0.3841  0.4256  0.4302
  549TMC3    C4 8197   4.102   1.588  12.744 -0.0757  0.2286  0.4798
  549TMC3    C5 8198   3.971   1.572  12.719 -0.3013 -0.0880 -0.2194
  549TMC3    C6 8199   3.915   1.644  12.618 -0.1276  0.4910  0.4242
  549TMC3     C 8200   4.317   1.692  12.721  0.0945  0.3204 -0.3544
  549TMC3     O 8201   4.360   1.604  12.793  0.3973 -0.4329 -0.1072
  549TMC3     H 8202   4.175   1.838  12.539 -1.1935  1.2332 -0.1524
  549TMC3    H1 8203   4.152   1.515  12.807 -0.3959 -1.1638 -0.8546
  549TMC3    H2 8204   3.811   1.638  12.587  0.4863  1.6106 -1.8516
  549TMC3    C7 8205   3.900   1.455  12.767 -0.1486  0.4302  0.3504
  549TMC3    C8 8206   3.935   1.794  12.437  0.4217  0.3004  0.4405
  549TMC3    O1 8207   3.783   1.463  12.803 -0.4565 -0.1038 -0.0325
  549TMC3    O2 8208   3.816   1.797  12.419  0.0201  0.0907  0.8084
  550TMC3    C1 8209   3.840   4.382  12.522 -0.5147 -0.0505 -0.4631
  550TMC3    C2 8210   3.778   4.333  12.635  0.5330  0.3917 -0.3978
  550TMC3    C3 8211   3.735   4.422  12.733  0.8275  0.3358  0.6816
  550TMC3    C4 8212   3.856   4.515  12.499 -0.0660 -0.6050 -0.3892
  550TMC3    C5 8213   3.832   4.597  12.608  0.8436 -0.2459 -0.5897
  550TMC3    C6 8214   3.780   4.550  12.731 -0.5650 -0.2317  0.0331
  550TMC3     C 8215   3.863   4.286  12.417 -0.6284  0.2465 -0.6271
  550TMC3     O 8216   3.930   4.186  12.438  0.1596  0.2518  0.6667
  550TMC3     H 8217   3.779   4.225  12.644  0.0740  0.1647 -2.9825
  550TMC3    H1 8218   3.861   4.561  12.401 -0.8778 -1.6906 -0.9343
  550TMC3    H2 8219   3.748   4.624  12.804 -0.2361 -1.6373  1.6041
  550TMC3    C7 8220   3.761   4.716  12.572  0.3352 -0.3519 -0.2370
  550TMC3    C8 8221   3.600   4.411  12.791  0.5311 -0.4566 -0.4375
  550TMC3    O1 8222   3.797   0.080  12.622  0.2687 -0.0572 -0.0004
  550TMC3    O2 8223   3.570   4.487  12.885 -0.2460 -0.8903  0.0060
  551TMC3    C1 8224   1.042   2.127  13.480  0.4207  0.2796 -0.1311
  551TMC3    C2 8225   1.135   2.131  13.383 -0.1004  0.2088  0.0005
  551TMC3    C3 8226   1.266   2.142  13.431  0.4001 -0.8076 -0.1100
  551TMC3    C4 8227   1.069   2.123  13.616 -0.8016  0.4219 -0.1629
  551TMC3    C5 8228   1.199   2.126  13.652  0.1637  0.3270  0.4026
  551TMC3    C6 8229   1.300   2.142  13.563  0.0856  1.0689  0.1652
  551TMC3     C 8230   0.907   2.123  13.426 -0.0211  0.2504 -0.2583
  551TMC3     O 8231   0.872   2.111  13.309  0.0564 -0.8407  0.1906
  551TMC3     H 8232   1.110   2.139  13.278  2.8044 -1.0866 -0.7757
  551TMC3    H1 8233   0.991   2.109  13.689 -1.2086  0.5971 -0.5637
  551TMC3    H2 8234   1.404   2.138  13.593  0.3037  0.9695 -0.6076
  551TMC3    C7 8235   1.225   2.162  13.788 -0.3936  0.7137  0.0818
  551TMC3    C8 8236   1.364   2.184  13.342 -0.3998  0.1048  0.2867
  551TMC3    O1 8237   1.134   2.144  13.862 -0.0108 -0.0303 -0.0988
  551TMC3    O2 8238   1.466   2.235  13.385 -0.4053  0.2932 -0.4610
  552MPD2     C 8239   3.274   4.096  14.658  0.1482  0.7639 -0.3825
  552MPD2    C1 8240   3.359   4.013  14.588 -0.5458  0.2093 -0.3601
  552MPD2    C2 8241   3.475   3.979  14.655 -0.1630 -0.0339 -0.0889
  552MPD2    C3 8242   3.520   4.039  14.774  0.6077  0.2816 -0.1148
  552MPD2    C4 8243   3.430   4.119  14.835  0.5516 -0.3810  0.6803
  552MPD2    C5 8244   3.310   4.153  14.779 -0.4046 -0.3153  0.0429
  552MPD2     H 8245   3.543   3.917  14.598 -0.2656 -0.9151  0.7417
  552MPD2    H1 8246   3.455   4.168  14.928  0.0918 -1.1238  1.1962
  552MPD2    H2 8247   3.184   4.131  14.611  0.0455  0.1188 -0.6594
  552MPD2    H3 8248   3.246   4.226  14.827 -2.5295 -1.5184 -0.9441
  552MPD2     N 8249   3.637   4.014  14.844  0.3194 -0.0980 -0.2067
  552MPD2    H5 8250   3.640   4.052  14.938  1.0044  0.9232 -0.6409
  552MPD2    N1 8251   3.328   3.955  14.471 -0.1134  0.8391 -0.1177
  552MPD2    H7 8252   3.382   3.874  14.440  1.6620  1.4798  1.2723
  553TMC3    C1 8253   3.190   3.875  14.295 -0.5614 -0.5818  0.1891
  553TMC3    C2 8254   3.111   3.904  14.187  0.2502  0.3298 -0.4853
  553TMC3    C3 8255   3.063   3.794  14.118  0.5238  0.8087 -0.3680
  553TMC3    C4 8256   3.232   3.745  14.324 -0.5187 -0.0638  0.0051
  553TMC3    C5 8257   3.186   3.643  14.252  0.1230 -0.1502 -0.0293
  553TMC3    C6 8258   3.097   3.668  14.151  0.1945 -0.5195 -0.1368
  553TMC3     C 8259   3.215   3.983  14.396 -0.4979  0.0073 -0.4609
  553TMC3     O 8260   3.157   4.090  14.393 -0.1499 -0.0115  0.0325
  553TMC3     H 8261   3.083   4.006  14.166 -2.2255 -0.2594 -0.0547
  553TMC3    H1 8262   3.311   3.720  14.394 -1.1151 -0.9448  0.3574
  553TMC3    H2 8263   3.045   3.581  14.113  3.3461 -1.5767 -1.9714
  553TMC3    C7 8264   3.274   3.523  14.240 -0.4233  0.1883 -0.9696
  553TMC3    C8 8265   3.024   3.803  13.979  0.2875  0.3322 -0.5201
  553TMC3    O1 8266   3.366   3.504  14.315 -0.0815  0.1750  0.0210
  553TMC3    O2 8267   3.007   3.696  13.924 -0.7112 -0.0669  0.2975
  554TMC3    C1 8268   4.608   3.287  11.612 -0.7719  0.0883 -0.6802
  554TMC3    C2 8269   4.540   3.278  11.488  0.4913 -0.3032 -0.0276
  554TMC3    C3 8270   4.595   3.350  11.383 -0.0426 -0.5459  0.1105
  554TMC3    C4 8271   4.723   3.356  11.627 -0.1976 -0.1595  0.5178
  554TMC3    C5 8272   0.030   3.412  11.511  0.4602 -0.0617  0.3551
  554TMC3    C6 8273   4.709   3.418  11.393 -0.9624 -0.5887  0.6855
  554TMC3     C 8274   4.537   3.216  11.723  0.2906  0.3469  0.3668
  554TMC3     O 8275   4.434   3.158  11.692 -0.2234  0.0971 -0.1139
  554TMC3     H 8276   4.454   3.213  11.476  0.0496  0.0334  1.1763
  554TMC3    H1 8277   0.029   3.380  11.722  0.1159 -1.6981  0.7517
  554TMC3    H2 8278   4.740   3.462  11.299 -1.3416 -0.9394  0.3982
  554TMC3    C7 8279   0.152   3.492  11.511 -0.9314  0.2552 -0.4176
  554TMC3    C8 8280   4.512   3.375  11.264 -0.6645  0.2001  0.1137
  554TMC3    O1 8281   0.232   3.473  11.423 -0.0504  0.3458 -0.0178
  554TMC3    O2 8282   4.575   3.415  11.164  0.4197 -0.6001 -0.3456
  555TMC3    C1 8283   3.995   2.246  14.791 -0.8951  0.3577 -0.6459
  555TMC3    C2 8284   3.972   2.355  14.880  0.2195 -0.4562 -0.6960
  555TMC3    C3 8285   4.035   2.334  15.001  0.2692  0.4016  0.4145
  555TMC3    C4 8286   4.044   2.126  14.823 -0.2239  0.0332 -0.5676
  555TMC3    C5 8287   4.054   2.101  14.956  0.4820 -0.1262 -0.6596
  555TMC3    C6 8288   4.061   2.204  15.051 -0.0763 -0.1090  0.6270
  555TMC3     C 8289   3.984   2.256  14.646 -0.2916  0.1104 -0.2001
  555TMC3     O 8290   4.066   2.188  14.591 -0.0102 -0.6388  0.1043
  555TMC3     H 8291   3.958   2.458  14.850 -0.5550  0.0907  1.5509
  555TMC3    H1 8292   4.051   2.049  14.747 -3.5561 -0.3805 -0.4546
  555TMC3    H2 8293   4.084   2.195  15.157 -0.2727 -0.9368  0.5948
  555TMC3    C7 8294   4.077   1.973  15.008 -0.0560 -0.9658 -0.1972
  555TMC3    C8 8295   4.046   2.452  15.089 -0.9716 -0.1842 -0.2304
  555TMC3    O1 8296   4.091   1.966  15.125 -0.5007  0.0796 -0.0158
  555TMC3    O2 8297   3.975   2.552  15.067 -0.0396 -0.2232  0.1412
  556MPD2     C 8298   2.153   4.568  10.644  0.0289 -0.9622 -0.2249
  556MPD2    C1 8299   2.081   4.495  10.738 -0.9893  0.8430  0.5426
  556MPD2    C2 8300   2.033   4.372  10.695 -0.2657  0.1495  0.7482
  556MPD2    C3 8301   2.055   4.323  10.565  0.3924 -0.3459  0.6045
  556MPD2    C4 8302   2.127   4.397  10.474  0.0892  0.8085 -0.1337
  556MPD2    C5 8303   2.164   4.527  10.513  0.3708  0.9720 -0.1432
  556MPD2     H 8304   1.986   4.307  10.768 -0.3017  0.2407  0.8054
  556MPD2    H1 8305   2.152   4.345  10.381  0.4051  0.6986  0.0124
  556MPD2    H2 8306   2.196   4.666  10.660  0.1733 -1.6157  3.1859
  556MPD2    H3 8307   2.234   4.571  10.444  0.1326  0.4525 -0.7190
  556MPD2     N 8308   1.998   4.202  10.542 -0.1132  0.1342  0.4691
  556MPD2    H5 8309   1.945   4.158  10.616 -1.8889 -1.6169 -1.8834
  556MPD2    N1 8310   2.058   4.539  10.869 -0.2199 -0.4743 -0.1736
  556MPD2    H7 8311   1.997   4.485  10.929  0.4201 -1.3079 -0.2621
  557TMC3    C1 8312   1.924   4.026  10.416 -0.3248  0.0929  0.2927
  557TMC3    C2 8313   1.898   3.964  10.295  1.0647  0.0247 -0.0311
  557TMC3    C3 8314   1.846   3.843  10.301  1.0522  0.4709 -0.7845
  557TMC3    C4 8315   1.905   3.968  10.540  0.3918  0.2521 -0.1406
  557TMC3    C5 8316   1.851   3.845  10.535 -0.7339 -0.2348 -0.3022
  557TMC3    C6 8317   1.813   3.780  10.422 -0.3316  0.2995 -0.3803
  557TMC3     C 8318   1.976   4.155  10.417 -0.0242 -0.2198 -0.2583
  557TMC3     O 8319   1.974   4.213  10.306 -0.5686  0.3386 -0.2048
  557TMC3     H 8320   1.907   4.013  10.199 -1.8252 -1.7077 -1.1751
  557TMC3    H1 8321   1.927   4.006  10.639  1.6185  2.9763 -1.4724
  557TMC3    H2 8322   1.756   3.688  10.426 -0.0774  0.2641  2.4226
  557TMC3    C7 8323   1.802   3.799  10.661  0.2779  0.8332 -0.8968
  557TMC3    C8 8324   1.820   3.788  10.165 -0.6210 -0.2046  0.8759
  557TMC3    O1 8325   1.767   3.880  10.744 -0.4704  0.4529 -0.0394
  557TMC3    O2 8326   1.824   3.857  10.064  0.3507  0.3088 -0.5106
  558TMC3    C1 8327   4.207   2.826  10.585 -0.2314  0.2279  0.1948
  558TMC3    C2 8328   4.112   2.737  10.616 -0.6235 -0.3729 -0.0161
  558TMC3    C3 8329   3.980   2.771  10.600 -0.5089 -0.6588 -0.2358
  558TMC3    C4 8330   4.175   2.949  10.542  0.4104  0.1834  0.4319
  558TMC3    C5 8331   4.046   2.982  10.526  0.2889  0.3799  0.6671
  558TMC3    C6 8332   3.946   2.894  10.559  0.1079  0.6823  0.4293
  558TMC3     C 8333   4.340   2.779  10.575  0.3582 -0.0667 -0.3853
  558TMC3     O 8334   4.350   2.659  10.563 -0.1758  0.7705  0.9200
  558TMC3     H 8335   4.142   2.646  10.667  0.0837  0.1687  0.5391
  558TMC3    H1 8336   4.250   3.022  10.516  2.1121 -1.2917  1.2056
  558TMC3    H2 8337   3.843   2.917  10.536 -0.0870 -0.5863  0.0229
  558TMC3    C7 8338   4.025   3.039  10.392 -0.2033  0.0833 -0.2723
  558TMC3    C8 8339   3.925   2.671  10.511 -0.1566 -0.0710 -0.6327
  558TMC3    O1 8340   4.091   3.137  10.363 -0.0391 -0.4051 -0.2606
  558TMC3    O2 8341   3.879   2.722  10.411 -1.3632 -0.6029  0.2588
  559MPD2     C 8342   4.267   3.125  10.825 -0.0156 -0.6640 -0.0122
  559MPD2    C1 8343   4.218   3.018  10.896 -0.2289  1.0060 -1.3203
  559MPD2    C2 8344   4.309   2.924  10.940  0.4550 -0.1087 -0.0543
  559MPD2    C3 8345   4.442   2.940  10.923  0.4153 -0.6183 -0.8267
  559MPD2    C4 8346   4.493   3.045  10.854 -0.0022  0.2079  0.1762
  559MPD2    C5 8347   4.400   3.131  10.800  0.5163  0.5547  0.3733
  559MPD2     H 8348   4.271   2.841  10.999 -0.6217  0.2071 -0.3082
  559MPD2    H1 8349   4.599   3.057  10.834 -0.1569  0.2599 -0.6068
  559MPD2    H2 8350   4.203   3.203  10.785 -0.1700 -2.0091 -2.4128
  559MPD2    H3 8351   4.436   3.215  10.742  0.3866  0.4040  0.0736
  559MPD2     N 8352   4.521   2.834  10.974 -0.1562  0.7494  0.1820
  559MPD2    H5 8353   4.476   2.756  11.020 -0.4108 -0.6728 -2.5292
  559MPD2    N1 8354   4.075   3.000  10.902 -0.0989  0.1252 -0.2601
  559MPD2    H7 8355   4.023   3.067  10.847  1.6538 -0.2660 -2.3771
  560TMC3    C1 8356   4.716   2.728  11.054 -0.2430 -0.3203 -0.5143
  560TMC3    C2 8357   4.662   2.609  11.026  0.0999 -0.2057 -0.7655
  560TMC3    C3 8358   4.722   2.503  11.089  0.0510 -0.2972  0.5021
  560TMC3    C4 8359   0.087   2.749  11.138  0.5418  0.2603  0.7523
  560TMC3    C5 8360   0.129   2.635  11.200  0.7346 -0.2552  0.0664
  560TMC3    C6 8361   0.072   2.512  11.183  0.6642  0.9364 -0.6291
  560TMC3     C 8362   4.660   2.847  10.993 -0.4787 -0.7325 -0.4329
  560TMC3     O 8363   4.735   2.947  10.989  0.2662  0.2179  0.5050
  560TMC3     H 8364   4.613   2.593  10.931 -1.2810 -1.3686  0.1492
  560TMC3    H1 8365   0.112   2.849  11.171  0.3519  0.7151 -0.4448
  560TMC3    H2 8366   0.103   2.418  11.228  1.0050  0.9689 -0.7927
  560TMC3    C7 8367   0.243   2.646  11.292  0.7397 -0.0202  0.0980
  560TMC3    C8 8368   4.699   2.374  11.029  0.4570  0.0695 -0.2606
  560TMC3    O1 8369   0.272   2.540  11.353  0.1800  0.5988  0.0717
  560TMC3    O2 8370   4.597   2.364  10.961 -0.0201  0.2674 -0.5801
  561TMC3    C1 8371   2.075   1.903  11.561  0.1368 -0.4475  0.9816
  561TMC3    C2 8372   1.994   1.855  11.662  0.2807  0.3791  0.2095
  561TMC3    C3 8373   1.966   1.938  11.771 -0.4241  0.1717  0.0321
  561TMC3    C4 8374   2.115   2.038  11.564 -1.2771  0.3313  0.4711
  561TMC3    C5 8375   2.090   2.114  11.670 -0.4225  0.2193  0.4385
  561TMC3    C6 8376   2.019   2.063  11.776  0.8514  0.1440  1.1042
  561TMC3     C 8377   2.092   1.827  11.435  0.3691 -0.5524 -0.0514
  561TMC3     O 8378   2.135   1.885  11.335 -0.1096 -0.7062 -0.1695
  561TMC3     H 8379   1.956   1.754  11.660 -1.0199  0.8756 -0.6737
  561TMC3    H1 8380   2.158   2.072  11.470  1.7287 -1.1363  1.3442
  561TMC3    H2 8381   1.992   2.133  11.855 -1.1618  0.2897  0.2687
  561TMC3    C7 8382   2.144   2.242  11.699 -0.1989 -0.3924  0.6810
  561TMC3    C8 8383   1.918   1.877  11.901  0.3998  0.4115 -0.7318
  561TMC3    O1 8384   2.148   2.281  11.821 -0.6731  0.6869  0.0130
  561TMC3    O2 8385   1.931   1.759  11.908  0.0231 -0.2823 -0.9117
  562TMC3    C1 8386   4.102   2.768  16.813  0.0954 -0.1753 -0.3467
  562TMC3    C2 8387   4.145   2.894  16.773 -0.5374 -0.0306 -0.0195
  562TMC3    C3 8388   4.178   2.912  16.641 -0.5238 -0.5963 -0.0664
  562TMC3    C4 8389   4.092   2.676  16.713 -0.2796 -0.1472  0.2375
  562TMC3    C5 8390   4.122   2.696  16.583 -0.1666 -0.8670 -0.3780
  562TMC3    C6 8391   4.167   2.822  16.539  0.4323 -0.0359 -0.1917
  562TMC3     C 8392   4.049   2.739  16.946 -0.0442  0.7172 -0.1749
  562TMC3     O 8393   4.047   2.624  16.993  0.1376  0.2577  0.0294
  562TMC3     H 8394   4.162   2.978  16.840 -0.9474 -1.2354  1.5983
  562TMC3    H1 8395   4.045   2.585  16.749  0.7655 -0.2460  1.3447
  562TMC3    H2 8396   4.198   2.835  16.436 -2.1865  1.3732 -0.7847
  562TMC3    C7 8397   4.088   2.596  16.475 -0.5565  0.4373  0.3541
  562TMC3    C8 8398   4.177   3.057  16.600 -0.1266 -0.8764 -0.1130
  562TMC3    O1 8399   4.073   2.627  16.357  0.1440  0.0736  0.1268
  562TMC3    O2 8400   4.201   3.144  16.680  0.9414 -0.1191 -0.1878
  563MPD2     C 8401   1.768   3.258  15.871 -0.2473  0.3481  0.4107
  563MPD2    C1 8402   1.770   3.393  15.844  0.2875 -0.7830  0.0878
  563MPD2    C2 8403   1.888   3.462  15.879 -0.2980  0.0952 -0.0596
  563MPD2    C3 8404   2.005   3.393  15.916  0.1596  0.4106 -0.3932
  563MPD2    C4 8405   2.004   3.254  15.909 -0.6616 -0.0535 -0.3698
  563MPD2    C5 8406   1.884   3.190  15.899  0.7981 -0.4868  0.5364
  563MPD2     H 8407   1.890   3.570  15.874 -1.5597  0.0630 -1.5042
  563MPD2    H1 8408   2.087   3.194  15.945 -0.7126 -1.0075 -1.8791
  563MPD2    H2 8409   1.684   3.190  15.864  0.8728 -1.2006  1.8001
  563MPD2    H3 8410   1.872   3.083  15.916 -2.2907  0.0641  1.7760
  563MPD2     N 8411   2.112   3.462  15.967 -0.0395 -0.1305  0.9522
  563MPD2    H5 8412   2.104   3.563  15.980 -0.8770 -0.1507  0.5849
  563MPD2    N1 8413   1.646   3.448  15.819 -0.4233 -0.2426  0.4042
  563MPD2    H7 8414   1.565   3.387  15.817  0.0185 -0.8304  0.2718
  564TMC3    C1 8415   1.490   3.605  15.845 -0.1292  0.6603  0.6704
  564TMC3    C2 8416   1.406   3.506  15.801 -0.3183  0.6423 -0.0320
  564TMC3    C3 8417   1.335   3.424  15.884  0.3555  0.8350  0.4301
  564TMC3    C4 8418   1.479   3.628  15.978  0.1885 -0.3355  0.3343
  564TMC3    C5 8419   1.413   3.544  16.065  0.8093 -0.7028  1.1250
  564TMC3    C6 8420   1.334   3.448  16.014 -0.5788  0.9039  0.4227
  564TMC3     C 8421   1.627   3.582  15.812 -0.1529  0.9808 -0.3060
  564TMC3     O 8422   1.709   3.671  15.826  0.1605  0.2278  0.2703
  564TMC3     H 8423   1.392   3.495  15.694  0.5501  1.1076 -0.1941
  564TMC3    H1 8424   1.558   3.690  16.018 -2.0480  1.3742  2.0861
  564TMC3    H2 8425   1.275   3.391  16.084 -1.5814 -0.6651 -1.7036
  564TMC3    C7 8426   1.516   3.483  16.151 -0.8035 -0.0168  0.2568
  564TMC3    C8 8427   1.335   3.288  15.858 -0.2586 -0.5367 -0.3183
  564TMC3    O1 8428   1.611   3.551  16.191  0.6260 -0.2914 -0.1546
  564TMC3    O2 8429   1.294   3.222  15.946 -0.3974  0.8507 -0.2591
  565TMC3    C1 8430   0.995   1.160  10.041  0.0641 -0.7691 -0.0923
  565TMC3    C2 8431   1.070   1.073  10.117  0.1668  0.0080  0.2557
  565TMC3    C3 8432   1.008   0.979  10.194  0.3124 -0.1423 -0.3342
  565TMC3    C4 8433   0.863   1.143  10.030 -0.5822 -0.6125 -0.5034
  565TMC3    C5 8434   0.802   1.047  10.106  0.1430 -0.4336 -0.6934
  565TMC3    C6 8435   0.872   0.979  10.206 -0.4833  0.5745 -0.1095
  565TMC3     C 8436   1.066   1.261   9.973  0.2179 -0.3986 -0.0470
  565TMC3     O 8437   1.001   1.359   9.932  0.0846  0.0858 -0.3101
  565TMC3     H 8438   1.178   1.082  10.115  0.2500 -1.2485 -0.4859
  565TMC3    H1 8439   0.808   1.208   9.962 -0.0549 -0.4056 -0.7321
  565TMC3    H2 8440   0.817   0.900  10.255  1.9798 -0.3084  1.1933
  565TMC3    C7 8441   0.657   1.046  10.125  0.0845  0.6840  0.2297
  565TMC3    C8 8442   1.097   0.905  10.282  0.6331  0.5942 -0.0779
  565TMC3    O1 8443   0.611   1.005  10.231 -0.1494  0.5729 -0.3624
  565TMC3    O2 8444   1.213   0.944  10.304  0.0136 -0.6256  0.0775
  566MPD2     C 8445   3.117   2.387  14.398  0.7508 -0.4923  0.4758
  566MPD2    C1 8446   3.132   2.370  14.264 -0.4094 -0.8448  0.3656
  566MPD2    C2 8447   3.036   2.423  14.178 -0.0253  0.4370 -0.6219
  566MPD2    C3 8448   2.920   2.474  14.230  0.3943 -0.0287  0.7444
  566MPD2    C4 8449   2.893   2.466  14.365  0.1441 -0.1370  0.1434
  566MPD2    C5 8450   2.992   2.424  14.445  0.4306  0.2763 -0.2554
  566MPD2     H 8451   3.047   2.426  14.071  1.8188  0.9983 -0.4276
  566MPD2    H1 8452   2.798   2.508  14.397  0.0152 -0.0526 -0.3412
  566MPD2    H2 8453   3.192   2.346  14.464 -0.2957  1.2853  2.7591
  566MPD2    H3 8454   2.970   2.421  14.552 -0.3566  1.6616 -0.3811
  566MPD2     N 8455   2.810   2.513  14.150  0.4179  0.1465 -0.3872
  566MPD2    H5 8456   2.717   2.496  14.186 -0.1651 -2.4304 -3.2141
  566MPD2    N1 8457   3.243   2.297  14.220  0.3568  0.6379  0.1184
  566MPD2    H7 8458   3.314   2.280  14.291  0.6778 -3.4063 -1.1819
  567TMC3    C1 8459   3.395   2.210  14.072  0.4280 -0.2005 -0.7469
  567TMC3    C2 8460   3.445   2.236  13.948 -0.8979 -0.5787  0.1609
  567TMC3    C3 8461   3.575   2.218  13.922  0.0857  0.7876 -0.4275
  567TMC3    C4 8462   3.476   2.166  14.171 -0.0429 -0.1095 -0.7105
  567TMC3    C5 8463   3.604   2.139  14.138 -0.0385 -0.2514 -0.1037
  567TMC3    C6 8464   3.661   2.166  14.018 -0.6337 -0.0183  0.0618
  567TMC3     C 8465   3.264   2.265  14.092 -0.2022  0.1338  1.0396
  567TMC3     O 8466   3.201   2.289  13.990 -0.2460  0.4259  0.5343
  567TMC3     H 8467   3.384   2.273  13.867 -1.1439 -3.0750 -0.8050
  567TMC3    H1 8468   3.436   2.124  14.262  1.1249 -0.9082 -0.5668
  567TMC3    H2 8469   3.769   2.176  14.009 -0.7646  1.1049 -0.2658
  567TMC3    C7 8470   3.684   2.062  14.234 -0.5370  0.2241  0.0021
  567TMC3    C8 8471   3.604   2.219  13.781  0.4923 -0.2222  0.4335
  567TMC3    O1 8472   3.748   1.971  14.177 -0.0744 -0.5862 -0.7326
  567TMC3    O2 8473   3.512   2.210  13.700 -0.1442  0.4746  0.4871
  568MPD2     C 8474   1.194   1.780  16.055 -0.3323 -0.8556 -0.0450
  568MPD2    C1 8475   1.182   1.864  16.162 -0.4340 -0.1608  0.9390
  568MPD2    C2 8476   1.217   1.992  16.161 -0.3432  0.2795 -0.7171
  568MPD2    C3 8477   1.253   2.042  16.037 -0.7881 -0.2894 -0.1909
  568MPD2    C4 8478   1.252   1.971  15.918  0.5705 -0.2992 -0.0105
  568MPD2    C5 8479   1.227   1.841  15.931 -0.3048 -0.0187  0.1256
  568MPD2     H 8480   1.223   2.064  16.242  4.1210  0.8497 -1.5626
  568MPD2    H1 8481   1.289   2.016  15.827 -1.5757  1.5319  0.0162
  568MPD2    H2 8482   1.184   1.673  16.062  0.2293 -1.1025 -2.8594
  568MPD2    H3 8483   1.250   1.775  15.849 -0.5535  0.5636 -0.4143
  568MPD2     N 8484   1.301   2.176  16.047 -0.4135 -0.0880  0.1502
  568MPD2    H5 8485   1.310   2.212  16.142  0.2580 -0.3953  0.2017
  568MPD2    N1 8486   1.158   1.797  16.283  0.1300  0.3175  0.6049
  568MPD2    H7 8487   1.142   1.696  16.284  0.7814  0.2263  1.3585
  569TMC3    C1 8488   1.400   2.379  15.996  0.3056  0.1326  0.3359
  569TMC3    C2 8489   1.396   2.411  16.133 -0.7798  0.1442  0.2886
  569TMC3    C3 8490   1.449   2.534  16.165  0.2420  0.2685  0.5280
  569TMC3    C4 8491   1.481   2.448  15.911 -0.0916  0.2300  0.1175
  569TMC3    C5 8492   1.534   2.567  15.949  0.5203 -0.9137  0.7259
  569TMC3    C6 8493   1.519   2.614  16.079 -0.2851  0.0124 -0.3036
  569TMC3     C 8494   1.340   2.256  15.946 -1.1137 -0.1496  0.1841
  569TMC3     O 8495   1.344   2.234  15.822 -0.2121  0.2474  0.2790
  569TMC3     H 8496   1.325   2.366  16.202  0.0031  0.8583  1.5699
  569TMC3    H1 8497   1.496   2.410  15.811  2.3069  0.4656  0.3784
  569TMC3    H2 8498   1.563   2.709  16.105 -0.6858  0.1734 -0.2155
  569TMC3    C7 8499   1.562   2.654  15.838 -0.0366  0.7206 -0.4412
  569TMC3    C8 8500   1.413   2.591  16.290 -0.8731  0.2041 -0.1778
  569TMC3    O1 8501   1.617   2.594  15.747  0.1239 -0.2757  0.2068
  569TMC3    O2 8502   1.305   2.558  16.334 -0.7142  0.6234 -0.4081
  570TMC3    C1 8503   0.408   1.547  16.197  0.4876  0.3394 -0.3104
  570TMC3    C2 8504   0.439   1.600  16.073 -0.1449 -0.7706  0.4210
  570TMC3    C3 8505   0.469   1.734  16.063 -0.3205 -0.4813  0.1917
  570TMC3    C4 8506   0.376   1.623  16.300 -0.1088 -0.6449  0.1615
  570TMC3    C5 8507   0.397   1.755  16.288 -0.3520 -0.1831 -0.0210
  570TMC3    C6 8508   0.437   1.817  16.174  0.1227 -0.2888 -0.0944
  570TMC3     C 8509   0.358   1.416  16.179 -1.4114 -0.0453 -0.0280
  570TMC3     O 8510   0.305   1.396  16.070 -0.6229 -0.4033  0.1925
  570TMC3     H 8511   0.462   1.533  15.991  1.1767  0.3985 -0.1616
  570TMC3    H1 8512   0.334   1.575  16.388  1.0664 -0.8242  0.6219
  570TMC3    H2 8513   0.449   1.924  16.170 -0.8074 -0.1079  1.9164
  570TMC3    C7 8514   0.412   1.828  16.417  0.2366  0.3684  0.3737
  570TMC3    C8 8515   0.493   1.793  15.933  0.6672 -0.0453  0.5685
  570TMC3    O1 8516   0.432   1.754  16.509  0.3507  0.6800  0.7715
  570TMC3    O2 8517   0.506   1.916  15.937 -0.3739 -0.4760  0.1784
  571MPD2     C 8518   2.999   3.487   0.608  0.7150 -0.0820 -0.1305
  571MPD2    C1 8519   2.952   3.568   0.503 -0.0632  0.7462 -0.4500
  571MPD2    C2 8520   2.924   3.707   0.517 -0.5128 -0.3001  0.5051
  571MPD2    C3 8521   2.936   3.758   0.646 -0.2585 -0.2147  0.3459
  571MPD2    C4 8522   2.971   3.675   0.753 -0.1004  0.2972 -0.7004
  571MPD2    C5 8523   3.008   3.541   0.734 -0.2840  0.6340 -0.2881
  571MPD2     H 8524   2.884   3.768   0.438 -0.5159  2.6979  2.8092
  571MPD2    H1 8525   2.986   3.709   0.855  1.3384 -3.0238  0.1740
  571MPD2    H2 8526   3.022   3.381   0.599 -1.1113 -0.6115  1.5212
  571MPD2    H3 8527   3.026   3.468   0.812  0.3002  0.7770 -0.2898
  571MPD2     N 8528   2.911   3.893   0.675 -0.3859 -0.2018  0.0359
  571MPD2    H5 8529   2.893   3.911   0.773  0.3942 -0.7510  0.2857
  571MPD2    N1 8530   2.924   3.500   0.381  0.3128 -0.2905  0.0072
  571MPD2    H7 8531   2.941   3.400   0.385  2.7519  0.2318  3.0220
  572TMC3    C1 8532   2.830   4.120   0.625  0.2147  0.0304  0.2771
  572TMC3    C2 8533   2.777   4.132   0.751  0.1889 -0.5191  0.0952
  572TMC3    C3 8534   2.724   4.252   0.783  0.2213 -0.1763  0.2232
  572TMC3    C4 8535   2.853   4.224   0.547 -0.4968  0.0792  0.5702
  572TMC3    C5 8536   2.811   4.349   0.582  0.5334 -0.3763 -0.3999
  572TMC3    C6 8537   2.748   4.359   0.701  0.2107 -1.3466  0.1007
  572TMC3     C 8538   2.888   3.994   0.580  0.8648 -0.3285  0.3792
  572TMC3     O 8539   2.920   3.999   0.463 -0.1694  0.4544 -0.0179
  572TMC3     H 8540   2.752   4.049   0.815  0.2770  0.8290  1.8962
  572TMC3    H1 8541   2.922   4.216   0.464 -0.4549  0.3101  0.5834
  572TMC3    H2 8542   2.718   4.461   0.724  0.9447 -0.9650 -0.6456
  572TMC3    C7 8543   2.841   4.459   0.497  0.6354  0.3110  0.6135
  572TMC3    C8 8544   2.661   4.267   0.921 -0.7118  0.6749 -0.5616
  572TMC3    O1 8545   2.843   4.434   0.375 -0.7299  0.4432  0.4493
  572TMC3    O2 8546   2.684   4.168   0.991  0.1870  0.4859  0.0193
  573MPD2     C 8547   4.042   3.939   0.847  0.7595  0.3314  0.2883
  573MPD2    C1 8548   3.909   3.956   0.817  0.0190  0.0180  0.1556
  573MPD2    C2 8549   3.842   3.886   0.717 -0.1465 -0.7133  0.3705
  573MPD2    C3 8550   3.910   3.790   0.640  0.0762 -0.3329 -0.2548
  573MPD2    C4 8551   4.045   3.784   0.662 -0.1209 -0.0712 -0.4911
  573MPD2    C5 8552   4.107   3.857   0.760 -0.5522 -0.6100  0.1397
  573MPD2     H 8553   3.736   3.904   0.710  0.1363  1.0950  0.7431
  573MPD2    H1 8554   4.103   3.716   0.600 -0.4757 -1.4556  0.7062
  573MPD2    H2 8555   4.103   3.996   0.916  0.4138  2.7016 -1.3922
  573MPD2    H3 8556   4.215   3.849   0.759 -0.3659  2.0016 -2.0260
  573MPD2     N 8557   3.849   3.703   0.549  0.8457  0.0455 -0.5001
  573MPD2    H5 8558   3.909   3.659   0.479  3.7249  0.0545  1.9608
  573MPD2    N1 8559   3.820   4.028   0.898  0.1734  0.3125 -0.0903
  573MPD2    H7 8560   3.720   4.029   0.877  0.0868 -0.8711  0.2583
  574TMC3    C1 8561   3.701   3.624   0.390  0.0407 -1.0624  0.0602
  574TMC3    C2 8562   3.598   3.674   0.314 -0.2554 -0.8079  0.3878
  574TMC3    C3 8563   3.600   3.645   0.175 -0.3842  0.2271 -0.2574
  574TMC3    C4 8564   3.808   3.554   0.337  0.0172 -0.2336  0.3296
  574TMC3    C5 8565   3.802   3.525   0.198 -0.7074  0.8893 -0.4486
  574TMC3    C6 8566   3.701   3.564   0.116  0.1401 -0.6215  0.5962
  574TMC3     C 8567   3.715   3.689   0.521  0.3028 -0.1136  0.0442
  574TMC3     O 8568   3.623   3.722   0.591 -0.2519  0.3592  0.1069
  574TMC3     H 8569   3.519   3.727   0.365  1.6820 -0.0331  2.5743
  574TMC3    H1 8570   3.889   3.511   0.395  1.9379 -0.8798 -2.8799
  574TMC3    H2 8571   3.721   3.567   0.010 -0.1019  0.1511  0.5745
  574TMC3    C7 8572   3.934   3.525   0.142  0.9936 -0.0671 -0.5813
  574TMC3    C8 8573   3.543   3.750   0.089 -0.3554  0.2385 -0.3750
  574TMC3    O1 8574   4.026   3.553   0.220 -0.1051  0.0585 -0.3108
  574TMC3    O2 8575   3.519   3.724  17.731 -0.2056  0.0790 -0.5319
  575TMC3    C1 8576   1.640   0.609  10.951 -0.7278  0.9102  0.0958
  575TMC3    C2 8577   1.633   0.704  11.046 -0.5461  0.0470 -0.5113
  575TMC3    C3 8578   1.568   0.817  11.017 -0.6642 -0.0109 -0.7181
  575TMC3    C4 8579   1.568   0.614  10.839 -0.3453  0.8754 -0.1730
  575TMC3    C5 8580   1.509   0.734  10.808 -0.3332 -0.4923  0.3619
  575TMC3    C6 8581   1.504   0.834  10.901  0.3210 -0.3455 -0.2327
  575TMC3     C 8582   1.689   0.483  11.004  0.2023  0.6720 -0.4866
  575TMC3     O 8583   1.677   0.464  11.127 -0.2879  0.1811  0.2516
  575TMC3     H 8584   1.695   0.701  11.135 -0.1450  0.7156 -0.7659
  575TMC3    H1 8585   1.577   0.528  10.773 -2.5096 -0.6380  1.4773
  575TMC3    H2 8586   1.460   0.928  10.871  2.2765  1.0686  1.3053
  575TMC3    C7 8587   1.419   0.752  10.689  0.3216  0.2188 -0.1079
  575TMC3    C8 8588   1.533   0.906  11.127  0.7727  0.5748  0.6376
  575TMC3    O1 8589   1.350   0.850  10.677 -0.1449 -0.2260  0.3429
  575TMC3    O2 8590   1.456   0.998  11.091  0.1018 -0.4666 -0.0435
  576MPD2     C 8591   1.335   2.665  12.943  0.2821  0.0162  0.4682
  576MPD2    C1 8592   1.386   2.676  12.816  0.9217 -0.0581 -0.2206
  576MPD2    C2 8593   1.452   2.789  12.782  0.0884  0.3761 -0.4289
  576MPD2    C3 8594   1.476   2.895  12.876  0.3115  0.3438  0.2378
  576MPD2    C4 8595   1.437   2.874  13.000  0.3190  0.3778  0.0687
  576MPD2    C5 8596   1.364   2.761  13.032 -1.0084 -1.2435  0.1057
  576MPD2     H 8597   1.473   2.818  12.679  0.5000  0.1849 -0.4014
  576MPD2    H1 8598   1.451   2.950  13.076  0.0088  1.5432 -1.0401
  576MPD2    H2 8599   1.283   2.572  12.964 -0.1777  0.3983  0.9962
  576MPD2    H3 8600   1.317   2.761  13.129 -0.1149  1.4749  0.5348
  576MPD2     N 8601   1.519   3.019  12.829  0.2250 -0.0315  0.5156
  576MPD2    H5 8602   1.530   3.031  12.729 -1.8447 -0.3484  0.2581
  576MPD2    N1 8603   1.371   2.579  12.722 -0.5551 -0.0570 -0.2377
  576MPD2    H7 8604   1.413   2.600  12.632  2.3819 -1.0385  0.9079
  577TMC3    C1 8605   1.313   2.381  12.597  0.2991 -0.0530  0.0519
  577TMC3    C2 8606   1.407   2.278  12.592 -0.3689  0.1885  0.8268
  577TMC3    C3 8607   1.489   2.261  12.481 -0.3648  0.2626 -0.7733
  577TMC3    C4 8608   1.298   2.469  12.491 -0.5022 -0.3037 -0.0462
  577TMC3    C5 8609   1.392   2.462  12.402 -0.4682  0.7357 -0.1264
  577TMC3    C6 8610   1.488   2.355  12.385 -0.5202  0.2309  0.2982
  577TMC3     C 8611   1.304   2.453  12.726  0.1803  0.1344  0.4886
  577TMC3     O 8612   1.260   2.393  12.823 -0.0770  0.5063  0.2166
  577TMC3     H 8613   1.411   2.207  12.674 -1.3653 -0.0855  0.6414
  577TMC3    H1 8614   1.231   2.552  12.509 -2.8517 -1.9461 -1.1054
  577TMC3    H2 8615   1.550   2.348  12.296 -0.0288 -0.4143  0.6866
  577TMC3    C7 8616   1.406   2.585  12.324  0.3986 -0.3538  0.5271
  577TMC3    C8 8617   1.583   2.150  12.482 -0.2876  0.3108  0.0025
  577TMC3    O1 8618   1.371   2.689  12.382  0.1096 -0.0101  0.4663
  577TMC3    O2 8619   1.576   2.069  12.578 -0.1158  0.3580  0.0339
  578MPD2     C 8620   4.595   1.752   1.167 -0.3481 -0.0856 -0.6449
  578MPD2    C1 8621   4.597   1.648   1.080  0.3619 -0.7895  0.2813
  578MPD2    C2 8622   4.692   1.553   1.116 -0.4494 -0.5150 -0.2681
  578MPD2    C3 8623   0.048   1.571   1.215 -0.1354 -0.1540 -0.6322
  578MPD2    C4 8624   0.039   1.682   1.291 -0.6792  0.3407  0.0703
  578MPD2    C5 8625   4.686   1.775   1.269  0.6905  0.9089  1.1151
  578MPD2     H 8626   4.700   1.472   1.045  0.6677 -1.0890  0.5075
  578MPD2    H1 8627   0.107   1.699   1.374  0.1427  2.0473 -0.9436
  578MPD2    H2 8628   4.504   1.812   1.167 -0.2654  0.0295  1.2787
  578MPD2    H3 8629   4.678   1.865   1.330  1.6111  0.6299  1.6459
  578MPD2     N 8630   0.149   1.475   1.224 -0.2648  0.0731 -0.5249
  578MPD2    H5 8631   0.138   1.397   1.160  1.6361  0.6836 -1.5942
  578MPD2    N1 8632   4.521   1.617   0.967  0.0248  0.5083 -0.0069
  578MPD2    H7 8633   4.540   1.535   0.911 -0.3400 -1.0399  2.1282
  579TMC3    C1 8634   0.362   1.374   1.259 -0.2406 -0.2560  0.5700
  579TMC3    C2 8635   0.493   1.406   1.279 -0.1014  0.6896  0.8200
  579TMC3    C3 8636   0.590   1.305   1.266  0.5506  0.1806 -1.5215
  579TMC3    C4 8637   0.327   1.246   1.236 -0.1394  0.3749 -0.0401
  579TMC3    C5 8638   0.423   1.152   1.220 -0.4085 -0.4096 -0.1349
  579TMC3    C6 8639   0.558   1.178   1.225  0.1237 -0.4615 -0.0537
  579TMC3     C 8640   0.265   1.480   1.296 -0.3370  0.1360  0.3463
  579TMC3     O 8641   0.305   1.562   1.378  0.5653  0.2386 -0.1916
  579TMC3     H 8642   0.512   1.512   1.285 -3.2724  1.2096  2.0395
  579TMC3    H1 8643   0.221   1.222   1.241  0.3753 -1.1160  3.3887
  579TMC3    H2 8644   0.633   1.104   1.201  0.5445  0.2036 -0.8234
  579TMC3    C7 8645   0.387   1.032   1.147 -0.2614  0.0616 -0.2668
  579TMC3    C8 8646   0.728   1.343   1.290 -0.1619  0.4526  0.2479
  579TMC3    O1 8647   0.485   0.983   1.087 -0.1544  0.2815  0.3004
  579TMC3    O2 8648   0.807   1.256   1.321 -0.0949  0.1328 -0.2127
  580TMC3    C1 8649   4.552   1.770  12.347  0.8104 -0.0833  0.0353
  580TMC3    C2 8650   4.677   1.825  12.334  0.0609  0.1851  0.1461
  580TMC3    C3 8651   0.039   1.748  12.300  0.6246 -0.1986 -1.0049
  580TMC3    C4 8652   4.537   1.631  12.347  0.1655  0.2839 -0.1560
  580TMC3    C5 8653   4.647   1.554  12.320  0.0395  0.0426 -0.4670
  580TMC3    C6 8654   0.026   1.614  12.275  0.4906  0.7896  0.2202
  580TMC3     C 8655   4.441   1.857  12.333 -0.6235 -0.2318 -0.1620
  580TMC3     O 8656   4.324   1.827  12.372 -0.1959  0.0197  0.1347
  580TMC3     H 8657   4.703   1.929  12.350 -0.7633  0.6139 -1.2652
  580TMC3    H1 8658   4.440   1.592  12.373  0.3477  0.1534  0.3194
  580TMC3    H2 8659   0.115   1.552  12.268  0.7059  1.3176 -1.7128
  580TMC3    C7 8660   4.627   1.411  12.323  0.2195  0.0733  0.6353
  580TMC3    C8 8661   0.142   1.818  12.221 -0.2337 -0.8852  0.4145
  580TMC3    O1 8662   4.538   1.362  12.391  0.2394 -0.3178  0.8369
  580TMC3    O2 8663   0.187   1.924  12.257 -0.4130  0.1690 -0.1722
  581MPD2     C 8664   2.380   0.677  15.024 -0.0568 -0.4883 -0.1530
  581MPD2    C1 8665   2.314   0.572  14.974  0.4398 -0.4415 -0.2437
  581MPD2    C2 8666   2.185   0.594  14.931  0.2093  0.0393 -0.3440
  581MPD2    C3 8667   2.122   0.713  14.956  0.1809 -0.8586  0.6605
  581MPD2    C4 8668   2.192   0.815  15.016 -0.3752 -0.2208 -0.5689
  581MPD2    C5 8669   2.324   0.801  15.042 -0.2369  0.0885  0.5386
  581MPD2     H 8670   2.128   0.517  14.880  0.4781 -0.3139 -0.1109
  581MPD2    H1 8671   2.149   0.914  15.029 -1.5268 -0.8501  0.3531
  581MPD2    H2 8672   2.480   0.658  15.060  0.1369 -0.4168 -0.6459
  581MPD2    H3 8673   2.376   0.880  15.094  0.4615 -0.4525  0.6627
  581MPD2     N 8674   1.993   0.744  14.906 -0.5823  0.1874  1.3774
  581MPD2    H5 8675   1.971   0.843  14.910 -1.9400 -0.0164 -0.9825
  581MPD2    N1 8676   2.382   0.446  14.958  0.0965  0.3030  0.1516
  581MPD2    H7 8677   2.482   0.446  14.973  0.2114 -1.0433 -0.6537
  582TMC3    C1 8678   2.419   0.217  14.997  0.3361 -0.1378  0.0060
  582TMC3    C2 8679   2.500   0.243  15.102  0.5004 -0.1508 -0.1626
  582TMC3    C3 8680   2.537   0.137  15.180  0.1012 -0.0576 -0.1425
  582TMC3    C4 8681   2.379   0.087  14.968 -0.2806 -0.3654 -0.4279
  582TMC3    C5 8682   2.409   4.725  15.055  0.9538  0.1332 -0.0868
  582TMC3    C6 8683   2.490   0.006  15.160  0.5245  0.1157  0.1709
  582TMC3     C 8684   2.329   0.320  14.944 -0.6149 -1.5736  0.4045
  582TMC3     O 8685   2.215   0.284  14.913  0.5960  0.6395 -0.2883
  582TMC3     H 8686   2.529   0.344  15.125  0.6783 -0.2994  0.2679
  582TMC3    H1 8687   2.312   0.083  14.882  0.8885  0.5045 -1.3843
  582TMC3    H2 8688   2.512   4.665  15.228  2.6794  0.7867  0.2779
  582TMC3    C7 8689   2.286   4.666  15.105  0.3729  0.1276 -0.4814
  582TMC3    C8 8690   2.553   0.171  15.318 -0.2195 -0.2967  0.5942
  582TMC3    O1 8691   2.303   4.570  15.179 -0.1862  0.0237  0.2622
  582TMC3    O2 8692   2.493   0.112  15.406  0.0662  0.2278  0.0158
  583MPD2     C 8693   2.586   2.173  16.680  0.4229 -0.2251 -0.2331
  583MPD2    C1 8694   2.678   2.280  16.671  0.6358 -0.4308  0.0752
  583MPD2    C2 8695   2.670   2.385  16.756  0.2298  0.1179  0.2964
  583MPD2    C3 8696   2.563   2.406  16.839  1.6720  0.4999  0.0843
  583MPD2    C4 8697   2.471   2.297  16.844 -0.4550  1.2110  0.4526
  583MPD2    C5 8698   2.485   2.183  16.770 -0.1782  0.5015 -0.0181
  583MPD2     H 8699   2.745   2.464  16.764 -1.1377  1.4304  0.1869
  583MPD2    H1 8700   2.387   2.306  16.912 -0.6524  1.8268  0.1377
  583MPD2    H2 8701   2.601   2.073  16.640  1.9485  0.1872 -0.6725
  583MPD2    H3 8702   2.411   2.106  16.788 -0.3334  0.6963  0.2005
  583MPD2     N 8703   2.549   2.521  16.925 -0.3394  0.2348  0.6336
  583MPD2    H5 8704   2.614   2.598  16.909 -1.1458  0.2634 -2.4087
  583MPD2    N1 8705   2.791   2.264  16.584  0.0471  0.1192 -0.0863
  583MPD2    H7 8706   2.863   2.334  16.599  0.4860 -0.9181  2.5806
  584TMC3    C1 8707   2.473   2.675  17.085 -0.6492 -0.0914  0.2469
  584TMC3    C2 8708   2.529   2.782  17.027  1.2451  0.0279  0.0353
  584TMC3    C3 8709   2.518   2.909  17.078 -0.1684 -0.0666  0.5212
  584TMC3    C4 8710   2.413   2.694  17.203  0.7929 -0.2127  0.6181
  584TMC3    C5 8711   2.399   2.825  17.256 -0.0765  0.2252  1.0672
  584TMC3    C6 8712   2.458   2.928  17.199 -0.2217  0.8458  1.1602
  584TMC3     C 8713   2.470   2.534  17.032  0.3331  0.1457  0.6464
  584TMC3     O 8714   2.382   2.464  17.079 -0.2341  0.1314 -0.6599
  584TMC3     H 8715   2.584   2.769  16.934  0.7382 -0.0450 -0.2507
  584TMC3    H1 8716   2.378   2.612  17.265 -2.2333 -0.5072 -1.4761
  584TMC3    H2 8717   2.443   3.033  17.221 -0.6263  1.4826 -2.1456
  584TMC3    C7 8718   2.327   2.839  17.379 -0.0023  0.1288 -0.5165
  584TMC3    C8 8719   2.604   3.006  17.022 -0.3577 -0.8167 -0.1530
  584TMC3    O1 8720   2.254   2.748  17.409  0.2546  0.2210 -0.3254
  584TMC3    O2 8721   2.612   2.996  16.899  0.4631  0.0270 -0.3163
  585MPD2     C 8722   1.299   1.486   0.469 -0.1009  0.0670 -0.0551
  585MPD2    C1 8723   1.361   1.480   0.344  1.1459 -0.3509 -0.3570
  585MPD2    C2 8724   1.401   1.352   0.300  0.1579 -0.8524 -0.3682
  585MPD2    C3 8725   1.374   1.236   0.378  0.3860  0.5449 -0.7496
  585MPD2    C4 8726   1.307   1.251   0.495 -0.5079  0.5284 -0.1362
  585MPD2    C5 8727   1.275   1.373   0.540  0.2862 -0.0841 -0.4375
  585MPD2     H 8728   1.454   1.344   0.206  2.2023  1.1394  0.6057
  585MPD2    H1 8729   1.284   1.171   0.564 -2.4067  0.8859 -0.3508
  585MPD2    H2 8730   1.266   1.578   0.517 -0.4131 -0.1500  0.1440
  585MPD2    H3 8731   1.240   1.382   0.642  0.7160 -2.5091 -0.0698
  585MPD2     N 8732   1.390   1.105   0.332 -0.3358 -0.8613 -0.2700
  585MPD2    H5 8733   1.334   1.030   0.373  0.6843  0.0911  2.8533
  585MPD2    N1 8734   1.378   1.602   0.283 -0.3152  0.4181  0.2431
  585MPD2    H7 8735   1.338   1.676   0.340 -0.3602 -0.7645  1.7602
  586TMC3    C1 8736   1.460   0.933   0.174  0.3680 -0.6739 -0.4516
  586TMC3    C2 8737   1.551   0.886   0.084 -0.0931 -0.0134  0.9000
  586TMC3    C3 8738   1.538   0.757   0.040 -0.1538  0.0091  0.4756
  586TMC3    C4 8739   1.348   0.864   0.195 -0.6127  0.4426 -0.1076
  586TMC3    C5 8740   1.321   0.750   0.127 -0.0930 -1.2117 -0.3054
  586TMC3    C6 8741   1.420   0.694   0.049 -0.0293 -0.1661 -0.3343
  586TMC3     C 8742   1.473   1.068   0.224 -0.1740  0.0390 -0.4202
  586TMC3     O 8743   1.555   1.135   0.169 -0.7732  0.1046 -0.4732
  586TMC3     H 8744   1.648   0.934   0.071 -0.5131  0.5024 -0.2640
  586TMC3    H1 8745   1.267   0.910   0.250 -1.0854 -0.6020  0.0605
  586TMC3    H2 8746   1.400   0.603  17.752  0.9515  0.1485 -1.2301
  586TMC3    C7 8747   1.193   0.685   0.120  0.5689 -0.6265 -0.6253
  586TMC3    C8 8748   1.654   0.697  17.728 -0.0519  0.1802 -0.3632
  586TMC3    O1 8749   1.183   0.586   0.057 -0.6784  0.3721 -0.5838
  586TMC3    O2 8750   1.681   0.583  17.744  0.4047 -0.2945 -0.7062
  587TMC3    C1 8751   3.696   0.056  16.656  0.2790  0.8952  0.1959
  587TMC3    C2 8752   3.762   0.140  16.739 -0.2580 -0.6055 -0.4828
  587TMC3    C3 8753   3.843   0.081  16.830 -0.3632 -0.1280  0.4191
  587TMC3    C4 8754   3.733   4.658  16.654 -0.0329  0.8722 -0.1118
  587TMC3    C5 8755   3.828   4.612  16.745  0.5193 -0.6848 -0.3269
  587TMC3    C6 8756   3.894   4.695  16.837 -0.4209 -0.1407 -1.0379
  587TMC3     C 8757   3.574   0.111  16.587  0.0877 -0.5921  0.7038
  587TMC3     O 8758   3.571   0.233  16.580  0.3696  0.3586  0.1777
  587TMC3     H 8759   3.741   0.246  16.736  3.3440  0.0533 -2.6450
  587TMC3    H1 8760   3.701   4.594  16.572 -0.4986 -0.7595  1.3452
  587TMC3    H2 8761   3.960   4.661  16.916 -0.1318 -0.3906 -1.3850
  587TMC3    C7 8762   3.871   4.475  16.749  0.3230 -0.5896 -0.6178
  587TMC3    C8 8763   3.844   0.150  16.957 -0.0403  0.0777 -0.1449
  587TMC3    O1 8764   3.983   4.460  16.797  0.3472 -0.6602  0.4380
  587TMC3    O2 8765   3.940   0.135  17.032 -0.0197  0.0527 -0.0830
  588TMC3    C1 8766   1.008   3.054   9.833  0.1451 -0.2166 -0.3553
  588TMC3    C2 8767   0.914   2.958   9.815 -0.6587 -0.2500 -0.5649
  588TMC3    C3 8768   0.921   2.851   9.898  0.0555  0.0109  0.5108
  588TMC3    C4 8769   1.100   3.052   9.932 -0.3928  0.4166  0.1255
  588TMC3    C5 8770   1.088   2.953  10.021  0.5072 -0.2139 -0.7097
  588TMC3    C6 8771   0.990   2.850  10.016 -0.3665  0.6118  0.1719
  588TMC3     C 8772   1.009   3.156   9.732 -0.1906 -0.1601 -0.1501
  588TMC3     O 8773   0.998   3.115   9.616 -0.1029  0.7086  0.0207
  588TMC3     H 8774   0.839   2.967   9.738 -1.6739  0.2071  0.4806
  588TMC3    H1 8775   1.186   3.118   9.935 -0.4227  0.4518  0.2231
  588TMC3    H2 8776   0.982   2.774  10.092 -0.3228 -0.9285 -1.3545
  588TMC3    C7 8777   1.163   2.985  10.141  0.3034 -0.1783 -0.2394
  588TMC3    C8 8778   0.843   2.740   9.862  0.1283  0.2702 -0.3752
  588TMC3    O1 8779   1.224   2.892  10.190 -0.0376 -0.3403 -0.4162
  588TMC3    O2 8780   0.748   2.753   9.779 -0.3825  0.5750  0.2685
  589TMC3    C1 8781   0.090   4.225   1.163  0.0552  0.3268 -0.6936
  589TMC3    C2 8782   0.191   4.230   1.250 -0.8091 -0.1746  0.2205
  589TMC3    C3 8783   0.321   4.194   1.201  0.5534 -0.0070  0.0057
  589TMC3    C4 8784   0.107   4.167   1.039  0.1386  0.0995  0.1765
  589TMC3    C5 8785   0.225   4.121   1.001  0.6071  0.2437 -0.2531
  589TMC3    C6 8786   0.336   4.138   1.074 -0.0938  0.3208 -0.2006
  589TMC3     C 8787   4.699   4.287   1.196  0.0624 -0.4713 -0.2270
  589TMC3     O 8788   4.604   4.249   1.131 -0.3991  0.1304 -1.0927
  589TMC3     H 8789   0.172   4.242   1.355  1.0844  1.8024  0.3458
  589TMC3    H1 8790   0.025   4.138   0.975 -2.1670  3.0770  1.7661
  589TMC3    H2 8791   0.435   4.111   1.039 -0.8266 -1.3768 -0.9279
  589TMC3    C7 8792   0.240   4.030   0.888  0.3538 -0.1059 -0.1898
  589TMC3    C8 8793   0.421   4.198   1.303  0.5483  0.3074  0.7090
  589TMC3    O1 8794   0.137   3.969   0.853 -0.7714  0.0970 -0.7027
  589TMC3    O2 8795   0.389   4.249   1.407  0.4408  0.4276  0.9694
  590MPD2     C 8796   0.540   3.153  16.870  0.7665 -0.4802 -0.3341
  590MPD2    C1 8797   0.491   3.179  16.747 -0.4176  0.2180 -0.1921
  590MPD2    C2 8798   0.572   3.239  16.647 -0.0073  0.0372  0.1652
  590MPD2    C3 8799   0.706   3.278  16.678  0.5843 -0.0728  0.1673
  590MPD2    C4 8800   0.752   3.243  16.806  0.1885  0.6946  0.0243
  590MPD2    C5 8801   0.673   3.172  16.895 -0.5189  0.0671  0.2046
  590MPD2     H 8802   0.540   3.268  16.548 -1.2147  1.7116  1.0511
  590MPD2    H1 8803   0.846   3.274  16.851  1.5657 -0.8189 -1.7779
  590MPD2    H2 8804   0.475   3.126  16.952 -1.6673 -0.2537 -2.1936
  590MPD2    H3 8805   0.719   3.164  16.993 -1.1017  1.1943  0.5763
  590MPD2     N 8806   0.780   3.356  16.585  0.1767  0.2503 -0.2309
  590MPD2    H5 8807   0.736   3.371  16.495 -0.2006  1.2346  0.1173
  590MPD2    N1 8808   0.357   3.158  16.725 -0.2499  0.0574  0.2547
  590MPD2    H7 8809   0.308   3.131  16.810 -1.0286  1.0611  0.1240
  591TMC3    C1 8810   0.901   3.535  16.502  0.3739 -0.0501  0.0586
  591TMC3    C2 8811   0.890   3.501  16.372  0.3766  0.1822 -0.3077
  591TMC3    C3 8812   0.935   3.589  16.274 -0.4097 -0.3178 -0.8530
  591TMC3    C4 8813   0.925   3.664  16.533 -0.4707  0.0225  0.0631
  591TMC3    C5 8814   0.939   3.759  16.432 -0.3785  0.4104 -0.0805
  591TMC3    C6 8815   0.956   3.718  16.298 -0.7616 -0.1298 -0.0147
  591TMC3     C 8816   0.866   3.455  16.616 -0.0494 -0.4050 -1.0297
  591TMC3     O 8817   0.911   3.491  16.727  0.2065  0.2261  0.8818
  591TMC3     H 8818   0.872   3.395  16.353 -1.6138  0.2167  1.4184
  591TMC3    H1 8819   0.900   3.701  16.631 -1.3192 -1.5412  0.4402
  591TMC3    H2 8820   0.957   3.788  16.216  0.7096 -2.5955 -2.1022
  591TMC3    C7 8821   0.841   3.866  16.445 -0.5837 -0.1606  0.7319
  591TMC3    C8 8822   0.924   3.543  16.135  0.2265  0.4304 -0.2764
  591TMC3    O1 8823   0.740   3.839  16.504  0.2657 -0.4898  0.1954
  591TMC3    O2 8824   0.858   3.439  16.130  0.0541 -0.5195 -0.5771
  592MPD2     C 8825   0.396   0.845  11.665 -0.3449 -0.3521 -0.3376
  592MPD2    C1 8826   0.357   0.902  11.788  0.2983  0.7925  0.1554
  592MPD2    C2 8827   0.283   0.827  11.878 -0.2864  0.4873  0.2267
  592MPD2    C3 8828   0.246   0.697  11.841  0.0947 -0.1660  0.2497
  592MPD2    C4 8829   0.274   0.651  11.716  0.1329 -1.0622 -0.5269
  592MPD2    C5 8830   0.342   0.724  11.632 -0.1319 -0.0959  0.8897
  592MPD2     H 8831   0.259   0.856  11.979 -0.6825 -2.0122  0.8210
  592MPD2    H1 8832   0.256   0.548  11.686  0.3290 -1.8071  1.8723
  592MPD2    H2 8833   0.449   0.889  11.581  1.1492 -1.7050 -0.0779
  592MPD2    H3 8834   0.368   0.676  11.538 -1.8677  1.7328 -0.5430
  592MPD2     N 8835   0.193   0.619  11.945 -0.4148 -0.8910  0.1343
  592MPD2    H5 8836   0.185   0.657  12.039 -2.7717 -1.5641  0.2215
  592MPD2    N1 8837   0.420   1.023  11.821 -0.1618 -0.4018  0.0980
  592MPD2    H7 8838   0.479   1.070  11.753  0.6275 -0.0996  0.9875
  593TMC3    C1 8839   0.469   1.211  11.961 -0.3274  0.4005  0.1757
  593TMC3    C2 8840   0.419   1.304  12.061  0.4241 -0.0903 -0.4449
  593TMC3    C3 8841   0.461   1.432  12.050 -0.3652  0.6583  0.2627
  593TMC3    C4 8842   0.563   1.247  11.871 -0.0825  0.7288  0.1886
  593TMC3    C5 8843   0.613   1.369  11.877 -0.1318  0.4766 -0.6311
  593TMC3    C6 8844   0.565   1.467  11.961 -0.6162 -0.0305  0.0431
  593TMC3     C 8845   0.407   1.081  11.947 -0.6304  0.5780 -0.1563
  593TMC3     O 8846   0.333   1.051  12.040  0.7925  0.0900 -0.3938
  593TMC3     H 8847   0.339   1.276  12.129  0.6238 -1.1099 -0.6268
  593TMC3    H1 8848   0.615   1.171  11.813 -0.0492 -0.6379  2.0231
  593TMC3    H2 8849   0.598   1.569  11.943 -1.0843  0.0485 -0.3565
  593TMC3    C7 8850   0.705   1.418  11.767  0.0055  0.1729 -0.1102
  593TMC3    C8 8851   0.440   1.520  12.166  1.0181  0.1567  0.5775
  593TMC3    O1 8852   0.768   1.524  11.791  0.3982 -0.6284  0.2517
  593TMC3    O2 8853   0.338   1.510  12.233 -0.1961 -0.0756  0.3949
  594MPD2     C 8854   4.557   3.781  14.940  0.3580  0.4672  0.5553
  594MPD2    C1 8855   4.465   3.861  14.881  0.7119 -0.6115 -0.4737
  594MPD2    C2 8856   4.509   3.979  14.819  0.5470 -0.5689 -0.4154
  594MPD2    C3 8857   4.645   4.002  14.811 -0.2431  0.0910 -0.8838
  594MPD2    C4 8858   4.739   3.921  14.879  0.0188 -0.1230  0.5323
  594MPD2    C5 8859   4.694   3.815  14.941 -0.3366  0.1031 -0.0105
  594MPD2     H 8860   4.433   4.047  14.782  2.1194  0.4167 -1.8011
  594MPD2    H1 8861   0.105   3.945  14.880 -0.2120  1.0401 -1.9108
  594MPD2    H2 8862   4.525   3.699  15.003 -0.5969 -1.2184 -2.1062
  594MPD2    H3 8863   0.020   3.745  14.992 -0.7503 -0.7860 -0.6975
  594MPD2     N 8864   4.682   4.111  14.731 -0.4044 -0.4214  0.0312
  594MPD2    H5 8865   4.609   4.143  14.668 -0.7666 -0.5432  0.3897
  594MPD2    N1 8866   4.328   3.834  14.886 -0.0343 -0.2698 -0.1539
  594MPD2    H7 8867   4.308   3.751  14.940  1.5948 -1.9359 -2.1432
  595TMC3    C1 8868   0.205   4.399  14.475 -0.2984  0.4184  0.3005
  595TMC3    C2 8869   0.183   4.285  14.549 -0.2968 -0.0935 -0.8052
  595TMC3    C3 8870   0.061   4.261  14.599 -0.0239  0.1235  0.3058
  595TMC3    C4 8871   0.104   4.497  14.470  0.7223  0.0975 -1.1201
  595TMC3    C5 8872   4.724   4.469  14.535  0.0552 -0.2297  0.1484
  595TMC3    C6 8873   4.704   4.357  14.609  0.0911 -0.2846  0.7644
  595TMC3     C 8874   0.334   4.461  14.463 -0.1638  0.0466  0.9212
  595TMC3     O 8875   0.346   4.584  14.480  0.4010  0.3919 -0.1530
  595TMC3     H 8876   0.257   4.208  14.565 -0.9760 -1.0207 -2.1449
  595TMC3    H1 8877   0.112   4.568  14.389  0.3423 -1.8876 -2.9121
  595TMC3    H2 8878   4.618   4.349  14.675  0.7716 -1.2905  1.5263
  595TMC3    C7 8879   4.619   4.568  14.534 -0.2809 -0.1062 -0.1458
  595TMC3    C8 8880   0.066   4.167  14.709 -0.3898  0.5052 -0.1658
  595TMC3    O1 8881   4.505   4.532  14.556  0.3294  0.0784 -0.3521
  595TMC3    O2 8882   0.177   4.136  14.757  0.2574  0.1121  0.1717
  596MPD2     C 8883   3.437   2.010  17.008 -0.3403  0.6653  0.1599
  596MPD2    C1 8884   3.461   2.124  16.934  0.5103  0.0858 -0.5587
  596MPD2    C2 8885   3.504   2.123  16.802 -0.2015 -0.6078  0.5465
  596MPD2    C3 8886   3.507   2.003  16.737 -0.6336  0.2317 -0.4402
  596MPD2    C4 8887   3.494   1.888  16.806  0.0800 -0.1603 -0.2552
  596MPD2    C5 8888   3.461   1.892  16.936  0.7981  0.1486  0.7258
  596MPD2     H 8889   3.535   2.214  16.754  2.7088 -1.4645  0.7927
  596MPD2    H1 8890   3.514   1.790  16.764 -2.0342 -0.7564  0.1235
  596MPD2    H2 8891   3.394   2.011  17.107  0.6928  1.0308  0.6061
  596MPD2    H3 8892   3.457   1.794  16.983 -0.3263  0.3198  0.9699
  596MPD2     N 8893   3.528   1.994  16.602  0.7928 -0.4152 -0.5562
  596MPD2    H5 8894   3.519   1.904  16.557  3.3178 -1.2787  0.7197
  596MPD2    N1 8895   3.462   2.255  16.986 -0.0866 -0.2316 -0.5656
  596MPD2    H7 8896   3.484   2.330  16.921  0.4045  0.2514  0.1643
  597TMC3    C1 8897   3.404   2.432  17.143  0.0800  0.0335 -0.0288
  597TMC3    C2 8898   3.500   2.520  17.097 -0.0587  0.0531  0.2654
  597TMC3    C3 8899   3.483   2.654  17.129  0.0068 -0.2354  0.1548
  597TMC3    C4 8900   3.298   2.465  17.222 -0.2384  0.0648 -0.2912
  597TMC3    C5 8901   3.290   2.602  17.248  0.6003 -0.1717 -0.3698
  597TMC3    C6 8902   3.376   2.698  17.209  0.2470 -0.6382  0.1127
  597TMC3     C 8903   3.410   2.289  17.111 -0.4659  0.6105 -0.4961
  597TMC3     O 8904   3.384   2.206  17.201 -0.1352  0.6546  0.1835
  597TMC3     H 8905   3.584   2.482  17.041 -0.2423 -0.5539  0.3987
  597TMC3    H1 8906   3.220   2.400  17.259  1.4744 -2.1462 -0.5433
  597TMC3    H2 8907   3.370   2.803  17.238 -1.4751 -1.3095  2.2201
  597TMC3    C7 8908   3.163   2.638  17.305  0.2253 -0.4257 -0.3877
  597TMC3    C8 8909   3.558   2.755  17.057 -0.2461 -0.2126  0.0506
  597TMC3    O1 8910   3.101   2.558  17.375 -0.0438  0.1569 -0.5761
  597TMC3    O2 8911   3.532   2.868  17.097  0.6655 -0.1848 -0.1503
  598TMC3    C1 8912   1.473   3.837  15.350 -0.0787  0.4997  0.0806
  598TMC3    C2 8913   1.365   3.763  15.336 -0.1173 -0.0757 -0.1824
  598TMC3    C3 8914   1.322   3.727  15.208 -0.2976 -0.1854 -0.3916
  598TMC3    C4 8915   1.535   3.888  15.244  0.1152 -0.1859  0.7709
  598TMC3    C5 8916   1.485   3.869  15.121  0.8281  0.1928 -0.4795
  598TMC3    C6 8917   1.381   3.785  15.098 -1.0543 -0.5264  0.2530
  598TMC3     C 8918   1.527   3.895  15.477 -0.2510  0.3430  0.3280
  598TMC3     O 8919   1.649   3.918  15.493 -0.2875  0.1535  0.6523
  598TMC3     H 8920   1.316   3.722  15.424  2.6013 -3.0702 -0.0714
  598TMC3    H1 8921   1.604   3.970  15.261 -0.7255  1.2876 -2.9692
  598TMC3    H2 8922   1.345   3.775  14.997 -0.4104 -3.9859  0.3432
  598TMC3    C7 8923   1.554   3.917  15.004  0.2115  0.3909  0.4562
  598TMC3    C8 8924   1.203   3.640  15.204  0.4113  0.1934 -0.1542
  598TMC3    O1 8925   1.523   3.863  14.894 -0.8690 -0.0980 -0.3433
  598TMC3    O2 8926   1.157   3.622  15.316  0.3880 -0.1806 -0.6830
  599MPD2     C 8927   1.262   1.122  15.493 -0.1614 -0.3991 -0.7827
  599MPD2    C1 8928   1.258   1.010  15.577 -0.1949  0.7787 -0.8680
  599MPD2    C2 8929   1.154   0.993  15.664  0.5785 -1.0494 -0.0033
  599MPD2    C3 8930   1.053   1.085  15.667  0.0996 -0.0707  0.0857
  599MPD2    C4 8931   1.057   1.198  15.596  0.6919  0.2801 -0.8097
  599MPD2    C5 8932   1.164   1.219  15.507 -0.0400 -0.3655  0.1750
  599MPD2     H 8933   1.136   0.896  15.709 -0.6973 -0.8590 -0.0897
  599MPD2    H1 8934   0.984   1.279  15.593 -0.2638 -0.6174 -1.6756
  599MPD2    H2 8935   1.353   1.140  15.436  1.0216  0.2946  1.2900
  599MPD2    H3 8936   1.179   1.305  15.443 -1.9037 -0.4314 -0.3513
  599MPD2     N 8937   0.947   1.075  15.754 -0.5515 -0.0749 -0.4715
  599MPD2    H5 8938   0.888   1.157  15.761  1.1869  1.2226 -0.9757
  599MPD2    N1 8939   1.364   0.920  15.568 -0.2197 -0.9186 -0.0775
  599MPD2    H7 8940   1.447   0.938  15.512 -0.0109  1.3625  0.9787
  600TMC3    C1 8941   0.806   0.982  15.912 -0.5893  0.1789 -0.3167
  600TMC3    C2 8942   0.733   0.873  15.957 -0.4925 -0.6163  0.7860
  600TMC3    C3 8943   0.648   0.878  16.062 -0.2032 -0.1327 -0.0992
  600TMC3    C4 8944   0.804   1.096  15.983  0.3556 -0.1237  0.0691
  600TMC3    C5 8945   0.701   1.107  16.076 -0.1895 -0.5650  0.7824
  600TMC3    C6 8946   0.619   1.001  16.117  0.6562 -0.4484  0.0202
  600TMC3     C 8947   0.899   0.958  15.801  0.5434  0.2232 -0.1024
  600TMC3     O 8948   0.912   0.844  15.760 -0.1252  0.0458  0.0825
  600TMC3     H 8949   0.725   0.780  15.902 -0.1330  0.1920 -0.6144
  600TMC3    H1 8950   0.888   1.164  15.971 -0.8055  1.6520  1.9502
  600TMC3    H2 8951   0.552   1.015  16.201  1.5520 -0.5111  0.7543
  600TMC3    C7 8952   0.702   1.220  16.164  0.2615  0.2076 -0.7463
  600TMC3    C8 8953   0.527   0.809  16.044  0.1918 -0.6514  0.4757
  600TMC3    O1 8954   0.657   1.211  16.280  0.0461  0.1529  0.5233
  600TMC3    O2 8955   0.491   0.800  15.928  0.0316 -0.7523  0.1460
  601MPD2     C 8956   3.033   0.188   0.403  0.5233 -0.2745 -1.2975
  601MPD2    C1 8957   2.977   0.095   0.320 -0.6457  0.7433  0.5421
  601MPD2    C2 8958   2.930   4.717   0.377  0.5976 -0.4255 -0.3867
  601MPD2    C3 8959   2.943   4.683   0.512  0.8256 -0.0433 -0.9585
  601MPD2    C4 8960   2.998   0.041   0.590 -0.4470  0.0709  0.0183
  601MPD2    C5 8961   3.043   0.163   0.538  0.4811  0.2287 -0.3917
  601MPD2     H 8962   2.874   4.648   0.313  1.6607 -0.6467 -1.0780
  601MPD2    H1 8963   3.024   0.024   0.693 -2.1390  0.2136  0.4549
  601MPD2    H2 8964   3.057   0.288   0.369 -0.9136  0.3617 -0.4140
  601MPD2    H3 8965   3.096   0.234   0.601 -0.9625 -0.3800  1.5180
  601MPD2     N 8966   2.911   4.553   0.569 -0.4619  0.4028  0.5395
  601MPD2    H5 8967   2.926   4.537   0.668  0.2689 -0.2362  0.3228
  601MPD2    N1 8968   2.977   0.114   0.187  0.3349 -0.5026  0.3239
  601MPD2    H7 8969   2.932   0.037   0.137 -1.1050  0.2342  0.4928
  602TMC3    C1 8970   3.009   0.199  17.722  0.1244  0.3934 -0.3416
  602TMC3    C2 8971   3.084   0.266  17.630 -0.4318  0.2788  0.0291
  602TMC3    C3 8972   3.048   0.267  17.493 -0.2121  1.1068 -0.8126
  602TMC3    C4 8973   2.895   0.134  17.678 -1.0152 -0.5300 -0.0383
  602TMC3    C5 8974   2.856   0.155  17.545 -0.3763 -0.1694 -0.1263
  602TMC3    C6 8975   2.937   0.210  17.454 -0.1642  0.3201  0.4098
  602TMC3     C 8976   3.018   0.219   0.110 -0.3859  0.2886  0.8620
  602TMC3     O 8977   3.079   0.315   0.146  0.3449  0.1589 -0.6152
  602TMC3     H 8978   3.176   0.314  17.661 -0.6835  0.4261  0.5499
  602TMC3    H1 8979   2.826   0.076  17.738  0.3736 -1.2929  0.8046
  602TMC3    H2 8980   2.915   0.197  17.349 -1.1912  0.2239  0.6329
  602TMC3    C7 8981   2.724   0.103  17.498  0.5574 -0.4252  0.0105
  602TMC3    C8 8982   3.138   0.320  17.395 -0.3243 -0.2175  0.1603
  602TMC3    O1 8983   2.669   0.014  17.562  0.8560  0.7555 -0.0809
  602TMC3    O2 8984   3.256   0.332  17.425  0.1252  0.1837  0.1838
  603TMC3    C1 8985   1.352   0.297  10.986 -0.7279  0.6915  0.0393
  603TMC3    C2 8986   1.389   0.280  11.115 -0.7532  0.1329 -0.0206
  603TMC3    C3 8987   1.396   0.392  11.200  0.7011  0.3196 -0.1202
  603TMC3    C4 8988   1.297   0.415  10.946 -0.2746 -0.1883 -0.2511
  603TMC3    C5 8989   1.298   0.521  11.034 -0.1052  0.0648  0.9554
  603TMC3    C6 8990   1.361   0.511  11.155  0.8505 -0.5675 -0.1404
  603TMC3     C 8991   1.350   0.187  10.889 -0.0146  0.2618 -0.1954
  603TMC3     O 8992   1.309   0.211  10.772  0.2095 -0.2706  0.1887
  603TMC3     H 8993   1.433   0.186  11.146 -1.1007 -0.1635 -0.4265
  603TMC3    H1 8994   1.278   0.420  10.839  1.6439 -1.7563 -0.6819
  603TMC3    H2 8995   1.354   0.588  11.231  1.1453  0.3429 -1.0329
  603TMC3    C7 8996   1.238   0.649  11.000 -0.6059 -0.1191 -0.5225
  603TMC3    C8 8997   1.399   0.368  11.349  0.3029  0.2185 -0.0653
  603TMC3    O1 8998   1.259   0.743  11.078  0.2939 -0.3023  0.3310
  603TMC3    O2 8999   1.446   0.258  11.386  0.6805 -0.9020 -0.1285
  604MPD2     C 9000   2.500   2.841  16.024  0.5481 -0.1991  0.0762
  604MPD2    C1 9001   2.486   2.977  16.057  0.5417 -0.2132  0.3435
  604MPD2    C2 9002   2.534   3.069  15.967 -0.0578  0.3725 -0.4559
  604MPD2    C3 9003   2.612   3.033  15.857 -0.6531 -0.6430 -0.2070
  604MPD2    C4 9004   2.626   2.897  15.827  0.1818  0.5064 -0.8034
  604MPD2    C5 9005   2.565   2.805  15.910 -0.4073  0.2652  0.2108
  604MPD2     H 9006   2.507   3.174  15.975 -0.4220  0.0736  2.4509
  604MPD2    H1 9007   2.695   2.868  15.749 -1.4398 -0.5955 -1.8154
  604MPD2    H2 9008   2.483   2.764  16.099 -1.6317  0.6388  0.4525
  604MPD2    H3 9009   2.588   2.699  15.897 -1.8217 -0.0383  0.2652
  604MPD2     N 9010   2.681   3.126  15.771  0.5063  0.1702 -0.0320
  604MPD2    H5 9011   2.749   3.089  15.705  1.6070 -0.0186  1.2096
  604MPD2    N1 9012   2.426   3.008  16.178 -0.0044 -0.2282 -0.2527
  604MPD2    H7 9013   2.368   2.935  16.219  0.7180 -0.1128  0.9865
  605TMC3    C1 9014   2.360   3.171  16.341  0.4496  0.2735  0.1381
  605TMC3    C2 9015   2.410   3.261  16.430  0.1231 -0.1066  0.9261
  605TMC3    C3 9016   2.332   3.361  16.482  0.3454 -0.3331 -0.3921
  605TMC3    C4 9017   2.229   3.184  16.304 -0.6658 -0.0013  0.2326
  605TMC3    C5 9018   2.140   3.274  16.375  0.1112 -0.3096  0.5328
  605TMC3    C6 9019   2.198   3.368  16.461  0.1112 -0.1669  0.7523
  605TMC3     C 9020   2.444   3.134  16.224 -0.3372  0.5950 -0.3550
  605TMC3     O 9021   2.556   3.192  16.223 -0.3990  0.4743  0.5378
  605TMC3     H 9022   2.516   3.252  16.455  0.0934 -1.3781  0.5998
  605TMC3    H1 9023   2.193   3.109  16.236 -2.4468  0.9559  0.1256
  605TMC3    H2 9024   2.135   3.444  16.505  0.3596  0.1606  0.5385
  605TMC3    C7 9025   2.006   3.293  16.333 -0.8569  0.7547 -0.1038
  605TMC3    C8 9026   2.380   3.434  16.599 -0.0858  0.2440 -0.2324
  605TMC3    O1 9027   1.962   3.406  16.333 -0.0807 -0.7674  0.0853
  605TMC3    O2 9028   2.292   3.475  16.673 -0.5850 -0.2000 -0.0760
  606TMC3    C1 9029   3.977   2.192   0.211  0.3511 -0.0568  0.8262
  606TMC3    C2 9030   3.998   2.108   0.323  0.0740  0.9539  0.5970
  606TMC3    C3 9031   4.000   1.972   0.299  0.2655  0.2347 -0.4139
  606TMC3    C4 9032   3.939   2.148   0.088 -0.5542 -0.0658  0.1010
  606TMC3    C5 9033   3.931   2.011   0.074  0.1668  0.0700 -0.8813
  606TMC3    C6 9034   3.961   1.925   0.177  0.2815 -0.0108 -0.6602
  606TMC3     C 9035   3.965   2.336   0.237  0.7112  0.4435 -0.0931
  606TMC3     O 9036   3.947   2.365   0.355 -0.0051 -0.1196  0.0498
  606TMC3     H 9037   4.048   2.157   0.406 -0.3947  1.6307  0.4716
  606TMC3    H1 9038   3.910   2.216   0.009 -1.0273 -0.5234 -0.1179
  606TMC3    H2 9039   3.957   1.818   0.162  0.2187 -0.0826 -0.1348
  606TMC3    C7 9040   3.868   1.968  17.710 -0.0414  0.4396  0.3374
  606TMC3    C8 9041   4.012   1.885   0.415 -0.4909 -1.4561 -0.7463
  606TMC3    O1 9042   3.889   2.036  17.612  0.0027  0.0417 -0.2799
  606TMC3    O2 9043   3.979   1.771   0.398  0.2499 -0.6072  0.4842
  607MPD2     C 9044   0.475   4.500  11.642  0.4646  0.1800 -0.0401
  607MPD2    C1 9045   0.426   4.608  11.706  0.4952 -0.1352 -0.4999
  607MPD2    C2 9046   0.371   4.595  11.834  0.4864 -0.6317  0.3533
  607MPD2    C3 9047   0.352   4.470  11.893 -0.1926 -0.2984 -0.0672
  607MPD2    C4 9048   0.387   4.361  11.816 -0.1961 -0.1112 -0.1840
  607MPD2    C5 9049   0.456   4.377  11.698  0.1467 -1.0040  0.8113
  607MPD2     H 9050   0.345   4.682  11.894 -0.3524 -0.7824  0.2149
  607MPD2    H1 9051   0.355   4.262  11.847 -2.2550  0.6609  0.1685
  607MPD2    H2 9052   0.513   4.492  11.541  0.1088  1.8713 -0.3147
  607MPD2    H3 9053   0.487   4.287  11.646  0.9366 -0.2683  0.0150
  607MPD2     N 9054   0.309   4.459  12.028 -0.4270  0.5105 -0.6366
  607MPD2    H5 9055   0.256   4.540  12.060 -0.4335  0.0814  0.4414
  607MPD2    N1 9056   0.453   0.006  11.670  0.1770 -0.2023 -0.2740
  607MPD2    H7 9057   0.409   0.075  11.731 -0.2277  0.4107 -1.2529
  608TMC3    C1 9058   0.544   0.197  11.575  0.0338  0.3408  0.1519
  608TMC3    C2 9059   0.535   0.255  11.701  0.1012 -0.0366 -0.4339
  608TMC3    C3 9060   0.533   0.396  11.709  0.0968  0.0226 -0.4216
  608TMC3    C4 9061   0.569   0.271  11.465  0.0602 -0.4734 -0.4809
  608TMC3    C5 9062   0.579   0.411  11.482  0.1754 -1.0151 -0.1688
  608TMC3    C6 9063   0.561   0.477  11.599 -0.2620 -0.0540  0.2808
  608TMC3     C 9064   0.526   0.045  11.559 -0.3917  0.0447 -0.7363
  608TMC3     O 9065   0.581   4.721  11.472  0.2904  0.4281  0.1458
  608TMC3     H 9066   0.542   0.196  11.792 -1.0732  0.0512 -0.2865
  608TMC3    H1 9067   0.588   0.218  11.372  4.5750  1.3429 -0.6094
  608TMC3    H2 9068   0.555   0.585  11.606  1.2900 -0.0551  1.7923
  608TMC3    C7 9069   0.605   0.501  11.375 -0.7954  0.2178 -0.3656
  608TMC3    C8 9070   0.526   0.446  11.842  0.3414  0.3334  0.0041
  608TMC3    O1 9071   0.644   0.613  11.396 -0.1816  0.2952 -0.8018
  608TMC3    O2 9072   0.583   0.552  11.867  0.2691 -0.5514 -0.0515
  609TMC3    C1 9073   3.533   4.506   9.522 -0.2870  0.6708  0.6905
  609TMC3    C2 9074   3.502   4.556   9.398 -0.7379 -0.4729 -0.3347
  609TMC3    C3 9075   3.561   4.492   9.293  0.5411  0.0961  0.7199
  609TMC3    C4 9076   3.615   4.393   9.533  0.1240  0.5812 -0.4274
  609TMC3    C5 9077   3.681   4.340   9.424 -0.1408  0.0512  0.3190
  609TMC3    C6 9078   3.655   4.390   9.298  0.1514 -0.2157 -0.3847
  609TMC3     C 9079   3.442   4.548   9.628 -0.3045 -0.2233  0.1207
  609TMC3     O 9080   3.390   4.462   9.700 -0.2491  0.3684  0.1381
  609TMC3     H 9081   3.412   4.615   9.379 -0.6004 -0.2738 -0.3666
  609TMC3    H1 9082   3.622   4.341   9.628 -1.6421 -0.3910 -0.8350
  609TMC3    H2 9083   3.709   4.358   9.209 -1.5798 -1.4907 -0.9933
  609TMC3    C7 9084   3.777   4.236   9.445  0.1790 -0.8164 -0.0151
  609TMC3    C8 9085   3.534   4.538   9.163  0.5971  0.1106  0.2959
  609TMC3    O1 9086   3.798   4.204   9.560  0.4840  0.2303 -0.1497
  609TMC3    O2 9087   3.533   4.462   9.066  0.2051 -0.6936  0.0272
  610TMC3    C1 9088   1.641   0.807  12.263  0.0018 -0.5442  0.1048
  610TMC3    C2 9089   1.769   0.843  12.234 -0.1624  0.6047  0.4624
  610TMC3    C3 9090   1.867   0.775  12.286 -0.4189 -0.2177 -0.9991
  610TMC3    C4 9091   1.603   0.709  12.360 -0.0152  0.7988 -0.0831
  610TMC3    C5 9092   1.709   0.640  12.412 -0.0934 -0.6867 -0.2083
  610TMC3    C6 9093   1.838   0.678  12.384  0.0079  0.6772  0.8102
  610TMC3     C 9094   1.533   0.867  12.183  0.2169 -0.2913 -0.5677
  610TMC3     O 9095   1.548   0.981  12.145 -0.0178  0.0331 -0.6504
  610TMC3     H 9096   1.784   0.898  12.142 -0.4087  0.2563  0.2144
  610TMC3    H1 9097   1.499   0.679  12.373  0.3679 -0.3105  0.4117
  610TMC3    H2 9098   1.922   0.623  12.425  1.8771  2.2088 -0.9710
  610TMC3    C7 9099   1.699   0.528  12.496  0.4669 -0.1507  0.5020
  610TMC3    C8 9100   2.005   0.804  12.256 -0.1249  0.2822  0.1408
  610TMC3    O1 9101   1.795   0.451  12.509  0.1602 -0.4252 -0.1691
  610TMC3    O2 9102   2.094   0.739  12.312  0.1148 -0.0985 -0.8309
  611MPD2     C 9103   4.503   0.668  10.604 -0.6205 -0.3764  0.1838
  611MPD2    C1 9104   4.565   0.582  10.519  0.4366  0.2319  0.2664
  611MPD2    C2 9105   4.698   0.602  10.483  0.4408 -0.0334 -0.3319
  611MPD2    C3 9106   0.023   0.707  10.533  0.2264 -0.4169  0.0366
  611MPD2    C4 9107   4.701   0.798  10.608 -0.6201  0.4431 -0.7664
  611MPD2    C5 9108   4.567   0.781  10.646 -0.5641  0.4537  0.1439
  611MPD2     H 9109   0.001   0.528  10.416  0.2537 -1.7694  1.4511
  611MPD2    H1 9110   0.016   0.881  10.650  0.7568 -1.7873  1.8310
  611MPD2    H2 9111   4.401   0.655  10.638 -0.5860  0.4068  0.5883
  611MPD2    H3 9112   4.525   0.856  10.712 -1.4077  0.1993 -0.1088
  611MPD2     N 9113   0.163   0.723  10.502  0.5884 -0.2378  0.0765
  611MPD2    H5 9114   0.205   0.809  10.536  0.7928 -0.5801  0.6833
  611MPD2    N1 9115   4.477   0.481  10.466 -0.5429 -0.2128 -0.1816
  611MPD2    H7 9116   4.378   0.475  10.488 -0.3585  2.0154  1.3637
  612TMC3    C1 9117   0.378   0.713  10.403 -0.5254 -0.4027  0.4307
  612TMC3    C2 9118   0.446   0.747  10.519  0.1347 -0.2211 -0.6069
  612TMC3    C3 9119   0.587   0.752  10.517  0.3190 -0.2290  0.3817
  612TMC3    C4 9120   0.447   0.679  10.289  0.5064  0.1683 -0.1194
  612TMC3    C5 9121   0.584   0.685  10.287  0.5012  0.0484  0.2983
  612TMC3    C6 9122   0.654   0.718  10.398 -0.6636  0.1343 -0.0486
  612TMC3     C 9123   0.249   0.651  10.423 -0.2943 -0.2757  0.0325
  612TMC3     O 9124   0.223   0.549  10.363 -0.2853 -0.5251  0.1076
  612TMC3     H 9125   0.396   0.761  10.614 -0.2552 -0.8187 -0.7208
  612TMC3    H1 9126   0.383   0.644  10.208 -1.5202  1.5135  0.9145
  612TMC3    H2 9127   0.762   0.725  10.398 -0.6423 -0.1896  0.0986
  612TMC3    C7 9128   0.656   0.670  10.167  0.8648 -0.3147 -0.2077
  612TMC3    C8 9129   0.651   0.805  10.631 -0.0716 -0.5963 -0.5918
  612TMC3    O1 9130   0.778   0.647  10.174 -0.0158 -0.9704  0.0583
  612TMC3    O2 9131   0.587   0.889  10.692  0.1523  0.2463 -0.4944
  613MPD2     C 9132   4.535   2.392  16.417 -0.4653  0.8592  0.1521
  613MPD2    C1 9133   4.546   2.291  16.329 -0.2165 -0.1076 -0.1381
  613MPD2    C2 9134   4.509   2.164  16.366 -0.5291 -0.3187  0.1737
  613MPD2    C3 9135   4.488   2.137  16.497 -0.1637 -0.2049  0.2761
  613MPD2    C4 9136   4.489   2.236  16.589  1.1285  0.4506 -0.0784
  613MPD2    C5 9137   4.507   2.362  16.549  0.4838  0.2426  0.0388
  613MPD2     H 9138   4.504   2.085  16.292  1.8594 -1.3818  1.1348
  613MPD2    H1 9139   4.467   2.218  16.693  1.0394 -1.8362 -0.4881
  613MPD2    H2 9140   4.538   2.497  16.388 -0.3453  0.5061 -1.0908
  613MPD2    H3 9141   4.487   2.440  16.622  2.5697 -0.6736  1.5471
  613MPD2     N 9142   4.464   2.004  16.524  0.3449  0.0678 -0.1944
  613MPD2    H5 9143   4.478   1.929  16.457 -0.4605 -0.6969  0.4949
  613MPD2    N1 9144   4.577   2.318  16.197 -0.4043 -0.2777 -1.0441
  613MPD2    H7 9145   4.582   2.239  16.134 -0.7688 -2.2013  1.3299
  614TMC3    C1 9146   4.606   2.411  15.996  0.1949 -0.3601 -0.5483
  614TMC3    C2 9147   4.622   2.276  15.966  0.0173  0.2556 -0.3826
  614TMC3    C3 9148   4.535   2.221  15.878  0.9473  0.3503  0.4654
  614TMC3    C4 9149   4.510   2.490  15.938  0.2567  0.2249 -0.2666
  614TMC3    C5 9150   4.437   2.434  15.840 -0.7062  0.6130  0.5770
  614TMC3    C6 9151   4.442   2.297  15.808  0.0213  0.0989 -0.3120
  614TMC3     C 9152   4.621   2.433  16.136  0.1808 -0.1050  0.4645
  614TMC3     O 9153   4.628   2.546  16.179 -0.1197 -0.5472  0.3837
  614TMC3     H 9154   4.708   2.230  16.012  2.5254  2.8677 -2.4918
  614TMC3    H1 9155   4.502   2.595  15.963  2.7110  0.4484 -0.3737
  614TMC3    H2 9156   4.353   2.251  15.766  1.0381 -0.5736 -1.7269
  614TMC3    C7 9157   4.363   2.517  15.751  0.0150 -0.2580  0.8872
  614TMC3    C8 9158   4.493   2.096  15.933  0.5531 -0.2735  0.7140
  614TMC3    O1 9159   4.364   2.636  15.769  0.5574 -0.1107  0.1083
  614TMC3    O2 9160   4.545   2.065  16.042  0.9430  0.1076  0.4773
  615MPD2     C 9161   4.039   4.297  15.547  0.5234  0.3314  0.2355
  615MPD2    C1 9162   4.101   4.345  15.658 -0.8590 -0.0041 -0.4386
  615MPD2    C2 9163   4.046   4.454  15.732  0.0397  0.5864  1.1013
  615MPD2    C3 9164   3.932   4.515  15.690  0.0258 -0.6548 -0.3147
  615MPD2    C4 9165   3.872   4.477  15.572 -0.1076 -0.0357  0.0214
  615MPD2    C5 9166   3.922   4.366  15.507 -0.0126  0.6977 -0.0294
  615MPD2     H 9167   4.105   4.483  15.818 -2.9150 -0.2170  3.3651
  615MPD2    H1 9168   3.779   4.522  15.539 -0.7866 -1.3500  0.1297
  615MPD2    H2 9169   4.077   4.220  15.480  0.5439 -0.1440  0.7949
  615MPD2    H3 9170   3.858   4.333  15.425  0.1394  2.9500 -1.0290
  615MPD2     N 9171   3.864   4.614  15.767  0.0797 -0.1934  0.0091
  615MPD2    H5 9172   3.772   4.644  15.736  0.7196  1.6821 -0.0942
  615MPD2    N1 9173   4.225   4.296  15.707 -0.1276 -0.5406  0.7224
  615MPD2    H7 9174   4.275   4.336  15.785 -0.0049 -2.7198  1.7483
  616TMC3    C1 9175   4.392   4.131  15.751  0.2449  0.5270  0.3120
  616TMC3    C2 9176   4.487   4.228  15.776  0.1659 -0.1999 -0.9155
  616TMC3    C3 9177   4.555   4.208  15.894 -0.1810  0.1861 -0.1579
  616TMC3    C4 9178   4.373   4.021  15.827 -0.0201  0.1245 -0.9799
  616TMC3    C5 9179   4.449   4.000  15.941 -1.1725  0.3588 -0.0867
  616TMC3    C6 9180   4.538   4.098  15.976 -0.6144  0.1184 -0.1859
  616TMC3     C 9181   4.269   4.169  15.674  0.4136 -0.4394  0.2186
  616TMC3     O 9182   4.220   4.087  15.598  0.2122  0.0280 -0.6535
  616TMC3     H 9183   4.511   4.303  15.701  3.0572 -0.9865 -0.7813
  616TMC3    H1 9184   4.311   3.945  15.780 -0.5975 -0.7484  1.2039
  616TMC3    H2 9185   4.578   4.100  16.077  1.0221  0.5473 -0.8286
  616TMC3    C7 9186   4.451   3.861  15.994  0.0244 -0.1889 -0.0276
  616TMC3    C8 9187   4.634   4.322  15.936 -0.0294 -0.0096  0.1115
  616TMC3    O1 9188   4.388   3.775  15.939 -0.2723  0.1872 -0.1808
  616TMC3    O2 9189   4.657   4.416  15.862  0.0698  0.5128  0.0473
  617MPD2     C 9190   1.626   2.025  13.762  0.1974  0.6062  0.0544
  617MPD2    C1 9191   1.606   2.054  13.893  0.2191 -0.3037 -0.0439
  617MPD2    C2 9192   1.515   1.978  13.969 -0.0200 -0.2885  0.5750
  617MPD2    C3 9193   1.447   1.871  13.913 -0.0526  0.5775 -0.0604
  617MPD2    C4 9194   1.465   1.846  13.776  0.0805 -0.3136 -1.3481
  617MPD2    C5 9195   1.561   1.915  13.713 -0.3806  0.1360  0.2538
  617MPD2     H 9196   1.486   2.001  14.070  0.1896 -2.4476  1.1241
  617MPD2    H1 9197   1.418   1.764  13.723  0.5532 -0.6497 -1.2448
  617MPD2    H2 9198   1.685   2.088  13.697  1.0607 -0.6641 -0.4071
  617MPD2    H3 9199   1.592   1.887  13.613  0.8029  1.0637  0.3656
  617MPD2     N 9200   1.355   1.790  13.988  0.2999  0.1456 -0.4943
  617MPD2    H5 9201   1.316   1.711  13.937  2.4094 -1.8348  0.9945
  617MPD2    N1 9202   1.678   2.161  13.945  0.4135 -0.6171  0.5409
  617MPD2    H7 9203   1.757   2.198  13.893 -0.5145  1.3811  0.5741
  618TMC3    C1 9204   1.752   2.327  14.086 -0.2630  1.1917  0.6991
  618TMC3    C2 9205   1.814   2.317  14.205 -0.5159  0.4318 -0.7882
  618TMC3    C3 9206   1.941   2.357  14.233  0.2824  0.0118 -0.5618
  618TMC3    C4 9207   1.827   2.376  13.982  0.0985 -0.4174  0.0257
  618TMC3    C5 9208   1.959   2.410  14.009 -0.0922 -0.0366 -0.7446
  618TMC3    C6 9209   2.024   2.389  14.127 -0.1527 -0.5193  0.2216
  618TMC3     C 9210   1.655   2.226  14.062  0.5922 -0.3190  0.0714
  618TMC3     O 9211   1.573   2.199  14.153  0.2744  0.1013  0.4052
  618TMC3     H 9212   1.770   2.254  14.282 -2.1776  0.8883 -1.3697
  618TMC3    H1 9213   1.784   2.398  13.885 -0.8600 -0.8818  0.3461
  618TMC3    H2 9214   2.129   2.415  14.129 -0.0633 -1.0052  1.4999
  618TMC3    C7 9215   2.035   2.327  13.922  0.3767 -0.0320 -0.5203
  618TMC3    C8 9216   2.000   2.261  14.327  0.1533 -0.1757 -0.1818
  618TMC3    O1 9217   1.975   2.221  13.908 -0.1538  0.1475 -0.2361
  618TMC3    O2 9218   1.941   2.238  14.434 -0.8932 -0.4162  0.4473
  619MPD2     C 9219   3.098   3.135  13.663 -0.4976  1.0571  0.7595
  619MPD2    C1 9220   3.012   3.236  13.635  0.2965  0.6178 -0.3122
  619MPD2    C2 9221   2.877   3.225  13.667  0.5312 -0.2810  0.1445
  619MPD2    C3 9222   2.826   3.112  13.729  0.9211  0.2539 -0.6480
  619MPD2    C4 9223   2.913   3.007  13.744  0.3192  0.3128 -0.0143
  619MPD2    C5 9224   3.049   3.020  13.722 -0.5444  0.5528  0.0500
  619MPD2     H 9225   2.815   3.305  13.630 -0.4681 -1.5445 -0.9104
  619MPD2    H1 9226   2.884   2.906  13.771  0.3049  0.4173  0.3539
  619MPD2    H2 9227   3.206   3.135  13.658 -0.5207 -0.9027  0.4540
  619MPD2    H3 9228   3.121   2.941  13.737 -0.4399  0.2448 -2.0283
  619MPD2     N 9229   2.690   3.092  13.740 -0.1570  0.1793 -0.2053
  619MPD2    H5 9230   2.662   2.997  13.764  0.0217  0.1252 -0.2068
  619MPD2    N1 9231   3.048   3.350  13.558 -0.5215  0.3286  0.5604
  619MPD2    H7 9232   2.975   3.418  13.537 -1.2446 -0.2597  1.1587
  620TMC3    C1 9233   3.191   3.494  13.436 -0.3533 -0.1688 -0.4719
  620TMC3    C2 9234   3.087   3.561  13.389 -0.1138 -0.0705  0.0470
  620TMC3    C3 9235   3.113   3.669  13.307  0.5534 -0.2020  0.5493
  620TMC3    C4 9236   3.320   3.535  13.422 -0.2453 -0.1979  0.0243
  620TMC3    C5 9237   3.341   3.655  13.363 -0.1674 -0.5190 -0.5789
  620TMC3    C6 9238   3.243   3.719  13.292 -0.2505 -0.2037  0.1935
  620TMC3     C 9239   3.173   3.370  13.506  0.0479  0.2964  0.3485
  620TMC3     O 9240   3.269   3.302  13.521  0.4717 -0.1953 -0.0049
  620TMC3     H 9241   2.984   3.527  13.397 -0.1314  0.2067  0.9306
  620TMC3    H1 9242   3.406   3.482  13.461 -1.7059 -2.6201  0.0160
  620TMC3    H2 9243   3.263   3.811  13.238 -0.1265  0.1678  0.8744
  620TMC3    C7 9244   3.399   3.756  13.450 -0.0606  0.2484  0.5585
  620TMC3    C8 9245   3.032   3.779  13.332 -0.0479  0.2238  0.5688
  620TMC3    O1 9246   3.384   3.869  13.400  0.3111  0.5485  0.5086
  620TMC3    O2 9247   3.053   3.873  13.254  0.4303  0.4985  0.2399
  621MPD2     C 9248   3.387   3.391  10.778  0.4242  0.4906  0.7636
  621MPD2    C1 9249   3.295   3.380  10.673  0.2112  0.1285  0.1241
  621MPD2    C2 9250   3.260   3.496  10.603 -0.1974 -0.0683 -0.6444
  621MPD2    C3 9251   3.288   3.624  10.637 -0.8509  0.6971  0.2312
  621MPD2    C4 9252   3.370   3.632  10.752  0.4906 -0.1498 -0.1279
  621MPD2    C5 9253   3.408   3.521  10.823 -0.4311  0.2005  0.3537
  621MPD2     H 9254   3.193   3.478  10.520  0.2779 -1.0159 -0.8291
  621MPD2    H1 9255   3.394   3.727  10.800  0.4081 -0.7546  1.1112
  621MPD2    H2 9256   3.437   3.312  10.833  0.1987  1.1659  1.9306
  621MPD2    H3 9257   3.472   3.538  10.909 -0.8548 -0.2746  0.7589
  621MPD2     N 9258   3.241   3.730  10.552 -0.0782 -0.2447 -0.5757
  621MPD2    H5 9259   3.186   3.713  10.469 -1.6209 -0.1763  0.4397
  621MPD2    N1 9260   3.258   3.252  10.625 -0.7006  0.0346  0.4958
  621MPD2    H7 9261   3.215   3.240  10.534 -0.0140 -2.0751  0.4477
  622TMC3    C1 9262   3.237   3.015  10.617 -0.3262  0.7522  0.2466
  622TMC3    C2 9263   3.164   2.923  10.687 -0.2800  0.1521  0.0077
  622TMC3    C3 9264   3.104   2.827  10.616  0.0345 -0.1642 -0.0560
  622TMC3    C4 9265   3.249   3.014  10.479 -0.0538  0.1752  0.5033
  622TMC3    C5 9266   3.188   2.910  10.412 -0.4637  0.0078 -0.4711
  622TMC3    C6 9267   3.121   2.809  10.478 -0.5105 -0.2459 -0.4612
  622TMC3     C 9268   3.289   3.132  10.688 -0.3070  0.7591  1.2684
  622TMC3     O 9269   3.332   3.114  10.800  0.3266  0.3903 -0.1467
  622TMC3     H 9270   3.151   2.922  10.794  0.6149 -3.6055  0.0793
  622TMC3    H1 9271   3.295   3.097  10.427  3.4745 -1.5398  0.8954
  622TMC3    H2 9272   3.062   2.737  10.422  0.2351 -1.5278  0.3829
  622TMC3    C7 9273   3.186   2.894  10.267  0.1972 -0.0828  0.2064
  622TMC3    C8 9274   2.967   2.798  10.656 -0.1305 -0.1096 -0.6488
  622TMC3    O1 9275   3.169   2.783  10.212 -0.1530  0.4968 -0.2004
  622TMC3    O2 9276   2.908   2.702  10.610 -0.5731 -0.0036 -0.2559
  623MPD2     C 9277   2.899   3.508  15.975  0.4234 -0.1553  0.0179
  623MPD2    C1 9278   2.847   3.499  16.105  0.2355  0.4613  0.4419
  623MPD2    C2 9279   2.929   3.531  16.215  0.3003  0.3309  0.5931
  623MPD2    C3 9280   3.060   3.574  16.192 -0.1206  0.8951  0.3517
  623MPD2    C4 9281   3.109   3.575  16.065  0.4307  0.2669 -0.2479
  623MPD2    C5 9282   3.029   3.548  15.957 -0.1962 -0.1381  0.8706
  623MPD2     H 9283   2.888   3.538  16.315 -1.5068 -0.2133 -0.1085
  623MPD2    H1 9284   3.212   3.593  16.038  1.0041 -2.1290  0.3633
  623MPD2    H2 9285   2.837   3.495  15.887  1.3118  0.5982 -0.7200
  623MPD2    H3 9286   3.068   3.555  15.856 -1.4322  1.7844  0.5301
  623MPD2     N 9287   3.123   3.625  16.307  0.1733 -0.0475  0.1015
  623MPD2    H5 9288   3.083   3.621  16.400  0.7149 -0.3920  0.3247
  623MPD2    N1 9289   2.714   3.483  16.112  0.2848 -0.7021  0.2555
  623MPD2    H7 9290   2.661   3.505  16.028 -2.1684 -0.5936  1.8409
  624TMC3    C1 9291   3.363   3.638  16.615  0.0007 -0.6956 -0.0412
  624TMC3    C2 9292   3.250   3.634  16.692 -0.4473 -0.2903 -0.2556
  624TMC3    C3 9293   3.135   3.686  16.635 -0.5535  0.2999 -0.9048
  624TMC3    C4 9294   3.376   3.695  16.492 -0.1528 -0.5037  0.1781
  624TMC3    C5 9295   3.263   3.738  16.436 -0.3543 -0.5659 -0.2137
  624TMC3    C6 9296   3.146   3.742  16.512  0.1308  0.6366 -0.0303
  624TMC3     C 9297   3.489   3.606  16.682 -1.2547  0.7762 -0.6066
  624TMC3     O 9298   3.593   3.667  16.666  0.1034  0.7650 -0.3033
  624TMC3     H 9299   3.245   3.586  16.790  0.7102  1.6255  0.7445
  624TMC3    H1 9300   3.465   3.672  16.434 -0.3269  2.4229 -1.2420
  624TMC3    H2 9301   3.058   3.785  16.466  1.0599  2.0113 -0.5264
  624TMC3    C7 9302   3.243   3.694  16.305  0.1936 -0.5604  0.0832
  624TMC3    C8 9303   3.015   3.610  16.631  0.1090 -0.3677 -0.1771
  624TMC3    O1 9304   3.317   3.713  16.215  0.3556  0.1255  0.5168
  624TMC3    O2 9305   2.992   3.528  16.541  0.4787 -0.0872 -0.2143
  625MPD2     C 9306   3.064   0.143   0.990 -0.4967 -0.4785  0.5220
  625MPD2    C1 9307   3.032   0.261   1.057  0.4690 -0.2385 -0.5525
  625MPD2    C2 9308   3.121   0.313   1.152  0.1487 -0.0317 -0.2334
  625MPD2    C3 9309   3.228   0.244   1.189 -0.4539  0.3616  0.6584
  625MPD2    C4 9310   3.265   0.127   1.123 -0.2407  0.1721  0.4017
  625MPD2    C5 9311   3.177   0.073   1.032  0.8781 -0.0282 -0.3486
  625MPD2     H 9312   3.096   0.407   1.198 -1.6246 -0.4970 -0.2661
  625MPD2    H1 9313   3.357   0.077   1.151  0.2758 -0.0626 -1.7395
  625MPD2    H2 9314   3.000   0.104   0.911  0.6134 -0.1232 -0.5573
  625MPD2    H3 9315   3.214   4.729   0.976 -0.2144  0.3436 -1.6364
  625MPD2     N 9316   3.319   0.296   1.281  0.5138 -0.3694 -0.0327
  625MPD2    H5 9317   3.314   0.396   1.297 -1.0737 -0.6193  1.0633
  625MPD2    N1 9318   2.925   0.349   1.012 -0.1853 -0.2514 -0.5578
  625MPD2    H7 9319   2.929   0.445   1.044  0.8482 -0.1223 -1.0908
  626TMC3    C1 9320   2.735   0.423   0.887 -1.3063  0.4054 -0.3574
  626TMC3    C2 9321   2.666   0.424   0.770  0.1550 -0.4135 -0.3474
  626TMC3    C3 9322   2.572   0.513   0.744 -0.2508 -0.0578  0.3209
  626TMC3    C4 9323   2.700   0.513   0.985  0.1045  0.0674  0.6073
  626TMC3    C5 9324   2.597   0.600   0.966 -0.1255 -0.4155 -0.5488
  626TMC3    C6 9325   2.535   0.606   0.841 -0.2476  0.2750 -0.5475
  626TMC3     C 9326   2.827   0.312   0.921 -0.4038  0.4767 -0.7901
  626TMC3     O 9327   2.803   0.206   0.870 -0.5855 -0.5511 -0.0155
  626TMC3     H 9328   2.699   0.348   0.699 -1.4559 -0.6226 -0.8781
  626TMC3    H1 9329   2.739   0.492   1.084 -0.1692 -0.8234  0.5278
  626TMC3    H2 9330   2.448   0.668   0.823  0.7695  1.6429 -0.8195
  626TMC3    C7 9331   2.534   0.657   1.086 -0.3849 -0.2166  0.0741
  626TMC3    C8 9332   2.523   0.523   0.611 -0.5952 -0.0347  0.7656
  626TMC3    O1 9333   2.592   0.644   1.193 -0.1067 -0.1056 -0.0159
  626TMC3    O2 9334   2.481   0.632   0.577 -0.4301  0.4094 -0.0120
  627MPD2     C 9335   1.326   0.757  14.297 -0.6743  0.2943  0.4620
  627MPD2    C1 9336   1.333   0.677  14.409  0.3291  0.6691 -0.0319
  627MPD2    C2 9337   1.250   0.570  14.419  0.5021 -0.4139  0.3213
  627MPD2    C3 9338   1.152   0.534  14.324 -0.1644  0.2306 -0.3115
  627MPD2    C4 9339   1.155   0.614  14.207  0.4959  0.2952 -0.0630
  627MPD2    C5 9340   1.233   0.721  14.202  0.4346 -0.1193 -0.3099
  627MPD2     H 9341   1.249   0.509  14.509 -0.9257  0.5835  0.9930
  627MPD2    H1 9342   1.089   0.588  14.125  0.3612 -1.1967  0.5215
  627MPD2    H2 9343   1.384   0.847  14.283 -1.7654  0.5643 -2.3384
  627MPD2    H3 9344   1.215   0.769  14.107 -0.1467  1.3500  0.5432
  627MPD2     N 9345   1.064   0.426  14.337  0.0411  0.6589  0.4074
  627MPD2    H5 9346   1.053   0.391  14.431 -0.9783 -0.8944 -0.2833
  627MPD2    N1 9347   1.428   0.720  14.507  0.8144  0.0670 -0.5376
  627MPD2    H7 9348   1.475   0.809  14.495 -2.0341  1.7983  1.3246
  628TMC3    C1 9349   1.575   0.720  14.690 -0.2586  0.1519  1.1195
  628TMC3    C2 9350   1.680   0.649  14.744  0.2287 -0.4072 -0.1598
  628TMC3    C3 9351   1.778   0.721  14.807 -0.5088  1.1954 -0.4998
  628TMC3    C4 9352   1.565   0.854  14.702  0.2923 -0.2173 -0.7695
  628TMC3    C5 9353   1.658   0.923  14.777 -0.3977 -0.5404  0.6441
  628TMC3    C6 9354   1.760   0.859  14.829 -0.3128  0.2228 -0.7772
  628TMC3     C 9355   1.481   0.644  14.604  1.1485 -0.3019 -0.3404
  628TMC3     O 9356   1.493   0.523  14.608 -0.3325  0.0322  0.0296
  628TMC3     H 9357   1.697   0.544  14.726  1.0205  0.2563 -3.3169
  628TMC3    H1 9358   1.466   0.896  14.688  0.0978 -0.9355 -1.4984
  628TMC3    H2 9359   1.840   0.916  14.874 -1.5118 -0.5588  2.3064
  628TMC3    C7 9360   1.644   1.067  14.803 -0.0428  0.0740  0.2456
  628TMC3    C8 9361   1.908   0.660  14.836  0.7623  0.7720  0.3703
  628TMC3    O1 9362   1.714   1.121  14.885  0.0874  0.4652  0.0627
  628TMC3    O2 9363   1.921   0.540  14.817  0.2979  0.1338 -0.2179
  629MPD2     C 9364   0.127   4.602  16.285 -0.1223  0.7025  0.2620
  629MPD2    C1 9365   0.130   4.468  16.326 -0.1800 -0.0641  0.2691
  629MPD2    C2 9366   0.050   4.375  16.257  0.1815 -0.3005  0.1709
  629MPD2    C3 9367   4.718   4.415  16.140  0.3412 -0.1265  0.7089
  629MPD2    C4 9368   4.717   4.544  16.106  0.3937  0.0169 -0.1587
  629MPD2    C5 9369   0.051   4.638  16.180 -0.5483  0.0252  0.1252
  629MPD2     H 9370   0.055   4.267  16.268 -3.1541 -0.5829 -1.0233
  629MPD2    H1 9371   4.657   4.576  16.022 -1.0023  0.8649  1.1380
  629MPD2    H2 9372   0.201   4.668  16.329  2.0954 -2.9462  1.9705
  629MPD2    H3 9373   0.054   0.001  16.148  2.0043  0.2379  1.0263
  629MPD2     N 9374   4.654   4.314  16.065  0.3499  0.4231 -0.0703
  629MPD2    H5 9375   4.637   4.228  16.116 -0.2401  0.5893  0.0165
  629MPD2    N1 9376   0.229   4.441  16.416 -1.2127  0.5278 -0.1130
  629MPD2    H7 9377   0.300   4.513  16.426  0.5782 -1.2784  0.0754
  630TMC3    C1 9378   0.398   4.288  16.480  0.3926  0.4559 -0.1144
  630TMC3    C2 9379   0.484   4.383  16.437 -0.2124  0.1270  0.1084
  630TMC3    C3 9380   0.616   4.360  16.465  0.2916  0.2027  0.3045
  630TMC3    C4 9381   0.427   4.190  16.570 -0.2458 -1.2345  0.2924
  630TMC3    C5 9382   0.560   4.180  16.605  0.0210 -0.4661 -0.2630
  630TMC3    C6 9383   0.656   4.267  16.559 -0.5228  0.1626  0.2619
  630TMC3     C 9384   0.252   4.312  16.459 -1.0776  0.6112  0.3228
  630TMC3     O 9385   0.181   4.212  16.462  0.2977 -0.6391 -0.6638
  630TMC3     H 9386   0.452   4.451  16.359 -1.0686  1.1407  1.3359
  630TMC3    H1 9387   0.352   4.131  16.622 -0.6892 -0.0712  1.0011
  630TMC3    H2 9388   0.763   4.248  16.563 -0.8992 -1.5183  2.6597
  630TMC3    C7 9389   0.599   4.084  16.709  0.2906 -0.1335  0.0620
  630TMC3    C8 9390   0.721   4.460  16.424 -0.0896 -0.7237  0.0088
  630TMC3    O1 9391   0.507   4.014  16.748 -0.1344 -0.8347 -0.3275
  630TMC3    O2 9392   0.824   4.447  16.486 -0.2261  0.5115 -0.2660
  631MPD2     C 9393   3.003   4.719  16.103 -0.4225 -0.5482  0.2913
  631MPD2    C1 9394   3.056   4.729  15.973 -0.0466 -0.6843 -0.2026
  631MPD2    C2 9395   3.195   0.003  15.964 -0.0315 -0.1409  0.6058
  631MPD2    C3 9396   3.274   0.012  16.078  0.2507 -0.9130 -0.5239
  631MPD2    C4 9397   3.223   0.005  16.208  0.3802 -0.1690 -0.0821
  631MPD2    C5 9398   3.085   4.721  16.218  0.1292 -0.7150  0.3110
  631MPD2     H 9399   3.227   0.008  15.860 -1.8178 -0.5698  0.0389
  631MPD2    H1 9400   3.293   4.739  16.290 -0.7692 -0.1205  0.8994
  631MPD2    H2 9401   2.897   4.722  16.125  0.0166 -1.3579  2.5118
  631MPD2    H3 9402   3.038   4.718  16.316 -0.2495 -0.9064  0.1242
  631MPD2     N 9403   3.413   0.027  16.067 -0.1906  0.5955 -0.3547
  631MPD2    H5 9404   3.472   0.013  16.148 -0.8133 -3.5842 -0.6379
  631MPD2    N1 9405   2.974   4.729  15.854  0.2228 -0.0681 -0.1714
  631MPD2    H7 9406   2.877   4.714  15.880 -0.4414  1.0462 -1.9470
  632TMC3    C1 9407   2.896   4.736  15.638 -0.5664  0.1969  0.4726
  632TMC3    C2 9408   2.776   4.685  15.682 -0.3946  0.2020 -0.4728
  632TMC3    C3 9409   2.691   4.649  15.585  0.7106 -0.5059 -0.0338
  632TMC3    C4 9410   2.929   0.001  15.505 -0.3101  0.5128 -0.6719
  632TMC3    C5 9411   2.846   4.699  15.413  0.0827 -0.3148 -0.2009
  632TMC3    C6 9412   2.727   4.652  15.453  0.1410 -0.2837 -0.3961
  632TMC3     C 9413   3.007   0.018  15.722 -0.0837  0.7329 -0.9159
  632TMC3     O 9414   3.113   0.065  15.676 -0.5289  0.4596  0.2966
  632TMC3     H 9415   2.752   4.672  15.787  0.2193 -0.0837 -0.3657
  632TMC3    H1 9416   3.025   0.041  15.474  0.0239  0.4843  0.3088
  632TMC3    H2 9417   2.675   4.588  15.384  0.8811  0.6934 -1.8583
  632TMC3    C7 9418   2.889   4.663  15.277  1.1110  0.3171 -0.4194
  632TMC3    C8 9419   2.593   4.546  15.626  0.5038 -0.0468  0.0067
  632TMC3    O1 9420   2.810   4.659  15.183 -0.3401  0.4376  0.2072
  632TMC3    O2 9421   2.625   4.466  15.710 -0.8198  1.0122  0.2484
  633MPD2     C 9422   3.107   2.034  17.542  0.1265  0.2894 -0.2443
  633MPD2    C1 9423   3.099   1.936  17.437  0.5923 -0.6507  0.1030
  633MPD2    C2 9424   3.113   1.800  17.470 -0.3696 -0.3876 -0.0925
  633MPD2    C3 9425   3.127   1.763  17.603 -0.0567  0.4761  0.3059
  633MPD2    C4 9426   3.140   1.859  17.698 -0.2976 -0.3430 -0.2407
  633MPD2    C5 9427   3.127   1.991  17.671  0.0700 -0.6251 -0.0583
  633MPD2     H 9428   3.118   1.721  17.396 -0.0114 -1.0939  0.6825
  633MPD2    H1 9429   3.160   1.826   0.041  0.5967 -0.5250 -0.4779
  633MPD2    H2 9430   3.098   2.140  17.524  0.6559 -0.0574 -2.6563
  633MPD2    H3 9431   3.152   2.059  17.751  2.4696  0.2682 -1.5818
  633MPD2     N 9432   3.128   1.628  17.652 -0.3779  0.2915 -0.0451
  633MPD2    H5 9433   3.149   1.619  17.750 -0.4916  2.6300  0.1962
  633MPD2    N1 9434   3.088   1.965  17.296  0.4417 -0.2740  0.0913
  633MPD2    H7 9435   3.095   1.891  17.228 -2.2145 -1.0508  0.6756
  634TMC3    C1 9436   3.061   2.100  17.102  0.2763 -0.7351 -0.1845
  634TMC3    C2 9437   3.102   1.988  17.026  0.1216  0.0196 -0.3095
  634TMC3    C3 9438   3.098   2.005  16.888 -0.0961 -0.3461 -0.3902
  634TMC3    C4 9439   3.019   2.213  17.041  0.1119 -0.5175  0.1938
  634TMC3    C5 9440   3.021   2.227  16.907 -0.3805 -0.1894 -0.2879
  634TMC3    C6 9441   3.050   2.118  16.824 -1.0287 -0.6357 -0.5197
  634TMC3     C 9442   3.076   2.095  17.250  0.4750 -0.2272  0.0846
  634TMC3     O 9443   3.053   2.197  17.317 -0.0438  0.6790  0.5590
  634TMC3     H 9444   3.145   1.898  17.069  0.5953  1.3028  1.8420
  634TMC3    H1 9445   3.011   2.303  17.101  1.4308 -0.2794  0.0179
  634TMC3    H2 9446   3.059   2.133  16.717  1.8368  1.8699  0.0881
  634TMC3    C7 9447   3.027   2.356  16.851 -0.1245 -0.3170  0.1510
  634TMC3    C8 9448   3.092   1.881  16.819 -0.0064 -0.6668  0.5256
  634TMC3    O1 9449   3.081   2.374  16.742  0.4014 -0.0217  0.2672
  634TMC3    O2 9450   3.182   1.800  16.815  0.4792 -0.0615 -0.1271
  635TMC3    C1 9451   2.845   3.460   0.159 -0.5641 -0.3267 -0.5365
  635TMC3    C2 9452   2.882   3.333   0.166  0.5993  0.1803 -0.1271
  635TMC3    C3 9453   2.879   3.263   0.047  0.0696  0.6490 -0.1586
  635TMC3    C4 9454   2.771   3.509   0.059 -0.7342  0.4786 -0.5024
  635TMC3    C5 9455   2.755   3.435  17.705 -0.4711  0.0565  0.5195
  635TMC3    C6 9456   2.809   3.310  17.697 -0.2630 -0.0976  0.4138
  635TMC3     C 9457   2.863   3.550   0.272 -0.5136 -0.4154  0.5127
  635TMC3     O 9458   2.829   3.665   0.250  0.2131 -0.5208 -0.8759
  635TMC3     H 9459   2.936   3.293   0.251  2.0849  1.0980 -0.6466
  635TMC3    H1 9460   2.747   3.613   0.044 -0.1388  0.5774 -0.7306
  635TMC3    H2 9461   2.795   3.251  17.607  1.5726 -0.8110  0.5970
  635TMC3    C7 9462   2.672   3.476  17.589  0.1052 -0.1941  0.2018
  635TMC3    C8 9463   2.920   3.122   0.051  0.0644 -0.5439  0.2822
  635TMC3    O1 9464   2.641   3.387  17.508  0.2850  0.4939 -0.0165
  635TMC3    O2 9465   2.964   3.070  17.709  0.7547  0.4991 -0.3167
  636MPD2     C 9466   3.971   2.346  16.350 -0.1311  0.7724  0.2942
  636MPD2    C1 9467   4.039   2.352  16.469 -0.1817  0.3013 -0.0520
  636MPD2    C2 9468   4.064   2.233  16.535 -0.1907  0.1535  0.3534
  636MPD2    C3 9469   4.016   2.111  16.484 -0.6433  0.4266 -0.2282
  636MPD2    C4 9470   3.938   2.115  16.371  0.7695  0.2859 -1.2507
  636MPD2    C5 9471   3.910   2.236  16.307  0.7600  0.6073 -0.1448
  636MPD2     H 9472   4.129   2.227  16.621 -0.7357 -0.7990  0.6902
  636MPD2    H1 9473   3.907   2.024  16.322  1.3125 -1.0445  0.8882
  636MPD2    H2 9474   3.949   2.442  16.304 -1.8723  0.2666  0.0520
  636MPD2    H3 9475   3.845   2.242  16.221  0.1685  2.2274  0.4087
  636MPD2     N 9476   4.061   1.995  16.550 -0.4156  0.5537 -0.0184
  636MPD2    H5 9477   4.138   2.000  16.617  0.7273  0.0683 -1.2931
  636MPD2    N1 9478   4.087   2.469  16.529 -0.5934 -0.0078  0.4746
  636MPD2    H7 9479   4.119   2.462  16.625 -2.5597  2.2100  1.2952
  637TMC3    C1 9480   4.135   1.773  16.544  0.3075  0.2523 -0.1750
  637TMC3    C2 9481   4.221   1.814  16.647 -0.3069  0.0553 -0.6736
  637TMC3    C3 9482   4.359   1.829  16.618 -0.5473  0.5113  0.5528
  637TMC3    C4 9483   4.186   1.714  16.429  0.4906  0.6849  0.1544
  637TMC3    C5 9484   4.323   1.714  16.416 -0.1026 -0.4075 -0.4933
  637TMC3    C6 9485   4.404   1.773  16.510 -0.1617  0.0550 -1.1148
  637TMC3     C 9486   4.026   1.867  16.512 -0.0087 -0.0807 -0.4001
  637TMC3     O 9487   3.943   1.824  16.429  0.4033 -0.3656 -0.3015
  637TMC3     H 9488   4.179   1.876  16.726  3.6427  0.2212  1.3201
  637TMC3    H1 9489   4.119   1.703  16.345  3.5262  1.2178 -2.3616
  637TMC3    H2 9490   4.512   1.768  16.503 -0.1854  0.7381 -1.9487
  637TMC3    C7 9491   4.379   1.738  16.288 -0.0273  0.3363  0.5182
  637TMC3    C8 9492   4.407   1.959  16.644  0.1369  0.3725 -0.8155
  637TMC3    O1 9493   4.483   1.798  16.279  0.3671  0.0380 -0.3824
  637TMC3    O2 9494   4.359   2.020  16.740  0.2577  0.0989 -0.3807
  638MPD2     C 9495   3.838   1.191  15.071  0.1543  0.3001  0.4108
  638MPD2    C1 9496   3.755   1.106  15.001  0.2129 -0.3516  0.0139
  638MPD2    C2 9497   3.759   0.972  15.029 -0.7989  0.3631  0.1948
  638MPD2    C3 9498   3.816   0.929  15.149 -0.7610 -0.0342  0.4451
  638MPD2    C4 9499   3.885   1.023  15.226  0.7670  0.0061  0.1578
  638MPD2    C5 9500   3.908   1.152  15.179 -0.6117  0.7029  0.4084
  638MPD2     H 9501   3.704   0.901  14.968 -0.7164 -0.0444  0.5904
  638MPD2    H1 9502   3.934   0.996  15.319  1.7914 -0.2597 -0.4484
  638MPD2    H2 9503   3.846   1.294  15.041 -1.3190  0.1487 -0.5116
  638MPD2    H3 9504   3.973   1.215  15.239  1.7160 -2.7166  1.4264
  638MPD2     N 9505   3.807   0.790  15.185 -0.0149  0.4339  0.3730
  638MPD2    H5 9506   3.756   0.736  15.116  0.2347 -0.7221  1.0930
  638MPD2    N1 9507   3.690   1.164  14.896  0.3366 -0.8667  0.1175
  638MPD2    H7 9508   3.710   1.260  14.870 -1.4855 -1.2588 -2.6834
  639TMC3    C1 9509   3.873   0.581  15.239 -0.0877  0.1740  0.6908
  639TMC3    C2 9510   3.764   0.507  15.183 -0.2558 -0.3390  0.0181
  639TMC3    C3 9511   3.765   0.372  15.169 -0.2437 -0.1826 -0.5003
  639TMC3    C4 9512   3.987   0.510  15.262 -0.6013 -0.5644  0.4215
  639TMC3    C5 9513   3.987   0.373  15.237  0.2378  0.4678  0.8610
  639TMC3    C6 9514   3.882   0.306  15.185  0.2958  0.9081 -0.1601
  639TMC3     C 9515   3.888   0.724  15.276  0.3837  0.1192 -0.3414
  639TMC3     O 9516   3.973   0.757  15.358  0.0343  0.5912  0.4141
  639TMC3     H 9517   3.668   0.550  15.156  0.1926 -0.6109 -2.0496
  639TMC3    H1 9518   4.067   0.564  15.311 -1.1507  0.9413 -0.3295
  639TMC3    H2 9519   3.889   0.198  15.171 -0.2277  0.8107  0.3512
  639TMC3    C7 9520   4.114   0.306  15.241  0.2067  0.0879 -0.2577
  639TMC3    C8 9521   3.686   0.301  15.070 -0.7334 -0.3775 -0.1943
  639TMC3    O1 9522   4.104   0.191  15.272  0.2730 -0.5546 -0.1580
  639TMC3    O2 9523   3.746   0.250  14.980  0.0835  0.5734 -0.7156
  640MPD2     C 9524   3.994   0.368  10.115  0.3031  0.4599  0.7683
  640MPD2    C1 9525   3.881   0.374  10.036 -0.9857  0.4330 -0.5155
  640MPD2    C2 9526   3.782   0.470  10.054  0.5872 -0.0189  0.3860
  640MPD2    C3 9527   3.786   0.549  10.161 -0.4303 -0.5948 -0.6231
  640MPD2    C4 9528   3.896   0.545  10.248 -0.2498 -0.4271  0.4359
  640MPD2    C5 9529   3.997   0.452  10.220  0.1299 -0.2850 -0.6582
  640MPD2     H 9530   3.698   0.459   9.986 -0.5669 -1.9629  2.1354
  640MPD2    H1 9531   3.928   0.616  10.324  1.0990 -0.3200 -0.2272
  640MPD2    H2 9532   4.080   0.309  10.085 -0.9057  0.1960 -2.1593
  640MPD2    H3 9533   4.090   0.464  10.274  0.1115 -0.7430 -0.5305
  640MPD2     N 9534   3.683   0.638  10.197  0.5136 -0.2252  0.2284
  640MPD2    H5 9535   3.705   0.694  10.279 -0.8706  0.9447 -0.1915
  640MPD2    N1 9536   3.867   0.274   9.935  0.1319 -0.0877 -0.5684
  640MPD2    H7 9537   3.933   0.198   9.952 -1.8797 -1.5583  0.7538
  641TMC3    C1 9538   3.767   0.136   9.766 -0.0060 -0.8732 -0.7938
  641TMC3    C2 9539   3.827   0.033   9.835  0.3827 -0.5401  0.2301
  641TMC3    C3 9540   3.890   4.682   9.751  0.1714 -0.3357 -0.3550
  641TMC3    C4 9541   3.771   0.149   9.629  0.1713 -0.1622  0.0794
  641TMC3    C5 9542   3.836   0.057   9.553 -0.5148 -0.3479  0.0606
  641TMC3    C6 9543   3.886   4.692   9.614 -0.3910  0.7094  0.5863
  641TMC3     C 9544   3.782   0.269   9.831  0.5599 -0.4262  0.0176
  641TMC3     O 9545   3.713   0.356   9.786  0.5120  0.5624 -0.2372
  641TMC3     H 9546   3.805   0.009   9.939 -0.1556  1.5536  0.6042
  641TMC3    H1 9547   3.716   0.232   9.587  2.5009  0.6948 -1.2648
  641TMC3    H2 9548   3.941   4.617   9.558 -0.8134 -0.6333  1.9539
  641TMC3    C7 9549   3.830   0.068   9.409  0.3855 -0.5168  0.1845
  641TMC3    C8 9550   3.951   4.557   9.801 -0.0294  0.2226  0.5724
  641TMC3    O1 9551   3.766   0.164   9.365 -0.2178  0.2320 -0.6322
  641TMC3    O2 9552   3.976   4.471   9.716  0.5995 -0.3664  0.0154
  642TMC3    C1 9553   0.276   1.488  12.604  0.3693  0.1866 -0.6571
  642TMC3    C2 9554   0.399   1.477  12.539 -0.6883  0.5982  0.0657
  642TMC3    C3 9555   0.436   1.348  12.509  0.1594  0.1241  0.1288
  642TMC3    C4 9556   0.198   1.375  12.643 -0.5486 -0.3823 -0.3478
  642TMC3    C5 9557   0.242   1.251  12.601  0.5593  0.9172 -0.2771
  642TMC3    C6 9558   0.359   1.242  12.537 -0.4210  0.8164 -0.2618
  642TMC3     C 9559   0.226   1.620  12.630  1.0204  0.3841  0.1967
  642TMC3     O 9560   0.306   1.711  12.632 -0.0185  0.0722  0.2115
  642TMC3     H 9561   0.447   1.564  12.496  0.2341 -0.8733 -1.8797
  642TMC3    H1 9562   0.122   1.376  12.720 -2.6360  1.2811 -2.4346
  642TMC3    H2 9563   0.398   1.148  12.502  0.1647  0.7077  0.6822
  642TMC3    C7 9564   0.181   1.131  12.652 -0.5508  0.3629  0.6207
  642TMC3    C8 9565   0.569   1.326  12.452 -0.0719  0.4163 -0.0253
  642TMC3    O1 9566   0.084   1.143  12.729 -0.2464  0.7158  0.4819
  642TMC3    O2 9567   0.581   1.241  12.367 -0.0293 -0.5416 -0.4268
  643TMC3    C1 9568   0.039   4.197   0.451  0.8097  0.0485  0.0295
  643TMC3    C2 9569   4.670   4.123   0.415  0.2304  0.3804 -0.8653
  643TMC3    C3 9570   4.658   4.064   0.289 -0.2921 -0.9798 -0.2852
  643TMC3    C4 9571   0.133   4.218   0.357 -0.3722  0.2842  0.4825
  643TMC3    C5 9572   0.123   4.164   0.228  0.0707 -0.1583 -0.5106
  643TMC3    C6 9573   0.026   4.076   0.201 -0.0393 -0.3817  0.0401
  643TMC3     C 9574   0.022   4.299   0.553 -0.3140 -0.2581  0.0922
  643TMC3     O 9575   4.651   4.316   0.598  0.5985 -0.2623  0.7435
  643TMC3     H 9576   4.584   4.115   0.481  0.2931 -2.8267 -1.1792
  643TMC3    H1 9577   0.204   4.299   0.368  0.3230 -0.3335  0.5286
  643TMC3    H2 9578   0.016   4.044   0.098  1.9249  3.0415 -1.2196
  643TMC3    C7 9579   0.210   4.217   0.123  0.5989  0.2958 -0.3490
  643TMC3    C8 9580   4.525   4.088   0.225 -0.7663 -0.2685  0.6489
  643TMC3    O1 9581   0.223   4.337   0.126 -0.0876  0.0635 -0.5404
  643TMC3    O2 9582   4.500   4.015   0.132  0.3426  0.2505 -0.1507
  644MPD2     C 9583   3.424   0.582   9.834  0.4076  0.2750  0.3394
  644MPD2    C1 9584   3.464   0.624   9.714 -0.2529 -0.0461 -0.0064
  644MPD2    C2 9585   3.397   0.723   9.639  0.2044  0.0689 -0.3339
  644MPD2    C3 9586   3.275   0.766   9.694  0.3429  0.1470  0.5145
  644MPD2    C4 9587   3.231   0.711   9.817  0.0019  0.4824  0.3548
  644MPD2    C5 9588   3.301   0.623   9.886  0.0307  0.7594 -0.0189
  644MPD2     H 9589   3.434   0.770   9.549  0.1344  2.0848  0.6892
  644MPD2    H1 9590   3.133   0.739   9.854 -1.6685 -0.8022 -3.1097
  644MPD2    H2 9591   3.477   0.507   9.891  0.3100  0.6081  0.8646
  644MPD2    H3 9592   3.262   0.579   9.978  2.7378 -0.3717  0.5959
  644MPD2     N 9593   3.211   0.872   9.622 -0.1140  0.0651 -0.6469
  644MPD2    H5 9594   3.256   0.890   9.533  2.7894 -0.8991  0.5892
  644MPD2    N1 9595   3.592   0.579   9.679 -0.6010 -0.2326 -0.2735
  644MPD2    H7 9596   3.640   0.514   9.741 -1.7794 -0.9188 -0.0960
  645TMC3    C1 9597   3.056   1.053   9.574 -1.0828  0.0367  0.7043
  645TMC3    C2 9598   3.144   1.136   9.502 -0.4683  0.8561 -0.2194
  645TMC3    C3 9599   3.098   1.257   9.462  0.2511  0.7802 -0.4172
  645TMC3    C4 9600   2.931   1.094   9.593  0.2307  0.0449 -0.0115
  645TMC3    C5 9601   2.886   1.209   9.540 -0.7119 -0.0215  0.1845
  645TMC3    C6 9602   2.970   1.294   9.475 -0.2156 -0.2905 -0.5684
  645TMC3     C 9603   3.108   0.954   9.669  0.1131 -0.1453 -0.3821
  645TMC3     O 9604   3.058   0.956   9.779 -0.4020 -0.4712 -0.0812
  645TMC3     H 9605   3.250   1.118   9.515 -0.8524 -1.2648 -0.0684
  645TMC3    H1 9606   2.865   1.027   9.647  1.8438 -0.7341  1.0101
  645TMC3    H2 9607   2.930   1.389   9.441 -0.1515 -0.2611 -0.5606
  645TMC3    C7 9608   2.752   1.259   9.543 -0.4536 -0.3421 -0.0956
  645TMC3    C8 9609   3.175   1.329   9.369  0.6171  0.0086  1.0423
  645TMC3    O1 9610   2.740   1.381   9.550 -0.3097 -0.3956  0.2567
  645TMC3    O2 9611   3.164   1.447   9.352  0.0113 -0.1907  0.0642
  646MPD2     C 9612   4.144   4.521  14.556  0.5064  0.3668  0.3684
  646MPD2    C1 9613   4.046   4.466  14.631 -0.3457  0.1067 -0.0754
  646MPD2    C2 9614   3.911   4.490  14.596 -0.0867 -0.1109  0.5287
  646MPD2    C3 9615   3.868   4.565  14.488  0.4767  0.0724  0.4066
  646MPD2    C4 9616   3.972   4.629  14.420  0.4918  0.0719 -0.5371
  646MPD2    C5 9617   4.104   4.612  14.460  0.7836 -0.1979  0.1573
  646MPD2     H 9618   3.836   4.439  14.654  0.4950  0.6295  1.9448
  646MPD2    H1 9619   3.951   4.696  14.338  0.6558  1.3657  0.4862
  646MPD2    H2 9620   4.250   4.513  14.575  0.4373  0.4529  0.7974
  646MPD2    H3 9621   4.188   4.652  14.405  1.3502 -0.8415  0.5659
  646MPD2     N 9622   3.729   4.581  14.459 -0.3578 -0.0772 -0.1394
  646MPD2    H5 9623   3.663   4.534  14.521  0.5285 -1.3743 -0.1808
  646MPD2    N1 9624   4.087   4.379  14.739  0.2695  0.5062 -0.4583
  646MPD2    H7 9625   4.187   4.367  14.753  0.0035 -2.3305 -1.0847
  647TMC3    C1 9626   4.101   4.263  14.938 -0.9503 -0.5332  1.0285
  647TMC3    C2 9627   4.047   4.179  15.030  0.1947  0.2082 -0.5249
  647TMC3    C3 9628   4.114   4.141  15.138 -0.0502 -0.2217 -0.5855
  647TMC3    C4 9629   4.233   4.303  14.951 -0.9967 -0.0295 -0.6330
  647TMC3    C5 9630   4.309   4.243  15.049  0.6015 -0.3253 -0.5373
  647TMC3    C6 9631   4.248   4.161  15.147  0.3001 -0.9344  0.4735
  647TMC3     C 9632   4.022   4.297  14.821 -0.4291 -0.2150  0.2199
  647TMC3     O 9633   3.908   4.260  14.812  0.2634  0.2759 -0.5076
  647TMC3     H 9634   3.941   4.159  15.040 -0.2269  2.2354 -0.8822
  647TMC3    H1 9635   4.273   4.368  14.874 -1.0940 -0.8942 -1.4034
  647TMC3    H2 9636   4.310   4.118  15.225 -0.3108 -0.1983  1.3756
  647TMC3    C7 9637   4.452   4.257  15.056 -0.1778 -0.6590  0.3680
  647TMC3    C8 9638   4.034   4.059  15.232  0.3848 -0.4819  0.4537
  647TMC3    O1 9639   4.505   4.164  15.117  0.3717 -0.6222 -0.0321
  647TMC3    O2 9640   3.919   4.097  15.250  0.1654  0.0209  0.6181
  648TMC3    C1 9641   3.577   2.034  16.381  0.5450 -0.6426  0.0511
  648TMC3    C2 9642   3.603   1.900  16.370 -0.0159  0.3729 -0.5744
  648TMC3    C3 9643   3.633   1.860  16.242  0.1386  0.6290 -0.6717
  648TMC3    C4 9644   3.597   2.124  16.279  0.1234 -0.8552  0.5174
  648TMC3    C5 9645   3.633   2.079  16.159 -0.1334  0.0733 -0.5042
  648TMC3    C6 9646   3.638   1.943  16.136 -0.0856  0.7359 -0.4010
  648TMC3     C 9647   3.566   2.091  16.515  0.1868 -0.6086  0.0750
  648TMC3     O 9648   3.604   2.204  16.543  0.0685  1.0669  0.0824
  648TMC3     H 9649   3.588   1.824  16.446  0.5115  0.5679 -0.2789
  648TMC3    H1 9650   3.601   2.229  16.308 -1.0700 -0.0347 -2.3039
  648TMC3    H2 9651   3.645   1.907  16.034  1.2555 -2.5021  0.8472
  648TMC3    C7 9652   3.602   2.163  16.043 -0.4474  0.8716 -0.2373
  648TMC3    C8 9653   3.664   1.714  16.230  0.3704  0.9185  0.2445
  648TMC3    O1 9654   3.668   2.128  15.945  0.3634 -0.3755  0.0101
  648TMC3    O2 9655   3.656   1.642  16.328 -0.6274  0.5018 -0.1283
  649TMC3    C1 9656   2.107   3.470  12.577  0.3769 -0.2419  0.2344
  649TMC3    C2 9657   2.227   3.530  12.606 -0.4898  0.2124  0.0674
  649TMC3    C3 9658   2.262   3.552  12.738 -0.4520  0.1898  0.2849
  649TMC3    C4 9659   2.033   3.414  12.678  0.5644 -0.3236 -0.2406
  649TMC3    C5 9660   2.072   3.427  12.807 -0.2523 -0.1403 -0.7100
  649TMC3    C6 9661   2.184   3.504  12.844 -0.7978 -0.1970 -0.3051
  649TMC3     C 9662   2.023   3.508  12.463  0.0103 -0.9088  0.1216
  649TMC3     O 9663   1.906   3.537  12.489 -0.1230 -0.1852 -0.1968
  649TMC3     H 9664   2.283   3.578  12.526  0.9692  0.4903  1.2488
  649TMC3    H1 9665   1.935   3.374  12.658  0.2581  0.9143 -1.2663
  649TMC3    H2 9666   2.210   3.519  12.948  0.4315 -0.6224 -0.5408
  649TMC3    C7 9667   1.998   3.349  12.905 -0.0988  0.2584  0.4542
  649TMC3    C8 9668   2.385   3.630  12.767  0.3829 -0.0625  0.2178
  649TMC3    O1 9669   1.875   3.342  12.892 -0.0991  0.0046 -0.1982
  649TMC3    O2 9670   2.447   3.672  12.678  0.2189 -0.3900  0.2608
  650TMC3    C1 9671   4.375   0.592  12.601  0.0117 -0.3328 -0.5115
  650TMC3    C2 9672   4.286   0.691  12.628  0.2214  0.1197 -1.0040
  650TMC3    C3 9673   4.281   0.800  12.547  0.2092  0.5009 -0.2850
  650TMC3    C4 9674   4.462   0.604  12.494 -0.2160 -0.4724  1.0113
  650TMC3    C5 9675   4.451   0.718  12.417  0.6307  0.4902  0.1795
  650TMC3    C6 9676   4.368   0.820  12.450 -0.2660 -0.5439  0.3310
  650TMC3     C 9677   4.431   0.531  12.721 -0.1016  0.0431  0.1131
  650TMC3     O 9678   4.449   0.613  12.812 -0.1108  0.0087  0.1375
  650TMC3     H 9679   4.215   0.668  12.706  0.4601 -0.9410 -1.1022
  650TMC3    H1 9680   4.533   0.524  12.476  1.2379  0.9615  0.3785
  650TMC3    H2 9681   4.343   0.888  12.370 -0.1963  1.5412  2.0990
  650TMC3    C7 9682   4.563   0.754  12.336  0.0603 -0.2821 -0.1509
  650TMC3    C8 9683   4.194   0.914  12.565  0.4705  0.5336 -0.0746
  650TMC3    O1 9684   4.608   0.674  12.253 -0.1820  0.2970 -0.3680
  650TMC3    O2 9685   4.220   1.014  12.505 -0.2727  0.1566  0.3397
  651MPD2     C 9686   3.106   2.497  10.916  0.0314 -0.3003  0.5227
  651MPD2    C1 9687   3.088   2.628  10.965 -0.7747 -0.5878  1.0850
  651MPD2    C2 9688   3.196   2.712  10.978  0.5277 -0.3685  0.3486
  651MPD2    C3 9689   3.323   2.658  10.956  0.2170  0.6896 -0.1145
  651MPD2    C4 9690   3.340   2.528  10.932  0.1195  0.0880 -0.2634
  651MPD2    C5 9691   3.233   2.451  10.910  0.6520  0.6883  0.1343
  651MPD2     H 9692   3.188   2.818  10.997 -3.2631 -0.4922 -0.4561
  651MPD2    H1 9693   3.437   2.485  10.910  0.6903  0.1378  2.2308
  651MPD2    H2 9694   3.028   2.428  10.886  0.1444  0.9031 -2.5156
  651MPD2    H3 9695   3.256   2.349  10.881  0.2907  0.8363 -0.6892
  651MPD2     N 9696   3.429   2.742  10.975  0.4163  0.1883 -0.9831
  651MPD2    H5 9697   3.408   2.838  11.002 -1.8074 -0.6797  0.3289
  651MPD2    N1 9698   2.960   2.684  10.993  0.2901 -0.4304  0.4119
  651MPD2    H7 9699   2.953   2.773  11.042 -2.2534  1.0001 -2.5496
  652TMC3    C1 9700   3.863   2.910  10.942 -0.8111 -0.5965 -0.1183
  652TMC3    C2 9701   3.786   2.797  10.960  0.1717  0.1734 -0.6557
  652TMC3    C3 9702   3.652   2.816  11.000 -0.0576  0.7268  0.0316
  652TMC3    C4 9703   3.813   3.035  10.960  0.3381  0.2050  0.1198
  652TMC3    C5 9704   3.681   3.049  11.007 -0.4474 -0.4000 -0.7308
  652TMC3    C6 9705   3.595   2.941  11.016  0.9418 -0.3100 -0.6806
  652TMC3     C 9706   4.009   2.888  10.950 -0.1573 -0.6510 -0.4675
  652TMC3     O 9707   4.055   2.782  10.988 -0.3987 -0.4220  0.3219
  652TMC3     H 9708   3.820   2.695  10.947  0.8692  0.1270  1.5819
  652TMC3    H1 9709   3.878   3.121  10.971 -0.4722  1.0921 -2.1267
  652TMC3    H2 9710   3.499   2.962  11.063  0.7236 -1.0704 -0.7903
  652TMC3    C7 9711   3.637   3.178  11.041 -0.1176 -0.7191  0.7007
  652TMC3    C8 9712   3.562   2.704  10.972  0.6449  0.2747  0.2814
  652TMC3    O1 9713   3.522   3.198  11.081 -0.2546 -0.1206  0.0152
  652TMC3    O2 9714   3.608   2.593  10.949 -0.0932  0.1830  0.3544
  653MPD2     C 9715   2.584   2.188   0.005  0.3175 -0.3408  0.2745
  653MPD2    C1 9716   2.496   2.258  17.683 -0.8333 -0.1044 -0.4430
  653MPD2    C2 9717   2.417   2.185  17.595 -0.0219 -0.1353 -0.0413
  653MPD2    C3 9718   2.425   2.049  17.573  0.2806  0.2139 -0.0354
  653MPD2    C4 9719   2.509   1.978  17.655 -0.2813  0.6217  0.7349
  653MPD2    C5 9720   2.592   2.048  17.741  0.7660  0.2934  0.3110
  653MPD2     H 9721   2.348   2.240  17.532 -0.1886  1.4094  1.4812
  653MPD2    H1 9722   2.534   1.874  17.639 -0.0107  0.9461 -0.9573
  653MPD2    H2 9723   2.665   2.229   0.065  1.5310 -2.0057 -0.2435
  653MPD2    H3 9724   2.658   1.993   0.049  0.6142  1.7022  1.6282
  653MPD2     N 9725   2.336   1.986  17.481 -0.1912 -0.0633  0.4602
  653MPD2    H5 9726   2.264   2.040  17.435  0.7588  0.5758 -0.2895
  653MPD2    N1 9727   2.481   2.394  17.680  0.0029  0.8735 -0.3198
  653MPD2    H7 9728   2.417   2.436  17.613  0.4895 -0.5586 -1.6764
  654TMC3    C1 9729   2.185   1.832  17.440  0.4340 -0.2793  0.5406
  654TMC3    C2 9730   2.148   1.884  17.313 -0.0962 -0.2430  0.6729
  654TMC3    C3 9731   2.024   1.842  17.266 -0.4628 -0.3531 -0.2098
  654TMC3    C4 9732   2.102   1.755  17.512  0.4127 -0.9953 -0.3875
  654TMC3    C5 9733   1.981   1.716  17.457 -0.3104  0.4236 -0.1245
  654TMC3    C6 9734   1.946   1.755  17.338 -0.1770 -0.2626 -0.2328
  654TMC3     C 9735   2.315   1.855  17.491  0.3718 -0.3135  0.2844
  654TMC3     O 9736   2.364   1.765  17.561  0.2520  0.2206  0.3868
  654TMC3     H 9737   2.218   1.943  17.255 -0.2055  0.3373  1.1235
  654TMC3    H1 9738   2.129   1.737  17.615  0.6540  1.4308 -0.0352
  654TMC3    H2 9739   1.847   1.723  17.308  0.9156 -2.7997 -1.1960
  654TMC3    C7 9740   1.897   1.614  17.515 -0.4907 -0.4302  0.1811
  654TMC3    C8 9741   2.023   1.827  17.124 -0.9354 -0.4032 -0.5946
  654TMC3    O1 9742   1.779   1.639  17.524 -0.1085 -0.7441 -0.2720
  654TMC3    O2 9743   2.122   1.830  17.054  0.0345  0.4302  0.8506
  655MPD2     C 9744   3.987   2.296  15.657  0.4345  0.2483 -0.5722
  655MPD2    C1 9745   3.904   2.404  15.641 -0.7861  0.4552 -0.4628
  655MPD2    C2 9746   3.829   2.426  15.526  0.0645  0.3097  0.4423
  655MPD2    C3 9747   3.838   2.328  15.424 -0.1467 -0.5183  0.0232
  655MPD2    C4 9748   3.923   2.221  15.441  0.1611 -0.0057 -0.1455
  655MPD2    C5 9749   4.001   2.215  15.551 -0.2983 -0.1641  0.2603
  655MPD2     H 9750   3.770   2.517  15.519 -0.2746  0.1681  1.4559
  655MPD2    H1 9751   3.917   2.147  15.362 -0.7496 -1.9708  1.7652
  655MPD2    H2 9752   4.047   2.292  15.747 -0.7684 -0.8816  0.1750
  655MPD2    H3 9753   4.067   2.131  15.564  1.4212  1.4517  2.0033
  655MPD2     N 9754   3.761   2.336  15.308  0.1755  0.1820 -1.0639
  655MPD2    H5 9755   3.746   2.251  15.255 -1.9308  0.9985 -1.7833
  655MPD2    N1 9756   3.886   2.503  15.744 -0.6187  0.3147 -0.0807
  655MPD2    H7 9757   3.812   2.570  15.730 -0.0403  0.9584 -0.0341
  656TMC3    C1 9758   3.860   2.601  15.944  0.4633  0.3717  1.0193
  656TMC3    C2 9759   3.813   2.569  16.066 -0.0610  0.0318 -0.3803
  656TMC3    C3 9760   3.719   2.650  16.113  0.1226  0.2733  0.4726
  656TMC3    C4 9761   3.815   2.715  15.874  0.1033  0.7816  0.0580
  656TMC3    C5 9762   3.707   2.782  15.924  0.3181 -0.2167 -0.2418
  656TMC3    C6 9763   3.655   2.756  16.046 -0.0192  0.4180  0.1298
  656TMC3     C 9764   3.927   2.493  15.875 -0.2825 -0.2881 -0.2926
  656TMC3     O 9765   3.989   2.410  15.940 -0.2850 -0.1123  0.2649
  656TMC3     H 9766   3.850   2.485  16.124 -1.4839 -0.4169 -0.1276
  656TMC3    H1 9767   3.885   2.760  15.804 -0.1115  1.1194  0.0607
  656TMC3    H2 9768   3.579   2.819  16.092 -0.2627  1.2433 -1.4234
  656TMC3    C7 9769   3.664   2.901  15.843 -0.0599 -0.1476 -0.0748
  656TMC3    C8 9770   3.645   2.587  16.214 -0.6676  0.3441 -0.3351
  656TMC3    O1 9771   3.754   2.934  15.769 -0.5965  0.0625 -0.0694
  656TMC3    O2 9772   3.659   2.464  16.229 -0.0300 -0.0373  0.3510
  657TMC3    C1 9773   2.560   1.996  15.310  0.5925 -0.4514 -0.1231
  657TMC3    C2 9774   2.556   1.961  15.440 -0.0908  0.2915 -0.5543
  657TMC3    C3 9775   2.435   1.987  15.511 -0.4011  0.7886  0.0613
  657TMC3    C4 9776   2.451   2.052  15.244 -0.5831 -0.3483 -0.0615
  657TMC3    C5 9777   2.342   2.081  15.322 -0.1624  0.2663 -0.0761
  657TMC3    C6 9778   2.320   2.044  15.454 -0.1435  0.1478  0.1099
  657TMC3     C 9779   2.647   1.919  15.230 -0.5832  0.7615 -0.6895
  657TMC3     O 9780   2.614   1.909  15.110 -0.4831 -0.0014  0.1922
  657TMC3     H 9781   2.629   1.904  15.496 -1.2249  0.0843  0.7135
  657TMC3    H1 9782   2.454   2.067  15.137  0.3695  1.6338  0.2343
  657TMC3    H2 9783   2.226   2.069  15.502 -1.9047  0.3280 -3.4762
  657TMC3    C7 9784   2.239   2.163  15.252 -0.8085 -0.0816 -0.1819
  657TMC3    C8 9785   2.433   1.973  15.650  0.0129 -0.4434 -0.1794
  657TMC3    O1 9786   2.284   2.230  15.159  0.4243  0.3515 -0.1091
  657TMC3    O2 9787   2.536   1.964  15.706  0.7002  0.0937  0.2836
  658MPD2     C 9788   3.742   1.933  14.723 -0.0700 -0.1952 -1.1682
  658MPD2    C1 9789   3.686   2.057  14.713 -0.8651 -0.1517  0.0116
  658MPD2    C2 9790   3.677   2.109  14.591  0.2147  0.3176 -0.4419
  658MPD2    C3 9791   3.701   2.031  14.478 -0.5867  0.6671  0.2468
  658MPD2    C4 9792   3.730   1.896  14.486 -0.0145  0.3003 -1.0861
  658MPD2    C5 9793   3.762   1.849  14.611 -0.7926  0.1126  0.2762
  658MPD2     H 9794   3.640   2.210  14.583 -1.3846 -0.4257 -2.3179
  658MPD2    H1 9795   3.747   1.839  14.394  1.4742  0.7281 -1.0709
  658MPD2    H2 9796   3.770   1.890  14.818 -1.1968  2.0249  0.1566
  658MPD2    H3 9797   3.815   1.755  14.620  1.1190  0.9950 -1.7117
  658MPD2     N 9798   3.671   2.103  14.365 -0.0856 -0.7125  0.3578
  658MPD2    H5 9799   3.657   2.203  14.373  2.3742 -0.4430  1.5457
  658MPD2    N1 9800   3.643   2.119  14.834  0.0750 -0.5662 -0.2959
  658MPD2    H7 9801   3.625   2.061  14.915 -0.6679 -0.8356 -0.6548
  659TMC3    C1 9802   3.540   2.280  14.972 -0.2246  0.0993 -0.2763
  659TMC3    C2 9803   3.628   2.311  15.072  0.2654  0.1203 -0.2113
  659TMC3    C3 9804   3.593   2.405  15.169  0.3432 -0.8105 -0.3063
  659TMC3    C4 9805   3.420   2.342  14.973 -0.1865  0.5007  0.3498
  659TMC3    C5 9806   3.389   2.433  15.071  0.2790 -0.6741  0.2737
  659TMC3    C6 9807   3.477   2.469  15.161 -0.5062  0.0983 -1.1675
  659TMC3     C 9808   3.594   2.249  14.839 -0.3905  0.3487 -0.6010
  659TMC3     O 9809   3.633   2.344  14.772 -0.4206  0.6419  0.0087
  659TMC3     H 9810   3.724   2.260  15.067  0.7722  0.9387  1.4659
  659TMC3    H1 9811   3.338   2.319  14.907  0.9457  0.5371 -1.0624
  659TMC3    H2 9812   3.438   2.538  15.235 -0.3786 -0.5657 -0.4861
  659TMC3    C7 9813   3.257   2.489  15.081  0.1128  0.1062 -0.2450
  659TMC3    C8 9814   3.678   2.441  15.283  0.6492  0.4039  0.3710
  659TMC3    O1 9815   3.217   2.512  15.196 -0.2648  0.0536 -0.2604
  659TMC3    O2 9816   3.646   2.544  15.344  0.0281 -0.0253 -0.4397
  660MPD2     C 9817   1.582   1.756  12.754 -0.1786  0.5860  0.0881
  660MPD2    C1 9818   1.452   1.791  12.776 -0.0557  0.1266  0.0857
  660MPD2    C2 9819   1.377   1.722  12.869 -0.4402 -0.1485 -0.3703
  660MPD2    C3 9820   1.432   1.616  12.935 -0.1805  0.5026  0.1158
  660MPD2    C4 9821   1.561   1.576  12.908  0.1826 -0.3273 -0.2222
  660MPD2    C5 9822   1.630   1.652  12.825  0.1226 -0.0040 -0.3844
  660MPD2     H 9823   1.274   1.747  12.894 -0.7154 -0.6725 -0.9960
  660MPD2    H1 9824   1.606   1.492  12.960  0.7433 -0.3529 -0.7359
  660MPD2    H2 9825   1.642   1.808  12.680 -0.6734  1.0954  0.0497
  660MPD2    H3 9826   1.731   1.618  12.807  0.4553  1.0218 -0.4752
  660MPD2     N 9827   1.357   1.543  13.038  0.0229 -0.0928 -0.2492
  660MPD2    H5 9828   1.404   1.455  13.056 -1.6817 -0.9960 -0.1062
  660MPD2    N1 9829   1.403   1.888  12.686 -0.1032 -0.3331  0.3977
  660MPD2    H7 9830   1.470   1.922  12.618  0.3569 -0.6535  0.6895
  661TMC3    C1 9831   1.240   1.997  12.565  0.1723  0.5657  0.1482
  661TMC3    C2 9832   1.302   1.966  12.452 -0.3243 -0.2631  0.3796
  661TMC3    C3 9833   1.239   1.967  12.331  0.3252  1.1910 -0.8178
  661TMC3    C4 9834   1.115   2.034  12.567  0.0070  0.2150 -1.5330
  661TMC3    C5 9835   1.051   2.040  12.447  0.2187 -0.2746 -0.2539
  661TMC3    C6 9836   1.106   2.005  12.327  0.2367 -0.2907  0.9442
  661TMC3     C 9837   1.278   1.931  12.688 -0.1343 -0.6849  0.1693
  661TMC3     O 9838   1.193   1.939  12.776 -0.1446  0.1630  0.2012
  661TMC3     H 9839   1.407   1.945  12.439 -0.5352 -2.1143  1.6927
  661TMC3    H1 9840   1.068   2.077  12.654  2.7962 -0.7540  0.4601
  661TMC3    H2 9841   1.053   2.014  12.233  0.5459  0.6037  0.8532
  661TMC3    C7 9842   0.905   2.021  12.450 -0.2437  0.2333  0.1670
  661TMC3    C8 9843   1.319   1.989  12.224 -0.0059 -0.2835  0.2879
  661TMC3    O1 9844   0.852   2.051  12.558  0.2754  0.2243 -0.1840
  661TMC3    O2 9845   1.320   2.093  12.163  0.3189  0.0707 -0.2228
  662MPD2     C 9846   1.995   0.670  17.342  0.6641 -0.1197 -0.0025
  662MPD2    C1 9847   1.951   0.574  17.431 -0.2957 -1.0108  0.3564
  662MPD2    C2 9848   1.867   0.614  17.534  0.3721  0.2105 -0.1270
  662MPD2    C3 9849   1.804   0.740  17.538  0.0586  0.2445  0.2703
  662MPD2    C4 9850   1.835   0.826  17.435 -0.1993 -0.5858 -0.1342
  662MPD2    C5 9851   1.934   0.792  17.347  0.3664 -0.4750  0.4321
  662MPD2     H 9852   1.844   0.543  17.613  0.1078  0.3276 -0.0975
  662MPD2    H1 9853   1.778   0.917  17.418  1.2623  0.5237  0.8797
  662MPD2    H2 9854   2.077   0.659  17.273 -1.5911  2.4967 -3.0896
  662MPD2    H3 9855   1.959   0.861  17.268 -3.0138  0.7005  0.4081
  662MPD2     N 9856   1.700   0.775  17.626 -0.2649 -0.1663  0.0380
  662MPD2    H5 9857   1.653   0.865  17.624  0.6625  0.3461  1.4335
  662MPD2    N1 9858   1.984   0.433  17.425 -0.5466 -0.6054 -0.2598
  662MPD2    H7 9859   1.953   0.370  17.498  2.1782 -2.9387 -1.1170
  663TMC3    C1 9860   2.077   0.229  17.355 -0.1455 -0.0528  0.2041
  663TMC3    C2 9861   2.137   0.199  17.475 -0.2738 -0.3332  0.4623
  663TMC3    C3 9862   2.225   0.087  17.478  0.0316  0.3206  0.0713
  663TMC3    C4 9863   2.099   0.140  17.251  0.0736 -0.6824  0.3666
  663TMC3    C5 9864   2.158   0.021  17.272 -0.7748 -0.0251  0.2907
  663TMC3    C6 9865   2.222   4.731  17.385 -0.1637 -0.5112  0.0898
  663TMC3     C 9866   2.049   0.370  17.321  0.0158  0.0617 -0.1426
  663TMC3     O 9867   2.087   0.405  17.212 -0.3378  0.4786  0.0250
  663TMC3     H 9868   2.148   0.280  17.546 -1.9928 -0.5146  0.9401
  663TMC3    H1 9869   2.078   0.177  17.151  1.5076 -1.0538 -0.0798
  663TMC3    H2 9870   2.276   4.637  17.391 -1.2426 -1.1444 -0.1581
  663TMC3    C7 9871   2.152   4.656  17.171 -0.0170 -0.0893 -0.4737
  663TMC3    C8 9872   2.226   0.027  17.606  0.1568  0.6075  0.2516
  663TMC3    O1 9873   2.134   4.691  17.058  0.1456  0.1699 -1.1503
  663TMC3    O2 9874   2.321   4.696  17.633 -0.1847 -0.2097 -0.2439
  664MPD2     C 9875   4.715   3.225  17.148 -1.4602  0.7373  0.3606
  664MPD2    C1 9876   0.018   3.321  17.230 -0.6770 -1.1298 -1.2822
  664MPD2    C2 9877   4.706   3.334  17.353 -0.3496  0.4560  0.2418
  664MPD2    C3 9878   4.605   3.251  17.393 -0.3955 -0.7024  0.2108
  664MPD2    C4 9879   4.551   3.154  17.316  0.4885  0.0391 -0.3016
  664MPD2    C5 9880   4.611   3.143  17.195 -0.8198 -0.0495 -0.1335
  664MPD2     H 9881   0.004   3.412  17.419  0.5856  1.7649 -1.8450
  664MPD2    H1 9882   4.463   3.094  17.340  1.2222 -0.8153  0.2681
  664MPD2    H2 9883   0.022   3.205  17.053 -2.8777  0.0816 -0.2127
  664MPD2    H3 9884   4.568   3.070  17.128 -0.7268  0.5156 -0.8132
  664MPD2     N 9885   4.563   3.283  17.527 -0.1891  0.8012  0.6865
  664MPD2    H5 9886   4.578   3.373  17.572  1.2738  0.9858 -0.1940
  664MPD2    N1 9887   0.114   3.418  17.188  0.5930  0.2661 -0.7564
  664MPD2    H7 9888   0.129   3.497  17.250 -1.2073 -0.6948  0.9218
  665TMC3    C1 9889   4.471   3.245  17.735  0.7617  0.8956  1.1413
  665TMC3    C2 9890   4.357   3.205   0.039 -0.4242 -0.5772  0.6257
  665TMC3    C3 9891   4.318   3.270   0.153  0.4215  0.7515 -0.7056
  665TMC3    C4 9892   4.538   3.359   0.025  0.2212  0.6614  0.3881
  665TMC3    C5 9893   4.499   3.412   0.142  0.4892 -0.0802  0.2648
  665TMC3    C6 9894   4.388   3.370   0.211 -0.1353  0.0524  0.0486
  665TMC3     C 9895   4.506   3.184  17.607 -0.5537 -0.0125  0.2006
  665TMC3     O 9896   4.470   3.070  17.580 -0.1336  0.3582  0.3877
  665TMC3     H 9897   4.302   3.122  17.755  0.4488  0.6990 -3.0275
  665TMC3    H1 9898   4.636   3.373  17.740 -0.6127  0.8224 -1.4701
  665TMC3    H2 9899   4.347   3.413   0.301 -0.1943  0.0176  0.0379
  665TMC3    C7 9900   4.585   3.523   0.186 -0.8223 -0.6335 -0.1328
  665TMC3    C8 9901   4.176   3.247   0.192  0.3661 -0.6928  0.1679
  665TMC3    O1 9902   4.695   3.528   0.131  0.3262  0.2203  0.1851
  665TMC3    O2 9903   4.152   3.258   0.313  0.3753 -0.7104 -0.3581
  666TMC3    C1 9904   3.263   3.948  10.449 -0.5177  0.1635 -0.6287
  666TMC3    C2 9905   3.247   3.883  10.325 -0.1289  0.9838 -0.1117
  666TMC3    C3 9906   3.234   3.962  10.222  0.4365  0.3300 -0.4275
  666TMC3    C4 9907   3.251   4.082  10.467  0.2465  0.4739 -0.2741
  666TMC3    C5 9908   3.240   4.161  10.348 -0.0635 -0.0107  0.9620
  666TMC3    C6 9909   3.224   4.101  10.228 -0.8762  0.5631 -0.0148
  666TMC3     C 9910   3.278   3.864  10.573 -0.5456 -1.0470  0.1503
  666TMC3     O 9911   3.317   3.920  10.673  0.5425  0.0216  0.1578
  666TMC3     H 9912   3.235   3.776  10.316  0.1644  0.7152  2.5967
  666TMC3    H1 9913   3.283   4.129  10.559 -2.3345 -0.0905  0.9229
  666TMC3    H2 9914   3.208   4.155  10.136 -1.4313  0.4344  0.0066
  666TMC3    C7 9915   3.300   4.296  10.351  0.0389 -0.4846 -0.4460
  666TMC3    C8 9916   3.227   3.899  10.090 -0.2007  0.0343 -0.0086
  666TMC3    O1 9917   3.305   4.358  10.456 -0.2381 -0.6405 -1.0302
  666TMC3    O2 9918   3.131   3.828  10.071 -0.0141  0.3562 -0.2121
  667MPD2     C 9919   1.012   3.588  14.552  0.4358 -0.3398 -0.1641
  667MPD2    C1 9920   0.911   3.620  14.640  0.2076  0.8559  1.1216
  667MPD2    C2 9921   0.790   3.562  14.635 -0.5549  0.3311  0.2069
  667MPD2    C3 9922   0.775   3.447  14.556 -0.1476  0.1629 -0.0450
  667MPD2    C4 9923   0.887   3.400  14.479 -0.1199 -0.4887 -0.1926
  667MPD2    C5 9924   0.997   3.479  14.472 -0.6686 -0.3030  0.0710
  667MPD2     H 9925   0.724   3.599  14.713 -1.3565 -3.0816  1.1527
  667MPD2    H1 9926   0.896   3.314  14.413 -3.9863 -1.1246  0.0687
  667MPD2    H2 9927   1.104   3.646  14.547 -0.5558  1.3200  0.9365
  667MPD2    H3 9928   1.087   3.444  14.422  0.1475 -0.2814  1.5148
  667MPD2     N 9929   0.665   3.360  14.562 -0.7867  0.3728 -0.4127
  667MPD2    H5 9930   0.658   3.283  14.497 -0.8325 -1.1068  1.3423
  667MPD2    N1 9931   0.924   3.717  14.750 -0.1764  0.8794 -0.0093
  667MPD2    H7 9932   0.841   3.734  14.806 -0.4384  0.3903 -0.2448
  668TMC3    C1 9933   1.013   3.890  14.873  0.2324 -0.2106 -0.3223
  668TMC3    C2 9934   1.089   4.002  14.865 -0.8173 -0.4654  0.0193
  668TMC3    C3 9935   1.114   4.066  14.980  0.4759  0.3568  0.3449
  668TMC3    C4 9936   0.948   3.855  14.983 -0.3633 -0.0101  0.8556
  668TMC3    C5 9937   0.951   3.938  15.089 -0.0418  0.4465  0.2915
  668TMC3    C6 9938   1.036   4.044  15.093 -0.8821 -0.1679  0.1491
  668TMC3     C 9939   1.031   3.802  14.769  0.1552 -0.4982  0.7388
  668TMC3     O 9940   1.145   3.795  14.721 -0.0145 -0.0218  0.1070
  668TMC3     H 9941   1.142   4.023  14.773 -1.1074  0.3129  0.0318
  668TMC3    H1 9942   0.901   3.758  14.984 -0.5932  0.1042  1.0275
  668TMC3    H2 9943   1.063   4.076  15.193 -0.0377 -1.4458  0.3268
  668TMC3    C7 9944   0.912   3.877  15.213  0.8686 -0.1408 -0.0317
  668TMC3    C8 9945   1.221   4.163  14.998  0.0717  0.7879 -0.3862
  668TMC3    O1 9946   0.957   3.923  15.317 -0.1083 -0.3116  0.2050
  668TMC3    O2 9947   1.237   4.204  15.111  0.3824 -0.8921 -0.0898
  669TMC3    C1 9948   3.942   3.786  15.059 -0.4500 -0.0592 -0.0138
  669TMC3    C2 9949   3.833   3.853  14.998 -0.0617 -0.3512  0.7449
  669TMC3    C3 9950   3.858   3.917  14.881  0.4138  0.3808 -0.1083
  669TMC3    C4 9951   4.074   3.805  15.013 -0.1959 -0.2623 -0.0918
  669TMC3    C5 9952   4.091   3.874  14.901 -0.1371 -0.1543  0.6316
  669TMC3    C6 9953   3.984   3.930  14.832 -0.3097  0.0577 -0.2953
  669TMC3     C 9954   3.918   3.703  15.176 -0.4399  0.2141  0.2929
  669TMC3     O 9955   3.801   3.702  15.213  0.6881  1.0710 -0.0138
  669TMC3     H 9956   3.732   3.831  15.028 -0.6081  1.2030  0.0373
  669TMC3    H1 9957   4.158   3.782  15.077  0.3059  1.0057 -0.2920
  669TMC3    H2 9958   3.999   3.981  14.738 -0.1451 -0.5647 -0.6085
  669TMC3    C7 9959   4.222   3.919  14.856  0.2237 -0.2136 -0.6429
  669TMC3    C8 9960   3.749   3.944  14.788  0.2400  0.4550  0.2433
  669TMC3    O1 9961   4.224   4.018  14.786 -0.0296  0.2287 -0.0113
  669TMC3    O2 9962   3.782   3.930  14.671 -0.5638  0.1472  0.3076
  670MPD2     C 9963   1.539   1.477  13.833 -0.5219  0.0659  0.4902
  670MPD2    C1 9964   1.657   1.541  13.863  0.4597  0.0710 -0.4730
  670MPD2    C2 9965   1.681   1.566  13.998 -0.2760 -0.5330  1.3372
  670MPD2    C3 9966   1.608   1.501  14.098 -0.5909  0.3132 -0.7195
  670MPD2    C4 9967   1.504   1.418  14.064 -0.4243  0.7669 -0.5553
  670MPD2    C5 9968   1.468   1.412  13.933 -0.4496  0.3175 -0.3305
  670MPD2     H 9969   1.763   1.629  14.028 -1.5090  0.7671  1.9446
  670MPD2    H1 9970   1.448   1.361  14.138  0.5757  0.3905 -0.0889
  670MPD2    H2 9971   1.506   1.473  13.730  0.5094 -0.2611  0.1803
  670MPD2    H3 9972   1.390   1.346  13.896 -0.3965  0.6060 -0.9636
  670MPD2     N 9973   1.645   1.507  14.234  0.2310 -0.0067 -0.7594
  670MPD2    H5 9974   1.609   1.434  14.295  0.9201 -0.3964 -0.8274
  670MPD2    N1 9975   1.742   1.601  13.767  0.0001 -0.7131  0.4257
  670MPD2    H7 9976   1.832   1.636  13.798 -0.8046  1.0947  0.7004
  671TMC3    C1 9977   1.751   1.545  14.430  0.3421 -0.1374 -0.0262
  671TMC3    C2 9978   1.890   1.549  14.438  0.6240 -0.0981 -0.6156
  671TMC3    C3 9979   1.956   1.427  14.443 -0.2069 -0.6663 -0.3623
  671TMC3    C4 9980   1.679   1.426  14.459 -0.2717 -0.1505 -0.7012
  671TMC3    C5 9981   1.748   1.312  14.476  0.5686 -0.3607  0.3291
  671TMC3    C6 9982   1.887   1.312  14.466  0.1131  0.2635  0.2122
  671TMC3     C 9983   1.731   1.598  14.296  0.7371 -0.0054  0.6001
  671TMC3     O 9984   1.788   1.701  14.262  0.1394  0.2341  0.6697
  671TMC3     H 9985   1.944   1.635  14.401  2.0801 -1.2719 -1.2143
  671TMC3    H1 9986   1.571   1.432  14.458 -0.2951 -0.3941 -0.0895
  671TMC3    H2 9987   1.944   1.220  14.476  0.0056 -0.0795 -2.3022
  671TMC3    C7 9988   1.685   1.199  14.409  0.0876  0.0073 -0.3667
  671TMC3    C8 9989   2.102   1.433  14.465  0.0822 -0.5544  0.1694
  671TMC3    O1 9990   1.595   1.214  14.330 -0.4752 -0.2893  0.3724
  671TMC3    O2 9991   2.144   1.513  14.547 -0.0550  0.0988  0.0571
  672MPD2     C 9992   2.622   2.013   0.596  0.1502  0.5292 -0.8807
  672MPD2    C1 9993   2.530   1.985   0.697 -0.2986 -0.1183  0.0315
  672MPD2    C2 9994   2.562   2.040   0.818 -0.2497 -0.6288  0.1316
  672MPD2    C3 9995   2.663   2.141   0.834 -0.4749 -0.0972 -0.1687
  672MPD2    C4 9996   2.740   2.183   0.730  0.6070  0.8886 -0.4384
  672MPD2    C5 9997   2.717   2.111   0.609  0.0384  0.1439  0.1088
  672MPD2     H 9998   2.504   2.012   0.905  0.0837 -3.0867 -0.4487
  672MPD2    H1 9999   2.820   2.254   0.747 -0.5338  2.4698 -1.5724
  672MPD2    H210000   2.613   1.974   0.496 -1.2377  0.7696 -0.8504
  672MPD2    H310001   2.780   2.129   0.523 -0.7663  3.0922  0.1250
  672MPD2     N10002   2.697   2.192   0.966 -0.0243  0.5306 -0.6238
  672MPD2    H510003   2.771   2.261   0.957 -0.4498  0.9415 -0.9573
  672MPD2    N110004   2.432   1.883   0.688 -0.7939  0.1446  0.1496
  672MPD2    H710005   2.373   1.857   0.766 -2.3164  0.7670 -0.8011
  673TMC3    C110006   2.275   1.744   0.586 -0.2943 -0.4596  0.3782
  673TMC3    C210007   2.280   1.645   0.683  0.4695  0.6876 -0.6216
  673TMC3    C310008   2.169   1.574   0.708  0.3127  0.6492  1.1580
  673TMC3    C410009   2.160   1.786   0.526 -0.4974  0.9182  0.5737
  673TMC3    C510010   2.051   1.723   0.561  0.5794 -0.6766  0.0944
  673TMC3    C610011   2.055   1.610   0.642 -0.4221 -0.2075 -0.4684
  673TMC3     C10012   2.377   1.847   0.567  0.3719  0.6364 -0.3525
  673TMC3     O10013   2.390   1.896   0.457  0.4319 -0.3748 -0.1175
  673TMC3     H10014   2.369   1.617   0.739  0.2978 -1.4365 -1.4312
  673TMC3    H110015   2.159   1.872   0.459  0.6880 -0.4724 -1.2344
  673TMC3    H210016   1.972   1.541   0.644 -0.8652  0.2764 -1.7298
  673TMC3    C710017   1.924   1.753   0.501  0.0402 -0.1939 -0.6599
  673TMC3    C810018   2.170   1.445   0.791  0.2357  0.4133  0.2466
  673TMC3    O110019   1.830   1.672   0.512 -0.3469 -0.5813 -0.1785
  673TMC3    O210020   2.098   1.359   0.743 -0.2633 -0.1580 -0.2169
  674MPD2     C10021   2.188   1.905   0.058 -0.1424  0.4602  0.5128
  674MPD2    C110022   2.117   1.794   0.107  0.4168 -0.6185  0.1010
  674MPD2    C210023   1.982   1.791   0.110  0.0340 -0.2815  0.2815
  674MPD2    C310024   1.903   1.894   0.076 -0.1324  0.4325  0.5159
  674MPD2    C410025   1.970   2.004   0.024 -0.0388  0.0280 -0.3524
  674MPD2    C510026   2.111   2.006   0.013 -0.1881  0.2445  0.5224
  674MPD2     H10027   1.924   1.705   0.141 -2.6752  1.6126  0.4371
  674MPD2    H110028   1.921   2.097  17.758  1.1348  0.3423 -1.5488
  674MPD2    H210029   2.295   1.916   0.063 -0.0304 -0.3009 -0.2761
  674MPD2    H310030   2.165   2.098  17.753  1.6513 -1.0882 -0.7396
  674MPD2     N10031   1.762   1.885   0.070  0.1110  0.4589  0.1323
  674MPD2    H510032   1.726   1.801   0.114  1.4382 -1.5062 -2.5493
  674MPD2    N110033   2.193   1.681   0.142 -0.2469 -0.6184  0.1939
  674MPD2    H710034   2.293   1.680   0.124 -0.3396 -0.7944 -0.3010
  675TMC3    C110035   2.248   1.471   0.249  0.0137  0.6216 -0.2514
  675TMC3    C210036   2.210   1.340   0.290 -0.2376  0.6815  0.7620
  675TMC3    C310037   2.300   1.262   0.358 -0.1816 -0.2046  0.2199
  675TMC3    C410038   2.372   1.523   0.300  0.1227 -0.6046 -0.2897
  675TMC3    C510039   2.456   1.438   0.371 -0.3958 -0.1809 -0.0400
  675TMC3    C610040   2.421   1.309   0.403  0.3975 -0.6310  0.6347
  675TMC3     C10041   2.140   1.565   0.205 -0.3098 -0.1015 -0.2316
  675TMC3     O10042   2.026   1.536   0.233 -0.1612 -0.2518  0.3559
  675TMC3     H10043   2.116   1.288   0.272  1.5195 -2.2609 -0.0027
  675TMC3    H110044   2.397   1.628   0.289  2.5363 -1.2617 -1.2044
  675TMC3    H210045   2.489   1.241   0.453  2.4810  1.7880  1.0812
  675TMC3    C710046   2.546   1.506   0.465 -0.1628  0.1866 -0.1563
  675TMC3    C810047   2.282   1.120   0.374 -0.4540 -0.0471  0.5629
  675TMC3    O110048   2.597   1.610   0.423  0.0953 -0.3030  0.8043
  675TMC3    O210049   2.385   1.053   0.361 -0.1215  0.2500 -0.8378
  676MPD2     C10050   4.561   0.610  11.271  0.7167  0.4318  0.6305
  676MPD2    C110051   4.478   0.550  11.356  0.6117 -0.0718  0.4525
  676MPD2    C210052   4.493   0.412  11.385 -0.1908 -0.0944  0.1140
  676MPD2    C310053   4.591   0.345  11.313 -0.1679  0.1466  0.4838
  676MPD2    C410054   4.685   0.414  11.244  0.0154  0.1359  0.0613
  676MPD2    C510055   4.678   0.551  11.226 -0.2714 -0.7200 -0.2842
  676MPD2     H10056   4.410   0.363  11.435 -0.3748  0.5848  0.4722
  676MPD2    H110057   0.025   0.356  11.199  1.9367  1.1925  2.1514
  676MPD2    H210058   4.548   0.711  11.235  2.4348 -0.0968 -1.4628
  676MPD2    H310059   0.010   0.615  11.178 -0.1365 -0.8358 -0.2377
  676MPD2     N10060   4.596   0.203  11.302 -0.1877 -0.1296  0.5132
  676MPD2    H510061   4.684   0.166  11.268 -1.0015  0.4847 -2.2138
  676MPD2    N110062   4.368   0.626  11.409 -0.5182  0.3882 -0.2005
  676MPD2    H710063   4.310   0.575  11.475 -0.0926  0.6373  0.3697
  677TMC3    C110064   4.222   0.794  11.457  1.1224 -0.1541  0.7096
  677TMC3    C210065   4.190   0.700  11.557  0.1433  0.0303 -0.0292
  677TMC3    C310066   4.150   0.750  11.679  0.6002  0.1620  0.4257
  677TMC3    C410067   4.236   0.930  11.482  0.5567  0.5303  0.1244
  677TMC3    C510068   4.204   0.971  11.609 -0.2342 -0.3287  0.6813
  677TMC3    C610069   4.151   0.889  11.703 -0.0935  0.6259 -0.3319
  677TMC3     C10070   4.323   0.746  11.365  0.7229  0.5264  0.6379
  677TMC3     O10071   4.367   0.824  11.282 -0.3238  0.2475  0.4052
  677TMC3     H10072   4.174   0.595  11.539 -2.3998  0.1085  1.7396
  677TMC3    H110073   4.258   0.998  11.401  1.7260  1.6357  1.3718
  677TMC3    H210074   4.142   0.921  11.806  0.7737  0.6682 -0.2634
  677TMC3    C710075   4.247   1.104  11.650  0.0658 -0.8618  0.3508
  677TMC3    C810076   4.179   0.659  11.787  0.2308 -0.7539  0.2537
  677TMC3    O110077   4.209   1.152  11.755 -0.0665  0.4982  0.4083
  677TMC3    O210078   4.251   0.569  11.747  0.0339 -0.8003 -0.6234
  678MPD2     C10079   0.917   4.269   1.425 -0.4897  0.4929 -0.0894
  678MPD2    C110080   0.911   4.170   1.328  0.0015  0.5060  0.0044
  678MPD2    C210081   0.787   4.133   1.276 -0.2802  0.4923  0.4148
  678MPD2    C310082   0.666   4.197   1.315  0.1971 -0.5248  0.3361
  678MPD2    C410083   0.679   4.300   1.408 -0.3464  0.3996 -0.1484
  678MPD2    C510084   0.800   4.328   1.461  0.2754  0.2431  0.1516
  678MPD2     H10085   0.796   4.059   1.198  1.3720  0.7720  0.3237
  678MPD2    H110086   0.592   4.357   1.439 -0.6913 -0.1177 -0.1651
  678MPD2    H210087   1.010   4.288   1.477 -1.3429  0.0020  1.6224
  678MPD2    H310088   0.806   4.403   1.540  3.2323 -1.4947  1.6147
  678MPD2     N10089   0.544   4.166   1.249  0.4279  0.1689  0.1657
  678MPD2    H510090   0.548   4.102   1.170  2.6696  0.4343  0.0650
  678MPD2    N110091   1.029   4.102   1.281  0.6014  0.3048 -0.3723
  678MPD2    H710092   1.011   4.038   1.205  1.3466  0.0247 -0.3154
  679TMC3    C110093   1.470   3.971   1.238  0.0122  0.3080 -0.5799
  679TMC3    C210094   1.372   4.052   1.294 -0.1726 -0.3765 -1.2502
  679TMC3    C310095   1.255   4.072   1.229  0.2870  0.0362 -0.1405
  679TMC3    C410096   1.444   3.914   1.122  0.0152  0.5275  0.1939
  679TMC3    C510097   1.328   3.950   1.055  0.2104  0.6542 -0.0267
  679TMC3    C610098   1.222   4.016   1.110 -0.5656 -0.5293 -0.3440
  679TMC3     C10099   1.607   4.021   1.266  0.3229  0.2943 -0.3281
  679TMC3     O10100   1.689   3.942   1.300  0.0052  0.4826  0.4545
  679TMC3     H10101   1.399   4.120   1.374 -3.0614  0.7680 -1.2829
  679TMC3    H110102   1.537   3.891   1.072  1.3539  1.0997  2.4146
  679TMC3    H210103   1.139   4.044   1.046  0.3513 -0.1630 -1.3528
  679TMC3    C710104   1.351   3.991   0.914  0.6240 -0.8496  0.1355
  679TMC3    C810105   1.161   4.141   1.303  0.2976 -0.3211  0.9413
  679TMC3    O110106   1.295   4.094   0.877 -0.3643 -0.1421  0.1884
  679TMC3    O210107   1.199   4.234   1.371 -0.2235 -0.5167 -0.4578
  680MPD2     C10108   1.130   3.445  13.363  0.4962  0.1024 -0.3234
  680MPD2    C110109   1.253   3.410  13.409 -0.0528 -0.3111 -0.1681
  680MPD2    C210110   1.319   3.509  13.476  0.0026 -0.0912  0.5608
  680MPD2    C310111   1.274   3.638  13.497 -0.7129 -0.3873 -0.1333
  680MPD2    C410112   1.153   3.671  13.442  0.4986  1.4120  0.4750
  680MPD2    C510113   1.082   3.575  13.378 -0.4238  0.1674 -0.4211
  680MPD2     H10114   1.417   3.486  13.517  0.6314  1.0944 -0.2664
  680MPD2    H110115   1.102   3.762  13.472 -0.4951  1.7970 -2.3038
  680MPD2    H210116   1.085   3.375  13.294 -1.7756  0.8524  0.4043
  680MPD2    H310117   0.983   3.608  13.350 -0.5458  1.4419  1.4882
  680MPD2     N10118   1.360   3.738  13.558  0.2395 -0.3487  0.6519
  680MPD2    H510119   1.325   3.833  13.547  0.0582 -0.4522  0.3146
  680MPD2    N110120   1.314   3.289  13.376 -0.0934 -1.1215  0.0819
  680MPD2    H710121   1.410   3.279  13.408  0.3564  1.2676 -0.5213
  681TMC3    C110122   1.338   3.063  13.316 -0.0669 -0.1304 -0.0214
  681TMC3    C210123   1.284   2.943  13.361 -0.3021  0.0442  0.5523
  681TMC3    C310124   1.365   2.848  13.417 -0.1815  0.2389  0.5731
  681TMC3    C410125   1.472   3.069  13.314  0.0076  0.1223  0.3456
  681TMC3    C510126   1.552   2.972  13.357  0.2381  0.9065  0.9272
  681TMC3    C610127   1.502   2.864  13.417 -0.2247  0.2905  0.4839
  681TMC3     C10128   1.251   3.176  13.334  1.1868 -0.6359 -0.5016
  681TMC3     O10129   1.129   3.156  13.325 -0.2096 -0.4452 -0.2502
  681TMC3     H10130   1.176   2.928  13.363 -0.4125  0.9239  1.2414
  681TMC3    H110131   1.517   3.165  13.292  0.1488 -0.1117 -0.3730
  681TMC3    H210132   1.567   2.788  13.459  0.8546  1.7367  1.4318
  681TMC3    C710133   1.694   2.985  13.361  0.6211 -1.4855  0.4113
  681TMC3    C810134   1.317   2.785  13.534 -0.2607  0.2213 -0.2617
  681TMC3    O110135   1.759   2.908  13.426 -0.0975  0.2422  0.0247
  681TMC3    O210136   1.222   2.708  13.518 -0.0319 -0.4406 -0.2115
  682MPD2     C10137   3.733   0.759  10.765  0.3720  0.2208 -0.0550
  682MPD2    C110138   3.654   0.656  10.800  0.5940 -0.3799 -0.1920
  682MPD2    C210139   3.592   0.663  10.924  0.0207 -0.1244 -0.2779
  682MPD2    C310140   3.604   0.773  11.009 -0.2285 -0.6928 -0.5118
  682MPD2    C410141   3.681   0.877  10.962 -0.3798 -0.1360 -0.2847
  682MPD2    C510142   3.750   0.867  10.846  0.0427  0.2798  0.5886
  682MPD2     H10143   3.536   0.577  10.958 -0.6177  1.2906  2.2479
  682MPD2    H110144   3.697   0.959  11.031  0.6317 -0.2567 -0.3902
  682MPD2    H210145   3.791   0.761  10.673  1.3505  0.2087  0.5618
  682MPD2    H310146   3.817   0.946  10.813 -0.6764  0.9194  0.6725
  682MPD2     N10147   3.531   0.786  11.124 -0.2897  0.6938 -0.0188
  682MPD2    H510148   3.552   0.871  11.175 -1.4240  1.8239 -1.4076
  682MPD2    N110149   3.609   0.554  10.714  0.0371 -0.3916 -0.5170
  682MPD2    H710150   3.530   0.504  10.754 -0.7812  0.6650 -0.8150
  683TMC3    C110151   3.450   0.881  11.508  0.3445  0.1487  0.1008
  683TMC3    C210152   3.355   0.801  11.576 -0.1840 -0.4261 -0.5037
  683TMC3    C310153   3.291   0.705  11.503 -0.4530  0.4099  0.4958
  683TMC3    C410154   3.485   0.856  11.377  0.3996  0.6150  0.2054
  683TMC3    C510155   3.403   0.762  11.309 -0.0838  0.1217  0.1642
  683TMC3    C610156   3.312   0.683  11.372  0.7484  0.8978 -0.7065
  683TMC3     C10157   3.566   0.926  11.583  0.2543  0.0725  0.8413
  683TMC3     O10158   3.660   0.987  11.530  0.6892 -0.8755 -0.1748
  683TMC3     H10159   3.316   0.820  11.675 -0.8608 -2.5901 -0.3613
  683TMC3    H110160   3.560   0.918  11.331  1.0261 -0.9792 -0.9197
  683TMC3    H210161   3.258   0.606  11.318 -1.4406  0.7128  1.7516
  683TMC3    C710162   3.443   0.706  11.181 -0.3387 -1.1079  0.1907
  683TMC3    C810163   3.203   0.624  11.577  0.4749  0.2592  0.4829
  683TMC3    O110164   3.374   0.615  11.137 -0.8768  0.3766 -0.9987
  683TMC3    O210165   3.115   0.685  11.634 -0.5159 -0.2862 -0.1717
  684MPD2     C10166   2.218   4.012  16.455 -0.1645 -0.0593  0.1257
  684MPD2    C110167   2.195   3.971  16.327  0.2964  0.4304 -0.3492
  684MPD2    C210168   2.166   4.069  16.235  0.3178 -0.6162  0.2018
  684MPD2    C310169   2.146   4.197  16.275 -0.1591  0.4622  0.5901
  684MPD2    C410170   2.173   4.237  16.405 -0.0705 -0.9848  0.4136
  684MPD2    C510171   2.203   4.142  16.495  0.4598  0.9954  0.2202
  684MPD2     H10172   2.172   4.034  16.133  0.0002  1.4142 -0.4995
  684MPD2    H110173   2.167   4.339  16.441 -2.0769 -1.4212  1.3238
  684MPD2    H210174   2.249   3.940  16.530 -0.4754 -0.9028 -0.5673
  684MPD2    H310175   2.228   4.169  16.596 -2.8582  0.5745  1.1575
  684MPD2     N10176   2.128   4.302  16.188  0.3237  0.3315 -0.3195
  684MPD2    H510177   2.121   4.388  16.242 -0.3287 -1.7526  2.9645
  684MPD2    N110178   2.217   3.837  16.282  0.1798  0.0156 -0.1718
  684MPD2    H710179   2.204   3.820  16.183  3.8989 -1.1896 -0.4184
  685TMC3    C110180   2.323   3.631  16.291 -0.9167 -0.8759  0.4302
  685TMC3    C210181   2.251   3.583  16.187 -0.4431  0.1417  0.2647
  685TMC3    C310182   2.304   3.504  16.090 -0.1975  1.0176  0.1265
  685TMC3    C410183   2.457   3.612  16.294 -0.1499 -0.2777 -0.4052
  685TMC3    C510184   2.511   3.523  16.200 -0.0885  0.3387  0.4086
  685TMC3    C610185   2.437   3.474  16.097 -0.4483 -0.2258 -0.4162
  685TMC3     C10186   2.268   3.742  16.365 -0.0869 -0.3304  0.1892
  685TMC3     O10187   2.329   3.754  16.473  0.3650  0.3361 -0.1271
  685TMC3     H10188   2.145   3.604  16.194 -0.3539 -0.2566  2.7629
  685TMC3    H110189   2.515   3.659  16.373  1.3496 -0.6930 -1.2468
  685TMC3    H210190   2.480   3.405  16.025 -3.4753 -1.1338 -1.3339
  685TMC3    C710191   2.639   3.472  16.225  0.1802  0.5251  0.4570
  685TMC3    C810192   2.227   3.407  16.016  0.1189 -0.0715 -0.1814
  685TMC3    O110193   2.663   3.470  16.341  0.1727 -0.2617 -0.1896
  685TMC3    O210194   2.275   3.302  15.982  0.8165  0.9085 -0.0981
  686MPD2     C10195   4.004   4.329  16.427 -0.0532 -0.2435  0.5343
  686MPD2    C110196   3.880   4.336  16.372  0.6916 -0.7175  0.6872
  686MPD2    C210197   3.833   4.464  16.337  0.0969 -0.3678 -0.0704
  686MPD2    C310198   3.910   4.573  16.352  0.1239  0.5902  0.0574
  686MPD2    C410199   4.031   4.564  16.415 -0.2909 -0.4202 -0.1565
  686MPD2    C510200   4.071   4.442  16.452  0.4912 -0.1978  0.0321
  686MPD2     H10201   3.745   4.470  16.274  0.6096  0.1128 -0.7501
  686MPD2    H110202   4.095   4.652  16.417 -0.7487 -0.0672 -0.7343
  686MPD2    H210203   4.049   4.234  16.452 -1.0038 -1.1810 -1.3377
  686MPD2    H310204   4.167   4.429  16.501  0.0197  1.3040  1.3394
  686MPD2     N10205   3.862   4.697  16.310 -0.1349 -0.0689 -0.3128
  686MPD2    H510206   3.924   0.037  16.307  2.7121 -2.1606  1.6648
  686MPD2    N110207   3.807   4.217  16.344 -0.2831 -0.2021 -0.0698
  686MPD2    H710208   3.856   4.129  16.353 -0.2569 -0.1312  0.5158
  687TMC3    C110209   3.763   0.094  16.165  0.0163 -0.6209  0.5341
  687TMC3    C210210   3.638   0.120  16.119 -0.1611 -0.6062 -0.3424
  687TMC3    C310211   3.618   0.109  15.986  0.3510 -0.7473  0.2960
  687TMC3    C410212   3.860   0.043  16.074  0.5341 -0.4057 -0.0910
  687TMC3    C510213   3.831   0.015  15.946  0.8097 -0.5041  0.0202
  687TMC3    C610214   3.710   0.051  15.899  0.2856 -0.3158  0.2965
  687TMC3     C10215   3.741   4.724  16.254 -0.0934 -0.3967 -0.0328
  687TMC3     O10216   3.637   4.659  16.250  0.3513 -0.1397 -0.4944
  687TMC3     H10217   3.566   0.164  16.188 -0.2431 -0.6156 -0.4231
  687TMC3    H110218   3.961   0.046  16.113 -0.3863  0.3098  2.2255
  687TMC3    H210219   3.684   0.054  15.794  0.7105 -0.2365  0.1948
  687TMC3    C710220   3.914   4.656  15.889  0.1270 -0.1293  0.1963
  687TMC3    C810221   3.481   0.072  15.951 -0.3871  0.0445 -0.3259
  687TMC3    O110222   4.005   4.622  15.962 -0.3697 -0.3665 -0.3503
  687TMC3    O210223   3.434   0.094  15.841  0.2265 -0.5977  0.0741
  688MPD2     C10224   2.833   3.027  17.394  0.7836  0.2425  0.4852
  688MPD2    C110225   2.826   2.891  17.428  0.0880  0.0574 -1.1165
  688MPD2    C210226   2.911   2.796  17.369 -0.5697  0.0697 -0.4068
  688MPD2    C310227   3.012   2.838  17.292  0.8164  0.0421  0.2716
  688MPD2    C410228   3.010   2.962  17.239 -0.3382 -0.1736 -0.3045
  688MPD2    C510229   2.921   3.056  17.295  0.1386  0.2507 -0.8668
  688MPD2     H10230   2.906   2.690  17.394  1.4789  0.1067  0.1502
  688MPD2    H110231   3.083   2.985  17.162 -0.8435 -0.4086 -0.8559
  688MPD2    H210232   2.769   3.105  17.435 -1.1638 -0.6001 -0.9258
  688MPD2    H310233   2.929   3.159  17.262 -0.7753  0.7604  0.4972
  688MPD2     N10234   3.127   2.764  17.257 -0.3344  0.2876  0.2196
  688MPD2    H510235   3.190   2.807  17.189  1.3379 -0.4116  1.3299
  688MPD2    N110236   2.732   2.840  17.523 -0.1866 -0.5854 -0.5473
  688MPD2    H710237   2.743   2.740  17.539  0.0638 -0.6272 -0.9940
  689TMC3    C110238   2.575   2.823  17.703  0.3775 -0.8812 -0.1390
  689TMC3    C210239   2.536   2.879   0.063 -0.2781  0.0466  0.4354
  689TMC3    C310240   2.476   2.803   0.153 -0.2272 -0.3097 -0.4640
  689TMC3    C410241   2.548   2.686  17.673 -0.4728 -0.4897  0.2309
  689TMC3    C510242   2.494   2.617   0.019 -0.9456  0.4594 -0.8004
  689TMC3    C610243   2.457   2.669   0.140  0.0479 -0.1060  0.1868
  689TMC3     C10244   2.648   2.913  17.606 -0.4685 -0.7713  0.2308
  689TMC3     O10245   2.621   3.030  17.617  0.0587 -0.5309  0.4383
  689TMC3     H10246   2.541   2.985   0.080 -1.9531  0.2184 -0.1156
  689TMC3    H110247   2.586   2.641  17.582  1.1433 -1.5438  1.4409
  689TMC3    H210248   2.399   2.609   0.209  1.5077 -1.0394  0.6201
  689TMC3    C710249   2.522   2.475   0.024 -0.2412  0.3967  0.2960
  689TMC3    C810250   2.428   2.868   0.271  0.2713 -0.6672 -0.9427
  689TMC3    O110251   2.566   2.443   0.135  0.1450 -0.0110 -0.3190
  689TMC3    O210252   2.491   2.969   0.304 -1.0511  0.1995 -0.2341
  690MPD2     C10253   0.583   0.124  15.778  0.0322 -0.3179 -0.7549
  690MPD2    C110254   0.484   0.102  15.681 -0.0497  0.2266 -0.3516
  690MPD2    C210255   0.495   0.173  15.562  0.3649 -0.6394  0.2548
  690MPD2    C310256   0.609   0.237  15.532  0.1585 -0.0610 -0.1441
  690MPD2    C410257   0.708   0.255  15.621  0.3344  0.0268  0.2566
  690MPD2    C510258   0.691   0.206  15.747  0.2163  0.5616  0.0544
  690MPD2     H10259   0.416   0.164  15.487  0.7452 -0.1430 -0.2033
  690MPD2    H110260   0.805   0.293  15.593  0.3224  0.0811  0.2903
  690MPD2    H210261   0.577   0.077  15.875  2.8067 -2.1265 -1.4468
  690MPD2    H310262   0.756   0.232  15.830  0.8501 -0.2393 -0.1889
  690MPD2     N10263   0.618   0.277  15.402 -0.0878 -0.1449  0.0469
  690MPD2    H510264   0.545   0.252  15.336  0.1886  1.9371 -1.0646
  690MPD2    N110265   0.365   0.021  15.701  0.1742  0.8898  0.4928
  690MPD2    H710266   0.292   0.027  15.630  0.1186 -0.4460  0.4419
  691TMC3    C110267   0.262   4.550  15.769 -0.2520 -0.1627  0.5609
  691TMC3    C210268   0.228   4.532  15.636  0.0052 -0.0188  1.1810
  691TMC3    C310269   0.199   4.402  15.601 -0.1042  0.4091  0.3286
  691TMC3    C410270   0.269   4.441  15.852 -0.0522  0.6174 -0.4319
  691TMC3    C510271   0.238   4.315  15.811  0.1807 -1.1293 -0.0163
  691TMC3    C610272   0.197   4.290  15.683  0.4236  0.2064 -0.1127
  691TMC3     C10273   0.340   4.677  15.806 -0.2086 -0.3770  0.5843
  691TMC3     O10274   0.405   4.661  15.911  0.6353 -0.3758 -0.2847
  691TMC3     H10275   0.215   4.620  15.574  4.2816 -0.0169  0.2889
  691TMC3    H110276   0.296   4.450  15.957 -0.3953 -0.3230 -0.2568
  691TMC3    H210277   0.207   4.189  15.644  0.8633  0.6048 -1.0306
  691TMC3    C710278   0.216   4.212  15.914 -0.4386  0.2757  0.1742
  691TMC3    C810279   0.096   4.372  15.504  0.4951  0.9115 -0.0277
  691TMC3    O110280   0.276   4.225  16.020 -0.5282 -0.3722 -0.4434
  691TMC3    O210281   0.094   4.265  15.451  0.3447  0.0575  0.3458
  692TMC3    C110282   1.479   0.710  15.586 -0.6067  0.1402 -0.6307
  692TMC3    C210283   1.601   0.771  15.609  0.0821  0.1242 -0.3307
  692TMC3    C310284   1.698   0.698  15.679  0.2424 -0.3010 -0.6395
  692TMC3    C410285   1.464   0.578  15.614  0.2605  0.0661 -0.8440
  692TMC3    C510286   1.563   0.508  15.671 -0.6858  0.1554  0.4281
  692TMC3    C610287   1.687   0.562  15.706 -0.6866 -0.5144 -1.0439
  692TMC3     C10288   1.359   0.792  15.621  0.4055 -0.3039  0.1780
  692TMC3     O10289   1.279   0.729  15.692 -0.5563 -0.2157  0.7821
  692TMC3     H10290   1.627   0.876  15.603 -0.9831  0.3915 -0.1257
  692TMC3    H110291   1.367   0.530  15.620  0.5830 -0.2893  1.6180
  692TMC3    H210292   1.744   0.522  15.789  0.2225 -0.6956 -1.7625
  692TMC3    C710293   1.516   0.380  15.729 -0.0105  0.0138 -0.3033
  692TMC3    C810294   1.776   0.762  15.787 -0.0103 -0.6089  0.4868
  692TMC3    O110295   1.401   0.374  15.766 -0.1233 -0.1011  0.0494
  692TMC3    O210296   1.889   0.718  15.804  0.0712 -0.0502 -0.0692
  693MPD2     C10297   0.955   4.157  10.779  0.1842  0.2626  0.6356
  693MPD2    C110298   0.904   4.101  10.892 -0.8058 -0.2004 -0.0761
  693MPD2    C210299   0.976   4.037  10.981 -0.5140 -0.3602  0.3202
  693MPD2    C310300   1.110   4.017  10.955 -0.1375 -0.0985  0.1071
  693MPD2    C410301   1.163   4.069  10.841  0.4923  0.2647  0.0283
  693MPD2    C510302   1.087   4.143  10.750 -0.6280 -0.5752  0.1383
  693MPD2     H10303   0.924   4.001  11.069 -1.8166  0.3984 -0.1385
  693MPD2    H110304   1.268   4.064  10.817  0.1690  0.0419 -1.3315
  693MPD2    H210305   0.894   4.218  10.713  0.4263 -0.1507  0.0240
  693MPD2    H310306   1.126   4.197  10.664  0.8351 -0.3579  0.9403
  693MPD2     N10307   1.199   3.952  11.043 -0.1888 -0.5403  0.3075
  693MPD2    H510308   1.297   3.934  11.027 -0.1635 -1.7111  1.7614
  693MPD2    N110309   0.771   4.121  10.935 -0.8141  0.1711 -0.3521
  693MPD2    H710310   0.742   4.093  11.028  1.0671 -0.5551  0.0018
  694TMC3    C110311   0.535   4.133  10.921 -0.2269 -0.4373  0.0684
  694TMC3    C210312   0.448   4.070  10.845  0.0055 -0.1241  0.3251
  694TMC3    C310313   0.364   3.984  10.907 -0.3905 -0.4111  0.9863
  694TMC3    C410314   0.537   4.104  11.049 -0.3717 -0.0295 -1.3203
  694TMC3    C510315   0.460   4.011  11.105 -0.0265  0.3219 -0.0390
  694TMC3    C610316   0.367   3.941  11.036 -0.0747  0.0072 -0.0660
  694TMC3     C10317   0.667   4.174  10.858  0.6373 -0.5591  0.5042
  694TMC3     O10318   0.674   4.220  10.743  0.1166  0.1192  0.3458
  694TMC3     H10319   0.442   4.083  10.738  0.1330 -0.0801  0.3232
  694TMC3    H110320   0.604   4.163  11.111 -0.5602 -0.3675 -0.7935
  694TMC3    H210321   0.291   3.876  11.078 -0.5755 -0.3773 -1.5289
  694TMC3    C710322   0.443   4.025  11.250 -0.1630  0.8451 -0.7688
  694TMC3    C810323   0.260   3.941  10.823  0.0880  0.8710  0.3818
  694TMC3    O110324   0.445   4.136  11.301 -0.6960  0.0054  0.5423
  694TMC3    O210325   0.216   3.827  10.838 -0.1934  0.8108  0.0018
  695MPD2     C10326   2.377   0.921  13.594  0.5241  0.2631 -0.4415
  695MPD2    C110327   2.331   0.907  13.724  0.1315  0.2214  0.2279
  695MPD2    C210328   2.195   0.915  13.748 -0.1005  0.3264  0.7053
  695MPD2    C310329   2.106   0.925  13.644  0.0124  0.0145  0.0247
  695MPD2    C410330   2.151   0.937  13.512 -0.4631 -0.1474 -0.0577
  695MPD2    C510331   2.285   0.952  13.497 -0.2228  0.9228  0.1464
  695MPD2     H10332   2.148   0.901  13.845  0.0305  1.0062  0.8679
  695MPD2    H110333   2.084   0.964  13.431  0.6457 -1.5948 -1.4601
  695MPD2    H210334   2.478   0.908  13.556 -0.4696 -0.3583 -2.8912
  695MPD2    H310335   2.324   0.976  13.399  0.9067 -0.9050  0.1528
  695MPD2     N10336   1.968   0.918  13.677  0.5449 -0.1852  0.3191
  695MPD2    H510337   1.950   0.909  13.777  0.3938  0.4347  0.3460
  695MPD2    N110338   2.415   0.873  13.834  0.0595  0.0163  0.1096
  695MPD2    H710339   2.385   0.892  13.929 -2.2860  0.4087 -0.7252
  696TMC3    C110340   1.728   0.927  13.644  0.1255 -0.5680 -0.0713
  696TMC3    C210341   1.697   0.875  13.764  0.3706  0.1095  0.5201
  696TMC3    C310342   1.576   0.882  13.814 -0.4983 -0.2420 -0.6063
  696TMC3    C410343   1.633   0.987  13.567 -0.5187 -0.5375  0.7892
  696TMC3    C510344   1.509   1.001  13.622 -0.2943  0.2742  0.2531
  696TMC3    C610345   1.478   0.947  13.745 -0.0900  0.4689  0.6012
  696TMC3     C10346   1.865   0.922  13.590  0.3075  0.1616  0.0813
  696TMC3     O10347   1.872   0.947  13.471 -0.5104  0.8351 -0.0347
  696TMC3     H10348   1.772   0.820  13.820  1.9414  1.6229 -0.1098
  696TMC3    H110349   1.653   1.025  13.468 -0.6332  0.5080  1.1664
  696TMC3    H210350   1.382   0.970  13.792  1.5793  1.9954  3.2615
  696TMC3    C710351   1.423   1.100  13.558  0.1031 -0.8554 -0.4284
  696TMC3    C810352   1.576   0.923  13.954 -0.5369 -0.1570 -0.2595
  696TMC3    O110353   1.479   1.166  13.467 -0.3521  0.1999 -0.2565
  696TMC3    O210354   1.566   1.047  13.966 -0.2610 -0.7241 -0.3549
  697MPD2     C10355   1.144   2.680  15.573  0.0347 -0.7768  0.1445
  697MPD2    C110356   1.085   2.664  15.450 -0.3924  0.3345  0.3119
  697MPD2    C210357   1.108   2.763  15.355  0.2096  0.4378 -0.4839
  697MPD2    C310358   1.169   2.882  15.374 -0.1551  0.2594 -0.0676
  697MPD2    C410359   1.223   2.896  15.502  0.5182 -0.5944 -1.0002
  697MPD2    C510360   1.213   2.797  15.597  0.5192  0.2498 -0.0610
  697MPD2     H10361   1.073   2.737  15.256 -1.8710 -0.2451  0.4408
  697MPD2    H110362   1.262   2.990  15.537 -0.3018 -0.0167 -1.6095
  697MPD2    H210363   1.141   2.603  15.649 -1.3714  0.4367  1.3041
  697MPD2    H310364   1.264   2.816  15.691 -3.0124  1.0349  1.6937
  697MPD2     N10365   1.188   2.972  15.266 -0.5222  0.1940  0.0752
  697MPD2    H510366   1.154   2.951  15.172 -1.0534  0.1778  0.2687
  697MPD2    N110367   1.006   2.550  15.416 -0.8252 -0.2738 -0.1926
  697MPD2    H710368   0.964   2.558  15.323  1.5732 -2.7031 -1.4735
  698TMC3    C110369   1.274   3.153  15.151 -0.3842 -0.2881 -0.6864
  698TMC3    C210370   1.356   3.264  15.145 -0.1473  0.1918  0.1149
  698TMC3    C310371   1.414   3.307  15.021 -0.3636 -0.6300  0.2381
  698TMC3    C410372   1.234   3.099  15.029 -0.5297 -0.7934 -0.2296
  698TMC3    C510373   1.288   3.150  14.910  0.3859 -0.3711 -0.4080
  698TMC3    C610374   1.381   3.254  14.903  0.0243 -0.3145 -0.3962
  698TMC3     C10375   1.244   3.094  15.280 -0.0292 -1.0588 -0.1956
  698TMC3     O10376   1.289   3.149  15.381 -0.0640 -0.2967 -0.3438
  698TMC3     H10377   1.380   3.309  15.240 -2.2473  0.1211  0.6891
  698TMC3    H110378   1.182   3.004  15.020  1.1734 -2.0001  2.5930
  698TMC3    H210379   1.427   3.280  14.808  0.6860  0.5642  0.1687
  698TMC3    C710380   1.209   3.128  14.795  0.0088 -0.3520 -0.5390
  698TMC3    C810381   1.539   3.375  15.050  0.2257  0.5095 -0.6166
  698TMC3    O110382   1.258   3.172  14.690  0.3538 -0.2362  0.3828
  698TMC3    O210383   1.583   3.367  15.162  0.4050  0.4597 -0.2459
  699TMC3    C110384   1.167   1.462  13.146  0.5739  0.5793  0.1022
  699TMC3    C210385   1.227   1.339  13.164  0.0977 -0.0983  0.1439
  699TMC3    C310386   1.144   1.241  13.213  0.9976  0.2916 -0.5291
  699TMC3    C410387   1.037   1.486  13.185 -0.6980 -0.2857  0.5325
  699TMC3    C510388   0.956   1.381  13.223 -0.5141 -0.2354  0.6519
  699TMC3    C610389   1.009   1.256  13.245  0.2103  0.6924  0.1351
  699TMC3     C10390   1.232   1.574  13.087  0.1553 -0.0154  0.3148
  699TMC3     O10391   1.165   1.676  13.072  0.0871  0.1338 -0.0894
  699TMC3     H10392   1.333   1.319  13.153  0.1096  0.6067 -1.0463
  699TMC3    H110393   0.994   1.585  13.179 -0.0720 -0.0526 -0.0727
  699TMC3    H210394   0.948   1.178  13.290 -0.2953  0.4889 -0.8902
  699TMC3    C710395   0.819   1.412  13.282  0.5746  0.0052 -0.0552
  699TMC3    C810396   1.199   1.107  13.255  0.2424  0.3007  0.4381
  699TMC3    O110397   0.769   1.327  13.351  0.2036  0.1018 -0.1571
  699TMC3    O210398   1.137   1.055  13.344  0.1488 -0.2523  0.3364
  700TMC3    C110399   0.824   2.760  16.899 -0.1820  0.9644 -0.4562
  700TMC3    C210400   0.781   2.627  16.920 -0.1043 -0.1927 -0.0091
  700TMC3    C310401   0.709   2.597  17.035 -0.1798 -0.0485  0.2488
  700TMC3    C410402   0.797   2.854  16.995 -0.1791 -0.4219  0.8472
  700TMC3    C510403   0.740   2.807  17.110 -0.4752  0.4965 -0.6409
  700TMC3    C610404   0.702   2.685  17.135 -0.2494  0.7588 -0.0597
  700TMC3     C10405   0.829   2.821  16.762 -0.2250  0.1936 -0.7087
  700TMC3     O10406   0.818   2.748  16.666  0.5965  0.0574  0.2472
  700TMC3     H10407   0.776   2.573  16.826  2.2478  0.0293 -0.2529
  700TMC3    H110408   0.836   2.955  16.994 -0.9132 -0.1847 -2.7611
  700TMC3    H210409   0.653   2.662  17.229  3.0812 -0.2345  1.4187
  700TMC3    C710410   0.757   2.895  17.217  0.5040  0.5424 -0.3148
  700TMC3    C810411   0.702   2.461  17.073  0.7881 -0.8265 -0.2825
  700TMC3    O110412   0.757   3.012  17.194 -0.7653 -0.0912  0.3620
  700TMC3    O210413   0.646   2.436  17.183 -0.0241 -0.2163  0.1491
  701TMC3    C110414   0.253   2.078  15.448  0.1158 -0.8551  0.2874
  701TMC3    C210415   0.200   2.098  15.326  0.0392 -0.0537  0.5467
  701TMC3    C310416   0.195   2.225  15.282 -0.4430  0.2285  0.2177
  701TMC3    C410417   0.298   2.179  15.531 -0.1702  0.2727 -1.6023
  701TMC3    C510418   0.304   2.302  15.469  0.8737  0.5582 -0.3595
  701TMC3    C610419   0.237   2.334  15.358 -0.3651 -0.5709 -0.6324
  701TMC3     C10420   0.228   1.956  15.525 -0.1352 -0.1356  0.1936
  701TMC3     O10421   0.189   1.982  15.636  0.1179  0.3448  0.1908
  701TMC3     H10422   0.167   2.014  15.266  0.1438  0.6967 -0.5488
  701TMC3    H110423   0.351   2.150  15.621 -0.9810 -1.6451 -1.7440
  701TMC3    H210424   0.242   2.430  15.309 -0.9757 -0.2008  0.0436
  701TMC3    C710425   0.383   2.411  15.519 -0.4132 -0.1760  0.5494
  701TMC3    C810426   0.163   2.264  15.142 -0.1250 -0.2676  0.0471
  701TMC3    O110427   0.391   2.507  15.448  0.1874  0.1322 -0.2541
  701TMC3    O210428   0.156   2.384  15.124 -0.4443  0.0241  0.0118
  702MPD2     C10429   0.050   4.547  10.794  0.1519  0.3987 -0.0843
  702MPD2    C110430   4.659   4.572  10.821 -0.2029  0.1413  0.2384
  702MPD2    C210431   4.574   4.604  10.715 -0.5704  0.2350 -0.1463
  702MPD2    C310432   4.619   4.602  10.584 -0.1552  0.9230  0.1448
  702MPD2    C410433   0.013   4.588  10.561 -0.0364  0.2850  0.6113
  702MPD2    C510434   0.091   4.547  10.663 -0.3589 -0.9123 -0.3886
  702MPD2     H10435   4.471   4.636  10.729 -0.4960 -0.9648  3.0691
  702MPD2    H110436   0.058   4.597  10.463 -0.4478 -3.2530  0.1051
  702MPD2    H210437   0.112   4.525  10.880 -0.9060  0.0737  0.5963
  702MPD2    H310438   0.196   4.532  10.639 -0.3103  0.2080 -0.8764
  702MPD2     N10439   4.542   4.640  10.472  0.5655  0.5377 -0.1820
  702MPD2    H510440   4.596   4.661  10.388  0.4964 -1.1829 -0.6442
  702MPD2    N110441   4.611   4.564  10.952 -0.3729 -0.2195 -0.0729
  702MPD2    H710442   4.513   4.586  10.965  0.1261  1.4395  0.9794
  703TMC3    C110443   4.372   0.028  10.370 -0.3818 -0.6297 -0.2046
  703TMC3    C210444   4.243   0.056  10.397  0.0977 -0.9075 -0.7765
  703TMC3    C310445   4.194   0.180  10.408  0.3632 -0.4078  0.2467
  703TMC3    C410446   4.464   0.133  10.360 -0.3867 -0.1526  0.1113
  703TMC3    C510447   4.409   0.255  10.393 -0.3709  0.5176  0.2077
  703TMC3    C610448   4.276   0.285  10.416 -0.3024 -0.5698  0.1846
  703TMC3     C10449   4.410   4.671  10.472 -0.3315 -0.0191 -0.3047
  703TMC3     O10450   4.325   4.629  10.548 -0.0935 -0.2381  0.5856
  703TMC3     H10451   4.167   4.719  10.387 -1.3107  0.4934 -0.7634
  703TMC3    H110452   4.571   0.118  10.356 -0.4318 -0.6414  0.7251
  703TMC3    H210453   4.236   0.383  10.440 -0.2545 -0.1876 -1.2942
  703TMC3    C710454   4.514   0.359  10.408  0.2655  0.3361  0.5821
  703TMC3    C810455   4.061   0.188  10.465  0.0345 -0.1750 -0.0185
  703TMC3    O110456   4.626   0.330  10.359  0.1067 -0.1118 -0.0485
  703TMC3    O210457   3.981   0.117  10.404 -0.4704  0.2698  0.2088
  704TMC3    C110458   2.942   2.728  12.549 -0.5540 -0.7731 -0.6618
  704TMC3    C210459   3.014   2.727  12.433 -0.1774  0.7174  0.4273
  704TMC3    C310460   3.098   2.619  12.413 -0.1182 -0.6065 -0.3801
  704TMC3    C410461   2.962   2.638  12.652 -0.0499  0.2389 -0.5615
  704TMC3    C510462   3.035   2.525  12.625 -0.2419  0.6879 -0.2058
  704TMC3    C610463   3.099   2.514  12.507  0.1971 -0.6166  0.4629
  704TMC3     C10464   2.818   2.793  12.553 -0.1935  0.0888 -0.2252
  704TMC3     O10465   2.754   2.802  12.658 -0.2367 -0.1504  0.1512
  704TMC3     H10466   3.009   2.806  12.360 -0.8521  2.9335  2.8724
  704TMC3    H110467   2.919   2.655  12.750  1.3603  0.3243  0.0508
  704TMC3    H210468   3.159   2.426  12.491  1.4978  0.4464 -0.4687
  704TMC3    C710469   2.973   2.406  12.667 -0.0619 -0.2681  0.2485
  704TMC3    C810470   3.081   2.577  12.279  0.7843 -0.4633 -0.2954
  704TMC3    O110471   2.857   2.415  12.701  0.0508 -0.6337 -0.0156
  704TMC3    O210472   2.970   2.607  12.232 -0.0101  0.1755 -0.8396
  705MPD2     C10473   1.850   0.334  16.020  1.0468 -0.0564  0.3669
  705MPD2    C110474   1.879   0.464  16.056  0.0627 -0.4819 -0.5459
  705MPD2    C210475   1.775   0.549  16.100 -0.0051 -0.3579 -0.5445
  705MPD2    C310476   1.649   0.493  16.109  0.0071  0.0029  1.3886
  705MPD2    C410477   1.629   0.357  16.088 -0.1885 -0.5237 -0.6311
  705MPD2    C510478   1.728   0.279  16.037 -0.0540 -0.2199  0.4576
  705MPD2     H10479   1.797   0.652  16.128  0.1968 -1.1114  2.1073
  705MPD2    H110480   1.534   0.309  16.107 -0.2338 -1.1569 -2.4481
  705MPD2    H210481   1.928   0.272  15.978 -0.1226 -0.0242 -1.8508
  705MPD2    H310482   1.715   0.173  16.020 -1.4781 -0.0990  0.7554
  705MPD2     N10483   1.537   0.551  16.174  0.1962  0.9991 -0.2350
  705MPD2    H510484   1.459   0.486  16.172  0.5043  0.6050  1.0367
  705MPD2    N110485   2.008   0.521  16.042 -1.0180 -0.2658  0.6353
  705MPD2    H710486   2.005   0.621  16.059  2.2973  0.0368 -0.6810
  706TMC3    C110487   2.477   0.548  15.972 -0.0172  0.5181 -0.1050
  706TMC3    C210488   2.483   0.661  16.051 -0.4107 -0.7343 -0.7499
  706TMC3    C310489   2.375   0.690  16.132 -0.7881 -0.3959  0.2568
  706TMC3    C410490   2.357   0.483  15.948  0.6829  0.6605  0.2230
  706TMC3    C510491   2.249   0.533  16.023 -0.3138 -1.0732 -0.3722
  706TMC3    C610492   2.258   0.632  16.115 -0.0018 -1.2820 -0.0714
  706TMC3     C10493   2.589   0.523  15.883  0.1142 -0.1259  0.4191
  706TMC3     O10494   2.699   0.570  15.910  0.0791  0.0978  0.2950
  706TMC3     H10495   2.572   0.719  16.070 -2.1952  1.7046  0.2352
  706TMC3    H110496   2.347   0.404  15.875 -1.4249  1.5525 -0.4517
  706TMC3    H210497   2.184   0.658  16.190  0.6070 -1.2797  0.5376
  706TMC3    C710498   2.125   0.453  16.019 -1.0432 -0.3605 -0.0951
  706TMC3    C810499   2.372   0.823  16.192  0.4279 -0.3723 -0.1617
  706TMC3    O110500   2.142   0.337  15.986 -0.0900  0.1595 -0.0740
  706TMC3    O210501   2.449   0.855  16.281  0.5615 -0.1405 -0.3896
  707TMC3    C110502   3.153   4.343   0.311  0.7731 -0.1408 -0.1717
  707TMC3    C210503   3.133   4.210   0.275 -0.4429  0.0601 -0.0745
  707TMC3    C310504   3.102   4.184   0.145  0.7617  0.2450  0.2321
  707TMC3    C410505   3.146   4.440   0.222 -1.0609 -0.1405  0.5488
  707TMC3    C510506   3.118   4.409   0.091  0.1648 -0.1546 -0.7276
  707TMC3    C610507   3.094   4.284   0.050  0.3424  0.1686 -0.6185
  707TMC3     C10508   3.201   4.367   0.450  0.2603 -0.9533 -0.1970
  707TMC3     O10509   3.231   4.257   0.504 -0.1345 -0.4450 -0.3671
  707TMC3     H10510   3.130   4.121   0.336  0.9057 -0.4641 -0.7680
  707TMC3    H110511   3.131   4.541   0.258 -1.4760 -0.4009  1.1136
  707TMC3    H210512   3.073   4.249  17.708  0.1573  0.4047 -0.6632
  707TMC3    C710513   3.086   4.519   0.004  0.4381 -0.8201 -0.1785
  707TMC3    C810514   3.076   4.050   0.090 -0.8841  0.1403 -0.2930
  707TMC3    O110515   3.154   4.622   0.005  0.5955  0.3922 -0.0532
  707TMC3    O210516   3.010   4.030  17.746 -0.4691 -0.0990  0.3451
  708MPD2     C10517   0.383   3.958  13.827  0.1917  0.4382  0.3382
  708MPD2    C110518   0.330   4.017  13.940 -0.4111 -0.4842 -0.4800
  708MPD2    C210519   0.385   3.991  14.065  0.1105  0.0512  0.0554
  708MPD2    C310520   0.490   3.900  14.072 -0.5357 -0.0261 -0.8122
  708MPD2    C410521   0.548   3.844  13.962 -0.4186 -0.0558  0.1100
  708MPD2    C510522   0.494   3.873  13.841 -0.1311 -0.0122  0.5030
  708MPD2     H10523   0.349   4.035  14.157 -1.1009  0.2558 -0.5173
  708MPD2    H110524   0.632   3.775  13.968  1.4531  2.3937  1.8290
  708MPD2    H210525   0.354   3.980  13.725  2.1631  0.8447 -0.1252
  708MPD2    H310526   0.552   3.842  13.755 -3.1777 -1.1575 -1.1415
  708MPD2     N10527   0.530   3.875  14.205  0.5036  0.0012 -0.1142
  708MPD2    H510528   0.477   3.918  14.281  1.5624  1.9892 -0.5158
  708MPD2    N110529   0.226   4.108  13.925 -0.3094  0.1163 -0.1449
  708MPD2    H710530   0.191   4.105  13.830  0.1810  1.2292 -0.3684
  709TMC3    C110531   0.049   4.249  13.980 -0.3794  0.3495 -0.6133
  709TMC3    C210532   4.740   4.199  13.862 -0.3738  0.2706 -0.0705
  709TMC3    C310533   4.613   4.159  13.861 -0.2373  0.0089  0.5243
  709TMC3    C410534   4.711   4.264  14.094  0.6529  0.4763  0.1967
  709TMC3    C510535   4.588   4.209  14.093  0.1763  0.0781  0.0138
  709TMC3    C610536   4.536   4.157  13.978  0.3202  0.0241 -0.6397
  709TMC3     C10537   0.177   4.192  14.022 -0.2577 -0.3627 -0.7626
  709TMC3     O10538   0.190   4.194  14.144 -0.2051 -0.4368  0.0648
  709TMC3     H10539   0.066   4.190  13.777  0.1377 -0.9628  0.4543
  709TMC3    H110540   4.739   4.313  14.186 -1.5812  1.6667  0.2507
  709TMC3    H210541   4.432   4.123  13.977  0.3112 -0.0786  3.3454
  709TMC3    C710542   4.560   4.121  14.207 -0.1178  0.1708 -0.6589
  709TMC3    C810543   4.577   4.081  13.742 -0.4063  0.0548 -0.0694
  709TMC3    O110544   4.461   4.054  14.218 -0.5646  0.0568 -0.9397
  709TMC3    O210545   4.501   3.988  13.757 -0.1450  0.2672 -0.0302
  710TMC3    C110546   1.333   4.599   0.331  0.0643  0.7455  0.1154
  710TMC3    C210547   1.428   4.633   0.238  0.0050 -0.4811 -0.5996
  710TMC3    C310548   1.537   4.551   0.221 -0.1711  0.5127  0.5559
  710TMC3    C410549   1.339   4.480   0.403 -0.2188 -0.5649 -0.0113
  710TMC3    C510550   1.452   4.403   0.380  0.9317 -0.3856  0.2901
  710TMC3    C610551   1.560   4.440   0.297  0.2673 -0.4894 -0.0355
  710TMC3     C10552   1.215   4.680   0.328  0.5107  0.9159  0.0707
  710TMC3     O10553   1.180   4.729   0.220  0.2389  0.4672 -0.0538
  710TMC3     H10554   1.421   4.723   0.178 -1.3827 -0.6412 -0.6754
  710TMC3    H110555   1.255   4.461   0.469 -0.4767  1.2287  0.1798
  710TMC3    H210556   1.649   4.380   0.279 -0.4789 -2.3785  2.5246
  710TMC3    C710557   1.462   4.304   0.483  0.4238  0.3742 -0.3765
  710TMC3    C810558   1.651   4.620   0.164 -1.3248 -0.3188  0.4882
  710TMC3    O110559   1.393   4.327   0.580 -0.7487 -0.1915 -0.3849
  710TMC3    O210560   1.632   4.698   0.071  0.0293 -0.8877  0.4277
  711TMC3    C110561   1.146   1.325  14.933 -0.3403  0.3944 -0.2322
  711TMC3    C210562   1.162   1.434  15.010  0.4142  0.5277 -0.0027
  711TMC3    C310563   1.240   1.419  15.120  0.5301  0.1616 -0.1461
  711TMC3    C410564   1.208   1.207  14.957 -0.5212 -0.2338  0.8154
  711TMC3    C510565   1.292   1.198  15.070  0.0031  0.3022  0.1097
  711TMC3    C610566   1.310   1.306  15.156 -0.0825  0.2978  0.5414
  711TMC3     C10567   1.050   1.328  14.833 -0.4507  0.1148  0.0796
  711TMC3     O10568   0.996   1.220  14.819 -0.3893 -0.1170  0.3196
  711TMC3     H10569   1.094   1.519  15.008  0.3583  0.5587  2.3861
  711TMC3    H110570   1.200   1.136  14.876 -3.5994  0.4199  0.5549
  711TMC3    H210571   1.367   1.303  15.248 -0.3769  0.3597  0.7260
  711TMC3    C710572   1.385   1.087  15.091 -0.1738  0.8430  0.2191
  711TMC3    C810573   1.238   1.540  15.206  0.8405 -0.2946  0.2873
  711TMC3    O110574   1.484   1.104  15.159  0.6832  0.0184 -0.1443
  711TMC3    O210575   1.138   1.604  15.204 -0.5824 -0.3038 -0.1485
  712MPD2     C10576   2.479   2.514  13.276 -0.1009 -0.2243 -0.6174
  712MPD2    C110577   2.363   2.508  13.352  0.6770 -0.3965 -0.1258
  712MPD2    C210578   2.333   2.617  13.431 -0.1798  0.0312  0.0068
  712MPD2    C310579   2.417   2.728  13.437 -0.1167  0.7571  0.1702
  712MPD2    C410580   2.538   2.720  13.372 -0.0823 -0.1025 -0.6079
  712MPD2    C510581   2.568   2.620  13.286  0.4531  0.4538  0.0564
  712MPD2     H10582   2.238   2.628  13.482  0.4799  4.5172  0.3082
  712MPD2    H110583   2.614   2.797  13.381  0.4189 -0.5325 -1.1653
  712MPD2    H210584   2.515   2.448  13.198 -2.1470 -1.6760 -0.3461
  712MPD2    H310585   2.656   2.618  13.222  0.2385  2.2276 -0.2830
  712MPD2     N10586   2.388   2.841  13.513 -0.5449  0.0447 -0.1833
  712MPD2    H510587   2.464   2.908  13.516 -1.6992  1.3300  0.4805
  712MPD2    N110588   2.278   2.396  13.347  0.6213 -0.2346 -0.2207
  712MPD2    H710589   2.181   2.401  13.377  1.6647 -1.3353  3.3491
  713TMC3    C110590   2.296   3.004  13.642  0.1139 -0.4692 -0.0092
  713TMC3    C210591   2.423   3.027  13.692  0.1679  0.7715  0.0119
  713TMC3    C310592   2.455   3.157  13.738 -0.0457 -0.7609 -0.5028
  713TMC3    C410593   2.209   3.108  13.622 -0.1116 -0.7824  0.7999
  713TMC3    C510594   2.249   3.230  13.654  0.4326  0.2171  0.0443
  713TMC3    C610595   2.371   3.258  13.716 -0.6215 -0.3078 -0.4521
  713TMC3     C10596   2.269   2.882  13.570  0.4234  0.0522  0.0430
  713TMC3     O10597   2.153   2.846  13.560 -0.2213 -0.1630  0.0524
  713TMC3     H10598   2.487   2.944  13.720  0.0041  0.3225 -0.9645
  713TMC3    H110599   2.105   3.095  13.593  0.5875 -0.6614 -1.7301
  713TMC3    H210600   2.396   3.352  13.764 -1.3542  0.0471 -0.7734
  713TMC3    C710601   2.155   3.336  13.640  0.5899 -0.3251  0.3835
  713TMC3    C810602   2.598   3.193  13.742  0.4391 -0.6612 -0.2375
  713TMC3    O110603   2.041   3.314  13.612  0.5433 -0.3210 -0.0594
  713TMC3    O210604   2.627   3.309  13.754  0.3153  0.3414  0.3694
  714MPD2     C10605   4.432   0.317   1.346 -0.5346 -1.0178 -0.5179
  714MPD2    C110606   4.456   0.440   1.397  0.0728 -0.0783 -0.0404
  714MPD2    C210607   4.358   0.504   1.466 -0.9524 -0.3626 -0.7245
  714MPD2    C310608   4.241   0.442   1.504  0.3284 -0.4001 -0.2693
  714MPD2    C410609   4.230   0.310   1.467 -0.4699 -0.0878  0.4229
  714MPD2    C510610   4.322   0.251   1.388  0.6538 -0.3054  0.3693
  714MPD2     H10611   4.369   0.608   1.493 -1.1961 -0.5263  0.0163
  714MPD2    H110612   4.144   0.253   1.500  0.7085 -1.9123  0.3795
  714MPD2    H210613   4.503   0.261   1.285  2.3284  2.0217  0.0583
  714MPD2    H310614   4.307   0.148   1.356 -1.8419 -0.1647  1.0827
  714MPD2     N10615   4.137   0.506   1.568 -0.2580 -0.1410  0.2969
  714MPD2    H510616   4.046   0.462   1.577 -1.0627  1.1682 -1.5695
  714MPD2    N110617   4.580   0.492   1.362 -0.2740 -0.0964 -0.5522
  714MPD2    H710618   4.646   0.432   1.311  1.4926  0.9206  0.5370
  715TMC3    C110619   0.041   0.607   1.399 -0.5301  0.1607 -0.2347
  715TMC3    C210620   0.105   0.486   1.392  0.4150 -0.6917  0.6949
  715TMC3    C310621   0.236   0.484   1.417  0.2395  0.1541  0.1699
  715TMC3    C410622   0.120   0.719   1.438 -0.0620 -0.1481  0.4215
  715TMC3    C510623   0.253   0.703   1.470  0.6247 -0.3968  1.0045
  715TMC3    C610624   0.313   0.586   1.454 -0.1402 -0.2912  0.0900
  715TMC3     C10625   4.637   0.606   1.416  0.0173  0.3835 -0.3689
  715TMC3     O10626   4.582   0.704   1.465  0.1900  0.1006 -0.2108
  715TMC3     H10627   0.057   0.393   1.361 -0.2377  0.1675 -0.8583
  715TMC3    H110628   0.075   0.817   1.436 -0.3841 -0.3252 -1.2166
  715TMC3    H210629   0.421   0.576   1.463 -0.1763  0.4998  1.4628
  715TMC3    C710630   0.348   0.818   1.492 -0.2713 -0.3066 -0.3021
  715TMC3    C810631   0.308   0.353   1.427 -0.0643 -0.0442 -0.7573
  715TMC3    O110632   0.466   0.799   1.472 -0.1666  0.0137 -0.0156
  715TMC3    O210633   0.249   0.253   1.383  0.3038 -0.0180 -0.2580
  716MPD2     C10634   4.115   4.526  10.130 -0.2211 -0.4938 -0.6796
  716MPD2    C110635   4.078   4.491  10.000 -0.0974 -0.5100  0.4816
  716MPD2    C210636   4.125   4.370   9.955 -0.1112 -0.5401 -0.6450
  716MPD2    C310637   4.219   4.292  10.022  0.2001  0.3351  0.0857
  716MPD2    C410638   4.263   4.339  10.143 -0.6333 -0.3849 -0.4303
  716MPD2    C510639   4.209   4.456  10.204  0.1324 -0.1670 -0.7896
  716MPD2     H10640   4.098   4.332   9.857  1.5347  0.4381 -1.4724
  716MPD2    H110641   4.332   4.273  10.194 -0.3397 -0.0281 -0.3705
  716MPD2    H210642   4.077   4.610  10.187 -2.5169 -0.9592 -1.5256
  716MPD2    H310643   4.237   4.476  10.307 -0.7784 -0.2220 -0.5377
  716MPD2     N10644   4.253   4.166   9.970 -0.4443  0.3000  0.0498
  716MPD2    H510645   4.206   4.135   9.886  1.1458 -0.6369 -0.4705
  716MPD2    N110646   3.991   4.574   9.933 -0.0258 -0.5877  0.3477
  716MPD2    H710647   3.958   4.658   9.981  2.9579  0.0214  1.3812
  717TMC3    C110648   4.370   3.959   9.951  0.1817 -0.5858 -0.0935
  717TMC3    C210649   4.278   3.958   9.852  0.2067 -0.3541 -0.2701
  717TMC3    C310650   4.312   3.931   9.723 -0.2920 -0.1874 -0.7076
  717TMC3    C410651   4.500   3.935   9.918 -0.3569  0.1477 -0.3577
  717TMC3    C510652   4.531   3.898   9.791 -0.3858 -0.2448 -0.2439
  717TMC3    C610653   4.442   3.910   9.689  0.0959 -0.2100  0.2977
  717TMC3     C10654   4.360   4.087  10.018 -0.8342  0.0868 -0.0917
  717TMC3     O10655   4.450   4.104  10.098  0.1501  0.3960  0.2066
  717TMC3     H10656   4.171   3.965   9.871  0.2127 -2.7711  0.6583
  717TMC3    H110657   4.569   3.933  10.002 -1.5311  0.7976  0.6196
  717TMC3    H210658   4.464   3.911   9.583  0.6509  0.2705  0.4216
  717TMC3    C710659   4.653   3.828   9.759 -0.2944 -0.0381  0.2713
  717TMC3    C810660   4.216   3.991   9.634 -0.4763  0.1565  0.8551
  717TMC3    O110661   4.728   3.819   9.857 -0.5562 -0.3928 -0.0305
  717TMC3    O210662   4.152   4.085   9.682 -0.2486 -0.6636  0.0596
  718MPD2     C10663   3.998   2.938  12.959 -0.3951 -0.0334 -0.7100
  718MPD2    C110664   3.916   2.963  12.853  0.8373 -0.1069  0.6588
  718MPD2    C210665   3.865   2.853  12.786 -0.3222 -0.0304 -0.2273
  718MPD2    C310666   3.900   2.719  12.821 -0.0383 -0.0994 -0.3213
  718MPD2    C410667   3.979   2.694  12.927  0.0870 -0.0079 -0.2661
  718MPD2    C510668   4.025   2.812  12.994 -0.6921  0.1020  0.4267
  718MPD2     H10669   3.807   2.859  12.694  2.4199  2.5833 -1.8141
  718MPD2    H110670   4.018   2.596  12.955 -0.5254 -0.8074 -2.2391
  718MPD2    H210671   4.043   3.020  13.014 -0.3991 -0.2278 -0.4191
  718MPD2    H310672   4.092   2.787  13.075 -0.7555  1.9876  1.0439
  718MPD2     N10673   3.841   2.624  12.740  0.0311 -0.1260  0.0193
  718MPD2    H510674   3.771   2.653  12.672 -0.5662 -0.4363  0.5065
  718MPD2    N110675   3.879   3.097  12.823 -0.6411 -0.4822 -0.0367
  718MPD2    H710676   3.947   3.160  12.865  0.1432  0.3633 -2.6357
  719TMC3    C110677   3.765   3.258  12.694  0.1582  0.3762 -0.4091
  719TMC3    C210678   3.660   3.280  12.611  0.3295 -0.1156 -0.2124
  719TMC3    C310679   3.689   3.339  12.481 -0.5570  0.6468  0.1373
  719TMC3    C410680   3.885   3.313  12.658  0.7150  0.0665 -0.5075
  719TMC3    C510681   3.909   3.368  12.535 -0.3213 -0.1000 -0.5514
  719TMC3    C610682   3.812   3.391  12.444  0.2484  0.2177  0.5188
  719TMC3     C10683   3.769   3.123  12.747  0.2144 -0.3179 -0.3943
  719TMC3     O10684   3.683   3.040  12.716  0.5014  0.2916 -0.1516
  719TMC3     H10685   3.563   3.242  12.639  1.2484 -1.7033  0.8135
  719TMC3    H110686   3.971   3.298  12.722 -0.2911 -1.1288  0.5593
  719TMC3    H210687   3.839   3.428  12.346 -1.3890  1.5108  0.5483
  719TMC3    C710688   4.038   3.427  12.507  0.2587  0.0965 -0.6010
  719TMC3    C810689   3.645   3.249  12.382 -0.0219  0.2793 -0.0745
  719TMC3    O110690   4.044   3.519  12.418  0.1335  0.4287 -0.6494
  719TMC3    O210691   3.652   3.290  12.267  0.2251  0.3794 -0.2130
  720MPD2     C10692   2.435   4.550  14.078 -0.2833 -0.5440 -1.2667
  720MPD2    C110693   2.542   4.579  14.001 -0.1458 -0.5799  0.6402
  720MPD2    C210694   2.662   4.583  14.063  0.3290  0.5446  0.1833
  720MPD2    C310695   2.677   4.569  14.198 -0.2665 -0.0207  0.0123
  720MPD2    C410696   2.565   4.553  14.277 -0.4130 -0.2283  0.4307
  720MPD2    C510697   2.442   4.548  14.214  0.2005 -0.1959  0.6260
  720MPD2     H10698   2.758   4.591  14.015 -0.1778  1.6882 -0.6517
  720MPD2    H110699   2.579   4.524  14.380 -0.5286  0.0411  0.5215
  720MPD2    H210700   2.337   4.540  14.032 -1.0089  2.1053 -0.2622
  720MPD2    H310701   2.354   4.538  14.276 -1.3913 -0.2922 -1.6378
  720MPD2     N10702   2.811   4.559  14.253  0.1054  0.1959  0.3631
  720MPD2    H510703   2.887   4.547  14.186 -0.1034  3.6798 -0.5230
  720MPD2    N110704   2.545   4.591  13.858  0.2320  0.3666 -0.1711
  720MPD2    H710705   2.634   4.592  13.809  0.3321  3.1105  0.0799
  721TMC3    C110706   2.986   4.532  14.413 -0.0710 -0.6745  0.4107
  721TMC3    C210707   3.016   4.517  14.549 -0.4474 -0.1008 -0.6241
  721TMC3    C310708   3.126   4.451  14.586 -0.3821 -0.5065  0.5883
  721TMC3    C410709   3.066   4.480  14.314 -0.4542 -0.6025  0.1759
  721TMC3    C510710   3.171   4.401  14.354  0.1022  0.1064  0.6590
  721TMC3    C610711   3.206   4.393  14.489 -0.0087  0.5171 -0.3943
  721TMC3     C10712   2.848   4.573  14.382 -0.0016 -0.4815  0.4162
  721TMC3     O10713   2.774   4.608  14.474 -0.0239  0.1218 -0.6868
  721TMC3     H10714   2.954   4.562  14.626  2.1790 -0.7516  1.9090
  721TMC3    H110715   3.055   4.505  14.209 -1.7680 -0.8087  0.2695
  721TMC3    H210716   3.293   4.333  14.512 -0.4477 -0.4615 -1.2952
  721TMC3    C710717   3.289   4.400  14.268 -0.4103  0.2618 -0.2318
  721TMC3    C810718   3.191   4.467  14.716  0.9124 -0.1244 -0.3136
  721TMC3    O110719   3.299   4.498  14.197 -0.0647  0.4545 -0.1347
  721TMC3    O210720   3.313   4.459  14.722 -0.2869 -0.1148 -0.1093
  722MPD2     C10721   1.303   3.404  13.050  0.4915  0.7894  1.0046
  722MPD2    C110722   1.279   3.538  13.073  0.7045 -0.4154 -0.1731
  722MPD2    C210723   1.160   3.593  13.030  0.2838 -0.8985 -0.0052
  722MPD2    C310724   1.067   3.518  12.958  0.0088  0.2258  0.2707
  722MPD2    C410725   1.095   3.384  12.935 -0.1717 -0.1896  0.4098
  722MPD2    C510726   1.206   3.328  12.987  0.3503 -0.0232 -0.0966
  722MPD2     H10727   1.147   3.698  13.053  1.3245 -0.5492 -1.0223
  722MPD2    H110728   1.035   3.325  12.867 -0.9503 -0.1225  1.0379
  722MPD2    H210729   1.389   3.349  13.084  0.0048  0.3846  1.5855
  722MPD2    H310730   1.230   3.223  12.977  0.5691 -0.1746  2.1946
  722MPD2     N10731   0.944   3.579  12.926 -1.1696  0.3144  0.6733
  722MPD2    H510732   0.926   3.672  12.963 -1.8595  0.2998  0.3793
  722MPD2    N110733   1.375   3.628  13.128  0.2409  0.2355 -0.4163
  722MPD2    H710734   1.344   3.724  13.139 -1.3741 -0.3340 -0.0728
  723TMC3    C110735   0.716   3.601  12.855 -0.2931  0.0399 -0.1950
  723TMC3    C210736   0.613   3.554  12.777 -0.3330 -0.0632 -0.1812
  723TMC3    C310737   0.491   3.618  12.789  0.4430 -0.4645  0.7364
  723TMC3    C410738   0.697   3.705  12.939 -0.1074  0.4515  0.1343
  723TMC3    C510739   0.585   3.777  12.938  0.0662  1.0463 -0.0392
  723TMC3    C610740   0.481   3.736  12.862 -0.4539  0.1752 -0.4552
  723TMC3     C10741   0.839   3.522  12.855 -0.0469 -0.2975  0.1354
  723TMC3     O10742   0.826   3.410  12.804 -0.2308 -0.3088 -0.2273
  723TMC3     H10743   0.625   3.456  12.732  2.2763 -0.7820  2.0981
  723TMC3    H110744   0.771   3.742  13.010  0.0551 -0.7975  0.6191
  723TMC3    H210745   0.385   3.786  12.870  1.2221  2.8971  2.6284
  723TMC3    C710746   0.552   3.855  13.049 -0.2706 -0.5435  0.8873
  723TMC3    C810747   0.365   3.567  12.745  0.4644  0.1575  0.4443
  723TMC3    O110748   0.645   3.916  13.104  0.3063  0.1557  0.5055
  723TMC3    O210749   0.272   3.644  12.740 -0.1273 -0.5640 -0.0222
  724TMC3    C110750   1.198   1.473  10.269  0.0587  0.6824  0.0431
  724TMC3    C210751   1.151   1.595  10.211 -1.0529 -0.2925 -0.7109
  724TMC3    C310752   1.239   1.653  10.121 -0.5719  0.2828  0.2481
  724TMC3    C410753   1.323   1.423  10.239 -0.1272 -0.7097 -0.6562
  724TMC3    C510754   1.401   1.495  10.146 -0.1441  0.2992 -0.2136
  724TMC3    C610755   1.357   1.610  10.085  0.0058 -0.1149  0.7411
  724TMC3     C10756   1.104   1.387  10.351  0.2282  0.1392  0.1538
  724TMC3     O10757   1.153   1.290  10.403  0.1895  0.0120 -0.5040
  724TMC3     H10758   1.048   1.627  10.220  0.0778  2.8323  1.1991
  724TMC3    H110759   1.353   1.328  10.280 -0.7299 -1.1290 -1.1973
  724TMC3    H210760   1.420   1.651  10.007 -1.6151  2.5479  0.8483
  724TMC3    C710761   1.542   1.491  10.147 -0.3810 -0.1572 -0.1818
  724TMC3    C810762   1.192   1.771  10.057  0.5966 -0.7888 -0.2016
  724TMC3    O110763   1.606   1.573  10.082 -0.4310  0.0748 -0.8057
  724TMC3    O210764   1.084   1.767   9.992  0.0457  0.0513  0.4755
  725TMC3    C110765   3.049   0.263  12.742 -0.2828 -0.7194  0.5502
  725TMC3    C210766   2.937   0.270  12.665 -0.2303  0.2283  0.4801
  725TMC3    C310767   2.873   0.153  12.635  0.4004  0.4729  0.2163
  725TMC3    C410768   3.094   0.151  12.802  0.0751  0.0645  0.1219
  725TMC3    C510769   3.039   0.033  12.763  0.0094 -0.2881 -0.6363
  725TMC3    C610770   2.934   0.030  12.673  0.5447  0.5430  0.4725
  725TMC3     C10771   3.130   0.382  12.761  0.0186  0.2440  0.1952
  725TMC3     O10772   3.202   0.380  12.859 -0.7621  0.3145 -0.3434
  725TMC3     H10773   2.885   0.362  12.640 -0.0946  0.7014  2.0025
  725TMC3    H110774   3.179   0.151  12.869 -0.2410 -1.1853  0.5216
  725TMC3    H210775   2.872   4.683  12.656  0.7290  0.6390 -0.7169
  725TMC3    C710776   3.126   4.657  12.778 -0.6447  0.0283 -0.3881
  725TMC3    C810777   2.774   0.158  12.522 -0.7688  0.4814  0.2027
  725TMC3    O110778   3.224   4.677  12.845  0.2828  0.2211  0.2113
  725TMC3    O210779   2.705   0.061  12.514  0.4178 -0.0786 -0.1341
  726MPD2     C10780   0.581   2.610  10.071 -0.1946 -0.2790 -0.1779
  726MPD2    C110781   0.627   2.614  10.201 -0.6154  1.2198 -0.6123
  726MPD2    C210782   0.639   2.499  10.278  0.5132  0.3033 -0.2838
  726MPD2    C310783   0.583   2.384  10.232  0.6646 -0.2261 -0.7532
  726MPD2    C410784   0.526   2.382  10.104 -0.5287  0.6327  0.6070
  726MPD2    C510785   0.518   2.497  10.035  0.5249 -0.2256  0.0081
  726MPD2     H10786   0.694   2.495  10.372 -0.8919  1.1357  0.5851
  726MPD2    H110787   0.485   2.291  10.062 -1.1469  2.0657 -1.8815
  726MPD2    H210788   0.576   2.694  10.002 -2.1986  0.2804  0.6454
  726MPD2    H310789   0.482   2.482   9.934  0.4798  2.4925 -0.3921
  726MPD2     N10790   0.583   2.259  10.297 -0.0700 -0.3716  0.1552
  726MPD2    H510791   0.536   2.180  10.254 -2.0999  2.1430 -2.2267
  726MPD2    N110792   0.673   2.730  10.269  0.6726  0.2054  0.3972
  726MPD2    H710793   0.700   2.720  10.366  0.2028 -0.1950  0.4858
  727TMC3    C110794   0.718   2.961  10.303 -0.2881 -0.9840  0.4616
  727TMC3    C210795   0.825   2.941  10.379 -0.2857 -0.3129  0.6231
  727TMC3    C310796   0.857   3.040  10.468  0.3111  0.2912 -0.3794
  727TMC3    C410797   0.642   3.078  10.305 -0.0091 -0.3721  0.3351
  727TMC3    C510798   0.669   3.170  10.401  0.1730 -0.5879 -0.2772
  727TMC3    C610799   0.777   3.152  10.484 -0.7773 -0.6020 -0.5984
  727TMC3     C10800   0.672   2.857  10.214  0.0867  0.4589 -0.5797
  727TMC3     O10801   0.656   2.897  10.104 -0.7558 -0.2877  0.2273
  727TMC3     H10802   0.888   2.854  10.361 -0.6059 -0.7439  1.5492
  727TMC3    H110803   0.560   3.088  10.236  1.3503  2.7254 -0.8291
  727TMC3    H210804   0.810   3.221  10.560 -0.1639 -2.3799  0.7567
  727TMC3    C710805   0.568   3.268  10.438  0.0029  1.0275  0.2856
  727TMC3    C810806   0.984   3.023  10.537  0.2058 -0.5177 -0.8183
  727TMC3    O110807   0.599   3.362  10.505  0.5272  0.3158 -0.4049
  727TMC3    O210808   1.024   2.903  10.537 -0.4178  0.1812 -0.5783
  728TMC3    C110809   0.721   0.381  15.203  0.2214  0.2189 -0.6678
  728TMC3    C210810   0.845   0.402  15.144 -0.5794  0.2054  0.1721
  728TMC3    C310811   0.843   0.429  15.014 -0.3480  0.3004  0.6163
  728TMC3    C410812   0.602   0.372  15.134 -0.7069  0.1465 -0.0834
  728TMC3    C510813   0.611   0.404  15.000  0.0861 -0.5031 -0.1458
  728TMC3    C610814   0.730   0.436  14.940 -0.4029 -0.3065  0.2890
  728TMC3     C10815   0.722   0.359  15.352 -0.6316 -0.4789  0.5181
  728TMC3     O10816   0.825   0.405  15.403  0.0791 -0.2572  0.0529
  728TMC3     H10817   0.933   0.426  15.203  0.6916  0.4973 -1.8458
  728TMC3    H110818   0.507   0.365  15.186 -0.1537  1.8548  1.1900
  728TMC3    H210819   0.744   0.442  14.833  0.9262  0.9869  0.5434
  728TMC3    C710820   0.483   0.415  14.931  0.0330  0.4296  0.0500
  728TMC3    C810821   0.976   0.430  14.954 -0.3078 -0.4232  0.5224
  728TMC3    O110822   0.396   0.337  14.973 -0.4069 -0.0994  0.9705
  728TMC3    O210823   0.995   0.489  14.852 -0.1865  0.5398  0.3521
  729MPD2     C10824   2.768   1.090  17.024  0.4224 -0.2572  0.3692
  729MPD2    C110825   2.907   1.108  17.013 -0.3943 -0.5086 -0.5422
  729MPD2    C210826   2.985   1.121  17.121 -0.2709 -0.4849 -0.1362
  729MPD2    C310827   2.927   1.118  17.249  0.1704  0.0975  0.0845
  729MPD2    C410828   2.789   1.106  17.259 -0.3219  0.9248  1.0076
  729MPD2    C510829   2.711   1.079  17.155 -0.1867  0.1783  0.3772
  729MPD2     H10830   3.090   1.141  17.106 -0.6335  0.5870 -1.2297
  729MPD2    H110831   2.748   1.102  17.359  0.1618 -0.1537  1.1644
  729MPD2    H210832   2.720   1.076  16.928 -0.5242  1.8288  0.5454
  729MPD2    H310833   2.605   1.058  17.160 -0.5762  1.9727 -0.2973
  729MPD2     N10834   2.997   1.134  17.368 -0.7281  0.4129 -0.2937
  729MPD2    H510835   2.947   1.161  17.452 -1.4901 -0.0374 -0.6014
  729MPD2    N110836   2.960   1.128  16.881 -0.0746  0.0580 -0.1094
  729MPD2    H710837   2.894   1.147  16.806 -0.5647  1.2204  0.6177
  730TMC3    C110838   3.183   1.213  17.486  0.5927  0.0761 -0.4394
  730TMC3    C210839   3.318   1.224  17.502 -0.5040 -1.0805  0.1899
  730TMC3    C310840   3.366   1.319  17.593  1.0654  0.0393  0.0356
  730TMC3    C410841   3.099   1.290  17.563  0.3262  0.2125  0.2799
  730TMC3    C510842   3.142   1.392  17.638 -0.4924 -0.0279  0.2809
  730TMC3    C610843   3.277   1.403  17.664 -0.3175 -0.1931 -0.2626
  730TMC3     C10844   3.134   1.137  17.373  0.1973  0.6249  0.2489
  730TMC3     O10845   3.208   1.076  17.297  0.0575  0.3375  0.4922
  730TMC3     H10846   3.383   1.174  17.431 -0.3038  0.7193 -0.8654
  730TMC3    H110847   2.992   1.289  17.542  0.5284 -2.5696 -0.6966
  730TMC3    H210848   3.315   1.481  17.730 -0.5590  0.8640 -1.3724
  730TMC3    C710849   3.098   1.513  17.579  0.1207  0.2905  0.1042
  730TMC3    C810850   3.460   1.390  17.513  0.5493  0.0925 -0.9229
  730TMC3    O110851   3.050   1.508  17.466 -0.2628  0.1987  0.1049
  730TMC3    O210852   3.450   1.393  17.390 -0.3481  0.7010 -0.3411
  731MPD2     C10853   2.482   4.318  12.453 -0.6756 -0.1948  0.3732
  731MPD2    C110854   2.617   4.327  12.487 -0.1980 -0.9803  0.6932
  731MPD2    C210855   2.662   4.268  12.608 -0.1165 -0.5196 -0.1278
  731MPD2    C310856   2.573   4.209  12.694  0.4270 -0.0274  0.6694
  731MPD2    C410857   2.440   4.194  12.657  0.3965 -0.0844  0.0794
  731MPD2    C510858   2.400   4.255  12.537 -0.1171  0.5112 -0.4447
  731MPD2     H10859   2.768   4.283  12.626  0.0573  0.7103 -2.1658
  731MPD2    H110860   2.368   4.153  12.727  0.7046  0.4178  0.6926
  731MPD2    H210861   2.438   4.374  12.372  3.2718  1.4577 -0.6585
  731MPD2    H310862   2.293   4.248  12.524 -0.0898 -0.8627  0.1479
  731MPD2     N10863   2.613   4.179  12.824  0.3183 -0.5700  0.6262
  731MPD2    H510864   2.714   4.183  12.837  0.6810  2.1653 -3.1750
  731MPD2    N110865   2.703   4.398  12.404  1.0368 -0.4667  0.0821
  731MPD2    H710866   2.666   4.421  12.313  2.1121  1.4218  0.1118
  732TMC3    C110867   2.884   4.511  12.319 -0.4923  0.5821  0.2093
  732TMC3    C210868   2.810   4.523  12.202 -0.4121  0.5312 -0.2144
  732TMC3    C310869   2.840   4.637  12.124  0.5411 -0.1956  0.8497
  732TMC3    C410870   2.982   4.595  12.349 -0.3148  0.2968  0.4741
  732TMC3    C510871   3.005   4.706  12.268 -0.6920 -0.0704 -0.2829
  732TMC3    C610872   2.939   4.731  12.150 -0.0469  0.4847  0.0946
  732TMC3     C10873   2.827   4.447  12.430 -0.7830 -0.3541 -0.0019
  732TMC3     O10874   2.881   4.463  12.539  0.2789  0.2886 -1.0258
  732TMC3     H10875   2.727   4.454  12.189  0.6775 -0.5151 -1.6234
  732TMC3    H110876   3.038   4.576  12.440  0.3093  0.0284  0.0352
  732TMC3    H210877   2.959   0.075  12.085  1.1287  0.5700  0.5653
  732TMC3    C710878   3.096   0.068  12.320 -0.8841 -0.1203  0.4705
  732TMC3    C810879   2.791   4.633  11.988  0.2939 -0.1821  0.2021
  732TMC3    O110880   3.089   0.185  12.294 -0.0555  0.1723  0.8383
  732TMC3    O210881   2.865   4.684  11.905  0.3925  0.0831 -0.1246
  733TMC3    C110882   3.530   2.324  12.699 -0.2326 -0.3825  0.0050
  733TMC3    C210883   3.656   2.347  12.762 -0.1479  0.4399  0.1226
  733TMC3    C310884   3.750   2.412  12.687  0.5783  0.2643  0.0922
  733TMC3    C410885   3.503   2.368  12.568 -0.6052 -0.2094  0.2601
  733TMC3    C510886   3.601   2.443  12.502 -0.1762  0.3008 -0.1574
  733TMC3    C610887   3.720   2.468  12.567  0.3968 -0.2439  0.0603
  733TMC3     C10888   3.419   2.330  12.792 -0.9560 -0.4394  0.5058
  733TMC3     O10889   3.311   2.369  12.743  0.2528 -0.0074  0.3311
  733TMC3     H10890   3.676   2.328  12.867 -1.2062  0.9544  0.4232
  733TMC3    H110891   3.405   2.353  12.525 -0.3870 -0.8176 -0.0323
  733TMC3    H210892   3.785   2.540  12.519 -0.9053  1.1405  0.3718
  733TMC3    C710893   3.546   2.538  12.409  0.0798  0.8536 -0.3851
  733TMC3    C810894   3.842   2.488  12.770  0.0212  0.3962  0.0869
  733TMC3    O110895   3.466   2.497  12.326 -0.3370 -0.0310  0.2052
  733TMC3    O210896   3.881   2.437  12.874  0.3911  0.3357 -0.0116
  734MPD2     C10897   0.415   0.326  12.332  0.0974  0.0519 -0.1873
  734MPD2    C110898   0.382   0.224  12.246  0.1654 -0.2016 -0.0890
  734MPD2    C210899   0.388   0.241  12.113 -0.2904  0.3462  0.8107
  734MPD2    C310900   0.444   0.361  12.061  0.6013  0.1563  0.0900
  734MPD2    C410901   0.477   0.461  12.146  0.6282 -0.3491 -0.0301
  734MPD2    C510902   0.455   0.446  12.284 -0.3234  0.3723 -0.7595
  734MPD2     H10903   0.359   0.160  12.046 -2.2963  0.3869  1.6166
  734MPD2    H110904   0.486   0.558  12.097  2.1453 -0.1892  0.5675
  734MPD2    H210905   0.410   0.317  12.440 -0.2594 -3.5632 -0.5052
  734MPD2    H310906   0.476   0.536  12.341 -2.2897  0.2111  0.2393
  734MPD2     N10907   0.451   0.365  11.920 -0.2210 -0.3595  0.3238
  734MPD2    H510908   0.407   0.290  11.867 -0.0609  2.0002 -3.1144
  734MPD2    N110909   0.337   0.109  12.315 -0.5721 -0.9975  0.2792
  734MPD2    H710910   0.353   0.102  12.415  4.1675 -1.0450 -0.4906
  735TMC3    C110911   0.285   4.614  12.334 -0.9506 -0.1143  0.6185
  735TMC3    C210912   0.240   4.510  12.262 -0.1761 -0.5085 -0.0425
  735TMC3    C310913   0.312   4.395  12.245  0.0559  0.4072 -1.0656
  735TMC3    C410914   0.400   4.595  12.407 -0.0530 -0.0940 -0.6748
  735TMC3    C510915   0.464   4.475  12.404  0.1564  0.0383 -0.4031
  735TMC3    C610916   0.431   4.379  12.316 -0.2350  0.4986  0.1963
  735TMC3     C10917   0.292   4.736  12.250 -0.0349  0.3860 -0.1297
  735TMC3     O10918   0.233   4.730  12.142 -0.1546 -0.3255  0.3879
  735TMC3     H10919   0.146   4.523  12.211 -1.2528 -1.8641  1.6046
  735TMC3    H110920   0.447   4.674  12.464 -1.2479  0.0556  0.1077
  735TMC3    H210921   0.477   4.282  12.304 -1.2105  0.2531 -1.6112
  735TMC3    C710922   0.603   4.476  12.449  0.1103 -0.3611  0.6752
  735TMC3    C810923   0.333   4.356  12.107 -0.4391 -0.1163 -0.0024
  735TMC3    O110924   0.658   4.578  12.473 -0.1540  0.2278 -0.9767
  735TMC3    O210925   0.392   4.250  12.091  0.0545 -0.0951 -0.3965
  736MPD2     C10926   0.831   4.200  12.546 -0.0918  0.0040  0.3774
  736MPD2    C110927   0.785   4.310  12.472  0.1156 -0.6000 -0.3357
  736MPD2    C210928   0.871   4.389  12.397  0.4208  0.1955 -0.3332
  736MPD2    C310929   1.004   4.358  12.392 -0.1789  0.6285 -0.1819
  736MPD2    C410930   1.055   4.250  12.473 -0.4230  0.2082 -0.4321
  736MPD2    C510931   0.965   4.177  12.548 -0.3086 -0.9277 -0.0710
  736MPD2     H10932   0.826   4.470  12.340  2.6613  1.4932 -0.2507
  736MPD2    H110933   1.159   4.221  12.482 -0.1840  0.3831 -2.6055
  736MPD2    H210934   0.766   4.145  12.614 -0.5634 -1.0674 -0.9261
  736MPD2    H310935   1.004   4.098  12.611  0.3251 -1.0542 -0.6257
  736MPD2     N10936   1.096   4.427  12.309  0.0864  0.0201 -0.3265
  736MPD2    H510937   1.188   4.385  12.308  0.6099  1.1445 -0.3212
  736MPD2    N110938   0.648   4.347  12.474 -0.0543  0.4044 -0.6445
  736MPD2    H710939   0.580   4.273  12.489 -0.0606  0.4992 -0.2090
  737TMC3    C110940   1.179   4.597  12.143 -0.2293 -0.3950  0.4011
  737TMC3    C210941   1.180   4.734  12.110  0.1147  0.2780 -0.6708
  737TMC3    C310942   1.226   0.039  11.985 -0.7339  0.1202 -0.1592
  737TMC3    C410943   1.236   4.511  12.052 -0.3596 -0.4471 -0.4827
  737TMC3    C510944   1.275   4.555  11.931 -0.2559  0.1565 -0.0666
  737TMC3    C610945   1.275   4.688  11.893  0.3727 -0.3967  0.1174
  737TMC3     C10946   1.071   4.546  12.236 -0.1198 -0.0051 -0.3612
  737TMC3     O10947   0.973   4.620  12.237 -0.0346  0.1132  0.4648
  737TMC3     H10948   1.119   0.063  12.167 -0.1141 -0.9514  0.5809
  737TMC3    H110949   1.225   4.407  12.082  2.2213 -0.7876 -0.7130
  737TMC3    H210950   1.283   4.710  11.787 -1.9553  2.2704  0.4797
  737TMC3    C710951   1.355   4.464  11.854 -0.6376 -0.8878 -0.2808
  737TMC3    C810952   1.251   0.180  11.971  0.1781 -0.7090 -0.0942
  737TMC3    O110953   1.376   4.355  11.906 -0.6290  0.1184  0.0861
  737TMC3    O210954   1.212   0.256  12.059  0.0857 -0.3791  0.5665
  738MPD2     C10955   1.751   3.582  15.075 -0.4633  0.0123  0.2756
  738MPD2    C110956   1.710   3.534  14.958 -0.3428 -0.4624  0.6160
  738MPD2    C210957   1.783   3.580  14.847 -0.3672  0.3548 -0.6389
  738MPD2    C310958   1.882   3.674  14.855  0.3073  0.3707  0.4591
  738MPD2    C410959   1.907   3.726  14.981 -0.4379  0.5826  0.4481
  738MPD2    C510960   1.846   3.679  15.088  0.5855  0.1897  0.3835
  738MPD2     H10961   1.761   3.536  14.750  0.0177  0.5718 -0.8259
  738MPD2    H110962   1.993   3.790  14.998  0.1655  0.0093 -0.4136
  738MPD2    H210963   1.717   3.546  15.172  1.0781 -0.6656  0.5732
  738MPD2    H310964   1.874   3.716  15.185  2.8407 -1.0576  0.2300
  738MPD2     N10965   1.967   3.732  14.757 -0.3937 -0.5706  0.5125
  738MPD2    H510966   2.043   3.789  14.791  0.5940 -1.3261 -0.4322
  738MPD2    N110967   1.605   3.436  14.943  0.0623 -0.8138  0.1710
  738MPD2    H710968   1.565   3.412  14.853  3.0252  0.5692 -1.5092
  739TMC3    C110969   2.051   3.789  14.548  0.3047  0.3519 -0.4725
  739TMC3    C210970   2.019   3.849  14.430  0.0513 -1.1272 -0.3490
  739TMC3    C310971   2.125   3.898  14.356 -0.3099  0.0847 -0.3900
  739TMC3    C410972   2.181   3.786  14.598 -0.8022  0.0824  0.4618
  739TMC3    C510973   2.282   3.827  14.517 -0.0526 -0.0451  0.3652
  739TMC3    C610974   2.255   3.876  14.393  0.6396  0.3514 -0.2438
  739TMC3     C10975   1.943   3.727  14.619 -0.4139 -0.0657 -1.1606
  739TMC3     O10976   1.837   3.709  14.563  0.5197  0.5727  0.3578
  739TMC3     H10977   1.915   3.839  14.401 -0.1850  0.8913 -0.1835
  739TMC3    H110978   2.205   3.734  14.690 -0.1354 -0.8597 -0.2508
  739TMC3    H210979   2.335   3.904  14.325  0.4685 -1.5220 -1.2156
  739TMC3    C710980   2.419   3.823  14.566  0.4912  0.2003 -0.6353
  739TMC3    C810981   2.093   3.935  14.221 -0.3861 -0.0808  0.0768
  739TMC3    O110982   2.510   3.811  14.483  0.5236  0.9891 -0.1848
  739TMC3    O210983   1.980   3.905  14.186 -0.5128  0.0473  0.3460
  740TMC3    C110984   2.568   0.203  14.069 -0.0755 -0.9173 -0.4348
  740TMC3    C210985   2.645   0.186  14.181  0.1243 -0.5586  0.1049
  740TMC3    C310986   2.773   0.162  14.163  0.7359 -0.7159  0.3572
  740TMC3    C410987   2.629   0.203  13.944  0.0066 -0.1680  0.5569
  740TMC3    C510988   2.756   0.171  13.930  0.6067  0.7553 -0.0707
  740TMC3    C610989   2.834   0.145  14.044 -0.6269 -0.5036  0.0398
  740TMC3     C10990   2.425   0.233  14.080  0.7080 -0.1638  0.7464
  740TMC3     O10991   2.371   0.250  13.971 -0.1981 -0.0426  0.1335
  740TMC3     H10992   2.616   0.183  14.285 -1.0724 -1.2606 -0.2486
  740TMC3    H110993   2.574   0.230  13.855  1.0761  0.4573  0.0752
  740TMC3    H210994   2.940   0.122  14.037 -0.0424  2.6042 -1.3144
  740TMC3    C710995   2.807   0.106  13.810 -0.7838 -0.2012 -0.5201
  740TMC3    C810996   2.863   0.193  14.277 -0.4771 -0.8165 -0.6681
  740TMC3    O110997   2.861   4.738  13.810 -0.1652  0.1752 -0.1839
  740TMC3    O210998   2.962   0.120  14.292  0.0562 -0.5308  0.7246
  741TMC3    C110999   1.609   4.721  13.375 -0.0259 -0.5268  0.0920
  741TMC3    C211000   1.586   4.672  13.503 -0.3074 -0.4092  0.6934
  741TMC3    C311001   1.687   4.612  13.568  0.5527 -0.5415  0.3823
  741TMC3    C411002   1.735   4.728  13.323 -1.0708  0.1178  0.0030
  741TMC3    C511003   1.836   4.672  13.395 -0.1601  0.1747  0.1218
  741TMC3    C611004   1.817   4.618  13.522  0.0064 -0.3631 -0.1839
  741TMC3     C11005   1.505   0.031  13.289 -0.4028 -0.4772 -0.4964
  741TMC3     O11006   1.529   0.054  13.173 -0.3382  0.4604 -0.0561
  741TMC3     H11007   1.487   4.661  13.544 -0.0902  0.0349  1.3410
  741TMC3    H111008   1.753   0.023  13.222 -2.9529 -1.0087 -0.7208
  741TMC3    H211009   1.892   4.554  13.568 -0.1427 -0.6273 -0.3096
  741TMC3    C711010   1.958   4.637  13.322  0.4902  0.4304 -0.1493
  741TMC3    C811011   1.652   4.540  13.689 -0.3316  0.4575 -0.7629
  741TMC3    O111012   1.957   4.678  13.207  0.2611 -0.6629 -0.0065
  741TMC3    O211013   1.533   4.528  13.715 -0.1435  0.0822  0.0476
  742TMC3    C111014   1.413   2.334  15.501  0.1411  0.4579  0.0046
  742TMC3    C211015   1.363   2.450  15.458 -0.0964 -0.0894 -0.1729
  742TMC3    C311016   1.448   2.539  15.405 -0.9216  0.4445  0.3464
  742TMC3    C411017   1.545   2.308  15.498 -0.2902  0.3390 -0.6892
  742TMC3    C511018   1.635   2.395  15.445  0.4228  0.6265  0.8078
  742TMC3    C611019   1.588   2.511  15.401 -0.3861  0.4462 -0.3651
  742TMC3     C11020   1.335   2.230  15.455  0.4334 -0.1168 -1.0137
  742TMC3     O11021   1.368   2.174  15.350  0.4504  0.0527 -0.9826
  742TMC3     H11022   1.255   2.454  15.452  0.0657 -0.6408 -3.1487
  742TMC3    H111023   1.591   2.210  15.505  0.6915  0.8632  0.3432
  742TMC3    H211024   1.657   2.589  15.371 -0.2234  0.9310  1.2931
  742TMC3    C711025   1.783   2.384  15.482  0.1842 -0.8099 -0.2961
  742TMC3    C811026   1.398   2.597  15.283 -0.0790  0.0671  0.1762
  742TMC3    O111027   1.863   2.470  15.435  0.3009  0.8764 -0.3332
  742TMC3    O211028   1.308   2.538  15.227  0.0748  0.2938  0.3454
  743MPD2     C11029   3.429   3.746   1.005 -0.0840  0.3990  0.0496
  743MPD2    C111030   3.508   3.643   0.957  0.6073 -0.8396  0.5816
  743MPD2    C211031   3.635   3.633   1.004 -0.0635  0.1463 -0.7421
  743MPD2    C311032   3.682   3.717   1.101 -0.8998 -0.4617  0.7694
  743MPD2    C411033   3.603   3.813   1.164  0.3771 -0.3389  0.4087
  743MPD2    C511034   3.475   3.820   1.117  0.4311 -0.8464 -0.6605
  743MPD2     H11035   3.708   3.563   0.966  1.0011  0.3841  0.8314
  743MPD2    H111036   3.626   3.864   1.257  3.0437  0.6309 -0.7795
  743MPD2    H211037   3.324   3.762   0.987  0.2102 -0.8464 -2.6835
  743MPD2    H311038   3.412   3.891   1.169  2.2913 -0.0558  0.5110
  743MPD2     N11039   3.818   3.708   1.132 -0.2981 -0.5273 -0.1710
  743MPD2    H511040   3.872   3.633   1.090 -0.1642  0.0341 -1.0110
  743MPD2    N111041   3.449   3.548   0.869  0.1457  0.2560  0.2511
  743MPD2    H711042   3.352   3.557   0.840  0.2258  1.2336  0.3118
  744TMC3    C111043   3.478   3.377   0.690 -0.2264  0.3095  0.0118
  744TMC3    C211044   3.387   3.448   0.618  0.1884  0.1116 -0.7735
  744TMC3    C311045   3.377   3.423   0.480 -0.3346 -0.2666  0.4084
  744TMC3    C411046   3.573   3.293   0.636  0.0105 -0.6088  0.2613
  744TMC3    C511047   3.568   3.277   0.499  0.5556 -0.1805 -0.2384
  744TMC3    C611048   3.464   3.337   0.421  0.2486  0.1721  0.3436
  744TMC3     C11049   3.515   3.433   0.822  0.1291  0.5143  0.5087
  744TMC3     O11050   3.598   3.377   0.887 -0.1712  0.0668 -0.7708
  744TMC3     H11051   3.308   3.508   0.662  1.2244  2.0681 -1.6053
  744TMC3    H111052   3.658   3.255   0.691  1.8191  0.8425 -1.5404
  744TMC3    H211053   3.478   3.347   0.313  2.1279  0.1493  0.5734
  744TMC3    C711054   3.681   3.226   0.429  0.0758  0.6157  0.6632
  744TMC3    C811055   3.326   3.542   0.412  0.6418  0.1360 -0.1496
  744TMC3    O111056   3.787   3.237   0.482  0.4684 -0.0534 -0.5737
  744TMC3    O211057   3.309   3.638   0.485  0.3625  0.0881  0.0428
  745TMC3    C111058   2.157   2.225  13.245 -0.0629  0.2810  0.6440
  745TMC3    C211059   2.067   2.273  13.340  0.6257 -0.6901  0.4260
  745TMC3    C311060   1.949   2.323  13.304  0.2975 -0.3059  0.6134
  745TMC3    C411061   2.119   2.235  13.112 -0.5216 -0.9850  0.0254
  745TMC3    C511062   2.003   2.303  13.078  0.2692  0.3382  0.3534
  745TMC3    C611063   1.918   2.350  13.175 -0.7369  0.3798 -0.1250
  745TMC3     C11064   2.290   2.288  13.267 -0.3019 -0.5571  1.4402
  745TMC3     O11065   2.365   2.269  13.173  0.0362 -0.6681  0.6060
  745TMC3     H11066   2.096   2.257  13.444  2.7026  0.6648  0.0664
  745TMC3    H111067   2.182   2.189  13.037 -0.8550  0.0777 -0.9090
  745TMC3    H211068   1.823   2.394  13.148 -0.8822 -0.3885 -0.9035
  745TMC3    C711069   2.016   2.400  12.970  0.5193  0.6527 -0.2614
  745TMC3    C811070   1.861   2.386  13.401  0.4858  0.4359 -0.3061
  745TMC3    O111071   1.921   2.445  12.912 -0.3199  0.3583 -0.3191
  745TMC3    O211072   1.745   2.409  13.369  0.8546  0.6582 -0.2377
  746TMC3    C111073   4.537   4.718  11.355  0.2914 -0.3069  0.7055
  746TMC3    C211074   4.634   4.685  11.269  0.2057 -0.5218 -1.2436
  746TMC3    C311075   4.602   4.595  11.174  0.1250  0.0485 -0.1503
  746TMC3    C411076   4.416   4.639  11.363  0.4326 -0.8133  0.0355
  746TMC3    C511077   4.396   4.541  11.267  0.5654 -0.1934  0.2485
  746TMC3    C611078   4.488   4.526  11.165 -0.3488  0.4836 -0.8780
  746TMC3     C11079   4.504   0.116  11.367  0.6185  0.3785 -0.5591
  746TMC3     O11080   4.410   0.146  11.442 -0.1002  0.5349  0.2723
  746TMC3     H11081   4.725   0.004  11.277  1.6365 -2.4786 -2.9264
  746TMC3    H111082   4.333   4.678  11.421  0.2992 -1.1252  0.0508
  746TMC3    H211083   4.467   4.440  11.103 -1.7181 -1.1338  1.8385
  746TMC3    C711084   4.258   4.493  11.242  0.1043 -0.4848  0.7223
  746TMC3    C811085   4.691   4.589  11.060 -0.0967 -0.1071  0.0577
  746TMC3    O111086   4.234   4.461  11.130  0.0714 -0.3515  0.1749
  746TMC3    O211087   0.060   4.645  11.066  0.2785 -0.5633 -0.4205
  747TMC3    C111088   2.051   4.684  11.062  0.5599  0.2648  0.1101
  747TMC3    C211089   1.998   4.580  11.139 -0.4968  1.1826 -0.4732
  747TMC3    C311090   1.931   4.613  11.252 -0.1433  0.3728  0.7481
  747TMC3    C411091   2.044   0.076  11.094  0.6099  0.0513  0.1823
  747TMC3    C511092   1.977   0.104  11.209  0.8145 -0.3668  0.3177
  747TMC3    C611093   1.926   0.009  11.293 -0.4214  0.5232  0.1737
  747TMC3     C11094   2.118   4.651  10.932 -0.7849  0.2235 -0.0556
  747TMC3     O11095   2.203   4.729  10.887  0.4014 -0.0882 -0.4174
  747TMC3     H11096   2.027   4.481  11.106 -0.0089  0.7436  1.2732
  747TMC3    H111097   2.087   0.146  11.024 -1.5299  0.8864 -0.2902
  747TMC3    H211098   1.889   0.034  11.392 -1.0269  1.3793 -0.2734
  747TMC3    C711099   1.949   0.244  11.235  0.0031  0.9069 -1.3397
  747TMC3    C811100   1.873   4.505  11.327  0.3861 -0.6039 -0.1793
  747TMC3    O111101   1.900   0.272  11.343 -0.0097 -0.1238  0.6054
  747TMC3    O211102   1.912   4.390  11.300 -0.4248  0.2091  0.1961
  748MPD2     C11103   3.133   4.722   1.722  0.4534  0.0987 -0.0568
  748MPD2    C111104   3.184   4.719   1.591  0.4877  0.0241 -0.9318
  748MPD2    C211105   3.317   4.691   1.577  0.7203  0.1469 -0.8959
  748MPD2    C311106   3.402   4.684   1.685 -0.2001  0.1734 -0.6264
  748MPD2    C411107   3.354   4.700   1.814 -0.3695  0.4027 -0.5624
  748MPD2    C511108   3.222   4.709   1.829 -0.1249 -0.0871  0.3570
  748MPD2     H11109   3.355   4.676   1.477 -2.7007  1.5253 -2.3791
  748MPD2    H111110   3.420   4.695   1.900 -0.4143  3.1601 -0.3801
  748MPD2    H211111   3.030   0.007   1.740  0.6130  1.2115 -0.7135
  748MPD2    H311112   3.181   4.715   1.930 -0.9838 -1.8363  0.1021
  748MPD2     N11113   3.534   4.654   1.651 -0.9486 -0.4729  0.0658
  748MPD2    H511114   3.554   4.643   1.553 -1.9693  0.9616 -0.3177
  748MPD2    N111115   3.098   4.714   1.479 -0.0835  0.4067  0.1395
  748MPD2    H711116   3.002   4.738   1.500 -0.3625  0.9066 -1.6730
  749TMC3    C111117   3.748   4.569   1.646 -0.3734  0.6867  0.3621
  749TMC3    C211118   3.812   4.452   1.665  0.2992 -0.2695 -0.1747
  749TMC3    C311119   3.915   4.417   1.580 -0.3679 -0.1441  0.0775
  749TMC3    C411120   3.776   4.651   1.536  0.7748  0.2102 -0.5551
  749TMC3    C511121   3.881   4.613   1.452  0.1824  0.8004 -0.0770
  749TMC3    C611122   3.952   4.500   1.475  0.0484  0.8931  0.4577
  749TMC3     C11123   3.632   4.607   1.733 -0.0472 -0.2461 -0.8815
  749TMC3     O11124   3.617   4.548   1.844  0.2999 -0.3491 -0.3385
  749TMC3     H11125   3.793   4.383   1.746  0.5785  0.4970  0.5468
  749TMC3    H111126   3.729   0.008   1.526  0.8648  0.1291 -1.7887
  749TMC3    H211127   4.040   4.471   1.420  0.9968 -1.1042  3.0329
  749TMC3    C711128   3.933   4.718   1.363  0.2831 -0.9836 -0.1307
  749TMC3    C811129   4.007   4.310   1.631 -0.3236  0.1116 -0.7854
  749TMC3    O111130   3.885   0.091   1.353  0.1559  0.0827  0.1450
  749TMC3    O211131   4.016   4.281   1.750  0.9614 -0.1374 -0.4711
  750MPD2     C11132   0.232   2.013  11.386  0.5037 -0.2119 -0.3444
  750MPD2    C111133   0.099   2.024  11.412 -0.0201  0.3524 -0.2240
  750MPD2    C211134   0.015   1.929  11.351  0.4735 -0.0961  0.8018
  750MPD2    C311135   0.056   1.834  11.263  0.4386 -0.3824 -0.1571
  750MPD2    C411136   0.190   1.827  11.247  0.3844  0.6501 -0.0111
  750MPD2    C511137   0.277   1.916  11.301  0.0039  0.4471 -0.1888
  750MPD2     H11138   4.650   1.936  11.375  0.1644 -1.8573 -0.0620
  750MPD2    H111139   0.241   1.758  11.181 -0.7820 -0.6791  0.4877
  750MPD2    H211140   0.298   2.083  11.434 -0.8997  0.7139  0.2313
  750MPD2    H311141   0.382   1.912  11.274 -0.5727 -2.8911 -1.8626
  750MPD2     N11142   4.716   1.735  11.197  0.1250 -0.4932 -0.7533
  750MPD2    H511143   0.017   1.677  11.125 -1.3432 -1.8239 -0.5150
  750MPD2    N111144   0.055   2.131  11.499  0.5548  0.5285 -0.2633
  750MPD2    H711145   0.126   2.187  11.546 -0.1263  0.0175  1.3609
  751TMC3    C111146   4.522   1.633  11.127  0.6139  0.3376 -0.2576
  751TMC3    C211147   4.413   1.564  11.183  0.0998  0.2579  0.0237
  751TMC3    C311148   4.317   1.517  11.098 -0.5432 -0.5927 -0.0688
  751TMC3    C411149   4.534   1.646  10.991 -0.3249  0.5585 -0.5078
  751TMC3    C511150   4.430   1.605  10.910  0.1135  0.3081 -0.5482
  751TMC3    C611151   4.325   1.532  10.957 -0.1310 -0.9610 -0.2047
  751TMC3     C11152   4.585   1.722  11.217  0.2055  0.2977 -0.0852
  751TMC3     O11153   4.509   1.770  11.300  0.2062  0.1502 -0.2791
  751TMC3     H11154   4.407   1.553  11.290  2.0067  0.0444  0.1031
  751TMC3    H111155   4.613   1.709  10.949  0.1569  2.1857  2.8424
  751TMC3    H211156   4.245   1.492  10.896  0.9004  1.4865 -3.1532
  751TMC3    C711157   4.437   1.633  10.771 -0.8593  0.8371 -0.8757
  751TMC3    C811158   4.228   1.415  11.143 -0.1228 -0.1055 -0.3150
  751TMC3    O111159   4.552   1.621  10.715  0.4795  0.0776  0.3999
  751TMC3    O211160   4.244   1.312  11.080 -0.5777 -0.5788 -0.2694
  752TMC3    C111161   3.997   1.353  17.113 -0.3448 -0.8527  0.1698
  752TMC3    C211162   3.932   1.250  17.173  0.2880  0.0223 -0.7126
  752TMC3    C311163   3.921   1.266  17.311 -0.0014  0.6696  0.0008
  752TMC3    C411164   4.060   1.460  17.173 -0.5198 -0.5707  0.6290
  752TMC3    C511165   4.040   1.471  17.309 -0.2542  0.0380  0.3691
  752TMC3    C611166   3.959   1.387  17.376  0.1290  0.1885 -0.0779
  752TMC3     C11167   3.982   1.371  16.972 -0.1466  0.1589  0.4608
  752TMC3     O11168   4.050   1.451  16.912 -0.2510 -0.5022  0.7973
  752TMC3     H11169   3.901   1.153  17.136 -2.1622  1.2365 -1.8716
  752TMC3    H111170   4.138   1.508  17.115 -0.0936 -0.8835  0.9367
  752TMC3    H211171   3.929   1.404  17.479  0.6201  0.3313  0.0411
  752TMC3    C711172   4.087   1.595  17.366 -0.4950 -0.5977 -0.4571
  752TMC3    C811173   3.855   1.167  17.387  0.2221 -0.1908  0.5961
  752TMC3    O111174   4.126   1.685  17.288  0.1607 -0.1538 -0.5668
  752TMC3    O211175   3.795   1.083  17.319 -0.2227  0.0783  0.2494
  753TMC3    C111176   4.709   2.522  13.426  0.4414  0.0597 -0.6507
  753TMC3    C211177   0.021   2.506  13.553 -0.3080 -0.0446  0.7140
  753TMC3    C311178   0.030   2.380  13.595 -0.1887  0.1080  0.4327
  753TMC3    C411179   4.652   2.422  13.352  1.3364 -0.4012  0.1270
  753TMC3    C511180   4.644   2.304  13.407  0.1744  0.0814  0.1567
  753TMC3    C611181   4.701   2.278  13.530 -0.2606  0.2966  0.6276
  753TMC3     C11182   4.702   2.648  13.363  0.4352 -0.1348 -0.0019
  753TMC3     O11183   4.609   2.660  13.282 -0.0979 -0.5314 -0.3465
  753TMC3     H11184   0.067   2.585  13.612  1.0759  0.7029 -1.3751
  753TMC3    H111185   4.605   2.448  13.258 -1.1571 -2.1452  0.8617
  753TMC3    H211186   4.708   2.174  13.561 -0.4970  0.1872  0.3122
  753TMC3    C711187   4.601   2.197  13.317 -0.6561 -0.3540 -0.4769
  753TMC3    C811188   0.103   2.350  13.713  0.4386  0.5250 -0.3159
  753TMC3    O111189   4.599   2.223  13.195  0.2285 -0.3804 -0.4017
  753TMC3    O211190   0.087   2.238  13.751 -0.5772  0.5915  0.2352
  754MPD2     C11191   3.913   1.031  13.275  0.1018 -0.7398 -0.1253
  754MPD2    C111192   3.841   1.045  13.397 -0.1748 -0.3330 -0.1124
  754MPD2    C211193   3.702   1.064  13.392 -0.5907 -1.1061 -0.4876
  754MPD2    C311194   3.639   1.065  13.267 -0.0519 -0.0315  0.4812
  754MPD2    C411195   3.713   1.049  13.152 -0.2313  0.1528  0.5787
  754MPD2    C511196   3.846   1.040  13.156 -0.3027 -0.3706  0.1299
  754MPD2     H11197   3.647   1.096  13.479  0.4651 -1.1010  0.1796
  754MPD2    H111198   3.667   1.049  13.053  0.2635  0.2427  0.3485
  754MPD2    H211199   4.020   1.015  13.270  0.8008  3.5535  1.2478
  754MPD2    H311200   3.910   1.016  13.072 -1.0403 -1.2756 -0.1728
  754MPD2     N11201   3.497   1.069  13.257  0.5599 -0.0080  0.6172
  754MPD2    H511202   3.473   1.066  13.159 -0.7002  2.3411  0.8674
  754MPD2    N111203   3.921   1.045  13.515  0.0673  0.4336 -0.4300
  754MPD2    H711204   4.016   1.009  13.513  0.0617  0.4654 -1.1854
  755MPD2     C11205   2.578   1.604  13.316 -0.2907  0.6595 -0.2322
  755MPD2    C111206   2.617   1.516  13.421  0.3536 -0.4758  1.4434
  755MPD2    C211207   2.735   1.447  13.401 -0.2697  0.0994 -0.0227
  755MPD2    C311208   2.800   1.437  13.284 -0.9792  0.4732  0.0243
  755MPD2    C411209   2.762   1.529  13.190  0.5066  0.1762  0.7152
  755MPD2    C511210   2.662   1.614  13.208 -0.0350 -0.7731 -0.4271
  755MPD2     H11211   2.777   1.389  13.482  1.3495  1.3522  0.0366
  755MPD2    H111212   2.803   1.533  13.089 -2.7168 -2.5993 -0.7068
  755MPD2    H211213   2.495   1.673  13.326  0.0153  0.4814  3.4247
  755MPD2    H311214   2.635   1.678  13.125 -0.5758  0.7866  0.9567
  755MPD2     N11215   2.905   1.347  13.258 -0.5982 -0.1497  0.8275
  755MPD2    H511216   2.931   1.342  13.160 -1.1490  0.8449  0.6264
  755MPD2    N111217   2.556   1.504  13.549  0.3264  0.1421 -0.2965
  755MPD2    H711218   2.605   1.439  13.610  0.4179  0.4071 -0.0873
  756MPD2     C11219   3.957   3.090  10.105 -0.8188  0.1110  0.1567
  756MPD2    C111220   3.906   2.988  10.181  0.2116  0.3020 -0.0490
  756MPD2    C211221   3.809   2.912  10.134  0.3855 -0.1994  0.0474
  756MPD2    C311222   3.760   2.936  10.008 -0.4405  0.1141 -0.3516
  756MPD2    C411223   3.801   3.041   9.936 -0.5521 -0.3474  0.4832
  756MPD2    C511224   3.909   3.115   9.984  0.4775 -0.6555  0.0310
  756MPD2     H11225   3.772   2.839  10.205 -1.3636  1.4300  0.8213
  756MPD2    H111226   3.754   3.070   9.843  1.3321  1.1771  0.0093
  756MPD2    H211227   4.034   3.150  10.152 -2.7958  1.5668  1.5742
  756MPD2    H311228   3.942   3.205   9.933 -0.8557  0.8369  1.7922
  756MPD2     N11229   3.660   2.842   9.961  0.4440 -0.3494  0.6379
  756MPD2    H511230   3.641   2.761  10.020 -0.8312 -0.3405  0.2402
  756MPD2    N111231   3.939   2.966  10.313  0.0381  0.4304  0.2234
  756MPD2    H711232   3.906   2.881  10.359 -2.1047 -0.0294 -2.1197
  757MPD2     C11233   3.675   1.866   9.982  0.0056 -0.4100  0.1961
  757MPD2    C111234   3.568   1.882   9.903  0.6845 -0.6848 -0.2586
  757MPD2    C211235   3.526   2.014   9.872  0.2224  0.3463 -0.3598
  757MPD2    C311236   3.602   2.120   9.908  0.1934 -0.2289  0.0859
  757MPD2    C411237   3.718   2.102   9.981  0.3581 -0.5919 -0.6414
  757MPD2    C511238   3.750   1.972  10.027  0.0651  0.2542 -0.1576
  757MPD2     H11239   3.440   2.032   9.807  0.8804  3.2367 -0.4438
  757MPD2    H111240   3.778   2.181  10.024  0.7088 -2.2751  2.0139
  757MPD2    H211241   3.709   1.770  10.018 -1.4551 -0.6203  1.0282
  757MPD2    H311242   3.837   1.953  10.089  0.0202  2.8265  0.6961
  757MPD2     N11243   3.554   2.247   9.861  0.2469 -0.1267 -0.1456
  757MPD2    H511244   3.464   2.253   9.813 -0.6699 -1.6183  1.3826
  757MPD2    N111245   3.493   1.767   9.865  0.1193  0.3449  0.3696
  757MPD2    H711246   3.526   1.678   9.901  2.7753  0.0278 -2.8366
  758MPD2     C11247   4.454   0.479  15.851  0.2575  0.4682  0.0405
  758MPD2    C111248   4.542   0.419  15.932  0.0609  0.3826 -0.3978
  758MPD2    C211249   4.529   0.416  16.066 -0.4169 -0.0792 -0.3581
  758MPD2    C311250   4.412   0.455  16.125 -0.2998  0.1893  0.1854
  758MPD2    C411251   4.315   0.509  16.046 -0.3282 -0.4693 -0.1252
  758MPD2    C511252   4.339   0.520  15.910  0.3744 -0.0985 -0.0668
  758MPD2     H11253   4.614   0.382  16.122  1.5535  2.1144 -2.0015
  758MPD2    H111254   4.217   0.536  16.084  0.4197  2.5102 -0.3189
  758MPD2    H211255   4.476   0.499  15.746  0.1841 -1.4549 -0.3256
  758MPD2    H311256   4.267   0.574  15.850  0.0717 -0.5391 -0.0949
  758MPD2     N11257   4.386   0.442  16.261  0.1844  0.6400  0.1195
  758MPD2    H511258   4.295   0.465  16.298  0.6408 -1.3724  2.5323
  758MPD2    N111259   4.648   0.354  15.867 -0.6260 -0.6777 -0.3078
  758MPD2    H711260   4.662   0.401  15.778  0.7195  0.5910  0.5620
  759MPD2     C11261   2.838   3.847  10.371 -0.2311 -0.0092  0.1261
  759MPD2    C111262   2.833   3.919  10.490 -0.2521 -0.5479  0.2739
  759MPD2    C211263   2.864   4.053  10.494  0.2594 -0.2683 -0.0816
  759MPD2    C311264   2.897   4.122  10.377  0.7641 -0.5825 -0.1494
  759MPD2    C411265   2.888   4.057  10.259 -0.3537 -0.3415 -0.6293
  759MPD2    C511266   2.859   3.921  10.256 -0.6590 -0.1399 -0.0534
  759MPD2     H11267   2.861   4.105  10.589 -2.1080 -1.4692  0.5016
  759MPD2    H111268   2.904   4.089  10.156 -2.0000 -0.4392 -0.9074
  759MPD2    H211269   2.814   3.741  10.371 -0.1967 -0.0081 -1.7147
  759MPD2    H311270   2.845   3.872  10.160  3.6559  1.1902 -1.3611
  759MPD2     N11271   2.939   4.255  10.388  0.1388  0.6095 -0.1641
  759MPD2    H511272   2.963   4.278  10.484  0.3797 -0.3820  0.0164
  759MPD2    N111273   2.794   3.864  10.612  0.0371 -0.3392  0.3833
  759MPD2    H711274   2.795   3.923  10.695 -3.3240  2.0934 -1.2844
  760MPD2     C11275   2.555   1.225  11.283 -0.2807 -0.5012  0.0728
  760MPD2    C111276   2.532   1.276  11.409  0.5059  0.0677  0.0234
  760MPD2    C211277   2.546   1.196  11.518  0.0596 -0.4751 -0.6159
  760MPD2    C311278   2.593   1.063  11.507 -0.8539  0.5019  0.9108
  760MPD2    C411279   2.626   1.011  11.382 -1.1112 -0.1431 -0.1395
  760MPD2    C511280   2.603   1.095  11.272 -0.2476  0.6750 -0.5678
  760MPD2     H11281   2.514   1.233  11.615  0.2491  0.1440 -0.7938
  760MPD2    H111282   2.673   0.914  11.377 -1.4883 -0.3111 -0.3758
  760MPD2    H211283   2.553   1.291  11.197 -1.2645 -0.6606 -0.0269
  760MPD2    H311284   2.610   1.045  11.176 -0.5488  0.8357 -0.6741
  760MPD2     N11285   2.637   0.982  11.609  0.2972 -0.0822  0.0532
  760MPD2    H511286   2.663   0.886  11.590 -1.1673 -1.0265  2.9149
  760MPD2    N111287   2.488   1.408  11.435  0.4722  0.2402 -0.2849
  760MPD2    H711288   2.471   1.448  11.526 -0.4816 -3.4404  1.1447
  761MPD2     C11289   3.928   1.196  11.489 -0.3075  0.1995 -0.5601
  761MPD2    C111290   3.977   1.144  11.375  0.2911 -0.6075  0.0532
  761MPD2    C211291   4.077   1.214  11.308 -0.3531 -0.5784 -1.1306
  761MPD2    C311292   4.110   1.342  11.347 -0.2215  0.3655  0.5505
  761MPD2    C411293   4.053   1.397  11.470  0.1684  0.0941 -0.3860
  761MPD2    C511294   3.963   1.325  11.536 -0.8905  0.7610 -0.7121
  761MPD2     H11295   4.119   1.174  11.216  0.6740 -1.0868 -0.4447
  761MPD2    H111296   4.073   1.500  11.496 -0.2306 -0.2216  1.1155
  761MPD2    H211297   3.858   1.141  11.551 -0.8172  1.1245 -0.3158
  761MPD2    H311298   3.913   1.356  11.627  3.5238 -0.4188  2.1205
  761MPD2     N11299   4.176   1.435  11.266  0.2542 -0.2135 -0.3025
  761MPD2    H511300   4.194   1.524  11.311 -1.1188 -1.8980  3.5759
  761MPD2    N111301   3.933   1.016  11.334 -0.0888  0.1734 -0.2499
  761MPD2    H711302   3.869   0.971  11.398  0.2799  1.4089  0.9898
  762MPD2     C11303   3.748   0.273  10.860 -0.7724  0.1628  0.8526
  762MPD2    C111304   3.867   0.336  10.880  0.7791 -0.9913  0.1302
  762MPD2    C211305   3.967   0.324  10.790 -0.2673 -0.0994  0.5442
  762MPD2    C311306   3.951   0.245  10.675  0.0975 -0.2333  0.0977
  762MPD2    C411307   3.837   0.181  10.660 -0.1538  0.0619  0.2123
  762MPD2    C511308   3.731   0.197  10.748 -0.6924  0.0615 -0.3270
  762MPD2     H11309   4.060   0.375  10.807 -0.3736  0.8907 -1.7578
  762MPD2    H111310   3.811   0.139  10.564 -1.1654 -0.5867  0.7763
  762MPD2    H211311   3.658   0.280  10.921 -0.2536 -3.1628  2.0262
  762MPD2    H311312   3.637   0.147  10.732 -0.5645 -0.0899 -0.5942
  762MPD2     N11313   4.062   0.242  10.591  0.0307 -0.1878  0.0289
  762MPD2    H511314   4.149   0.281  10.625  0.4203  0.4399 -1.6906
  762MPD2    N111315   3.877   0.428  10.994 -0.2189  0.2233  0.5319
  762MPD2    H711316   3.795   0.428  11.053 -1.5759 -1.8307 -1.3765
  763MPD2     C11317   0.997   0.564  16.093  0.1848  0.1977  0.9783
  763MPD2    C111318   1.070   0.633  15.994  0.0352  0.2799  0.1363
  763MPD2    C211319   1.112   0.765  16.013 -0.6611  0.2961 -0.1251
  763MPD2    C311320   1.092   0.827  16.135 -0.2828  0.0669  0.1988
  763MPD2    C411321   1.004   0.763  16.227 -0.0494  0.0307 -0.0233
  763MPD2    C511322   0.959   0.633  16.206 -0.1782 -0.0344  0.0116
  763MPD2     H11323   1.178   0.808  15.938 -1.3098 -2.9367 -2.5671
  763MPD2    H111324   0.980   0.804  16.324 -0.8908 -1.0844  0.2458
  763MPD2    H211325   0.962   0.462  16.081  1.6129  0.1281 -2.4482
  763MPD2    H311326   0.900   0.580  16.280 -1.1643 -0.3597 -1.0076
  763MPD2     N11327   1.157   0.951  16.158 -0.2775 -0.0312 -0.7266
  763MPD2    H511328   1.241   0.974  16.105 -0.9351  1.1020 -1.2950
  763MPD2    N111329   1.092   0.579  15.865  0.7262 -0.2337  0.0458
  763MPD2    H711330   1.151   0.625  15.796 -2.4069 -0.5505 -2.8309
  764MPD2     C11331   4.550   0.836   0.303  0.1585  0.2447 -0.1271
  764MPD2    C111332   4.540   0.971   0.285 -0.1972  0.3897 -0.1767
  764MPD2    C211333   4.449   1.043   0.367  0.2176  0.0856 -0.1463
  764MPD2    C311334   4.395   0.980   0.474  0.5927  0.4607 -0.3013
  764MPD2    C411335   4.394   0.842   0.481  0.2929  0.6423  0.0822
  764MPD2    C511336   4.477   0.773   0.390  0.4511 -0.2619  0.7302
  764MPD2     H11337   4.433   1.149   0.351  1.5919  0.3604  0.3517
  764MPD2    H111338   4.340   0.781   0.553  2.4782 -0.8168  0.4673
  764MPD2    H211339   4.615   0.782   0.235  1.8287  2.3609 -0.2122
  764MPD2    H311340   4.482   0.665   0.390 -0.2217 -0.3071 -1.5939
  764MPD2     N11341   4.328   1.058   0.569 -0.2509 -0.0897  0.0300
  764MPD2    H511342   4.343   1.158   0.565 -0.6593 -0.1407 -2.5016
  764MPD2    N111343   4.617   1.040   0.195  0.0760  0.3703  0.0731
  764MPD2    H711344   4.605   1.141   0.199  0.1327  0.4061 -0.7423
  765MPD2     C11345   4.338   4.458  15.435 -0.2296 -0.9479  0.1842
  765MPD2    C111346   4.390   4.566  15.493 -0.7566  0.5086  0.8885
  765MPD2    C211347   4.527   4.568  15.512 -0.2509  0.8327 -1.0018
  765MPD2    C311348   4.605   4.460  15.472 -0.3244 -0.0724  0.0210
  765MPD2    C411349   4.551   4.356  15.403 -0.4105  0.1057  0.1669
  765MPD2    C511350   4.415   4.360  15.382  0.2859  0.9007  0.0432
  765MPD2     H11351   4.577   4.635  15.581 -0.0161 -0.6536  0.2833
  765MPD2    H111352   4.615   4.283  15.354 -0.4928 -0.4285  0.8598
  765MPD2    H211353   4.231   4.462  15.425 -0.0959  1.0356 -0.3661
  765MPD2    H311354   4.365   4.283  15.325  0.1400  1.9753 -1.2644
  765MPD2     N11355   0.001   4.469  15.506  0.3745 -0.1475 -0.0774
  765MPD2    H511356   0.016   4.550  15.565  0.6853  0.3994 -0.8984
  765MPD2    N111357   4.315   4.677  15.518  0.1181  0.1945 -0.0453
  765MPD2    H711358   4.222   4.674  15.477 -0.2492 -0.1703  0.8280
  766MPD2     C11359   3.643   0.052  15.405  0.0099  0.1798 -0.9678
  766MPD2    C111360   3.779   0.028  15.385 -0.3018 -0.0983 -0.9090
  766MPD2    C211361   3.814   4.709  15.267 -0.0829 -0.2459  0.3385
  766MPD2    C311362   3.720   4.686  15.165 -0.5028  0.2639  0.3279
  766MPD2    C411363   3.590   4.708  15.189  0.0873  0.3398 -0.3145
  766MPD2    C511364   3.557   0.019  15.308 -0.0326 -0.5676 -0.1290
  766MPD2     H11365   3.920   4.692  15.255 -0.0629  0.5107 -0.5812
  766MPD2    H111366   3.530   4.700  15.099 -0.4903 -0.3079  0.1332
  766MPD2    H211367   3.608   0.102  15.494  0.2428 -1.1010 -0.1456
  766MPD2    H311368   3.454   0.046  15.329  0.1908  0.4903 -0.3944
  766MPD2     N11369   3.761   4.661  15.031  0.2202  0.3549 -0.5952
  766MPD2    H511370   3.684   4.684  14.968  1.7594  1.3353 -2.1075
  766MPD2    N111371   3.888   0.080  15.466  0.1118 -0.4586 -0.3439
  766MPD2    H711372   3.976   0.066  15.419 -1.2474  0.9744 -3.3440
  767MPD2     C11373   3.328   0.204  15.092  0.2448 -1.0464  0.5146
  767MPD2    C111374   3.450   0.225  15.028 -0.2568  0.1584  0.3494
  767MPD2    C211375   3.460   0.192  14.897 -0.7248  0.0196  0.2606
  767MPD2    C311376   3.357   0.129  14.831  0.1137 -0.5979  0.1126
  767MPD2    C411377   3.238   0.096  14.900  0.3457  1.0978 -0.4228
  767MPD2    C511378   3.223   0.140  15.030  0.5242 -0.1027  0.1344
  767MPD2     H11379   3.553   0.210  14.845 -0.8167 -2.2718 -0.6800
  767MPD2    H111380   3.155   0.033  14.870  0.6398  0.7817 -0.5773
  767MPD2    H211381   3.321   0.240  15.194  1.2383  1.4982 -0.3103
  767MPD2    H311382   3.137   0.112  15.090  0.8594 -1.5621 -0.0642
  767MPD2     N11383   3.379   0.089  14.699 -0.8323 -0.4294 -0.0152
  767MPD2    H511384   3.477   0.100  14.674 -1.4611  0.3466 -2.1436
  767MPD2    N111385   3.551   0.286  15.103 -0.5028 -0.6656 -0.0444
  767MPD2    H711386   3.529   0.331  15.192  0.1027 -1.3617  0.4565
  768MPD2     C11387   4.074   4.346  10.603 -0.7499 -0.0547 -0.2288
  768MPD2    C111388   4.001   4.287  10.713 -0.1613 -0.2148 -1.1223
  768MPD2    C211389   4.065   4.198  10.798 -0.7652  0.0057 -0.0801
  768MPD2    C311390   4.202   4.181  10.792 -0.6287 -0.1923 -0.1183
  768MPD2    C411391   4.269   4.254  10.692  0.2915 -0.4555 -0.2022
  768MPD2    C511392   4.209   4.327  10.595 -0.8189  0.8441  0.1126
  768MPD2     H11393   4.014   4.135  10.870  0.3206 -0.4958  0.2600
  768MPD2    H111394   4.378   4.255  10.690  0.2880  0.9061 -0.0393
  768MPD2    H211395   4.027   4.421  10.541  0.3685  0.8038 -0.0394
  768MPD2    H311396   4.265   4.383  10.522  0.5449 -0.3887  0.2267
  768MPD2     N11397   4.276   4.104  10.873  0.2674 -0.6266  0.5478
  768MPD2    H511398   4.376   4.120  10.881 -0.3516  3.1734  0.2744
  768MPD2    N111399   3.867   4.320  10.745  1.0650  0.1527 -0.9235
  768MPD2    H711400   3.821   4.285  10.829  0.1318  1.4841 -0.8826
  769MPD2     C11401   0.051   2.166  14.645 -0.3315  0.0238  0.2797
  769MPD2    C111402   0.058   2.045  14.711  0.1383 -0.1824  0.8534
  769MPD2    C211403   0.097   2.047  14.847 -0.0697  0.4087 -0.0538
  769MPD2    C311404   0.118   2.166  14.920  0.2529 -0.4039 -0.1333
  769MPD2    C411405   0.131   2.281  14.847 -0.3945  0.0309  0.0101
  769MPD2    C511406   0.089   2.281  14.714 -0.5047 -0.6351  0.9031
  769MPD2     H11407   0.081   1.952  14.897  1.7277  0.1881  0.0770
  769MPD2    H111408   0.138   2.379  14.891 -0.4542  0.8168 -1.7048
  769MPD2    H211409   0.033   2.172  14.539  3.3711 -1.0765 -0.4211
  769MPD2    H311410   0.084   2.380  14.668  0.4297 -1.5471 -1.1663
  769MPD2     N11411   0.138   2.158  15.057 -0.1904 -0.2579  0.2180
  769MPD2    H511412   0.148   2.063  15.094 -2.8595 -0.9060 -0.7025
  769MPD2    N111413   0.014   1.930  14.640 -0.1158 -0.2722 -0.0132
  769MPD2    H711414   4.694   1.941  14.559 -1.1489 -0.0459  0.7860
  770MPD2     C11415   4.656   0.826  14.573  0.1291  0.5232  0.2404
  770MPD2    C111416   4.724   0.905  14.667  0.0607 -0.0647  0.0668
  770MPD2    C211417   4.724   1.039  14.657  0.4303 -0.2207 -0.3794
  770MPD2    C311418   4.651   1.099  14.559  0.1022 -0.4170 -0.0693
  770MPD2    C411419   4.572   1.022  14.475 -0.0594 -0.1381  0.2713
  770MPD2    C511420   4.583   0.881  14.473 -0.1962 -0.0536  0.7990
  770MPD2     H11421   0.044   1.101  14.723 -1.5615 -1.4934  2.6154
  770MPD2    H111422   4.516   1.062  14.392  0.1728 -0.7926 -0.2014
  770MPD2    H211423   4.662   0.718  14.586 -1.9521  0.4234  0.4380
  770MPD2    H311424   4.538   0.819  14.396  0.3594 -0.3688  0.7240
  770MPD2     N11425   4.631   1.239  14.554 -0.4181 -0.4393 -0.4147
  770MPD2    H511426   4.569   1.267  14.479 -0.0639 -1.4188 -1.0654
  770MPD2    N111427   0.060   0.836  14.763  0.4251 -0.2737 -0.3965
  770MPD2    H711428   0.066   0.735  14.757  1.0768 -0.3002  0.6996
  771MPD2     C11429   1.230   4.635  13.747 -0.2532  0.5469 -0.2919
  771MPD2    C111430   1.133   4.735  13.745  0.1008 -0.2747 -0.0563
  771MPD2    C211431   1.000   4.692  13.737 -0.0160  0.5670  0.1392
  771MPD2    C311432   0.965   4.556  13.733  0.3409 -0.2819  0.0837
  771MPD2    C411433   1.068   4.462  13.740 -0.2282 -0.1344  0.6259
  771MPD2    C511434   1.197   4.503  13.746  0.8912 -0.9290 -0.3676
  771MPD2     H11435   0.919   0.024  13.737 -1.0222 -0.5492 -0.9746
  771MPD2    H111436   1.045   4.357  13.754  0.0186 -0.0190  1.9234
  771MPD2    H211437   1.335   4.660  13.754 -0.4004  0.9170  0.5777
  771MPD2    H311438   1.272   4.425  13.757  1.8902  0.0996  0.1595
  771MPD2     N11439   0.828   4.524  13.733  0.0331  0.2999 -0.5224
  771MPD2    H511440   0.763   4.602  13.731 -0.6124 -0.1912  2.3100
  771MPD2    N111441   1.163   0.134  13.737  0.2245  0.0796  0.2142
  771MPD2    H711442   1.083   0.196  13.737  0.4799  0.4057  3.1095
  772MPD2     C11443   0.904   0.728  14.031 -0.2713  0.3158  0.0075
  772MPD2    C111444   0.897   0.606  13.961 -0.2320  0.1162  1.2539
  772MPD2    C211445   0.784   0.532  13.976 -0.5091 -0.2350  0.6149
  772MPD2    C311446   0.683   0.582  14.058  0.4780  0.7584 -0.1103
  772MPD2    C411447   0.697   0.698  14.132  0.2674  0.3016  0.2139
  772MPD2    C511448   0.807   0.774  14.111 -0.2637  0.3762 -0.3919
  772MPD2     H11449   0.780   0.443  13.915 -3.7416  1.0684 -1.1038
  772MPD2    H111450   0.625   0.738  14.202  0.1963  0.6879 -0.0812
  772MPD2    H211451   0.992   0.791  14.032  1.1468 -1.6473 -1.3099
  772MPD2    H311452   0.817   0.861  14.174 -0.5601  1.9758 -2.5482
  772MPD2     N11453   0.559   0.507  14.072  0.0651  0.4993  0.2235
  772MPD2    H511454   0.489   0.542  14.136 -1.5595  1.0487 -1.8456
  772MPD2    N111455   0.992   0.556  13.875 -0.2635 -0.0470  0.0669
  772MPD2    H711456   0.966   0.473  13.823 -0.5723 -0.6930  1.2599
  773MPD2     C11457   0.023   0.250   0.688  0.3788 -0.4830 -1.9111
  773MPD2    C111458   0.042   0.189   0.568 -1.0780 -0.4849 -0.1742
  773MPD2    C211459   0.148   0.097   0.545 -0.0531  0.3776 -0.5910
  773MPD2    C311460   0.236   0.070   0.645  0.3203 -0.7470  0.3007
  773MPD2    C411461   0.215   0.135   0.771 -0.6050 -0.2447 -0.5577
  773MPD2    C511462   0.110   0.221   0.789 -0.0799  0.1187  0.0830
  773MPD2     H11463   0.165   0.056   0.446  0.0280  0.8126 -0.7575
  773MPD2    H111464   0.276   0.112   0.858  0.1530  1.6399 -0.6079
  773MPD2    H211465   4.678   0.310   0.720  1.5401  0.5834 -0.8371
  773MPD2    H311466   0.109   0.267   0.887  1.8837 -3.8011  1.9509
  773MPD2     N11467   0.330   4.712   0.626  0.5595  0.2189  0.1510
  773MPD2    H511468   0.319   4.646   0.550 -2.3122  0.6657  0.1918
  773MPD2    N111469   4.692   0.204   0.467 -0.1024 -0.4820 -0.2770
  773MPD2    H711470   4.725   0.155   0.384 -0.6813  1.1889 -1.5002
  774MPD2     C11471   3.687   0.177  13.586 -0.0475  0.2334 -0.6495
  774MPD2    C111472   3.746   0.227  13.700 -0.1004 -0.7161 -1.1071
  774MPD2    C211473   3.753   0.361  13.715  0.7737 -0.2934  0.7802
  774MPD2    C311474   3.714   0.447  13.616 -0.0814 -0.2106 -0.2834
  774MPD2    C411475   3.667   0.393  13.496  0.7843  0.4104 -0.4366
  774MPD2    C511476   3.653   0.258  13.487 -0.0560  0.3939  0.1810
  774MPD2     H11477   3.788   0.396  13.811 -0.3337 -0.6430  1.3125
  774MPD2    H111478   3.654   0.452  13.406 -0.3618  1.7073  0.5776
  774MPD2    H211479   3.679   0.070  13.575 -1.8790  0.2209  0.7805
  774MPD2    H311480   3.613   0.216  13.396  1.2214  1.2066 -0.7383
  774MPD2     N11481   3.726   0.583  13.631 -0.1550 -0.8167 -0.8038
  774MPD2    H511482   3.696   0.640  13.552  0.5620  0.9673  0.1911
  774MPD2    N111483   3.806   0.130  13.782 -0.2276  0.4470 -0.4567
  774MPD2    H711484   3.814   0.036  13.745  0.6085  0.2069  0.3477
  775MPD2     C11485   0.555   1.615  15.628  0.2754 -0.0667 -0.0944
  775MPD2    C111486   0.551   1.721  15.707 -0.2655 -0.0610 -0.6193
  775MPD2    C211487   0.576   1.851  15.646  0.7428  0.2861 -0.1514
  775MPD2    C311488   0.610   1.861  15.514  0.6500  0.1432  0.5594
  775MPD2    C411489   0.621   1.748  15.443 -0.0766  0.7235  0.2860
  775MPD2    C511490   0.585   1.622  15.494  0.1021 -0.7190 -0.0327
  775MPD2     H11491   0.566   1.940  15.708  0.8735 -0.9036  1.5589
  775MPD2    H111492   0.652   1.742  15.339 -2.7801 -2.1325 -0.3440
  775MPD2    H211493   0.540   1.521  15.680 -0.5488 -0.1674 -0.5090
  775MPD2    H311494   0.582   1.537  15.427 -0.1223 -1.0383  0.3825
  775MPD2     N11495   0.645   1.981  15.456  0.0377 -0.4957 -0.0971
  775MPD2    H511496   0.693   1.961  15.368  0.4432  0.7969 -0.1780
  775MPD2    N111497   0.516   1.703  15.840 -0.1371  0.1820  0.0590
  775MPD2    H711498   0.508   1.604  15.862 -3.5133  1.1469  3.0258
  776MPD2     C11499   4.566   2.876  11.341 -0.1835  0.5960  0.1542
  776MPD2    C111500   4.657   2.826  11.433  0.5231 -0.0565 -0.7913
  776MPD2    C211501   0.038   2.886  11.455  0.7418 -0.5718 -0.3373
  776MPD2    C311502   0.070   2.996  11.377 -0.0559  0.3779 -0.4418
  776MPD2    C411503   4.719   3.044  11.284 -0.4208 -0.2661  0.5271
  776MPD2    C511504   4.596   2.989  11.274 -0.4409 -0.4024  0.6791
  776MPD2     H11505   0.108   2.851  11.530  0.2649  1.8900  1.2572
  776MPD2    H111506   0.005   3.136  11.233  0.0151 -1.8327 -2.0756
  776MPD2    H211507   4.470   2.829  11.329  0.8439 -0.6639 -3.0482
  776MPD2    H311508   4.531   3.030  11.197  0.6144 -1.2658 -0.6595
  776MPD2     N11509   0.185   3.076  11.413  0.2760 -0.1944  0.3644
  776MPD2    H511510   0.219   3.135  11.338 -3.1538 -0.6106 -1.5188
  776MPD2    N111511   4.618   2.715  11.509  0.1526  0.1007  0.0864
  776MPD2    H711512   4.524   2.678  11.495 -1.4648  4.0365  0.3507
  777MPD2     C11513   0.071   3.804   0.531 -0.2380 -0.1210  0.1908
  777MPD2    C111514   4.689   3.775   0.585 -0.5128 -0.2565  0.2711
  777MPD2    C211515   4.596   3.711   0.502  0.4680 -0.3289  0.6291
  777MPD2    C311516   4.629   3.670   0.371  0.0176 -0.4058 -0.3678
  777MPD2    C411517   0.016   3.704   0.326 -0.6906  0.0609  0.8337
  777MPD2    C511518   0.099   3.773   0.404  0.3708  0.0798  0.0907
  777MPD2     H11519   4.495   3.696   0.537  0.3216 -5.1197 -1.7191
  777MPD2    H111520   0.056   3.678   0.229  0.5978 -2.9512  2.1573
  777MPD2    H211521   0.136   3.859   0.598  0.5997  0.8983 -1.4727
  777MPD2    H311522   0.199   3.802   0.372 -0.4889  2.4601 -0.4935
  777MPD2     N11523   4.548   3.579   0.305 -0.7052 -0.2752 -0.5082
  777MPD2    H511524   4.458   3.553   0.344 -0.9468  2.0406  0.5012
  777MPD2    N111525   4.675   3.807   0.720 -0.3937  0.1790 -0.8299
  777MPD2    H711526   0.011   3.854   0.769  0.3108 -0.1029 -1.6434
  778MPD2     C11527   1.411   4.390  14.964 -0.4836 -0.0395  0.0897
  778MPD2    C111528   1.408   4.280  14.877 -0.0969  0.0468 -0.0989
  778MPD2    C211529   1.478   4.293  14.760  0.3427 -0.2004  0.0110
  778MPD2    C311530   1.545   4.411  14.724 -0.0307 -0.0539 -0.9834
  778MPD2    C411531   1.552   4.510  14.819 -0.1889  0.6239 -0.3824
  778MPD2    C511532   1.486   4.505  14.939  0.1567  0.2887  0.1317
  778MPD2     H11533   1.477   4.222  14.678 -0.1338  1.3121 -1.2966
  778MPD2    H111534   1.628   4.588  14.813 -0.9809  1.4563  0.4657
  778MPD2    H211535   1.364   4.402  15.061 -0.7529 -0.1620 -0.0271
  778MPD2    H311536   1.504   4.583  15.012  3.3097 -1.1128  0.8603
  778MPD2     N11537   1.610   4.426  14.596 -0.2788  0.6100  0.1683
  778MPD2    H511538   1.605   4.343  14.537 -0.2080  0.1512  0.8015
  778MPD2    N111539   1.306   4.185  14.896 -0.3375 -0.6007 -0.1343
  778MPD2    H711540   1.301   4.123  14.816 -0.9937 -0.8015  0.0643
  779MPD2     C11541   1.193   3.245  13.784  0.2406 -0.5050 -0.6624
  779MPD2    C111542   1.104   3.270  13.889  0.6999  0.5031 -0.2150
  779MPD2    C211543   1.101   3.397  13.945 -0.4404  0.0964  0.5759
  779MPD2    C311544   1.199   3.493  13.912 -0.4485  0.1686  0.5283
  779MPD2    C411545   1.294   3.461  13.819  0.9345 -0.8130  0.1284
  779MPD2    C511546   1.285   3.341  13.746  0.4213 -0.2878 -0.7200
  779MPD2     H11547   1.024   3.420  14.018 -1.7058 -0.4795 -0.5651
  779MPD2    H111548   1.373   3.529  13.789  0.7240 -0.5983  0.0703
  779MPD2    H211549   1.184   3.149  13.733  2.4122 -0.5353 -0.9895
  779MPD2    H311550   1.347   3.319  13.660  1.9457 -0.2107  0.3659
  779MPD2     N11551   1.189   3.621  13.959 -0.0901  0.0679  0.1051
  779MPD2    H511552   1.099   3.641  14.002  0.5227  1.8666  0.5472
  779MPD2    N111553   1.009   3.175  13.932 -0.3443  0.0269  0.7642
  779MPD2    H711554   0.961   3.195  14.019 -2.0134 -3.0458  0.5498
  780MPD2     C11555   0.330   3.205   0.784 -0.0753 -0.3014 -0.3270
  780MPD2    C111556   0.280   3.114   0.696 -0.0199  0.3888 -0.1608
  780MPD2    C211557   0.350   3.107   0.573 -0.1321  0.6509  0.2437
  780MPD2    C311558   0.451   3.193   0.542  0.7289  0.5774 -0.9644
  780MPD2    C411559   0.490   3.290   0.625  0.4841  0.7748  0.4786
  780MPD2    C511560   0.432   3.294   0.746  0.2883  0.5412  0.2970
  780MPD2     H11561   0.315   3.030   0.505 -1.9231  1.1762  0.5756
  780MPD2    H111562   0.556   3.374   0.603 -0.5438  1.9719  1.9558
  780MPD2    H211563   0.283   3.210   0.881 -0.3030 -0.9865 -0.4060
  780MPD2    H311564   0.467   3.367   0.818  0.3375  0.6625  0.1496
  780MPD2     N11565   0.497   3.181   0.405  0.6718 -0.5404 -0.0102
  780MPD2    H511566   0.458   3.095   0.366  0.2034  0.7527 -2.3855
  780MPD2    N111567   0.187   3.014   0.733  0.9112 -0.3908  0.2505
  780MPD2    H711568   0.170   3.001   0.833 -1.2989  2.4764  0.2606
  781MPD2     C11569   1.583   0.428  12.080 -0.3750 -1.1282 -0.3258
  781MPD2    C111570   1.705   0.484  12.080 -0.4079  0.8930  0.3055
  781MPD2    C211571   1.744   0.591  12.002  0.0035  0.2730  0.4085
  781MPD2    C311572   1.642   0.637  11.915 -0.1685 -0.0514 -0.9925
  781MPD2    C411573   1.519   0.577  11.913 -0.5936 -0.4132 -0.2794
  781MPD2    C511574   1.488   0.473  11.996  0.2812  0.3323  0.1876
  781MPD2     H11575   1.844   0.632  11.992 -0.0221 -0.1572 -1.5203
  781MPD2    H111576   1.438   0.621  11.857  0.1879  1.3937  0.0114
  781MPD2    H211577   1.556   0.346  12.144  1.0441  0.8794  2.8707
  781MPD2    H311578   1.388   0.430  11.994 -0.1409  1.1788  4.2258
  781MPD2     N11579   1.658   0.739  11.822 -0.0131 -0.0093 -0.3773
  781MPD2    H511580   1.575   0.770  11.772 -0.6429  0.9719  1.2897
  781MPD2    N111581   1.795   0.421  12.163  0.0469  0.5812 -0.2357
  781MPD2    H711582   1.768   0.333  12.204 -1.8191  0.9419 -0.7251
  782MPD2     C11583   0.341   1.409   9.945 -0.4127  1.1340 -0.8788
  782MPD2    C111584   0.261   1.434  10.056 -0.3990  0.4123 -0.0063
  782MPD2    C211585   0.307   1.525  10.148 -0.7377 -0.7246  0.3511
  782MPD2    C311586   0.430   1.584  10.141 -0.3168  0.3318 -0.4763
  782MPD2    C411587   0.504   1.552  10.033 -0.5111 -0.0490 -0.0103
  782MPD2    C511588   0.463   1.462   9.941 -0.0952 -0.4046  0.1079
  782MPD2     H11589   0.245   1.545  10.235 -0.6888  1.0123 -0.0143
  782MPD2    H111590   0.605   1.588  10.018 -0.6342 -0.4759 -1.8747
  782MPD2    H211591   0.317   1.328   9.878 -1.3191  0.9704 -0.3579
  782MPD2    H311592   0.536   1.435   9.866  1.5291  1.2777  1.0727
  782MPD2     N11593   0.459   1.685  10.238  0.4588  0.2056  0.7213
  782MPD2    H511594   0.391   1.707  10.309 -0.8409 -0.3680 -0.3438
  782MPD2    N111595   0.141   1.371  10.073 -0.0833 -0.6019 -0.5685
  782MPD2    H711596   0.100   1.376  10.166  1.3277 -0.3106  0.0296
  783MPD2     C11597   4.168   1.679  10.519  0.0336 -0.5137  0.9679
  783MPD2    C111598   4.287   1.626  10.578 -0.9867  0.1500  1.2271
  783MPD2    C211599   4.373   1.550  10.492  0.2477 -0.1222 -0.2347
  783MPD2    C311600   4.341   1.530  10.363 -0.0339 -0.4620  0.3881
  783MPD2    C411601   4.223   1.587  10.314  0.5933 -0.0500 -0.1630
  783MPD2    C511602   4.141   1.660  10.389  0.1471 -0.6859 -0.1075
  783MPD2     H11603   4.460   1.500  10.532  0.3437 -0.4354 -0.8298
  783MPD2    H111604   4.186   1.584  10.212 -2.2614  2.0078  0.8354
  783MPD2    H211605   4.108   1.745  10.581 -2.4711  0.0613 -2.0700
  783MPD2    H311606   4.053   1.703  10.344 -2.0761 -1.8469  3.1498
  783MPD2     N11607   4.420   1.444  10.288  0.4137  1.1729  0.5930
  783MPD2    H511608   4.514   1.429  10.325  0.4903 -0.3263 -0.2108
  783MPD2    N111609   4.318   1.659  10.708  0.9353  0.4697 -0.3420
  783MPD2    H711610   4.239   1.702  10.756  1.4853 -0.9712  1.8486
  784MPD2     C11611   2.303   1.115   1.161 -0.3851 -0.4452 -0.5396
  784MPD2    C111612   2.373   1.233   1.174 -0.0107 -0.0780 -0.3748
  784MPD2    C211613   2.361   1.330   1.077 -0.2179  0.1491  0.0510
  784MPD2    C311614   2.271   1.321   0.975  0.1068  0.8182 -0.8119
  784MPD2    C411615   2.205   1.198   0.958 -0.3520 -0.1064 -0.5727
  784MPD2    C511616   2.228   1.100   1.050 -0.1970  0.0420 -0.8788
  784MPD2     H11617   2.403   1.429   1.090 -0.5363 -0.3097  4.5532
  784MPD2    H111618   2.138   1.180   0.875 -0.8843 -1.7029  0.2185
  784MPD2    H211619   2.297   1.041   1.240  0.1805  2.1267  1.9272
  784MPD2    H311620   2.174   1.006   1.038  0.2333 -0.5825  2.0740
  784MPD2     N11621   2.266   1.432   0.885  0.3819 -0.1970 -0.2691
  784MPD2    H511622   2.327   1.508   0.910  0.8375 -1.3066  1.9693
  784MPD2    N111623   2.444   1.272   1.295  0.5006  0.0862  0.3466
  784MPD2    H711624   2.481   1.365   1.307 -1.0414  0.8274 -0.6655
  785MPD2     C11625   3.183   4.624  11.146  0.4350  0.1305 -0.2437
  785MPD2    C111626   3.069   4.695  11.175 -0.4734  0.4022 -1.0299
  785MPD2    C211627   2.952   4.637  11.137 -0.1467  0.6009  0.5091
  785MPD2    C311628   2.950   4.521  11.059  0.2019 -0.5096  0.4111
  785MPD2    C411629   3.066   4.451  11.031  0.1277 -0.1225  0.6503
  785MPD2    C511630   3.189   4.507  11.076 -0.1800 -0.0542  0.6527
  785MPD2     H11631   2.859   4.689  11.155 -0.1403 -0.2240  2.8653
  785MPD2    H111632   3.060   4.355  10.980  0.1092  0.3698 -0.2727
  785MPD2    H211633   3.279   4.663  11.178  1.1340 -0.7509 -1.2898
  785MPD2    H311634   3.286   4.464  11.053 -0.2824  0.1289 -0.1268
  785MPD2     N11635   2.825   4.477  11.010 -0.2315  0.0644 -0.0055
  785MPD2    H511636   2.745   4.536  11.031  0.2995  1.1733 -1.1383
  785MPD2    N111637   3.067   0.077  11.236  0.2719 -0.7421  0.1215
  785MPD2    H711638   2.974   0.110  11.263  1.2731  1.2307  1.2122
  786MPD2     C11639   1.450   2.837  14.837  0.6846  0.0661 -0.3971
  786MPD2    C111640   1.359   2.739  14.880 -0.0280  0.7103 -0.1091
  786MPD2    C211641   1.362   2.701  15.009 -0.6884 -0.2868  0.9000
  786MPD2    C311642   1.455   2.749  15.098  0.2789  0.7628 -0.3909
  786MPD2    C411643   1.538   2.855  15.063  0.4112  0.1601  0.2847
  786MPD2    C511644   1.531   2.896  14.934 -0.1868 -0.1428 -0.4154
  786MPD2     H11645   1.305   2.610  15.025 -2.0569  0.6016  1.0365
  786MPD2    H111646   1.599   2.911  15.133 -0.4764  1.6076 -0.0877
  786MPD2    H211647   1.450   2.878  14.736  0.3447 -1.8006 -1.1501
  786MPD2    H311648   1.589   2.987  14.919 -1.2952  0.9267  1.7079
  786MPD2     N11649   1.477   2.693  15.224  0.2635  0.0144  0.3617
  786MPD2    H511650   1.549   2.734  15.282 -0.2193  1.4936 -0.0948
  786MPD2    N111651   1.282   2.654  14.795  0.1911  0.0311 -0.2323
  786MPD2    H711652   1.220   2.589  14.843 -0.8293  0.9297 -0.3516
  787MPD2     C11653   1.205   1.946  14.869 -0.1142 -0.3465  0.8363
  787MPD2    C111654   1.311   2.035  14.836 -0.2866  0.9843  0.4303
  787MPD2    C211655   1.437   2.006  14.884 -0.6211  0.8353 -0.2405
  787MPD2    C311656   1.460   1.883  14.947  0.0973 -0.2298 -0.2994
  787MPD2    C411657   1.354   1.790  14.959  0.3185  0.9740  0.4673
  787MPD2    C511658   1.229   1.823  14.927  0.0275  0.1166 -0.6137
  787MPD2     H11659   1.519   2.074  14.861  0.1157 -0.9723 -2.9230
  787MPD2    H111660   1.375   1.691  14.998 -0.8716 -0.4059 -2.3872
  787MPD2    H211661   1.104   1.965  14.837  0.6620  1.7595 -0.3995
  787MPD2    H311662   1.151   1.753  14.953 -0.0695 -0.4688 -2.5160
  787MPD2     N11663   1.598   1.857  14.991  0.4567  0.5896 -0.1048
  787MPD2    H511664   1.665   1.928  14.962  2.8922 -2.4156 -1.7868
  787MPD2    N111665   1.288   2.151  14.767 -0.0264  0.5616  0.1434
  787MPD2    H711666   1.358   2.224  14.775  0.6068  0.2492 -2.7657
  788MPD2     C11667   3.540   0.951   1.432 -0.1464  0.0602  0.1633
  788MPD2    C111668   3.600   0.876   1.335 -0.2126  0.8899  0.2562
  788MPD2    C211669   3.619   0.933   1.210 -0.2128 -1.3336  0.4212
  788MPD2    C311670   3.589   1.069   1.192  0.3058 -0.3663 -0.7749
  788MPD2    C411671   3.513   1.142   1.290 -0.5898  0.3139  0.3181
  788MPD2    C511672   3.504   1.078   1.413 -0.9998  0.0874 -0.7715
  788MPD2     H11673   3.656   0.866   1.134 -0.3055 -1.3631  0.4030
  788MPD2    H111674   3.480   1.244   1.272  1.6835  1.4542  2.7552
  788MPD2    H211675   3.518   0.919   1.534  1.0817  0.8529  0.6743
  788MPD2    H311676   3.455   1.137   1.490  0.1177 -0.0135  0.0241
  788MPD2     N11677   3.605   1.132   1.065  0.1152  0.3356 -0.1122
  788MPD2    H511678   3.564   1.223   1.049 -2.6638 -0.8673  0.3079
  788MPD2    N111679   3.621   0.734   1.342 -0.9390 -0.0533 -0.2285
  788MPD2    H711680   3.664   0.684   1.265  1.1782 -0.3339  1.1198
  789MPD2     C11681   3.756   0.312  17.202 -0.3980  0.0169 -0.6301
  789MPD2    C111682   3.697   0.313  17.082 -0.0831  0.5826 -0.0189
  789MPD2    C211683   3.589   0.406  17.069 -0.3747  0.3595  0.1406
  789MPD2    C311684   3.538   0.476  17.182 -0.1807 -0.0372 -0.3270
  789MPD2    C411685   3.596   0.457  17.301  0.3840  0.3587 -0.7546
  789MPD2    C511686   3.709   0.378  17.308  0.2339  0.5467  0.1832
  789MPD2     H11687   3.547   0.416  16.970 -0.4278 -0.8877  0.0392
  789MPD2    H111688   3.563   0.506  17.392  0.1376  0.1847 -0.7505
  789MPD2    H211689   3.846   0.256  17.224 -0.1528  0.5906 -0.1790
  789MPD2    H311690   3.766   0.380  17.401 -1.1676 -0.5133  1.0537
  789MPD2     N11691   3.442   0.575  17.173  0.0669  0.0518  0.6476
  789MPD2    H511692   3.413   0.612  17.263 -0.0090  1.2687  0.1196
  789MPD2    N111693   3.735   0.234  16.972 -0.0043 -0.2318 -0.0635
  789MPD2    H711694   3.678   0.241  16.887  1.4607  3.7648 -0.6894
  790MPD2     C11695   4.065   2.008  13.853  0.8937  0.3607  0.8954
  790MPD2    C111696   4.186   2.035  13.799  0.4760 -0.3633 -0.0384
  790MPD2    C211697   4.197   2.027  13.658 -0.3422 -0.7314 -0.4495
  790MPD2    C311698   4.090   2.003  13.575 -0.0040 -0.2028  0.1096
  790MPD2    C411699   3.978   1.963  13.634 -0.0300  0.6066 -0.5720
  790MPD2    C511700   3.965   1.970  13.768  0.4211 -1.1149 -0.4367
  790MPD2     H11701   4.292   2.064  13.621  0.0961 -0.1560  1.2855
  790MPD2    H111702   3.891   1.923  13.583  0.0949 -0.9650  0.4402
  790MPD2    H211703   4.040   2.007  13.959  0.4199 -2.9735  0.7400
  790MPD2    H311704   3.871   1.933  13.806 -0.0152 -0.2115 -0.6476
  790MPD2     N11705   4.097   2.005  13.433 -0.1151 -0.4379  0.4326
  790MPD2    H511706   4.018   1.958  13.390 -0.2567  1.0823 -0.9486
  790MPD2    N111707   4.289   2.051  13.889 -0.3164  0.4142  0.7475
  790MPD2    H711708   4.265   2.035  13.986 -0.7191  2.3980  0.9784
  791MPD2     C11709   3.804   2.035  12.748 -0.4061 -0.7795  0.7059
  791MPD2    C111710   3.846   1.933  12.828 -0.1104  0.4539 -0.1856
  791MPD2    C211711   3.772   1.814  12.837  0.4508 -0.1061 -0.0849
  791MPD2    C311712   3.649   1.803  12.767  0.5752  0.3582  0.4528
  791MPD2    C411713   3.611   1.910  12.687 -0.3202  0.0980 -0.2217
  791MPD2    C511714   3.692   2.015  12.672  0.7998  0.1642 -1.1320
  791MPD2     H11715   3.805   1.730  12.898  2.2996  1.5527  1.2250
  791MPD2    H111716   3.520   1.913  12.628  0.1227  0.7968 -0.8610
  791MPD2    H211717   3.856   2.129  12.739  1.8163 -2.1047 -0.3856
  791MPD2    H311718   3.650   2.092  12.609 -1.7529 -1.1256 -1.0162
  791MPD2     N11719   3.569   1.686  12.774  0.6190  0.1533 -0.1603
  791MPD2    H511720   3.597   1.606  12.830 -0.2576  0.3662  0.5888
  791MPD2    N111721   3.970   1.954  12.894 -0.2709 -0.3549 -0.1667
  791MPD2    H711722   4.021   2.041  12.886 -0.4666 -0.2047  0.2256
  792MPD2     C11723   0.188   2.084  10.984 -0.2027 -0.0852 -0.7462
  792MPD2    C111724   0.068   2.156  10.963  0.1591 -0.1326 -0.1729
  792MPD2    C211725   4.717   2.103  10.877 -0.0933 -0.7399 -0.1242
  792MPD2    C311726   0.003   1.991  10.804 -0.3615  0.7403  0.0478
  792MPD2    C411727   0.129   1.936  10.811  0.3599 -0.7376  0.6825
  792MPD2    C511728   0.216   1.975  10.907 -0.3460 -1.2788  0.4349
  792MPD2     H11729   4.626   2.162  10.869 -1.1625 -1.9374  2.9982
  792MPD2    H111730   0.161   1.848  10.757  1.5734 -0.3799  0.8276
  792MPD2    H211731   0.265   2.117  11.053 -0.8170  1.7314 -0.9122
  792MPD2    H311732   0.311   1.924  10.917 -0.1530 -1.1888 -0.9361
  792MPD2     N11733   4.653   1.945  10.707 -0.3013 -0.6692 -0.3995
  792MPD2    H511734   4.683   1.863  10.654  2.7504 -2.2808  3.8181
  792MPD2    N111735   0.051   2.270  11.043  0.0113 -0.2989  0.2598
  792MPD2    H711736   0.124   2.285  11.113  0.6336  2.8719 -1.0419
  793MPD2     C11737   3.857   2.420  10.358  0.3440  0.1048  0.0147
  793MPD2    C111738   3.945   2.424  10.461  0.0825  0.2924  0.2014
  793MPD2    C211739   4.033   2.323  10.484 -0.0155  0.9038  1.0895
  793MPD2    C311740   4.040   2.213  10.392  0.7419 -0.3183  0.1069
  793MPD2    C411741   3.939   2.201  10.297  0.2829  0.6472 -0.6882
  793MPD2    C511742   3.847   2.302  10.288  0.4715 -0.7210 -0.0766
  793MPD2     H11743   4.109   2.319  10.561  0.4636 -1.5140  0.4995
  793MPD2    H111744   3.931   2.115  10.232 -0.9914  0.1293  0.1386
  793MPD2    H211745   3.791   2.505  10.347  2.8592  2.0543 -0.0949
  793MPD2    H311746   3.772   2.286  10.211 -2.3397  3.3432  1.8584
  793MPD2     N11747   4.154   2.127  10.414 -0.8928  0.0491  0.0914
  793MPD2    H511748   4.221   2.160  10.483 -0.9954  1.7451 -0.6155
  793MPD2    N111749   3.968   2.545  10.535  0.7588  0.4655  0.1577
  793MPD2    H711750   4.023   2.530  10.618  2.6629 -1.7812 -1.5201
  794MPD2     C11751   4.434   0.747  17.685 -0.5276 -0.0871  0.2837
  794MPD2    C111752   4.417   0.622  17.638 -0.3397  0.3752 -0.1493
  794MPD2    C211753   4.438   0.609  17.501  0.4445  0.9940 -0.8337
  794MPD2    C311754   4.473   0.716  17.422 -0.2150  0.2120  0.4637
  794MPD2    C411755   4.511   0.835  17.480  0.4351 -0.6342  0.0465
  794MPD2    C511756   4.483   0.851  17.607  0.6971 -0.2321 -0.3624
  794MPD2     H11757   4.412   0.516  17.452 -0.3900  0.9363 -0.2800
  794MPD2    H111758   4.560   0.923  17.441  2.6931 -1.2208  1.5745
  794MPD2    H211759   4.419   0.761   0.034 -2.9710  0.7122 -0.1593
  794MPD2    H311760   4.502   0.945  17.657  0.5972  0.5030 -1.7273
  794MPD2     N11761   4.489   0.700  17.284 -0.5987 -0.0929 -0.0701
  794MPD2    H511762   4.525   0.786  17.245  0.6258 -0.3355  0.4979
  794MPD2    N111763   4.402   0.507  17.715  0.5053  0.1233 -0.3672
  794MPD2    H711764   4.404   0.414  17.673 -0.7090 -1.3631  2.8392
  795MPD2     C11765   2.089   3.838  13.543 -0.3868  0.3189  0.8986
  795MPD2    C111766   2.019   3.726  13.498  0.3854  0.0725 -0.1196
  795MPD2    C211767   2.063   3.601  13.538  0.1632  0.2760  0.3129
  795MPD2    C311768   2.170   3.583  13.621 -0.2870 -0.0908 -0.0753
  795MPD2    C411769   2.236   3.694  13.663  0.1709  0.2693  0.3629
  795MPD2    C511770   2.194   3.819  13.633 -0.2502 -0.1435  0.0613
  795MPD2     H11771   2.004   3.518  13.501  1.1886 -0.5319  0.5021
  795MPD2    H111772   2.334   3.687  13.709 -0.6939 -3.2402  1.6255
  795MPD2    H211773   2.077   3.940  13.508 -0.9729 -0.3122 -0.7371
  795MPD2    H311774   2.241   3.911  13.666 -0.0759 -0.3711  0.4560
  795MPD2     N11775   2.220   3.457  13.659  0.2116 -0.0828 -0.5996
  795MPD2    H511776   2.315   3.457  13.694 -0.5962  0.9482  1.5668
  795MPD2    N111777   1.917   3.738  13.398 -0.1211 -0.0120 -0.2242
  795MPD2    H711778   1.881   3.650  13.363  0.5248  0.0738 -1.0739
  796MPD2     C11779   1.593   4.625  15.856 -0.2041 -0.1445  0.3337
  796MPD2    C111780   1.704   4.686  15.807 -0.2878  0.4215 -0.5986
  796MPD2    C211781   1.703   0.069  15.760 -0.3332 -0.5595  0.1574
  796MPD2    C311782   1.589   0.145  15.759 -0.1476  0.5663  0.3500
  796MPD2    C411783   1.478   0.094  15.811  0.0937 -0.2437 -0.6844
  796MPD2    C511784   1.480   4.708  15.856 -0.8357 -0.1271  0.4800
  796MPD2     H11785   1.796   0.104  15.718 -1.0044 -1.1747 -1.8679
  796MPD2    H111786   1.380   0.140  15.818  0.0990 -0.6356  2.0331
  796MPD2    H211787   1.592   4.526  15.900  1.0946 -0.2769  0.0849
  796MPD2    H311788   1.387   4.669  15.895 -2.0049  1.6225 -0.5371
  796MPD2     N11789   1.610   0.283  15.726  0.0868  0.5135 -0.4164
  796MPD2    H511790   1.705   0.305  15.698 -0.0742  1.2975 -0.3593
  796MPD2    N111791   1.832   4.611  15.826  0.0841  0.5092 -0.7857
  796MPD2    H711792   1.819   4.523  15.874  0.1402  0.1812 -1.3763
  797MPD2     C11793   2.542   4.718  17.297  0.2065 -0.0489 -0.0769
  797MPD2    C111794   2.597   0.105  17.291  0.1166  0.3460 -0.8010
  797MPD2    C211795   2.598   0.174  17.174  0.3634 -0.0108  0.6203
  797MPD2    C311796   2.542   0.125  17.059 -0.1751 -0.2447  0.3743
  797MPD2    C411797   2.469   0.009  17.071  0.1659 -0.3234  0.0233
  797MPD2    C511798   2.472   4.675  17.189  0.2024  0.8000  0.2442
  797MPD2     H11799   2.636   0.276  17.172  0.2275  0.0984  2.8781
  797MPD2    H111800   2.403   4.715  16.991 -0.3368  1.9299 -0.5151
  797MPD2    H211801   2.556   4.659  17.386 -0.1858 -0.9662 -0.6272
  797MPD2    H311802   2.422   4.581  17.208 -0.2365  1.6858  3.3880
  797MPD2     N11803   2.531   0.205  16.948 -0.3680  0.0671 -0.2567
  797MPD2    H511804   2.567   0.300  16.953  1.3307 -0.4601 -2.2115
  797MPD2    N111805   2.676   0.171  17.388 -0.4944 -0.2787  0.0821
  797MPD2    H711806   2.710   0.262  17.357  0.2934 -0.8715 -0.7880
  798MPD2     C11807   3.171   0.325  16.886  0.2585  0.3077 -0.5002
  798MPD2    C111808   3.043   0.372  16.918 -0.4955 -0.0363  0.3465
  798MPD2    C211809   3.013   0.383  17.053 -0.0636  0.2622  0.0305
  798MPD2    C311810   3.107   0.353  17.148 -0.7563  0.6093  0.1976
  798MPD2    C411811   3.234   0.313  17.121 -0.2738 -0.0779  0.1678
  798MPD2    C511812   3.264   0.299  16.987 -0.2073  0.1176 -0.0069
  798MPD2     H11813   2.916   0.412  17.092 -0.1594  0.1210 -0.1073
  798MPD2    H111814   3.321   0.303  17.185  0.5289  1.6850 -0.6499
  798MPD2    H211815   3.202   0.314  16.783 -0.6159  1.0555 -0.8375
  798MPD2    H311816   3.367   0.272  16.970 -0.2827  1.1140 -2.0027
  798MPD2     N11817   3.067   0.359  17.284  0.3289 -0.4187 -0.0713
  798MPD2    H511818   2.968   0.376  17.296  0.4040  0.8916 -1.3079
  798MPD2    N111819   2.943   0.391  16.819  0.2038  0.4015 -0.3448
  798MPD2    H711820   2.977   0.377  16.724  1.3427  1.9120 -0.1678
  799MPD2     C11821   1.531   1.334  14.845  0.5449 -0.0653 -0.7350
  799MPD2    C111822   1.497   1.253  14.743  0.2605  0.2314  0.1374
  799MPD2    C211823   1.422   1.307  14.633  1.0760 -0.5400  0.1963
  799MPD2    C311824   1.385   1.438  14.630 -0.0123  0.1890  0.3555
  799MPD2    C411825   1.406   1.514  14.743  0.3230 -0.3332 -0.0437
  799MPD2    C511826   1.485   1.464  14.843 -0.4806 -0.2058 -0.2535
  799MPD2     H11827   1.399   1.244  14.548  0.3028 -1.7632  1.3161
  799MPD2    H111828   1.367   1.614  14.758  1.5832 -0.2618  2.6872
  799MPD2    H211829   1.590   1.309  14.933  0.0973  0.3303 -0.3172
  799MPD2    H311830   1.510   1.520  14.932 -0.7080  0.2335 -0.4697
  799MPD2     N11831   1.324   1.497  14.519  0.0277 -0.2600 -0.0970
  799MPD2    H511832   1.317   1.598  14.514 -0.7755 -0.3017  0.1526
  799MPD2    N111833   1.543   1.121  14.731 -0.1892 -0.2569 -0.1477
  799MPD2    H711834   1.497   1.065  14.660 -0.7474 -1.0395  0.8438
  800MPD2     C11835   1.766   2.689  13.800 -0.2373  0.4148  0.3622
  800MPD2    C111836   1.898   2.652  13.801 -0.1370  0.1389 -0.4075
  800MPD2    C211837   1.948   2.570  13.705 -0.0395  0.5353 -0.1957
  800MPD2    C311838   1.868   2.527  13.604  0.4740  0.5767 -0.2944
  800MPD2    C411839   1.732   2.556  13.610  0.2822  0.5776  0.6700
  800MPD2    C511840   1.682   2.645  13.701  0.0819 -0.5466  0.1421
  800MPD2     H11841   2.055   2.558  13.693 -0.2201  0.5129 -1.7176
  800MPD2    H111842   1.655   2.520  13.543  2.7617 -1.2477 -1.2110
  800MPD2    H211843   1.720   2.758  13.870  0.9163  0.7728  0.7608
  800MPD2    H311844   1.578   2.670  13.714 -0.4662 -2.0107 -1.4643
  800MPD2     N11845   1.925   2.427  13.513 -0.1120 -0.0056 -0.2849
  800MPD2    H511846   2.024   2.404  13.519 -0.0232  0.4959  0.1258
  800MPD2    N111847   1.973   2.728  13.889  0.7200 -0.2945  0.3092
  800MPD2    H711848   1.922   2.812  13.916 -0.3183  0.2126 -3.1387
  801MPD2     C11849   1.931   3.439  13.879  0.2599  0.4054 -0.1593
  801MPD2    C111850   1.898   3.317  13.951 -0.1586 -0.3079  0.1700
  801MPD2    C211851   1.768   3.307  13.981  0.5580 -0.5768 -1.2310
  801MPD2    C311852   1.676   3.411  13.966 -0.8266  0.5479  0.3636
  801MPD2    C411853   1.715   3.533  13.916  0.0710 -0.3811 -0.5299
  801MPD2    C511854   1.838   3.529  13.855  0.3068  0.1601 -0.2561
  801MPD2     H11855   1.734   3.221  14.037  1.8638  0.6362  1.4368
  801MPD2    H111856   1.640   3.606  13.890 -0.1263  0.2948  1.9258
  801MPD2    H211857   2.029   3.460  13.837 -1.0107 -0.4782 -3.5318
  801MPD2    H311858   1.862   3.608  13.785  1.6717 -0.6905 -0.7463
  801MPD2     N11859   1.553   3.418  14.030  0.2248  0.3882  0.1704
  801MPD2    H511860   1.511   3.510  14.040 -2.2927 -0.8076  0.6293
  801MPD2    N111861   1.982   3.214  13.987 -0.6131  0.2028 -0.1138
  801MPD2    H711862   1.937   3.132  14.028 -2.5267  1.3573  0.0849
  802MPD2     C11863   1.763   3.752   0.235  1.1719  0.4208  0.1514
  802MPD2    C111864   1.675   3.721   0.134  0.5870 -0.2963 -0.1522
  802MPD2    C211865   1.676   3.599   0.068  0.4297 -0.4315  0.2927
  802MPD2    C311866   1.768   3.503   0.099  0.1370  0.3525  0.4943
  802MPD2    C411867   1.856   3.542   0.195 -0.8604  0.3939  0.5515
  802MPD2    C511868   1.857   3.658   0.264 -0.0077 -0.2872 -0.4551
  802MPD2     H11869   1.603   3.577  17.749 -2.4913  0.4028  2.8229
  802MPD2    H111870   1.942   3.481   0.222 -0.8590 -0.1183 -0.6369
  802MPD2    H211871   1.777   3.857   0.258 -0.0443  1.0089 -1.8557
  802MPD2    H311872   1.950   3.682   0.315 -0.5445 -0.0623  0.3960
  802MPD2     N11873   1.788   3.388   0.016 -0.5527 -0.5037  0.2447
  802MPD2    H511874   1.717   3.364  17.706 -0.2831  0.7540 -0.4834
  802MPD2    N111875   1.578   3.811   0.088 -0.4770 -0.2538  0.2466
  802MPD2    H711876   1.511   3.764   0.028 -0.1774  0.3257 -0.5423
  803MPD2     C11877   2.339   1.876  11.874 -0.8102 -0.0541 -0.9768
  803MPD2    C111878   2.442   1.950  11.927 -0.1039 -0.0329  0.7443
  803MPD2    C211879   2.468   1.935  12.066 -0.6310  0.8032  0.0746
  803MPD2    C311880   2.382   1.865  12.151 -0.0595  0.4149 -0.0852
  803MPD2    C411881   2.280   1.792  12.085  0.0202  0.0381  0.1699
  803MPD2    C511882   2.264   1.792  11.951  0.2774  0.0287  0.6141
  803MPD2     H11883   2.551   1.984  12.113  0.0630  1.2209 -1.5746
  803MPD2    H111884   2.217   1.721  12.136 -2.1363  1.5621 -0.3392
  803MPD2    H211885   2.322   1.877  11.767  0.8841 -2.1215 -1.2616
  803MPD2    H311886   2.185   1.734  11.904 -1.1226  1.6907  0.8920
  803MPD2     N11887   2.412   1.850  12.282 -0.1139  0.6030 -0.4987
  803MPD2    H511888   2.500   1.893  12.308  1.2577 -2.9400  0.7009
  803MPD2    N111889   2.514   2.057  11.856  0.1276  0.6592 -0.6823
  803MPD2    H711890   2.573   2.112  11.918 -1.0413  1.5733 -0.4021
  804MPD2     C11891   2.770   3.230  16.931 -0.0295  0.1250  0.1757
  804MPD2    C111892   2.736   3.213  17.066 -0.1890  0.7567 -0.2559
  804MPD2    C211893   2.769   3.318  17.156 -0.7370  0.2020  0.0209
  804MPD2    C311894   2.830   3.429  17.110 -0.6571  0.1131  0.1265
  804MPD2    C411895   2.865   3.440  16.974  0.0621 -0.7690 -0.5219
  804MPD2    C511896   2.838   3.340  16.887 -0.8520  0.5009  0.3004
  804MPD2     H11897   2.728   3.315  17.256  0.1465  0.2803  0.3834
  804MPD2    H111898   2.916   3.531  16.944 -1.8203  1.3732  2.7647
  804MPD2    H211899   2.764   3.148  16.861  2.0751  1.1884 -1.2504
  804MPD2    H311900   2.871   3.351  16.784  2.2266  0.0649  1.2308
  804MPD2     N11901   2.875   3.527  17.204 -0.1096  0.3615  0.0719
  804MPD2    H511902   2.887   3.495  17.300 -0.6625 -2.4067 -0.7675
  804MPD2    N111903   2.660   3.104  17.107 -0.1052 -0.2925 -0.3339
  804MPD2    H711904   2.619   3.107  17.200 -0.0550  1.2388 -0.3723
  805MPD2     C11905   1.281   1.715  15.451  0.5562  0.7119  0.1372
  805MPD2    C111906   1.363   1.615  15.409  0.4468 -0.2450  0.0244
  805MPD2    C211907   1.482   1.597  15.479 -0.1052  0.0055 -0.0930
  805MPD2    C311908   1.510   1.670  15.591 -0.1403  0.6663  0.1554
  805MPD2    C411909   1.422   1.770  15.636  0.1036  0.2638  0.0952
  805MPD2    C511910   1.303   1.780  15.572 -0.0357  0.5544  0.7229
  805MPD2     H11911   1.560   1.529  15.447  0.2085 -0.3005  1.3164
  805MPD2    H111912   1.445   1.837  15.718 -0.4770  0.3651  0.1751
  805MPD2    H211913   1.209   1.757  15.382  0.3086 -1.1834 -0.7486
  805MPD2    H311914   1.241   1.865  15.598 -0.9324 -0.0913  0.7150
  805MPD2     N11915   1.628   1.644  15.654 -0.2493 -0.1665  0.0303
  805MPD2    H511916   1.691   1.577  15.611 -0.0525 -0.2356  0.4196
  805MPD2    N111917   1.343   1.535  15.298  0.0042  0.5596 -0.1266
  805MPD2    H711918   1.411   1.464  15.276 -1.2890 -0.2773 -1.4727
  806MPD2     C11919   2.014   0.719   0.537 -0.2086 -0.6825  0.4106
  806MPD2    C111920   1.962   0.830   0.594  0.0121  0.7009  0.0729
  806MPD2    C211921   2.012   0.953   0.549  0.8889 -0.2163 -0.1167
  806MPD2    C311922   2.116   0.964   0.455 -0.1994 -0.2698 -0.1237
  806MPD2    C411923   2.169   0.847   0.402  0.3229 -0.3183 -0.0450
  806MPD2    C511924   2.117   0.726   0.441  0.1760 -0.1107  0.3032
  806MPD2     H11925   1.976   1.046   0.590  0.0776 -1.2746  1.5992
  806MPD2    H111926   2.241   0.834   0.322 -0.9920  0.5910 -1.3694
  806MPD2    H211927   1.964   0.624   0.552 -1.3377 -0.2972 -0.8827
  806MPD2    H311928   2.152   0.633   0.396 -1.0713 -1.2017  1.5793
  806MPD2     N11929   2.158   1.092   0.415 -0.5213 -0.9232  0.2948
  806MPD2    H511930   2.100   1.167   0.449 -0.6136 -0.8140 -0.1063
  806MPD2    N111931   1.851   0.807   0.680  0.5192 -0.0767 -0.0230
  806MPD2    H711932   1.814   0.713   0.690  1.4790 -0.2579  1.8827
  807MPD2     C11933   1.449   0.241   0.955  0.0629 -0.5143 -1.0129
  807MPD2    C111934   1.536   0.300   1.045 -0.3135  0.5804  0.4021
  807MPD2    C211935   1.579   0.227   1.150  0.0427 -0.4918  0.2855
  807MPD2    C311936   1.528   0.102   1.187 -0.9271  0.4079 -0.0406
  807MPD2    C411937   1.438   0.042   1.096  0.0493 -0.4972  0.0043
  807MPD2    C511938   1.397   0.116   0.979  0.2685 -0.0424 -0.2912
  807MPD2     H11939   1.652   0.267   1.219  2.7929 -0.8074 -2.4950
  807MPD2    H111940   1.401   4.683   1.117  1.4183 -1.6675 -3.1623
  807MPD2    H211941   1.413   0.298   0.870  2.2354  1.5388 -0.5445
  807MPD2    H311942   1.333   0.070   0.905  1.0341 -0.4588 -0.6920
  807MPD2     N11943   1.585   0.048   1.310 -0.3211 -0.2975  0.4392
  807MPD2    H511944   1.667   0.092   1.351  1.8622 -1.3199 -2.8233
  807MPD2    N111945   1.594   0.428   1.036 -0.0727 -0.2462 -0.0398
  807MPD2    H711946   1.657   0.458   1.110 -0.7644 -0.2088  0.5379
  808MPD2     C11947   1.757   2.880   9.655  0.4840 -0.6431 -0.3317
  808MPD2    C111948   1.805   2.891   9.785 -0.9551  0.1821 -0.8858
  808MPD2    C211949   1.863   3.015   9.825  0.3735 -0.1617  0.9397
  808MPD2    C311950   1.867   3.130   9.750 -0.1090 -0.3688  0.0222
  808MPD2    C411951   1.810   3.116   9.620  0.1788  0.2094  0.4312
  808MPD2    C511952   1.754   3.001   9.582  0.4719 -0.0765 -0.6560
  808MPD2     H11953   1.903   3.014   9.926  1.7546  0.2180  0.3905
  808MPD2    H111954   1.815   3.198   9.549 -0.1585  0.5035  0.7466
  808MPD2    H211955   1.717   2.792   9.606 -1.1003  0.9288 -1.8794
  808MPD2    H311956   1.719   2.989   9.480  3.0007  1.2078 -1.6874
  808MPD2     N11957   1.922   3.257   9.787 -0.5983  0.1432  0.5868
  808MPD2    H511958   1.907   3.330   9.717  1.2646  0.5877  0.6570
  808MPD2    N111959   1.814   2.778   9.874  0.4416  0.0236  0.0038
  808MPD2    H711960   1.853   2.801   9.964 -1.0435  2.0490  0.1376
  809MPD2     C11961   2.596   3.602   9.340 -0.0418  0.0073  0.0194
  809MPD2    C111962   2.627   3.574   9.469 -0.0651  0.3602 -0.3212
  809MPD2    C211963   2.525   3.559   9.556  0.9316  0.0835  0.4385
  809MPD2    C311964   2.394   3.574   9.519 -1.2836 -1.3496  0.0105
  809MPD2    C411965   2.357   3.592   9.389 -0.3218  0.5479  0.6608
  809MPD2    C511966   2.459   3.602   9.301 -0.0557  0.2788  0.0679
  809MPD2     H11967   2.561   3.534   9.656  0.0077 -3.4206 -0.1262
  809MPD2    H111968   2.254   3.612   9.363  0.2231  1.0587 -1.1420
  809MPD2    H211969   2.665   3.604   9.256 -0.2512  1.3261 -0.1205
  809MPD2    H311970   2.429   3.622   9.199 -0.4564 -1.0012 -0.0652
  809MPD2     N11971   2.286   3.583   9.612  0.5633  0.0364  0.2896
  809MPD2    H511972   2.194   3.606   9.575  1.0696  2.4630  0.5508
  809MPD2    N111973   2.758   3.561   9.519 -0.2758 -0.4397 -1.0104
  809MPD2    H711974   2.780   3.543   9.617  0.2000  1.7728 -0.7168
  810MPD2     C11975   1.660   2.027  10.525 -0.2360  0.9595 -0.0691
  810MPD2    C111976   1.570   2.124  10.490 -0.5922 -0.4919  0.1474
  810MPD2    C211977   1.592   2.253  10.521  0.2395 -0.6557  0.0526
  810MPD2    C311978   1.714   2.292  10.579 -0.0741 -0.4357  0.0595
  810MPD2    C411979   1.803   2.196  10.615  0.4162  0.0662  0.0446
  810MPD2    C511980   1.772   2.063  10.590 -0.0336  0.7180  0.3359
  810MPD2     H11981   1.521   2.333  10.506  1.1700  0.5223  1.9797
  810MPD2    H111982   1.893   2.217  10.670 -0.4692 -1.6102  2.1140
  810MPD2    H211983   1.641   1.921  10.511  2.0561  0.7614 -1.5998
  810MPD2    H311984   1.842   1.991  10.629 -0.0565  0.0812 -0.8127
  810MPD2     N11985   1.740   2.424  10.616 -0.0912 -0.2932 -0.4583
  810MPD2    H511986   1.827   2.432  10.669 -0.9662  0.9693  0.7895
  810MPD2    N111987   1.451   2.083  10.434 -0.0938  0.4290  0.2619
  810MPD2    H711988   1.447   1.988  10.397 -0.6039  0.3493  0.5099
  811MPD2     C11989   0.792   2.230   9.853 -0.4871  0.1714  0.3169
  811MPD2    C111990   0.845   2.268   9.978  0.0085 -0.0568 -0.5327
  811MPD2    C211991   0.874   2.402   9.994 -0.5900 -0.6127  0.4567
  811MPD2    C311992   0.843   2.496   9.892  0.6031  0.1362 -0.0923
  811MPD2    C411993   0.795   2.454   9.772 -0.5707  0.6151 -0.5239
  811MPD2    C511994   0.765   2.319   9.756  0.4701 -1.0363  0.1012
  811MPD2     H11995   0.921   2.442  10.082 -1.7286  1.1261  0.2716
  811MPD2    H111996   0.782   2.522   9.688 -2.4563 -1.3450 -1.8034
  811MPD2    H211997   0.762   2.126   9.846  0.3050 -0.0464  0.1580
  811MPD2    H311998   0.712   2.291   9.666 -0.5339 -1.1457  0.7163
  811MPD2     N11999   0.887   2.626   9.922  0.4401 -0.9419  0.4192
  811MPD2    H512000   0.969   2.626   9.982  1.4258  0.3238 -0.9319
  811MPD2    N112001   0.870   2.165  10.080 -0.1943 -0.6099 -0.2871
  811MPD2    H712002   0.865   2.070  10.045 -0.4799 -0.4800 -0.6038
  812MPD2     C12003   0.550   2.491  12.503 -0.2895  0.4418 -1.0380
  812MPD2    C112004   0.453   2.548  12.584  0.4446 -0.2363 -0.0490
  812MPD2    C212005   0.384   2.466  12.679 -0.1564  0.0287 -0.7258
  812MPD2    C312006   0.416   2.330  12.688  0.0231 -0.4533  0.6964
  812MPD2    C412007   0.512   2.270  12.600  0.0442  1.0579 -0.1363
  812MPD2    C512008   0.579   2.356  12.515 -0.3421 -0.3257  0.2047
  812MPD2     H12009   0.303   2.505  12.740 -0.0084 -0.8243  0.0101
  812MPD2    H112010   0.543   2.167  12.614  0.9119  1.2171 -0.9095
  812MPD2    H212011   0.610   2.544  12.430 -0.8519  2.6193  0.0680
  812MPD2    H312012   0.661   2.321  12.455  2.2277  0.2978  3.3414
  812MPD2     N12013   0.339   2.253  12.784 -0.5432  0.1648 -0.2356
  812MPD2    H512014   0.296   2.308  12.858  0.2804 -0.9443  1.0610
  812MPD2    N112015   0.427   2.685  12.561 -0.4648  0.2690  0.0149
  812MPD2    H712016   0.475   2.738  12.488 -1.6309 -0.2513 -1.1368
  813MPD2     C12017   4.301   3.952  12.820  0.1201 -1.1084  0.3827
  813MPD2    C112018   4.333   4.072  12.877 -0.1289 -0.6012 -1.1282
  813MPD2    C212019   4.302   4.096  13.012  0.6677 -0.2797 -0.3290
  813MPD2    C312020   4.230   4.014  13.094 -0.5406  0.8655 -0.1916
  813MPD2    C412021   4.205   3.889  13.039  0.5391 -0.0923 -0.2621
  813MPD2    C512022   4.243   3.867  12.905  0.0971  0.9477 -0.8214
  813MPD2     H12023   4.328   4.197  13.041 -1.8820  0.1627  0.4672
  813MPD2    H112024   4.152   3.810  13.090  1.2602  0.0955  0.7633
  813MPD2    H212025   4.318   3.921  12.717 -1.3124 -0.0809 -0.1642
  813MPD2    H312026   4.217   3.769  12.867  0.5711  0.4428  0.1620
  813MPD2     N12027   4.194   4.061  13.218 -1.0030  0.4237  0.0788
  813MPD2    H512028   4.244   4.145  13.247 -1.8911  0.2612  2.0925
  813MPD2    N112029   4.416   4.178  12.824  0.0432  0.2380  0.3829
  813MPD2    H712030   4.414   4.267  12.872 -1.2211 -0.3947  1.5195
  814MPD2     C12031   0.043   0.619  12.650  0.2357  0.2766  0.2202
  814MPD2    C112032   0.117   0.645  12.533  0.6418  0.4837  0.3041
  814MPD2    C212033   0.182   0.772  12.524 -0.3856 -0.2299 -0.0589
  814MPD2    C312034   0.152   0.882  12.610 -0.1439 -0.0103 -0.5314
  814MPD2    C412035   0.079   0.849  12.720  0.9938  0.8218  0.4927
  814MPD2    C512036   0.033   0.719  12.738  0.5348  0.4745 -0.1426
  814MPD2     H12037   0.263   0.790  12.454 -0.0998  0.9286  0.5707
  814MPD2    H112038   0.066   0.920  12.801 -0.1251 -1.3294  2.1839
  814MPD2    H212039   4.734   0.523  12.663 -1.4298  1.1886  0.5856
  814MPD2    H312040   4.728   0.691  12.833 -2.6209  1.8546 -1.2068
  814MPD2     N12041   0.218   1.010  12.587 -0.3879 -0.2715  0.2256
  814MPD2    H512042   0.279   1.021  12.507 -1.5084  0.5796 -0.5166
  814MPD2    N112043   0.120   0.563  12.421  0.6652 -0.2015  0.1687
  814MPD2    H712044   0.165   0.612  12.345  0.2036 -0.3634 -0.2073
  815MPD2     C12045   0.588   3.995  11.766  0.0528  0.3919 -0.3553
  815MPD2    C112046   0.567   3.872  11.702  0.2975  0.5970 -0.0528
  815MPD2    C212047   0.466   3.799  11.754  0.3008 -0.3046 -0.1232
  815MPD2    C312048   0.391   3.848  11.859  0.0223 -0.1897  0.3149
  815MPD2    C412049   0.404   3.972  11.909  0.0732 -0.5608  0.6118
  815MPD2    C512050   0.508   4.045  11.860  0.7416  0.0509 -0.1803
  815MPD2     H12051   0.441   3.703  11.709  0.6541 -0.0436 -0.8700
  815MPD2    H112052   0.335   4.013  11.983  1.9258  3.3870  0.1772
  815MPD2    H212053   0.671   4.053  11.726 -0.5782  1.1965 -0.4785
  815MPD2    H312054   0.523   4.146  11.897 -0.7427  0.8404 -1.7760
  815MPD2     N12055   0.294   3.759  11.910  0.1321  0.1034 -0.1899
  815MPD2    H512056   0.291   3.666  11.869  0.3691 -1.7309  3.9964
  815MPD2    N112057   0.674   3.834  11.619 -0.3634 -0.4427 -0.3938
  815MPD2    H712058   0.749   3.898  11.595 -1.0930  0.8482  0.7509
  816MPD2     C12059   0.801   2.193  17.146  0.0751 -0.4597 -0.0580
  816MPD2    C112060   0.827   2.254  17.027 -0.4368  0.6343 -0.1855
  816MPD2    C212061   0.902   2.186  16.935 -0.4320  0.2912  0.5489
  816MPD2    C312062   0.938   2.055  16.950  0.5006  0.0750 -0.0194
  816MPD2    C412063   0.904   2.003  17.079  0.3576 -0.5828  0.0277
  816MPD2    C512064   0.843   2.072  17.174  0.4602  0.9869 -0.0353
  816MPD2     H12065   0.944   2.233  16.847 -1.0957  0.1797  0.1718
  816MPD2    H112066   0.928   1.900  17.101 -0.8259 -0.2793  2.7423
  816MPD2    H212067   0.739   2.238  17.224  1.4075 -1.4018  1.5541
  816MPD2    H312068   0.806   2.022  17.262 -2.8779  0.8425 -1.5147
  816MPD2     N12069   1.012   1.988  16.854 -0.5326  0.0456 -0.0219
  816MPD2    H512070   1.026   2.038  16.767  2.1378  0.0209  0.3931
  816MPD2    N112071   0.774   2.377  16.993  0.6153 -0.6505 -0.7372
  816MPD2    H712072   0.808   2.417  16.906  0.8422 -1.1719 -0.8866
  817MPD2     C12073   4.373   0.200  10.025 -0.1357 -0.0180  0.4057
  817MPD2    C112074   4.333   0.118   9.925  0.5923  0.4033 -0.2953
  817MPD2    C212075   4.247   0.181   9.830 -0.9520 -0.1524  0.1143
  817MPD2    C312076   4.222   0.315   9.822  0.3578  0.4558  0.4531
  817MPD2    C412077   4.282   0.389   9.915 -0.4278 -0.1343 -0.0297
  817MPD2    C512078   4.347   0.331  10.018  0.0014  0.3070 -0.1495
  817MPD2     H12079   4.225   0.116   9.745 -0.0020  2.1277 -1.8691
  817MPD2    H112080   4.280   0.497   9.920  1.4237 -0.0078 -2.0487
  817MPD2    H212081   4.452   0.178  10.097  0.0866  1.4359  0.5975
  817MPD2    H312082   4.392   0.393  10.094  0.1062 -0.0273  0.0648
  817MPD2     N12083   4.152   0.365   9.711  0.3666  0.4848  0.9280
  817MPD2    H512084   4.132   0.299   9.637 -3.6173  1.3543  1.2499
  817MPD2    N112085   4.366   4.720   9.907  1.3966  0.1289  0.0294
  817MPD2    H712086   4.348   4.679   9.816  0.4441 -0.2090  0.3708
  818MPD2     C12087   3.592   4.643  10.129  0.0820 -0.3591  1.0994
  818MPD2    C112088   3.510   4.658  10.239 -0.9220 -0.8035 -0.5245
  818MPD2    C212089   3.427   4.556  10.270  0.3054 -0.5790  0.3418
  818MPD2    C312090   3.435   4.438  10.195 -0.2236 -0.3865  0.5780
  818MPD2    C412091   3.516   4.431  10.088 -0.3758  0.1915  0.3208
  818MPD2    C512092   3.599   4.531  10.057  0.2108  0.6180  0.6509
  818MPD2     H12093   3.360   4.566  10.355 -0.4276  0.1870 -0.3291
  818MPD2    H112094   3.501   4.352  10.015 -3.3267 -0.5863  1.7902
  818MPD2    H212095   3.656   4.726  10.099  1.0883 -1.7481 -0.5830
  818MPD2    H312096   3.663   4.519   9.970  0.1901 -1.8559  0.9736
  818MPD2     N12097   3.349   4.323  10.226 -0.1733 -0.0608  0.0723
  818MPD2    H512098   3.340   4.244  10.163 -1.7026 -0.7949  1.2034
  818MPD2    N112099   3.509   0.040  10.309 -0.1514  0.0009 -0.2651
  818MPD2    H712100   3.447   0.048  10.390  1.1311  0.2371  0.6966
  819MPD2     C12101   2.212   1.143  15.628  0.4227  0.5463  0.3653
  819MPD2    C112102   2.234   1.011  15.639 -0.5146 -0.0350  0.6404
  819MPD2    C212103   2.342   0.974  15.724 -0.0855 -0.3750 -0.1161
  819MPD2    C312104   2.412   1.067  15.806 -0.3083 -0.0337 -0.9481
  819MPD2    C412105   2.382   1.201  15.789 -0.3989 -0.2126  0.4456
  819MPD2    C512106   2.278   1.238  15.705  0.5568 -0.7557 -0.1865
  819MPD2     H12107   2.360   0.868  15.736  1.7683  0.0707  1.1724
  819MPD2    H112108   2.426   1.283  15.845  2.3488 -0.5892 -1.1488
  819MPD2    H212109   2.122   1.174  15.576  0.2818 -0.1957  0.1629
  819MPD2    H312110   2.252   1.342  15.695  2.8428 -0.1980 -0.4304
  819MPD2     N12111   2.505   1.024  15.904  0.0039  0.5197 -0.2763
  819MPD2    H512112   2.542   0.930  15.899 -0.7058  0.1572  1.4448
  819MPD2    N112113   2.148   0.922  15.573 -0.4919  0.3036 -0.1719
  819MPD2    H712114   2.090   0.968  15.503 -1.3348  1.7629  1.4612
  820MPD2     C12115   1.360   0.743  14.967 -0.7091  0.0550  0.2354
  820MPD2    C112116   1.423   0.853  15.022  0.3506  0.8843 -0.0378
  820MPD2    C212117   1.548   0.838  15.075 -0.5617  0.8317  0.2870
  820MPD2    C312118   1.610   0.712  15.089 -0.6115 -0.5759 -0.0714
  820MPD2    C412119   1.543   0.601  15.042  0.2268  0.4750 -0.4463
  820MPD2    C512120   1.429   0.620  14.981 -0.3966  0.2855 -0.2085
  820MPD2     H12121   1.591   0.929  15.115  0.0469  0.5134  0.3598
  820MPD2    H112122   1.588   0.503  15.057  0.7600  0.5238 -1.7192
  820MPD2    H212123   1.261   0.749  14.924 -1.1602 -0.0267  1.2626
  820MPD2    H312124   1.375   0.537  14.938  0.1467  0.6350 -1.5690
  820MPD2     N12125   1.732   0.692  15.159  0.2530  0.1955 -0.4157
  820MPD2    H512126   1.764   0.596  15.159  0.4554  0.2597 -1.2855
  820MPD2    N112127   1.345   0.974  15.018 -0.1351  0.3152  0.2141
  820MPD2    H712128   1.256   0.967  14.970 -0.4566 -2.3760  1.2054
  821MPD2     C12129   2.136   2.589  12.769 -0.4712  0.9125  0.3840
  821MPD2    C112130   2.201   2.549  12.886 -0.7250 -0.0907  0.4058
  821MPD2    C212131   2.324   2.593  12.913 -0.0433 -0.5216 -0.8489
  821MPD2    C312132   2.381   2.694  12.847  0.1486 -0.5162 -0.2562
  821MPD2    C412133   2.311   2.749  12.746 -0.3527 -0.8049 -0.2663
  821MPD2    C512134   2.190   2.696  12.710  0.2829  0.2544 -0.0370
  821MPD2     H12135   2.369   2.570  13.008 -0.7406 -0.1869 -0.4359
  821MPD2    H112136   2.345   2.825  12.677  1.5393  0.0090  1.5755
  821MPD2    H212137   2.042   2.541  12.743 -0.7714  1.4922  0.4047
  821MPD2    H312138   2.142   2.733  12.620  2.4932  1.0140 -0.8811
  821MPD2     N12139   2.512   2.745  12.878  0.3462 -0.1179 -0.5463
  821MPD2    H512140   2.550   2.831  12.841  1.5603 -0.2507  0.3924
  821MPD2    N112141   2.145   2.446  12.970  0.1309 -0.6560 -0.4217
  821MPD2    H712142   2.200   2.417  13.050 -0.6611 -2.1185 -0.4196
  822MPD2     C12143   3.505   2.400  15.861  0.2487  0.4646 -0.0800
  822MPD2    C112144   3.461   2.361  15.984  0.2459 -0.6564  0.3638
  822MPD2    C212145   3.367   2.445  16.048  0.6583 -0.5273  0.2807
  822MPD2    C312146   3.343   2.567  16.000 -0.4208  0.2128  0.2583
  822MPD2    C412147   3.393   2.609  15.875  0.1404 -0.3665 -0.1772
  822MPD2    C512148   3.467   2.521  15.805 -0.4529  0.5428 -0.4874
  822MPD2     H12149   3.321   2.417  16.142 -0.6740 -1.0504 -0.5289
  822MPD2    H112150   3.369   2.703  15.827 -0.1650  0.6232  1.9036
  822MPD2    H212151   3.577   2.347  15.800  1.1001  1.5771 -0.0436
  822MPD2    H312152   3.500   2.552  15.706  0.7498 -0.6948 -0.4717
  822MPD2     N12153   3.261   2.647  16.084  0.4063 -0.1549 -0.1155
  822MPD2    H512154   3.226   2.606  16.170 -0.4144  1.6175  0.3936
  822MPD2    N112155   3.499   2.258  16.067 -0.9289 -0.2279  0.0663
  822MPD2    H712156   3.465   2.254  16.162  0.0883  1.0395  0.4806
  823MPD2     C12157   2.908   2.854  16.842 -0.0551 -0.1301  0.7032
  823MPD2    C112158   2.958   2.778  16.742  0.0837 -0.4148 -0.0115
  823MPD2    C212159   2.985   2.647  16.770  0.0209  0.6908 -0.5027
  823MPD2    C312160   2.960   2.592  16.893  0.2630  0.0993  0.3203
  823MPD2    C412161   2.924   2.673  17.000  1.2043  0.1539 -0.2426
  823MPD2    C512162   2.896   2.804  16.972  0.5335 -0.5731 -0.4481
  823MPD2     H12163   3.002   2.576  16.690 -0.5904  0.0499 -0.0721
  823MPD2    H112164   2.909   2.630  17.099  2.7889  0.9619  0.3534
  823MPD2    H212165   2.882   2.957  16.820  3.1855  0.6150  0.2119
  823MPD2    H312166   2.875   2.879  17.048  0.6502 -0.0053 -0.9734
  823MPD2     N12167   2.958   2.448  16.920 -0.0912 -0.3310  0.0274
  823MPD2    H512168   2.906   2.414  17.000  1.3585 -2.5001  0.0502
  823MPD2    N112169   2.978   2.841  16.608 -0.1240  0.0989 -0.3138
  823MPD2    H712170   2.968   2.942  16.604 -1.7211 -0.0927 -1.0187
  824MPD2     C12171   3.727   1.442  16.135 -0.7980 -0.2163 -0.2971
  824MPD2    C112172   3.750   1.559  16.063 -0.4118 -0.2262 -0.8243
  824MPD2    C212173   3.818   1.546  15.944  0.0407 -0.4142 -0.1097
  824MPD2    C312174   3.885   1.427  15.907 -0.4026 -0.0395  0.2565
  824MPD2    C412175   3.851   1.311  15.978 -0.1228 -0.1558 -0.3694
  824MPD2    C512176   3.791   1.327  16.096  1.2660  0.1639 -0.6319
  824MPD2     H12177   3.834   1.638  15.888 -0.7238  0.9721  1.9339
  824MPD2    H112178   3.889   1.212  15.954  0.6085 -0.1998  0.9706
  824MPD2    H212179   3.681   1.439  16.233  1.4468 -1.8100  0.7232
  824MPD2    H312180   3.781   1.245  16.166 -1.2965  1.2904  0.3127
  824MPD2     N12181   3.955   1.428  15.782 -0.0384  0.4473  0.2245
  824MPD2    H512182   3.953   1.513  15.726 -1.1206  1.6616  2.0960
  824MPD2    N112183   3.707   1.687  16.105  0.2167  0.0359  0.1761
  824MPD2    H712184   3.703   1.760  16.035 -0.3051  0.8465  1.0577
  825MPD2     C12185   4.081   1.451  14.959 -0.6896 -0.1777  0.7007
  825MPD2    C112186   4.090   1.529  15.072  0.4428 -0.2244  0.2043
  825MPD2    C212187   4.089   1.666  15.050  0.5955 -0.1100  0.2793
  825MPD2    C312188   4.063   1.730  14.932  0.0112  0.2271  0.1158
  825MPD2    C412189   4.044   1.651  14.820  0.0935 -0.2917  0.1633
  825MPD2    C512190   4.048   1.513  14.840  0.4386 -0.0025  0.0299
  825MPD2     H12191   4.104   1.734  15.133  1.7700  1.0321 -0.8803
  825MPD2    H112192   4.021   1.686  14.720  2.6036 -0.8685 -0.6231
  825MPD2    H212193   4.084   1.343  14.963  1.3187 -0.1837 -0.4955
  825MPD2    H312194   4.027   1.453  14.752  0.9526 -0.2773  0.0901
  825MPD2     N12195   4.066   1.871  14.912  0.2603  0.1089  0.5922
  825MPD2    H512196   4.073   1.898  14.814  2.2613 -0.4257  0.5831
  825MPD2    N112197   4.122   1.466  15.186 -0.9771  0.5178  0.3691
  825MPD2    H712198   4.157   1.371  15.172  1.6938  1.5831 -0.1152
  826MPD2     C12199   2.780   1.721  13.812 -0.8076  0.1717  0.5322
  826MPD2    C112200   2.829   1.795  13.704  0.5126  0.2166 -0.5321
  826MPD2    C212201   2.804   1.929  13.708 -0.6719 -0.2274  0.3416
  826MPD2    C312202   2.727   1.995  13.804  0.1382  0.2426 -0.3033
  826MPD2    C412203   2.683   1.916  13.907 -0.0213 -0.0787  0.4690
  826MPD2    C512204   2.696   1.780  13.902 -0.6767  0.4414 -0.5291
  826MPD2     H12205   2.845   1.994  13.632  1.5064  0.5168  2.1568
  826MPD2    H112206   2.625   1.963  13.986 -3.6618 -1.9822 -1.0785
  826MPD2    H212207   2.801   1.614  13.814 -0.4007  0.2890  2.0633
  826MPD2    H312208   2.663   1.726  13.991  1.8150  0.8030  0.5885
  826MPD2     N12209   2.696   2.129  13.816 -0.1043  1.0087  0.4243
  826MPD2    H512210   2.642   2.151  13.899 -1.7169  0.1276 -0.4039
  826MPD2    N112211   2.903   1.739  13.603  0.0878 -0.6426  0.3500
  826MPD2    H712212   2.929   1.642  13.621  4.8606  0.6347  0.3905
  827MPD2     C12213   4.418   3.553   9.913  0.8488 -0.0832  0.3485
  827MPD2    C112214   4.321   3.589  10.002 -0.4890 -0.0552  0.3366
  827MPD2    C212215   4.191   3.616   9.947  0.3344 -0.8674 -0.2850
  827MPD2    C312216   4.169   3.604   9.805 -0.2307 -0.5189  0.4462
  827MPD2    C412217   4.270   3.572   9.721  0.5588 -0.5315 -0.2204
  827MPD2    C512218   4.389   3.543   9.779  0.1827  0.4481 -0.0418
  827MPD2     H12219   4.108   3.642  10.011  1.4798 -2.8310  2.0042
  827MPD2    H112220   4.257   3.569   9.613 -3.6297  1.4184  0.2486
  827MPD2    H212221   4.516   3.523   9.947  0.1801 -1.7016  0.8574
  827MPD2    H312222   4.468   3.503   9.717 -0.7176  0.1306 -0.9813
  827MPD2     N12223   4.046   3.647   9.751 -0.2029  0.7135  0.2328
  827MPD2    H512224   3.974   3.680   9.815  2.1050  2.2638  1.9824
  827MPD2    N112225   4.354   3.581  10.142  0.3784  0.1591  0.4281
  827MPD2    H712226   4.449   3.552  10.165  0.6107 -0.1231 -0.8650
  828MPD2     C12227   3.206   3.355  12.539 -0.2103 -0.1264  0.1940
  828MPD2    C112228   3.128   3.343  12.426  0.6061 -0.3866 -0.3739
  828MPD2    C212229   3.176   3.413  12.317  0.0887 -0.0553  0.1562
  828MPD2    C312230   3.301   3.474  12.311 -0.3247 -1.0384 -0.5062
  828MPD2    C412231   3.379   3.480  12.428  0.7308 -0.3587 -0.1327
  828MPD2    C512232   3.330   3.421  12.539  0.6316 -0.6126 -0.1063
  828MPD2     H12233   3.101   3.420  12.240  1.5209 -0.2166 -1.2445
  828MPD2    H112234   3.470   3.539  12.440 -0.5321  2.0050 -2.0496
  828MPD2    H212235   3.168   3.326  12.637 -1.4995 -2.2198 -0.9404
  828MPD2    H312236   3.378   3.419  12.636  0.0570 -0.9772  0.1685
  828MPD2     N12237   3.348   3.548  12.196  0.3421 -0.0181  0.4007
  828MPD2    H512238   3.443   3.583  12.195  1.1427 -2.1459  2.6018
  828MPD2    N112239   3.001   3.280  12.415 -0.1130 -0.3393 -0.1149
  828MPD2    H712240   2.957   3.278  12.323  2.5193 -1.1976 -1.3561
  829MPD2     C12241   2.371   3.430  11.864  0.3962 -0.2796  0.3968
  829MPD2    C112242   2.335   3.351  11.970 -0.2732 -0.0348 -0.5384
  829MPD2    C212243   2.414   3.351  12.085  0.7460 -0.5078  0.0930
  829MPD2    C312244   2.524   3.439  12.092 -0.6041  0.0095  0.2200
  829MPD2    C412245   2.553   3.517  11.979  0.2021  0.2743 -0.3880
  829MPD2    C512246   2.477   3.517  11.875 -0.2374 -0.1931 -0.1033
  829MPD2     H12247   2.390   3.283  12.167 -0.6224  3.0727  2.6406
  829MPD2    H112248   2.631   3.591  11.982  1.2146 -0.8168  0.6174
  829MPD2    H212249   2.299   3.437  11.783  1.4678 -0.2165 -0.5473
  829MPD2    H312250   2.492   3.588  11.795 -0.4379 -2.5077 -2.1851
  829MPD2     N12251   2.603   3.439  12.216  0.1973 -0.3318  1.1188
  829MPD2    H512252   2.697   3.477  12.212  0.0448  0.0368  1.0457
  829MPD2    N112253   2.212   3.291  11.960 -0.2935  0.4592  0.2586
  829MPD2    H712254   2.172   3.305  11.868 -1.0833  1.9418  0.8210
  830MPD2     C12255   3.366   1.025  16.010 -0.1384 -0.9606 -0.0856
  830MPD2    C112256   3.256   1.068  15.932 -0.4661  0.0147  0.3229
  830MPD2    C212257   3.268   1.184  15.853 -0.8186  0.8620 -0.2093
  830MPD2    C312258   3.384   1.255  15.852  0.0332 -0.6849 -0.1018
  830MPD2    C412259   3.486   1.212  15.934  0.0788 -0.0895 -0.1554
  830MPD2    C512260   3.481   1.099  16.004 -0.3058  0.5168 -0.2405
  830MPD2     H12261   3.186   1.221  15.793  0.2921  1.2522 -1.4775
  830MPD2    H112262   3.574   1.273  15.952 -0.9957  0.9606  1.4705
  830MPD2    H212263   3.368   0.942  16.081 -4.9687 -0.3492  0.7718
  830MPD2    H312264   3.565   1.065  16.063  1.7642  2.9017 -1.8135
  830MPD2     N12265   3.392   1.382  15.790 -0.7801  0.1052 -0.0578
  830MPD2    H512266   3.470   1.443  15.814 -0.6281  0.1148 -0.5917
  830MPD2    N112267   3.138   0.997  15.961 -0.0388 -0.1934 -0.2016
  830MPD2    H712268   3.146   0.917  16.024 -2.4344 -3.5588 -4.1099
  831MPD2     C12269   3.445   2.749  16.475 -0.1350 -0.1610  0.0522
  831MPD2    C112270   3.499   2.644  16.403  0.1604 -0.2341  0.0805
  831MPD2    C212271   3.442   2.516  16.412  0.5636 -0.4609 -0.4348
  831MPD2    C312272   3.337   2.495  16.499 -0.3281  1.3381 -0.3530
  831MPD2    C412273   3.307   2.598  16.583 -0.5256 -0.9378  0.2936
  831MPD2    C512274   3.349   2.721  16.574  0.2537  0.2064 -0.7895
  831MPD2     H12275   3.474   2.432  16.350  1.5928  0.1468 -0.7255
  831MPD2    H112276   3.223   2.597  16.652 -2.6076  1.3032 -2.2384
  831MPD2    H212277   3.486   2.848  16.456 -1.0267  0.5247  1.7669
  831MPD2    H312278   3.305   2.791  16.644  2.3024  1.3639 -0.6562
  831MPD2     N12279   3.263   2.375  16.507 -0.1179  0.2041 -0.2631
  831MPD2    H512280   3.189   2.364  16.576  0.4031 -1.3155  0.0549
  831MPD2    N112281   3.590   2.675  16.304 -0.7358  0.3363 -0.8573
  831MPD2    H712282   3.628   2.769  16.303 -0.7697  0.3538 -0.3485
  832MPD2     C12283   1.772   3.287  17.159  0.1858 -0.2442 -0.8846
  832MPD2    C112284   1.808   3.405  17.102  0.1333  0.1082  0.5098
  832MPD2    C212285   1.731   3.455  16.994  1.4682  0.9614 -0.1895
  832MPD2    C312286   1.629   3.374  16.933 -0.3360  0.2039 -0.9391
  832MPD2    C412287   1.604   3.256  16.987  0.0716  0.6114 -0.0298
  832MPD2    C512288   1.671   3.214  17.103 -0.1338  0.2831  0.6372
  832MPD2     H12289   1.775   3.540  16.942 -2.5567  1.7878 -2.1878
  832MPD2    H112290   1.529   3.191  16.943 -0.7002  0.9992  0.7250
  832MPD2    H212291   1.816   3.244  17.248  2.2338  3.2076 -0.2176
  832MPD2    H312292   1.644   3.126  17.159  1.8919 -1.7777 -1.6530
  832MPD2     N12293   1.549   3.419  16.826 -0.6588 -0.2416  0.4530
  832MPD2    H512294   1.503   3.344  16.775  1.3382  0.7934 -2.8660
  832MPD2    N112295   1.930   3.460  17.152 -0.3966 -0.6911  0.4139
  832MPD2    H712296   1.953   3.419  17.241  0.0704  1.1620  1.1603
  833MPD2     C12297   3.376   1.198  12.516 -0.5824 -0.7220  0.9388
  833MPD2    C112298   3.348   1.289  12.422 -0.1090  0.2007  0.5281
  833MPD2    C212299   3.451   1.353  12.357  0.1877  0.3114 -0.2680
  833MPD2    C312300   3.579   1.314  12.388 -0.0945 -1.3221 -0.3257
  833MPD2    C412301   3.607   1.227  12.489 -0.0825  0.1501 -0.8776
  833MPD2    C512302   3.502   1.172  12.555  0.4933 -0.1021  0.5123
  833MPD2     H12303   3.436   1.418  12.271 -0.2003  1.6443  0.8111
  833MPD2    H112304   3.704   1.186  12.515 -0.7720 -0.3603  0.8884
  833MPD2    H212305   3.298   1.142  12.567 -1.2645 -1.0183 -0.4336
  833MPD2    H312306   3.515   1.097  12.633  0.8800  1.1694  1.6715
  833MPD2     N12307   3.680   1.362  12.300  0.7991  0.4027  0.5551
  833MPD2    H512308   3.646   1.426  12.229  0.1491 -0.5900 -0.0238
  833MPD2    N112309   3.213   1.314  12.388  0.1422 -0.0843 -0.1372
  833MPD2    H712310   3.142   1.264  12.440 -0.5225  1.6812  0.6467
  834MPD2     C12311   3.687   0.779  11.913 -0.1227  0.5046  0.2359
  834MPD2    C112312   3.671   0.875  11.809 -0.2931  0.3707 -0.1401
  834MPD2    C212313   3.751   0.988  11.810 -0.9645  1.1973  0.3659
  834MPD2    C312314   3.838   1.003  11.918 -0.7173 -0.2303  0.1807
  834MPD2    C412315   3.859   0.906  12.011 -0.2703 -0.8181  0.3012
  834MPD2    C512316   3.780   0.794  12.007  0.7470 -0.3736 -0.0567
  834MPD2     H12317   3.743   1.062  11.732 -0.5730  1.7931  0.8968
  834MPD2    H112318   3.930   0.921  12.092 -0.0523  0.4843 -0.1432
  834MPD2    H212319   3.622   0.694  11.925 -1.0863  1.1486 -0.3709
  834MPD2    H312320   3.781   0.723  12.089 -1.1703 -1.6719 -1.1698
  834MPD2     N12321   3.905   1.122  11.946 -0.2401  0.6221  0.0736
  834MPD2    H512322   3.982   1.124  12.013  0.6866  2.7756 -1.0552
  834MPD2    N112323   3.580   0.847  11.700  0.0352  0.8314 -0.6367
  834MPD2    H712324   3.515   0.770  11.711  1.3688 -0.4506 -1.7551
  835MPD2     C12325   3.439   3.388  11.459  0.7115  0.0654 -0.2114
  835MPD2    C112326   3.429   3.523  11.479 -0.2574 -0.8256 -0.2236
  835MPD2    C212327   3.517   3.585  11.567  0.8730  0.7844  0.4117
  835MPD2    C312328   3.602   3.508  11.645  0.4453 -0.5417 -0.5379
  835MPD2    C412329   3.594   3.373  11.630 -0.6569  0.2252 -0.0369
  835MPD2    C512330   3.522   3.313  11.533 -0.8251  0.1793 -0.2078
  835MPD2     H12331   3.518   3.693  11.579  1.2213  0.9325 -0.9284
  835MPD2    H112332   3.664   3.314  11.688 -0.9527 -0.9989 -0.9279
  835MPD2    H212333   3.376   3.330  11.392 -1.0237  0.8325  0.7707
  835MPD2    H312334   3.516   3.206  11.515 -0.3063  0.1903 -0.4401
  835MPD2     N12335   3.680   3.565  11.747  0.3963 -0.1980  0.6623
  835MPD2    H512336   3.724   3.497  11.809  0.9559 -0.9915 -0.6053
  835MPD2    N112337   3.336   3.607  11.405  0.3819  0.5244 -0.5554
  835MPD2    H712338   3.339   3.709  11.409  3.0867  0.3778  1.8849
  836MPD2     C12339   3.758   3.880  12.557  0.4542  0.3537  0.1384
  836MPD2    C112340   3.703   3.846  12.440  0.1623  0.7730  0.2326
  836MPD2    C212341   3.569   3.823  12.433 -0.4298 -0.2231 -0.1563
  836MPD2    C312342   3.490   3.841  12.549  0.6981  0.5295  0.2910
  836MPD2    C412343   3.546   3.870  12.665  0.0819 -0.3810 -0.5071
  836MPD2    C512344   3.681   3.892  12.671 -0.6862 -0.2797 -0.6290
  836MPD2     H12345   3.519   3.809  12.338  0.1621 -2.3439 -0.1609
  836MPD2    H112346   3.487   3.897  12.751 -1.1410 -1.4433 -1.0285
  836MPD2    H212347   3.866   3.889  12.553  0.2956  1.1030 -2.2665
  836MPD2    H312348   3.739   3.926  12.756  0.9755 -1.1331 -1.4191
  836MPD2     N12349   3.355   3.827  12.550 -0.5595  0.0877  0.4342
  836MPD2    H512350   3.314   3.824  12.643 -0.6654  0.8238  0.4101
  836MPD2    N112351   3.784   3.838  12.332 -0.0332  0.2416  0.5329
  836MPD2    H712352   3.884   3.848  12.344  0.3881 -0.8387 -2.1156
  837MPD2     C12353   1.355   3.130  10.330 -0.5575 -0.2101  0.1265
  837MPD2    C112354   1.258   3.190  10.252 -0.4603  0.2429  0.0223
  837MPD2    C212355   1.246   3.329  10.256  0.3220  0.0920 -0.0320
  837MPD2    C312356   1.345   3.411  10.301  0.5055 -0.0895  0.1116
  837MPD2    C412357   1.447   3.349  10.369 -0.3832  0.1051 -0.0549
  837MPD2    C512358   1.444   3.212  10.394  0.1168  0.2985 -0.1170
  837MPD2     H12359   1.165   3.371  10.197  2.3400  2.3439 -1.1810
  837MPD2    H112360   1.526   3.396  10.427 -0.2076 -3.0124  2.2051
  837MPD2    H212361   1.364   3.024  10.346  0.7610  0.2623  2.5883
  837MPD2    H312362   1.523   3.171  10.457 -1.4875 -1.5734  0.6643
  837MPD2     N12363   1.342   3.551  10.278  0.0483 -0.2880 -0.0418
  837MPD2    H512364   1.263   3.589  10.227 -1.4455 -0.6685  1.9626
  837MPD2    N112365   1.168   3.121  10.168  0.4636 -0.1672 -0.8001
  837MPD2    H712366   1.091   3.175  10.129  1.6675  2.2740  0.1912
  838MPD2     C12367   0.439   1.797  11.787 -0.2992  0.2432  0.3609
  838MPD2    C112368   0.366   1.686  11.804  0.3359  0.0969 -0.6994
  838MPD2    C212369   0.278   1.666  11.912  0.5092  0.5307 -0.3209
  838MPD2    C312370   0.267   1.764  12.005 -0.1538 -0.4222 -0.2679
  838MPD2    C412371   0.344   1.881  11.992 -0.7706 -0.2934  0.4507
  838MPD2    C512372   0.428   1.894  11.877 -0.4874 -0.5208 -0.1675
  838MPD2     H12373   0.220   1.575  11.922  1.1369  0.2594  0.8866
  838MPD2    H112374   0.342   1.964  12.061 -0.3093 -0.5470  0.7712
  838MPD2    H212375   0.506   1.815  11.703  0.1206  0.1837  0.6854
  838MPD2    H312376   0.485   1.987  11.876 -0.1196 -0.7915 -3.6849
  838MPD2     N12377   0.172   1.738  12.110  0.2929 -0.1059 -0.2072
  838MPD2    H512378   0.122   1.651  12.095  1.8857 -1.1687  0.6625
  838MPD2    N112379   0.369   1.584  11.703  0.7027 -0.1126  0.0723
  838MPD2    H712380   0.300   1.511  11.720  0.2889  0.6412  1.6290
  839MPD2     C12381   4.331   1.394  11.659  0.5976  0.2236  0.3298
  839MPD2    C112382   4.388   1.294  11.581  0.1682  0.0068 -0.1135
  839MPD2    C212383   4.502   1.327  11.510  0.1061  0.1317  0.0154
  839MPD2    C312384   4.555   1.456  11.516 -0.8608  0.1628  0.7459
  839MPD2    C412385   4.488   1.557  11.582  0.0454 -0.2104 -0.6115
  839MPD2    C512386   4.384   1.524  11.658 -0.4185 -0.2291  0.5061
  839MPD2     H12387   4.551   1.256  11.444 -0.2302 -0.7492  0.7103
  839MPD2    H112388   4.528   1.656  11.601  0.7630 -0.7950  0.9371
  839MPD2    H212389   4.244   1.371  11.718  0.6105  1.2911  0.7561
  839MPD2    H312390   4.341   1.592  11.731  0.1126 -1.6547  2.1698
  839MPD2     N12391   4.674   1.501  11.450  0.0185  0.3157 -0.0128
  839MPD2    H512392   4.707   1.595  11.469  2.3687 -0.5082  0.0009
  839MPD2    N112393   4.340   1.159  11.569  0.1916  0.2163  0.0727
  839MPD2    H712394   4.390   1.105  11.499 -3.5516 -1.6250 -1.1641
  840MPD2     C12395   4.636   4.058  10.498  0.2173 -0.5474 -0.6134
  840MPD2    C112396   4.664   3.936  10.546  0.1069 -0.2234 -0.0216
  840MPD2    C212397   0.037   3.925  10.624  0.7038 -0.1383  0.2086
  840MPD2    C312398   0.118   4.037  10.652 -0.2729  0.2285  0.3482
  840MPD2    C412399   0.085   4.162  10.602 -0.8706 -0.3572  0.5885
  840MPD2    C512400   4.716   4.164  10.522 -0.3038 -0.1165  0.0149
  840MPD2     H12401   0.059   3.830  10.671  1.3336 -0.3408 -0.5010
  840MPD2    H112402   0.143   4.248  10.633 -3.3531  1.5641 -0.0580
  840MPD2    H212403   4.559   4.083  10.425 -1.1072 -1.5014  0.4387
  840MPD2    H312404   4.686   4.256  10.472 -1.4704  0.3376  1.5407
  840MPD2     N12405   0.221   4.041  10.742  0.4446  0.1212  0.2543
  840MPD2    H512406   0.254   4.136  10.754 -0.8721  0.8689 -2.1656
  840MPD2    N112407   4.578   3.833  10.510 -0.1759  0.2903 -0.2948
  840MPD2    H712408   4.515   3.855  10.434 -0.7230  0.2409  0.1418
  841MPD2     C12409   4.611   2.835  14.207  0.5985 -0.5582  0.4582
  841MPD2    C112410   4.571   2.845  14.336 -0.4315 -0.4050 -0.3588
  841MPD2    C212411   4.637   2.923  14.427  0.1607 -0.3146  0.5147
  841MPD2    C312412   0.012   2.979  14.391  0.4907 -0.2506 -0.5726
  841MPD2    C412413   0.056   2.968  14.262 -0.0570  0.3228  0.3670
  841MPD2    C512414   4.717   2.905  14.169 -0.3511 -0.0672  0.2809
  841MPD2     H12415   4.610   2.920  14.532 -0.8724 -0.0464  0.2500
  841MPD2    H112416   0.135   3.030  14.221  0.0470 -0.4250 -0.5604
  841MPD2    H212417   4.547   2.786  14.134 -0.6359 -0.0740  1.2219
  841MPD2    H312418   0.017   2.917  14.069 -0.4477 -1.9936  0.0015
  841MPD2     N12419   0.089   3.055  14.488  0.6595 -0.1633  0.0016
  841MPD2    H512420   0.048   3.055  14.581 -0.3031 -0.6269 -0.4198
  841MPD2    N112421   4.452   2.779  14.379 -0.2022  0.7828 -0.2058
  841MPD2    H712422   4.417   2.807  14.470  0.3572 -0.7912  0.4977
  842MPD2     C12423   0.922   4.004  16.888  0.0990 -0.1867 -0.2496
  842MPD2    C112424   0.798   3.982  16.833 -0.6636  0.6783  0.3451
  842MPD2    C212425   0.741   3.853  16.840 -0.2470  0.2743  0.0836
  842MPD2    C312426   0.800   3.747  16.912 -0.5073  0.6501 -0.3931
  842MPD2    C412427   0.926   3.781  16.968 -0.2281 -0.2499  0.1007
  842MPD2    C512428   0.987   3.903  16.953  0.1804  0.0060  0.5416
  842MPD2     H12429   0.639   3.841  16.807  0.2987 -0.0851 -1.4865
  842MPD2    H112430   0.983   3.711  17.028 -0.7401 -0.5843  0.1938
  842MPD2    H212431   0.970   4.100  16.874  0.8450 -0.5687 -0.3256
  842MPD2    H312432   1.090   3.914  16.988  0.2708 -3.0243  1.2414
  842MPD2     N12433   0.732   3.628  16.940  0.4021  0.4833 -0.0811
  842MPD2    H512434   0.783   3.574  17.009  1.3892 -1.7229 -2.5373
  842MPD2    N112435   0.731   4.088  16.756 -0.4136 -0.6444  0.6696
  842MPD2    H712436   0.786   4.173  16.748 -3.3467  1.2497  0.8351
  843MPD2     C12437   2.548   0.248  17.724  0.8468 -0.9715  0.3886
  843MPD2    C112438   2.589   0.192   0.080  0.4155 -0.0302 -0.1044
  843MPD2    C212439   2.657   0.264   0.180 -0.3149  1.0974  0.3174
  843MPD2    C312440   2.684   0.401   0.149 -0.1900  0.7629  0.6540
  843MPD2    C412441   2.657   0.454   0.025  0.2706 -0.4444  0.2974
  843MPD2    C512442   2.580   0.381  17.695 -0.0357  0.0145 -0.5558
  843MPD2     H12443   2.695   0.214   0.268 -0.5080  0.7403  0.1940
  843MPD2    H112444   2.683   0.558   0.007  2.1740 -0.3009  3.8844
  843MPD2    H212445   2.507   0.182  17.648  0.9041 -0.7658  0.1775
  843MPD2    H312446   2.562   0.423  17.597  2.2740 -0.6725 -1.2711
  843MPD2     N12447   2.755   0.490   0.242  0.2251  0.4111  0.5167
  843MPD2    H512448   2.796   0.571   0.198 -0.1424 -0.2148 -0.9822
  843MPD2    N112449   2.557   0.057   0.087 -0.6318  0.2020 -0.0907
  843MPD2    H712450   2.506   0.024   0.006 -0.5397  0.7367 -0.3689
  844MPD2     C12451   1.366   2.787  16.502  0.1230 -1.0447  0.1706
  844MPD2    C112452   1.488   2.766  16.438 -0.3031  0.4393  0.6959
  844MPD2    C212453   1.594   2.851  16.470 -0.0811  0.2810  0.6304
  844MPD2    C312454   1.577   2.967  16.539  0.7125  0.2091 -0.6136
  844MPD2    C412455   1.451   2.986  16.596 -0.4572 -0.0278  0.4251
  844MPD2    C512456   1.346   2.899  16.574 -0.1324  0.4229 -0.0562
  844MPD2     H12457   1.687   2.829  16.419 -0.3071  0.4270  0.1591
  844MPD2    H112458   1.434   3.076  16.655  1.0317  0.9640 -0.6536
  844MPD2    H212459   1.277   2.727  16.488  0.0357 -1.4996  2.5944
  844MPD2    H312460   1.247   2.912  16.616  0.5144  1.0274  1.2714
  844MPD2     N12461   1.685   3.058  16.556 -0.3491  0.3506  0.2547
  844MPD2    H512462   1.776   3.036  16.516 -0.5927  1.7809 -1.1106
  844MPD2    N112463   1.508   2.672  16.335 -0.1743 -0.1470 -0.0602
  844MPD2    H712464   1.594   2.680  16.281 -0.1968  1.7162  0.1816
  845MPD2     C12465   1.803   4.128  16.715  0.2924 -1.0172  0.3064
  845MPD2    C112466   1.831   4.058  16.829  0.2290 -0.2767  0.4987
  845MPD2    C212467   1.862   3.922  16.820 -0.2600 -0.1051 -0.1151
  845MPD2    C312468   1.858   3.854  16.699 -0.4299 -0.3313 -0.3768
  845MPD2    C412469   1.834   3.923  16.584  0.4999 -0.3558 -0.0702
  845MPD2    C512470   1.807   4.057  16.594 -0.2381 -0.3432 -0.1795
  845MPD2     H12471   1.887   3.871  16.913  1.4873  0.2534 -0.3897
  845MPD2    H112472   1.856   3.876  16.489  1.3081 -1.3444  0.6094
  845MPD2    H212473   1.775   4.232  16.705 -1.6214 -1.4521  1.1454
  845MPD2    H312474   1.789   4.122  16.509  0.3325  0.0570  0.0000
  845MPD2     N12475   1.877   3.716  16.698 -0.2678  0.1329  0.5421
  845MPD2    H512476   1.919   3.670  16.777 -2.6828  0.0545  1.7806
  845MPD2    N112477   1.826   4.142  16.944  0.1518 -0.3193  0.0715
  845MPD2    H712478   1.804   4.238  16.921  1.6904 -0.0565 -0.3245
  846MPD2     C12479   2.911   0.112  13.312 -0.3872 -0.4623 -0.4042
  846MPD2    C112480   2.845   0.226  13.350 -0.5967 -0.2051  0.8541
  846MPD2    C212481   2.803   0.252  13.482 -0.3819  0.0006  0.0076
  846MPD2    C312482   2.831   0.156  13.570 -0.3324  0.2943 -0.5669
  846MPD2    C412483   2.884   0.037  13.526 -0.2303  0.2863  0.1389
  846MPD2    C512484   2.928   0.014  13.403  1.0506  0.3619 -0.3667
  846MPD2     H12485   2.757   0.348  13.502 -0.4819 -0.4753  2.1465
  846MPD2    H112486   2.883   4.692  13.593  0.8252 -0.9369 -1.3835
  846MPD2    H212487   2.951   0.079  13.216  0.2514  1.7311 -0.8841
  846MPD2    H312488   2.965   4.653  13.390 -0.0458  0.0476 -1.0650
  846MPD2     N12489   2.781   0.185  13.699 -0.0124 -0.4511  0.3139
  846MPD2    H512490   2.742   0.276  13.720 -0.6824 -0.1995 -2.0606
  846MPD2    N112491   2.815   0.317  13.258 -0.2373  0.3594 -0.1815
  846MPD2    H712492   2.762   0.398  13.287  0.8327  1.0272 -0.0997
  847MPD2     C12493   3.231   1.575  14.746  0.0569  0.2961  0.5141
  847MPD2    C112494   3.260   1.702  14.802 -0.1250 -0.5220  0.4077
  847MPD2    C212495   3.389   1.734  14.837  0.5417 -0.3280 -0.4326
  847MPD2    C312496   3.477   1.631  14.859  0.1975 -0.6512  0.1967
  847MPD2    C412497   3.448   1.505  14.820 -0.3559  0.2627  0.2769
  847MPD2    C512498   3.327   1.484  14.758 -0.4925  0.2336  0.2489
  847MPD2     H12499   3.413   1.837  14.863 -1.0823 -0.5593  2.0248
  847MPD2    H112500   3.512   1.419  14.835  0.8552  0.9344 -0.9377
  847MPD2    H212501   3.131   1.553  14.709  0.1490  1.8061 -0.6386
  847MPD2    H312502   3.298   1.384  14.728  0.9554 -0.1645  0.1691
  847MPD2     N12503   3.596   1.650  14.931 -0.1212  0.0871  0.1171
  847MPD2    H512504   3.606   1.741  14.976  0.1972  0.2032 -0.1835
  847MPD2    N112505   3.169   1.806  14.802 -0.0452  0.3874  0.6133
  847MPD2    H712506   3.208   1.895  14.832 -0.0366  0.0081  1.7145
  848MPD2     C12507   1.748   3.912  16.267  0.0613 -0.0356  0.4054
  848MPD2    C112508   1.615   3.932  16.304 -0.4056 -0.4224 -0.4178
  848MPD2    C212509   1.559   4.060  16.305  0.3633 -0.2999 -0.0140
  848MPD2    C312510   1.630   4.171  16.254 -0.3692 -0.4106 -0.8912
  848MPD2    C412511   1.758   4.142  16.211 -0.1335 -0.7111 -0.0851
  848MPD2    C512512   1.819   4.014  16.212  0.1642 -0.5662 -0.1542
  848MPD2     H12513   1.457   4.062  16.340  0.0939 -0.0110 -0.8280
  848MPD2    H112514   1.833   4.214  16.179  0.4993 -0.6346  1.5937
  848MPD2    H212515   1.812   3.826  16.278 -1.1492 -1.0264 -0.3176
  848MPD2    H312516   1.925   3.992  16.209 -0.0355 -1.3282 -1.7818
  848MPD2     N12517   1.587   4.307  16.249 -0.0725  0.1405 -0.3757
  848MPD2    H512518   1.651   4.371  16.204  2.1456 -1.6733  0.2171
  848MPD2    N112519   1.556   3.818  16.359  0.8453  0.2034  0.3318
  848MPD2    H712520   1.612   3.734  16.367  1.4306  0.5497 -0.1078
  849MPD2     C12521   4.616   3.924  14.424 -0.5132 -0.4834 -0.6339
  849MPD2    C112522   4.704   4.000  14.363 -0.8284  0.0039 -0.1502
  849MPD2    C212523   0.098   3.979  14.396 -0.6415 -0.6342  0.0692
  849MPD2    C312524   0.138   3.884  14.487  0.1114  0.0616 -0.6598
  849MPD2    C412525   0.045   3.792  14.528 -0.1179  0.1806 -0.4310
  849MPD2    C512526   4.652   3.821  14.504 -0.2142 -0.2745 -0.0701
  849MPD2     H12527   0.175   4.049  14.367 -1.7931  0.8590  0.6318
  849MPD2    H112528   0.079   3.723  14.604 -0.5136  1.0254  0.5180
  849MPD2    H212529   4.511   3.921  14.398 -0.3636 -0.1026 -1.2681
  849MPD2    H312530   4.569   3.760  14.539 -0.5934  0.9204  1.1010
  849MPD2     N12531   0.265   3.876  14.549  0.0377 -0.0383 -0.5328
  849MPD2    H512532   0.288   3.797  14.608  0.1608 -0.8011 -1.6036
  849MPD2    N112533   4.674   4.098  14.270  0.6628  0.2145 -0.4030
  849MPD2    H712534   0.016   4.136  14.224  0.0028 -0.1181 -1.8381
  850MPD2     C12535   2.757   2.473  14.962 -0.6322 -0.5058 -0.3507
  850MPD2    C112536   2.831   2.467  15.081 -0.1213  0.3608 -0.0058
  850MPD2    C212537   2.965   2.482  15.082  0.3075 -0.2614  0.2453
  850MPD2    C312538   3.037   2.483  14.969  0.0148  0.2159 -0.0405
  850MPD2    C412539   2.971   2.491  14.852  0.2144  0.1787 -0.4487
  850MPD2    C512540   2.830   2.485  14.845 -0.3213  0.1283  0.2264
  850MPD2     H12541   3.008   2.457  15.178 -0.5285  0.0525  0.7000
  850MPD2    H112542   3.025   2.493  14.758  0.5366  2.0907 -0.2266
  850MPD2    H212543   2.648   2.468  14.957 -0.6021 -1.8535  0.4810
  850MPD2    H312544   2.777   2.498  14.751 -0.5073 -0.4837  0.2497
  850MPD2     N12545   3.179   2.480  14.966  0.0729 -0.0968  0.2296
  850MPD2    H512546   3.224   2.474  14.876  0.9564 -1.6703  0.7688
  850MPD2    N112547   2.770   2.442  15.207 -0.5565  0.3991  0.1186
  850MPD2    H712548   2.838   2.428  15.281 -1.1884 -2.1939  0.1991
  851MPD2     C12549   3.025   2.213  15.920  0.0018 -0.2250 -0.0146
  851MPD2    C112550   3.003   2.170  15.788 -0.1902  0.6367  0.1508
  851MPD2    C212551   3.078   2.070  15.724  0.5532  0.0131  0.5361
  851MPD2    C312552   3.179   2.021  15.799 -0.4026  0.1127 -0.5496
  851MPD2    C412553   3.207   2.068  15.924  0.5469 -0.1283 -0.0701
  851MPD2    C512554   3.135   2.160  15.983  0.7084  0.3992 -1.0775
  851MPD2     H12555   3.079   2.035  15.622  0.3060 -1.9417  1.2047
  851MPD2    H112556   3.298   2.043  15.979 -0.7702  0.9234  2.5926
  851MPD2    H212557   2.974   2.304  15.949 -0.5330  0.0015 -1.6232
  851MPD2    H312558   3.159   2.196  16.082  0.5293  1.8265 -1.5576
  851MPD2     N12559   3.272   1.931  15.738  0.1073  0.0714  0.2195
  851MPD2    H512560   3.253   1.915  15.640 -0.6397  0.1165  0.3535
  851MPD2    N112561   2.893   2.233  15.718 -0.0963  0.1245  0.0403
  851MPD2    H712562   2.846   2.309  15.766 -1.5189 -0.6340 -0.1439
  852MPD2     C12563   2.428   4.671  10.326 -0.0967 -0.6369 -0.0754
  852MPD2    C112564   2.490   4.731  10.440 -0.2354 -0.0723  0.9540
  852MPD2    C212565   2.521   0.121  10.429 -0.6701 -0.5214  0.0244
  852MPD2    C312566   2.488   0.196  10.320  0.1658  0.2290  0.3215
  852MPD2    C412567   2.434   0.136  10.215 -0.0088 -0.2522 -0.8219
  852MPD2    C512568   2.404   4.738  10.211  0.2360 -0.3001  0.3388
  852MPD2     H12569   2.588   0.160  10.505  0.5582 -0.8896 -0.8638
  852MPD2    H112570   2.412   0.188  10.123  0.6986 -0.5204 -1.1437
  852MPD2    H212571   2.418   4.564  10.319 -1.7412 -0.3957 -1.1432
  852MPD2    H312572   2.361   4.696  10.121  0.3801 -0.6458  0.4289
  852MPD2     N12573   2.526   0.327  10.321  0.7216 -0.2206  0.2010
  852MPD2    H512574   2.572   0.357  10.407 -1.0947 -0.9295  1.4119
  852MPD2    N112575   2.529   4.663  10.555 -0.5211 -0.5534  0.2615
  852MPD2    H712576   2.555   4.716  10.638  2.2287  1.1511 -1.7117
  853MPD2     C12577   4.183   4.461  12.569  0.1996  0.0123 -0.4364
  853MPD2    C112578   4.204   4.597  12.556  0.1720  0.3134  0.2765
  853MPD2    C212579   4.252   4.640  12.433  0.5929  0.1455 -0.3468
  853MPD2    C312580   4.275   4.547  12.332 -0.3307 -0.6321  0.3519
  853MPD2    C412581   4.239   4.412  12.340 -0.0393  0.0520  1.5144
  853MPD2    C512582   4.198   4.370  12.463  0.0921  0.0070 -0.2520
  853MPD2     H12583   4.276   0.003  12.410 -0.4472  0.5751  0.4774
  853MPD2    H112584   4.255   4.334  12.266  0.8257 -1.1041  2.9175
  853MPD2    H212585   4.146   4.427  12.665  0.3309 -2.7086 -1.3315
  853MPD2    H312586   4.184   4.264  12.477  3.1939 -0.3373  0.2101
  853MPD2     N12587   4.318   4.590  12.208  0.8574 -0.6834  0.0159
  853MPD2    H512588   4.317   4.521  12.134 -1.0264  0.5350 -1.1077
  853MPD2    N112589   4.180   4.678  12.672  0.7604  0.1736  0.3308
  853MPD2    H712590   4.148   4.634  12.758 -1.6191  0.5166 -0.3598
  854MPD2     C12591   1.397   0.405  12.671 -0.1656 -0.1092  0.5063
  854MPD2    C112592   1.526   0.399  12.621 -0.0860  0.7651 -0.2576
  854MPD2    C212593   1.611   0.284  12.651  0.4640 -0.1187  0.7454
  854MPD2    C312594   1.566   0.190  12.738 -0.2846 -0.0606 -0.4886
  854MPD2    C412595   1.435   0.202  12.783  0.3580  0.1650 -0.3367
  854MPD2    C512596   1.352   0.302  12.749 -0.4878 -0.1442 -0.2112
  854MPD2     H12597   1.711   0.272  12.612 -0.0016 -1.7805  0.0822
  854MPD2    H112598   1.392   0.124  12.845  0.5013  1.3728  1.2737
  854MPD2    H212599   1.346   0.499  12.652  1.4436  0.4562 -1.1013
  854MPD2    H312600   1.251   0.296  12.788 -0.7029  0.0458 -0.7408
  854MPD2     N12601   1.626   0.067  12.764  0.3716  0.1463 -0.2772
  854MPD2    H512602   1.591   0.001  12.833 -1.2848  2.3013  0.9405
  854MPD2    N112603   1.569   0.507  12.545 -0.3933 -0.2830  0.2748
  854MPD2    H712604   1.501   0.579  12.521 -0.4983 -0.7082 -0.6943
  855MPD2     C12605   1.384   4.382  13.440 -0.0105  0.6279  0.2821
  855MPD2    C112606   1.507   4.327  13.430 -0.6890 -0.6447  0.1564
  855MPD2    C212607   1.585   4.359  13.315  0.7915 -0.2033  0.9924
  855MPD2    C312608   1.526   4.422  13.207 -0.4230  0.1160  0.0328
  855MPD2    C412609   1.400   4.464  13.214  0.4872  0.6673 -1.0964
  855MPD2    C512610   1.323   4.445  13.330 -0.8808  0.7353 -0.0159
  855MPD2     H12611   1.691   4.339  13.317  0.7973 -0.3275 -0.2248
  855MPD2    H112612   1.352   4.525  13.138 -1.3567  0.5206 -0.0559
  855MPD2    H212613   1.331   4.385  13.534 -0.2519 -0.3049  0.1843
  855MPD2    H312614   1.227   4.496  13.335 -0.3926  1.6805 -0.2576
  855MPD2     N12615   1.602   4.478  13.103 -0.1541  0.3130  0.1832
  855MPD2    H512616   1.558   4.542  13.037 -1.6786 -0.8318  0.0914
  855MPD2    N112617   1.550   4.237  13.528  0.0178  0.0728  0.4371
  855MPD2    H712618   1.645   4.205  13.515 -0.3593 -0.5946 -0.6471
  856MPD2     C12619   3.352   0.519  13.851 -1.3805  0.2612 -0.0847
  856MPD2    C112620   3.356   0.607  13.957  0.2482 -0.2319  0.6595
  856MPD2    C212621   3.260   0.705  13.962 -0.0624  0.8707  0.0681
  856MPD2    C312622   3.167   0.724  13.859  0.1067  0.2891 -0.5938
  856MPD2    C412623   3.175   0.635  13.749  0.5490  0.3886  0.6351
  856MPD2    C512624   3.258   0.529  13.753  0.2321  0.3721 -0.8798
  856MPD2     H12625   3.261   0.774  14.045  1.7309  0.8332  0.0801
  856MPD2    H112626   3.104   0.647  13.669  0.2794  0.1923  0.8449
  856MPD2    H212627   3.418   0.432  13.852 -1.5922  0.0745 -2.3283
  856MPD2    H312628   3.262   0.451  13.677 -2.0365 -1.0379  0.4439
  856MPD2     N12629   3.071   0.833  13.858  0.1282 -0.8619 -0.2705
  856MPD2    H512630   3.022   0.844  13.769  0.9838  0.1829 -0.6140
  856MPD2    N112631   3.463   0.609  14.049  0.3326  0.1349 -0.2794
  856MPD2    H712632   3.474   0.698  14.096 -0.4000  1.6100 -2.9453
  857MPD2     C12633   0.047   3.195  12.855 -0.1475  0.9519  0.1625
  857MPD2    C112634   0.174   3.145  12.854  0.0823 -0.1063 -0.3988
  857MPD2    C212635   0.275   3.226  12.803 -0.5457 -0.1004 -0.3107
  857MPD2    C312636   0.251   3.358  12.760 -0.7775  0.4912 -0.6474
  857MPD2    C412637   0.120   3.407  12.764  0.0129 -0.2792 -0.0064
  857MPD2    C512638   0.022   3.323  12.807 -0.5716  0.6129  0.2916
  857MPD2     H12639   0.378   3.196  12.792 -0.5250  0.0607 -0.5664
  857MPD2    H112640   0.087   3.509  12.746  0.5630 -0.1611 -0.3565
  857MPD2    H212641   4.711   3.131  12.898  1.6404  0.7555  3.0668
  857MPD2    H312642   4.660   3.360  12.812  0.0090  2.0809  1.3205
  857MPD2     N12643   0.364   3.432  12.741  0.1313  0.3320 -0.7023
  857MPD2    H512644   0.451   3.385  12.766 -1.8661 -2.9094  0.0634
  857MPD2    N112645   0.198   3.018  12.929 -0.0194  0.1783 -0.2215
  857MPD2    H712646   0.122   2.959  12.960  0.6939 -0.3005  0.6143
  858MPD2     C12647   1.054   1.385  16.786  0.2395  0.8064  0.8204
  858MPD2    C112648   1.190   1.384  16.758 -0.0920 -0.4918 -0.5300
  858MPD2    C212649   1.283   1.417  16.856 -0.1202  0.2677 -0.2779
  858MPD2    C312650   1.233   1.461  16.980 -1.0032  0.9674 -0.4389
  858MPD2    C412651   1.092   1.459  17.001 -0.3506  0.0511  0.0890
  858MPD2    C512652   1.002   1.429  16.904 -0.1584 -0.3621  0.0186
  858MPD2     H12653   1.390   1.399  16.848 -0.3107  0.2476 -2.7606
  858MPD2    H112654   1.050   1.478  17.099  1.3423  0.6824  0.6825
  858MPD2    H212655   0.986   1.364  16.704 -0.4755  2.5322  0.9823
  858MPD2    H312656   0.895   1.425  16.923  0.3776  0.8160  3.3892
  858MPD2     N12657   1.311   1.504  17.088  0.1454 -0.0389  0.4119
  858MPD2    H512658   1.274   1.516  17.182  0.8844 -0.8289  0.7965
  858MPD2    N112659   1.224   1.328  16.628 -0.7625  0.3424  0.6663
  858MPD2    H712660   1.142   1.302  16.573  0.7539 -0.8914 -1.0144
  859MPD2     C12661   0.527   3.945  15.872 -0.3025 -0.7233 -0.2141
  859MPD2    C112662   0.457   3.900  15.758  0.5732 -0.1246 -0.4071
  859MPD2    C212663   0.412   3.768  15.751 -0.2204 -0.4649  0.0297
  859MPD2    C312664   0.439   3.679  15.863  0.0869 -0.8224  0.5539
  859MPD2    C412665   0.515   3.722  15.970  0.3058 -0.1505  0.0295
  859MPD2    C512666   0.554   3.857  15.978 -0.7643  0.1764 -0.6135
  859MPD2     H12667   0.361   3.735  15.662  1.5123 -0.4662 -0.9524
  859MPD2    H112668   0.556   3.668  16.054 -1.2737  1.1316  1.6473
  859MPD2    H212669   0.542   4.051  15.881  0.7062 -0.8194 -0.8354
  859MPD2    H312670   0.621   3.886  16.058 -1.5173  0.5390 -0.1180
  859MPD2     N12671   0.391   3.547  15.868  0.1116 -0.4682 -0.1109
  859MPD2    H512672   0.413   3.490  15.949  2.0046  0.5647  0.0948
  859MPD2    N112673   0.447   3.983  15.648 -0.7858  0.5009 -0.4779
  859MPD2    H712674   0.495   4.073  15.654  0.4566 -0.1835 -0.0656
  860MPD2     C12675   2.655   4.531  11.749  0.0528 -0.0144  0.0978
  860MPD2    C112676   2.595   4.544  11.868  0.0443 -0.6676 -0.3605
  860MPD2    C212677   2.462   4.508  11.871  0.6319  0.0744  0.5117
  860MPD2    C312678   2.406   4.451  11.753  0.5814  0.4349 -0.7700
  860MPD2    C412679   2.479   4.431  11.634 -0.4234  0.5587 -0.0578
  860MPD2    C512680   2.604   4.474  11.640 -0.5591  0.2425 -0.2848
  860MPD2     H12681   2.399   4.505  11.959  0.5975 -1.2346  0.4476
  860MPD2    H112682   2.439   4.372  11.553  4.7226  0.7166 -2.7198
  860MPD2    H212683   2.758   4.566  11.746  0.1695 -0.5655 -2.3884
  860MPD2    H312684   2.673   4.463  11.557 -2.5539  0.4311 -1.9707
  860MPD2     N12685   2.275   4.399  11.765 -0.4108  0.2897 -0.1760
  860MPD2    H512686   2.241   4.398  11.861 -1.9731 -0.8204 -0.7411
  860MPD2    N112687   2.669   4.581  11.983  0.2804 -0.0270  0.3610
  860MPD2    H712688   2.624   4.563  12.073 -2.9296  2.3934 -0.7674
  861MPD2     C12689   1.158   2.414  11.035  0.6701  0.1630 -0.5175
  861MPD2    C112690   1.130   2.536  11.097 -0.2423  0.0908 -0.6685
  861MPD2    C212691   1.023   2.609  11.050 -1.0205  0.2013 -0.2639
  861MPD2    C312692   0.938   2.566  10.947 -0.1275 -0.0481 -0.8018
  861MPD2    C412693   0.981   2.452  10.878 -0.1771  0.2476  0.2426
  861MPD2    C512694   1.092   2.386  10.916 -0.4295  0.1977 -0.2393
  861MPD2     H12695   0.993   2.688  11.118 -0.5752 -0.3452  0.5633
  861MPD2    H112696   0.940   2.432  10.780 -1.2019  0.5264  0.6130
  861MPD2    H212697   1.243   2.352  11.062 -0.1377 -0.8854 -0.4145
  861MPD2    H312698   1.125   2.303  10.854 -2.7378 -2.0269  1.5454
  861MPD2     N12699   0.838   2.647  10.891 -0.6669 -0.0487  0.2460
  861MPD2    H512700   0.792   2.602  10.812 -0.7418  0.3701  0.0488
  861MPD2    N112701   1.198   2.590  11.209 -0.1613 -0.1900  0.4747
  861MPD2    H712702   1.167   2.683  11.236 -2.9828 -0.8868 -0.4279
  862MPD2     C12703   0.319   2.690  10.356 -0.1928 -0.4050 -0.9778
  862MPD2    C112704   0.375   2.639  10.468 -0.9198  0.1394 -0.0464
  862MPD2    C212705   0.359   2.501  10.499  0.4416  0.5448  0.6625
  862MPD2    C312706   0.290   2.421  10.405 -0.6691  0.1997 -0.4712
  862MPD2    C412707   0.239   2.472  10.287 -0.3779  0.4219  0.2525
  862MPD2    C512708   0.252   2.615  10.267 -0.4503  0.0800 -0.2990
  862MPD2     H12709   0.410   2.461  10.586 -1.0079 -2.8564 -0.0270
  862MPD2    H112710   0.197   2.416  10.204 -1.8061  1.1891  0.4676
  862MPD2    H212711   0.324   2.796  10.336  1.8872 -0.1361  1.0126
  862MPD2    H312712   0.216   2.662  10.176 -1.0090  0.0777 -0.0805
  862MPD2     N12713   0.266   2.284  10.421  0.4553  0.6956 -0.1470
  862MPD2    H512714   0.230   2.242  10.335 -1.6710  2.1628  0.0230
  862MPD2    N112715   0.450   2.714  10.563 -0.2628 -0.6688 -0.1876
  862MPD2    H712716   0.485   2.654  10.637 -2.8291 -0.1319  1.4716
  863MPD2     C12717   4.406   4.607  16.944 -0.3489 -0.4427  0.6254
  863MPD2    C112718   4.496   4.702  16.909 -0.2990  0.4454 -0.2276
  863MPD2    C212719   4.622   4.704  16.962 -0.6281 -0.3165  0.5101
  863MPD2    C312720   4.663   4.610  17.048 -0.7517  0.2022  0.4745
  863MPD2    C412721   4.570   4.515  17.090 -0.2081 -0.0651  0.0453
  863MPD2    C512722   4.440   4.505  17.034  0.1839  0.7011  0.4159
  863MPD2     H12723   4.682   0.048  16.930 -1.6326  0.7522  1.4573
  863MPD2    H112724   4.609   4.434  17.151  2.1838  0.3383 -0.9323
  863MPD2    H212725   4.305   4.603  16.903  1.1122  0.8293 -3.0931
  863MPD2    H312726   4.359   4.439  17.062  0.8692  0.5518  2.0704
  863MPD2     N12727   0.047   4.609  17.110  0.0724  0.9967  0.7629
  863MPD2    H512728   0.063   4.547  17.189 -3.2498 -1.2053 -0.3144
  863MPD2    N112729   4.442   0.070  16.830  0.2898 -0.3862  0.1644
  863MPD2    H712730   4.346   0.051  16.803  0.4062  0.2668 -0.7133
  864MPD2     C12731   0.387   1.206  17.217 -0.2826 -0.5811 -0.2775
  864MPD2    C112732   0.446   1.178  17.100  0.0567 -0.0346  0.4454
  864MPD2    C212733   0.506   1.281  17.023 -0.2758 -0.5641 -0.1246
  864MPD2    C312734   0.518   1.413  17.068 -0.2842  0.2364 -0.8915
  864MPD2    C412735   0.467   1.435  17.193  0.8159 -0.5538 -0.1334
  864MPD2    C512736   0.403   1.337  17.259 -0.8166 -0.2260  0.2872
  864MPD2     H12737   0.558   1.262  16.929  0.5886  0.9044  0.0676
  864MPD2    H112738   0.460   1.535  17.233  0.5498 -0.3958 -0.5660
  864MPD2    H212739   0.336   1.135  17.282 -0.0579 -0.2899  0.2225
  864MPD2    H312740   0.358   1.356  17.356  0.1964  3.3748  0.0606
  864MPD2     N12741   0.585   1.515  17.002 -0.9029 -0.8107 -1.0495
  864MPD2    H512742   0.571   1.598  17.059  1.7333 -0.1802 -1.3458
  864MPD2    N112743   0.430   1.044  17.058  0.1474 -0.3028 -0.1694
  864MPD2    H712744   0.355   0.991  17.102 -3.0743  1.5325 -3.4257
  865MPD2     C12745   0.409   2.193  16.465 -0.3184  0.3497  0.0060
  865MPD2    C112746   0.408   2.062  16.509  0.8002  0.1082  0.6236
  865MPD2    C212747   0.431   2.031  16.642  0.2042  0.4221  0.2421
  865MPD2    C312748   0.484   2.133  16.717 -0.1644  0.0050 -0.2954
  865MPD2    C412749   0.493   2.265  16.672  0.4215  0.1920 -1.2621
  865MPD2    C512750   0.452   2.292  16.550  0.1000 -0.1502 -0.2523
  865MPD2     H12751   0.428   1.929  16.678  0.5201  1.0522  2.0531
  865MPD2    H112752   0.511   2.343  16.745  0.4980 -0.5350 -0.5006
  865MPD2    H212753   0.386   2.222  16.364  0.2332 -2.9906 -1.0929
  865MPD2    H312754   0.452   2.395  16.515 -0.3185 -0.2519 -0.5540
  865MPD2     N12755   0.531   2.110  16.844 -0.2172  0.1959 -0.6557
  865MPD2    H512756   0.528   2.185  16.912 -1.4605 -0.1812 -0.2956
  865MPD2    N112757   0.385   1.962  16.410  0.4084  0.9031  0.2501
  865MPD2    H712758   0.386   2.005  16.318 -0.7789 -0.6652 -0.4870
  866MPD2     C12759   1.433   2.522  10.821  0.0033  0.5152 -0.4415
  866MPD2    C112760   1.473   2.592  10.934 -0.2928 -0.2095 -0.2662
  866MPD2    C212761   1.411   2.712  10.968  0.3056 -0.1787  0.5428
  866MPD2    C312762   1.298   2.752  10.898 -0.4336 -0.0169 -0.3365
  866MPD2    C412763   1.259   2.673  10.789 -0.1827  0.4762 -0.0913
  866MPD2    C512764   1.319   2.556  10.757  0.4653  0.3283 -0.2831
  866MPD2     H12765   1.441   2.753  11.064 -0.6153  2.6826 -0.3865
  866MPD2    H112766   1.171   2.700  10.732 -0.3552 -1.3943 -0.7188
  866MPD2    H212767   1.465   2.420  10.802  1.3237  1.1179 -1.4191
  866MPD2    H312768   1.280   2.486  10.684  4.0983 -0.3817 -1.5402
  866MPD2     N12769   1.223   2.866  10.934  0.4687 -0.4049 -0.1185
  866MPD2    H512770   1.147   2.877  10.867 -0.0430  0.4358  0.5938
  866MPD2    N112771   1.586   2.547  11.008 -0.1863 -0.7860 -0.3325
  866MPD2    H712772   1.615   2.452  10.985  0.1933 -0.7549  0.0134
  867MPD2     C12773   0.028   1.234  16.924 -0.6898  0.1442 -0.1443
  867MPD2    C112774   0.018   1.111  16.988 -0.2756  0.3898 -0.3924
  867MPD2    C212775   0.041   1.115  17.129  0.0534 -0.3001  0.4352
  867MPD2    C312776   0.058   1.232  17.198 -1.0033 -0.1814  0.4124
  867MPD2    C412777   0.080   1.348  17.123  0.3402 -0.2592 -0.0641
  867MPD2    C512778   0.069   1.346  16.990  0.2769  0.9717 -0.7353
  867MPD2     H12779   0.029   1.022  17.183  1.5988  0.0559  1.4027
  867MPD2    H112780   0.104   1.442  17.171 -2.7324  0.0863  0.7383
  867MPD2    H212781   0.018   1.251  16.817  0.9786 -0.5118 -0.4139
  867MPD2    H312782   0.113   1.421  16.925  1.1893  1.2657  0.2069
  867MPD2     N12783   0.058   1.237  17.337  0.2949 -0.0986  0.9124
  867MPD2    H512784   0.065   1.326  17.384 -0.9779 -0.2731  1.4382
  867MPD2    N112785   4.720   0.990  16.918  0.6690 -0.3270  0.2713
  867MPD2    H712786   4.678   1.010  16.827 -0.2492  1.1217  0.9975
  868MPD2     C12787   0.601   1.684  13.178  0.0228 -0.6281  0.1889
  868MPD2    C112788   0.639   1.581  13.261 -0.0879  0.3037  0.0814
  868MPD2    C212789   0.572   1.552  13.379  0.1549 -0.5692 -0.1631
  868MPD2    C312790   0.465   1.625  13.407 -0.6789  0.2975 -0.3109
  868MPD2    C412791   0.422   1.733  13.325 -0.5129  0.8919 -0.9036
  868MPD2    C512792   0.493   1.762  13.212 -0.6539 -0.6042 -0.1048
  868MPD2     H12793   0.596   1.471  13.446  0.7286 -1.2691 -1.1967
  868MPD2    H112794   0.342   1.801  13.352  1.4253  2.8915 -0.1301
  868MPD2    H212795   0.653   1.696  13.084 -2.4309  1.3051 -0.9174
  868MPD2    H312796   0.462   1.835  13.138 -0.2137 -0.9190 -0.5993
  868MPD2     N12797   0.397   1.595  13.529 -0.2037  0.2886 -0.7135
  868MPD2    H512798   0.435   1.512  13.573 -2.7164 -0.1543  0.6111
  868MPD2    N112799   0.753   1.512  13.209 -0.3043  0.3241  0.2112
  868MPD2    H712800   0.798   1.555  13.128 -2.2384  0.7295 -0.6552
  869MPD2     C12801   2.381   3.358   0.562  0.3272  0.3438  0.7388
  869MPD2    C112802   2.268   3.410   0.620  0.3132 -0.9681  0.2416
  869MPD2    C212803   2.282   3.483   0.734  0.4745  0.3418 -0.1009
  869MPD2    C312804   2.408   3.522   0.781  0.3270 -0.5457  0.1633
  869MPD2    C412805   2.518   3.467   0.722 -0.4825 -0.3406 -0.3547
  869MPD2    C512806   2.504   3.390   0.611 -0.4744 -0.4791 -0.1830
  869MPD2     H12807   2.193   3.530   0.775  1.9675  2.1049  1.0919
  869MPD2    H112808   2.618   3.501   0.747 -0.5891  0.5955 -1.2327
  869MPD2    H212809   2.372   3.285   0.482 -1.3062  0.6698  0.6192
  869MPD2    H312810   2.600   3.352   0.577  0.3554  0.6483  0.8916
  869MPD2     N12811   2.431   3.602   0.898 -0.1035 -0.2606  0.0407
  869MPD2    H512812   2.526   3.625   0.926  0.1694  0.6134 -1.6259
  869MPD2    N112813   2.146   3.365   0.568 -0.4676  0.2562  0.5929
  869MPD2    H712814   2.141   3.325   0.475 -0.0837  2.5802 -0.4034
  870MPD2     C12815   0.814   3.291   1.192 -0.2381  0.5634 -0.7398
  870MPD2    C112816   0.949   3.268   1.165 -0.2410  0.2725 -1.2266
  870MPD2    C212817   0.998   3.295   1.038  0.4223  0.1441 -1.2163
  870MPD2    C312818   0.916   3.341   0.941 -0.0659 -0.1368  0.2004
  870MPD2    C412819   0.792   3.389   0.972  0.0546  0.1130 -0.8264
  870MPD2    C512820   0.745   3.355   1.093  0.1347 -0.1776 -0.2527
  870MPD2     H12821   1.096   3.253   1.019  0.6833  0.1361  0.1523
  870MPD2    H112822   0.733   3.433   0.892  0.1504 -0.5416 -1.2549
  870MPD2    H212823   0.768   3.278   1.289  0.4221 -2.3491 -0.8206
  870MPD2    H312824   0.642   3.387   1.102 -0.3885 -2.1851  0.7718
  870MPD2     N12825   0.975   3.345   0.811 -0.4130  0.4121 -0.1692
  870MPD2    H512826   1.065   3.298   0.805 -0.6724 -0.2032  0.7937
  870MPD2    N112827   1.020   3.206   1.268 -0.2855 -0.8489 -0.1309
  870MPD2    H712828   0.962   3.188   1.350  0.8981  1.8807  1.3216
  871MPD2     C12829   2.831   1.805  16.569 -0.6541 -0.2499 -0.4057
  871MPD2    C112830   2.946   1.787  16.639 -0.1553 -0.1345 -0.4852
  871MPD2    C212831   3.016   1.671  16.610  0.0377  0.3193 -0.2077
  871MPD2    C312832   2.970   1.577  16.522 -0.4458  0.5221 -0.4179
  871MPD2    C412833   2.847   1.599  16.461  0.2235  0.3448  0.8775
  871MPD2    C512834   2.775   1.713  16.483  0.2122 -0.5638  0.2497
  871MPD2     H12835   3.112   1.644  16.652 -0.1790  0.0993  0.1484
  871MPD2    H112836   2.804   1.531  16.389 -1.0425  2.0479  0.0043
  871MPD2    H212837   2.776   1.897  16.582  2.2237  1.0692  2.4983
  871MPD2    H312838   2.684   1.724  16.427  1.0532 -0.7471 -1.1552
  871MPD2     N12839   3.045   1.456  16.514  0.3432  0.0760  0.0596
  871MPD2    H512840   3.134   1.462  16.563 -0.4205  2.8560  1.0852
  871MPD2    N112841   2.976   1.881  16.745 -0.3323 -0.0583  0.2157
  871MPD2    H712842   2.913   1.960  16.745 -1.3296 -0.8404 -3.0514
  872MPD2     C12843   3.732   4.215  14.132 -0.0397 -0.5752 -0.0540
  872MPD2    C112844   3.694   4.347  14.138 -0.5370  0.2666  0.5632
  872MPD2    C212845   3.570   4.376  14.188  0.1839 -0.0515 -0.7685
  872MPD2    C312846   3.487   4.273  14.230  0.1947 -0.2772 -0.4240
  872MPD2    C412847   3.533   4.142  14.217 -1.2264  0.0821  0.2569
  872MPD2    C512848   3.659   4.120  14.175 -0.0219  0.6405 -0.5199
  872MPD2     H12849   3.526   4.474  14.175  0.3748  0.2117  0.5628
  872MPD2    H112850   3.470   4.056  14.236 -2.0952  0.9053  1.0926
  872MPD2    H212851   3.827   4.190  14.085  0.6784  3.4311 -0.7973
  872MPD2    H312852   3.694   4.018  14.167 -0.6423  0.4491 -0.8237
  872MPD2     N12853   3.362   4.286  14.287 -0.3757 -0.4625  0.2071
  872MPD2    H512854   3.319   4.206  14.333  2.7563 -1.0855  2.0619
  872MPD2    N112855   3.783   4.457  14.095  0.1625  0.1926  0.0639
  872MPD2    H712856   3.743   4.550  14.100  0.9174  0.5921 -1.6328
  873MPD2     C12857   0.546   3.964   0.698  0.0992 -0.1909 -0.7232
  873MPD2    C112858   0.422   3.931   0.752  0.2900  0.1824 -0.2667
  873MPD2    C212859   0.366   3.812   0.729  0.5423 -0.0291 -0.2452
  873MPD2    C312860   0.427   3.723   0.648 -0.8609 -0.1507 -0.1949
  873MPD2    C412861   0.545   3.751   0.582  0.1509 -0.2578  0.4789
  873MPD2    C512862   0.604   3.874   0.613  0.2681  0.0349 -0.1962
  873MPD2     H12863   0.267   3.786   0.765  0.2556  1.5680  0.1563
  873MPD2    H112864   0.592   3.672   0.524  2.4671 -0.4664  2.6722
  873MPD2    H212865   0.604   4.053   0.719 -2.5589  1.3025  0.3286
  873MPD2    H312866   0.698   3.906   0.570  0.0077  0.6215 -0.3330
  873MPD2     N12867   0.359   3.610   0.601 -0.3158  0.7725 -0.3202
  873MPD2    H512868   0.403   3.566   0.521  2.6260  1.1535  1.0961
  873MPD2    N112869   0.366   4.031   0.831  0.0881 -0.1487  0.2822
  873MPD2    H712870   0.418   4.116   0.850 -0.1613 -0.0648  0.5804
  874MPD2     C12871   0.735   4.735  16.185  0.5365 -0.0668  0.2619
  874MPD2    C112872   0.783   4.630  16.257  0.1482  0.5700  0.1810
  874MPD2    C212873   0.925   4.612  16.263  0.4727  0.2770  0.0621
  874MPD2    C312874   1.004   4.697  16.191 -0.4567 -0.5078  0.3017
  874MPD2    C412875   0.957   0.069  16.126  0.3451  1.0623  0.0055
  874MPD2    C512876   0.820   0.083  16.113 -0.4633  0.2376  0.3656
  874MPD2     H12877   0.976   4.528  16.309  3.0347  0.9994 -1.4792
  874MPD2    H112878   1.019   0.130  16.061  3.4302 -0.5174  1.4784
  874MPD2    H212879   0.630   0.019  16.187  0.1178 -1.9312  0.5824
  874MPD2    H312880   0.778   0.164  16.054  0.2007 -1.1729 -2.0231
  874MPD2     N12881   1.144   4.680  16.198 -0.3584 -0.3329 -0.3079
  874MPD2    H512882   1.178   4.608  16.261 -3.0762 -0.9865  0.3870
  874MPD2    N112883   0.691   4.548  16.322 -0.8714 -0.1306  0.6016
  874MPD2    H712884   0.596   4.549  16.285  0.5271  0.7871 -2.9797
  875MPD2     C12885   0.753   3.002  14.582  0.0917 -0.1704  0.1796
  875MPD2    C112886   0.879   3.004  14.520 -0.0939  0.3383 -0.4379
  875MPD2    C212887   0.985   3.048  14.602  0.3374  0.0456  0.1832
  875MPD2    C312888   0.968   3.076  14.740  0.4738 -0.3773 -0.5672
  875MPD2    C412889   0.846   3.055  14.798 -0.4650  0.2220 -0.7721
  875MPD2    C512890   0.737   3.032  14.716  0.3636  0.0632 -0.1317
  875MPD2     H12891   1.085   3.056  14.560  1.4273 -0.4443  2.6501
  875MPD2    H112892   0.833   3.095  14.898 -1.2147 -1.4742 -0.1936
  875MPD2    H212893   0.663   2.974  14.528 -0.4153  0.5750  0.6327
  875MPD2    H312894   0.642   3.016  14.766  1.7637 -2.9340  1.5803
  875MPD2     N12895   1.076   3.110  14.825 -0.1840  0.4468  0.4217
  875MPD2    H512896   1.064   3.107  14.926 -1.9364  0.1835  0.1981
  875MPD2    N112897   0.899   2.976  14.382  0.1437 -0.0744  0.6754
  875MPD2    H712898   0.988   2.990  14.336 -0.7151  0.6841 -0.7306
  876MPD2     C12899   0.587   4.199  16.142  0.6145  0.2516 -0.2399
  876MPD2    C112900   0.714   4.224  16.119  0.4905  0.4171 -1.0628
  876MPD2    C212901   0.802   4.141  16.194  1.1581  0.3912 -0.5761
  876MPD2    C312902   0.762   4.048  16.294  0.4442  0.3573  0.2012
  876MPD2    C412903   0.626   4.028  16.310  0.2472 -0.0708 -0.3355
  876MPD2    C512904   0.542   4.110  16.239 -0.6411 -0.5202 -0.8019
  876MPD2     H12905   0.909   4.155  16.182  1.2611 -0.0192 -0.1170
  876MPD2    H112906   0.591   3.947  16.374  1.2981 -0.2662 -0.0150
  876MPD2    H212907   0.512   4.251  16.084  0.7789 -0.1707 -0.8375
  876MPD2    H312908   0.435   4.107  16.256 -0.1854 -0.5565  2.0466
  876MPD2     N12909   0.863   3.966  16.354  0.2685 -0.2175 -0.7014
  876MPD2    H512910   0.962   3.971  16.332  0.7493 -0.5864  1.2963
  876MPD2    N112911   0.761   4.333  16.041  0.2345  0.1892  0.2089
  876MPD2    H712912   0.693   4.374  15.978 -0.2294  0.4380  0.8718
  877MPD2     C12913   0.536   4.582  15.404 -0.2040 -0.2669  0.3939
  877MPD2    C112914   0.661   4.649  15.404  0.5538  0.4179 -1.2667
  877MPD2    C212915   0.700   4.710  15.290 -0.1729 -0.5090 -0.5926
  877MPD2    C312916   0.631   4.710  15.177 -0.7857  0.1461 -0.0466
  877MPD2    C412917   0.514   4.635  15.172 -0.0582 -0.3857  0.0999
  877MPD2    C512918   0.466   4.579  15.290  0.2943  0.5558 -0.2117
  877MPD2     H12919   0.797   0.016  15.301 -0.5062 -0.0019  0.2167
  877MPD2    H112920   0.460   4.640  15.078  0.7735  0.8778 -0.2980
  877MPD2    H212921   0.498   4.514  15.479 -1.0691  2.5717  2.5318
  877MPD2    H312922   0.369   4.531  15.290 -0.2064  1.5677 -1.3047
  877MPD2     N12923   0.688   0.009  15.050  0.8643 -0.3371  0.8358
  877MPD2    H512924   0.635   4.726  14.966  1.1867 -0.2342  0.6055
  877MPD2    N112925   0.742   4.653  15.518 -0.1030  1.0149 -0.1164
  877MPD2    H712926   0.828   4.705  15.501  0.5919  0.4594  1.6698
  878MPD2     C12927   4.532   3.975  13.243 -0.0986 -0.5495  0.3473
  878MPD2    C112928   4.610   4.083  13.253  0.0641 -0.3785  0.0813
  878MPD2    C212929   4.636   4.138  13.379  0.1119  0.8606  0.4676
  878MPD2    C312930   4.585   4.074  13.494  0.2734 -0.1375 -0.5557
  878MPD2    C412931   4.511   3.960  13.480  0.3964 -0.3509  0.2649
  878MPD2    C512932   4.479   3.920  13.357  0.2016 -0.4925 -1.3868
  878MPD2     H12933   4.699   4.226  13.388  0.4234  0.4057  2.7498
  878MPD2    H112934   4.458   3.912  13.561  0.9589  0.4859  1.1228
  878MPD2    H212935   4.509   3.936  13.145  0.9299  0.4887 -0.3089
  878MPD2    H312936   4.411   3.836  13.344 -2.9428  1.8826 -0.3585
  878MPD2     N12937   4.616   4.130  13.620  0.2303 -0.5551  0.0013
  878MPD2    H512938   4.662   4.221  13.618  0.6596 -0.7399  1.3339
  878MPD2    N112939   4.651   4.140  13.127 -0.1133  0.1835  0.4026
  878MPD2    H712940   4.618   4.091  13.044  0.1899 -0.3244  0.5880
  879MPD2     C12941   0.875   0.352  17.293  0.2320  0.3269 -0.3158
  879MPD2    C112942   0.826   0.233  17.332  0.7598 -0.6483 -0.1403
  879MPD2    C212943   0.790   0.137  17.240  0.0221 -1.0855  0.4688
  879MPD2    C312944   0.803   0.164  17.103  0.1547  0.1645  0.5163
  879MPD2    C412945   0.858   0.284  17.063 -0.8233 -0.0556  1.0078
  879MPD2    C512946   0.913   0.370  17.164 -1.4864  0.2253  0.8696
  879MPD2     H12947   0.737   0.051  17.278 -1.4077 -1.1354 -1.6342
  879MPD2    H112948   0.871   0.302  16.957 -1.1468  1.0278  1.1611
  879MPD2    H212949   0.908   0.425  17.366 -0.2112 -1.9783  2.1829
  879MPD2    H312950   0.970   0.455  17.128 -0.4449  0.0731  2.1729
  879MPD2     N12951   0.739   0.075  17.009 -0.1861 -0.2398 -0.0397
  879MPD2    H512952   0.735   0.121  16.919  3.0824 -1.6661 -0.9277
  879MPD2    N112953   0.806   0.206  17.475 -0.1807 -0.3574  0.2445
  879MPD2    H712954   0.842   0.274  17.541 -0.9014 -0.2886  0.5612
  880MPD2     C12955   1.599   2.110   0.337  0.0300 -0.8928  0.7904
  880MPD2    C112956   1.729   2.157   0.313 -0.5631 -0.6527 -0.5945
  880MPD2    C212957   1.833   2.076   0.362  0.0997  0.7231 -0.2402
  880MPD2    C312958   1.811   1.946   0.400  0.0563 -0.3102  0.6443
  880MPD2    C412959   1.682   1.894   0.412  0.4244  0.7353 -0.5476
  880MPD2    C512960   1.577   1.979   0.378  0.4518  0.0339 -0.5413
  880MPD2     H12961   1.935   2.109   0.348  1.7492 -3.4093  2.2276
  880MPD2    H112962   1.656   1.795   0.449  0.3496  0.9819  0.0502
  880MPD2    H212963   1.510   2.171   0.330  0.8593  0.1917 -0.3660
  880MPD2    H312964   1.473   1.954   0.395  0.6994  0.0602  0.9663
  880MPD2     N12965   1.923   1.871   0.441  0.0149 -0.0810 -0.2051
  880MPD2    H512966   2.009   1.924   0.445 -0.3818  0.5583 -0.0919
  880MPD2    N112967   1.748   2.290   0.274  0.0247 -1.3523 -0.1142
  880MPD2    H712968   1.658   2.332   0.254  0.7416 -0.3912 -1.2990
  881MPD2     C12969   2.321   3.114  17.625  0.1199  0.2478 -0.6044
  881MPD2    C112970   2.303   2.989  17.575  0.2365  0.2351  0.0959
  881MPD2    C212971   2.197   2.912  17.630  0.3618  0.4607 -0.8214
  881MPD2    C312972   2.146   2.954  17.753  0.1357 -0.1196  0.2058
  881MPD2    C412973   2.190   3.072   0.055  0.1523 -0.6563  0.1635
  881MPD2    C512974   2.276   3.155  17.747  0.6964  0.3510  0.4158
  881MPD2     H12975   2.159   2.820  17.586 -1.2706  1.0651 -0.6894
  881MPD2    H112976   2.156   3.118   0.146 -0.9857  0.2015 -0.6966
  881MPD2    H212977   2.378   3.188  17.569 -1.2733  2.3110  0.7166
  881MPD2    H312978   2.283   3.255   0.029  0.9892 -0.0114  1.2782
  881MPD2     N12979   2.053   2.870   0.061  0.2203 -0.3719  0.0187
  881MPD2    H512980   2.001   2.913   0.137  2.2680  1.6057  0.3054
  881MPD2    N112981   2.350   2.958  17.441 -0.6172 -0.1710 -0.0498
  881MPD2    H712982   2.417   3.018  17.395 -1.9677  0.6711 -0.9089
  882MPD2     C12983   0.839   4.409  14.403  0.6071  0.2289 -0.5545
  882MPD2    C112984   0.766   4.514  14.452 -0.2110 -0.7555 -0.8907
  882MPD2    C212985   0.625   4.508  14.466  0.0708  0.1140 -0.0357
  882MPD2    C312986   0.561   4.394  14.418  0.0970  0.3625  0.0610
  882MPD2    C412987   0.631   4.292  14.365  0.1864  0.0352  0.1684
  882MPD2    C512988   0.767   4.297  14.359  0.4227  0.3406 -0.7707
  882MPD2     H12989   0.572   4.582  14.525  1.1552  3.1467 -2.8798
  882MPD2    H112990   0.583   4.201  14.332  1.9979 -1.0407  0.5060
  882MPD2    H212991   0.947   4.403  14.406  0.5105 -1.2425  0.4424
  882MPD2    H312992   0.807   4.203  14.323 -1.3454 -0.5500 -0.4299
  882MPD2     N12993   0.424   4.374  14.431 -0.7123 -0.6257  0.6259
  882MPD2    H512994   0.382   4.285  14.407  2.1856 -1.3755 -1.6657
  882MPD2    N112995   0.850   4.615  14.506 -0.3078  0.2470 -0.3494
  882MPD2    H712996   0.948   4.592  14.494  0.5435  3.1749  0.9860
  883MPD2     C12997   2.806   3.843  16.029 -0.1591 -0.2753 -0.1764
  883MPD2    C112998   2.677   3.878  16.054  0.1976 -0.2323 -0.4568
  883MPD2    C212999   2.654   3.974  16.153 -0.5590  0.5279 -0.7096
  883MPD2    C313000   2.755   4.015  16.229  1.0378 -0.4341  0.1121
  883MPD2    C413001   2.885   3.984  16.200 -0.2713  0.1643 -0.5628
  883MPD2    C513002   2.909   3.905  16.096  0.5730  0.7731  0.3510
  883MPD2     H13003   2.556   4.020  16.160 -0.4860  0.4068  0.9345
  883MPD2    H113004   2.970   4.029  16.250 -0.9156 -0.5732  1.1913
  883MPD2    H213005   2.841   3.794  15.940  0.9657 -0.1980  0.2311
  883MPD2    H313006   3.013   3.878  16.080  1.3939  3.1130  1.8276
  883MPD2     N13007   2.720   4.120  16.324 -0.0864  0.3476  0.6595
  883MPD2    H513008   2.630   4.164  16.307 -0.4226  0.2343  2.1854
  883MPD2    N113009   2.580   3.857  15.957  0.5733 -0.3798 -0.4845
  883MPD2    H713010   2.498   3.915  15.973  1.4266  0.6833  0.0444
  884MPD2     C13011   4.634   0.280  15.210  0.0764  0.0386 -0.2544
  884MPD2    C113012   4.595   0.399  15.155  0.1671 -0.1099 -0.1071
  884MPD2    C213013   4.463   0.433  15.163  0.5872 -0.1014 -0.0568
  884MPD2    C313014   4.367   0.346  15.210 -0.1874 -0.2230  1.1724
  884MPD2    C413015   4.406   0.223  15.257 -0.0928  0.2492 -0.0191
  884MPD2    C513016   4.539   0.190  15.255 -0.1314 -0.0180  0.0222
  884MPD2     H13017   4.432   0.532  15.131 -4.4538 -1.0346  2.0797
  884MPD2    H113018   4.341   0.151  15.305 -1.1445  0.5599 -0.9835
  884MPD2    H213019   4.736   0.245  15.218  0.2222  1.0333  2.1949
  884MPD2    H313020   4.568   0.095  15.297  1.1918  0.3711  0.0007
  884MPD2     N13021   4.228   0.383  15.209 -0.2186 -0.0500  0.0967
  884MPD2    H513022   4.210   0.480  15.185  0.6845 -0.0476 -0.5903
  884MPD2    N113023   4.691   0.493  15.098  0.4972 -0.2611 -0.2386
  884MPD2    H713024   4.658   0.568  15.039 -0.8323 -0.2154  0.5435
  885MPD2     C13025   2.374   0.243   0.430 -0.4069  0.0779  0.2375
  885MPD2    C113026   2.406   0.376   0.448 -0.6717  0.1493 -0.1705
  885MPD2    C213027   2.381   0.464   0.350  0.0199  0.0690 -0.8345
  885MPD2    C313028   2.301   0.423   0.243  0.6117  0.5285 -0.6843
  885MPD2    C413029   2.264   0.289   0.227 -0.4586 -0.1331 -0.1265
  885MPD2    C513030   2.307   0.205   0.320  0.1174 -0.0958 -0.0081
  885MPD2     H13031   2.414   0.567   0.358  3.5927 -1.0540 -0.9064
  885MPD2    H113032   2.210   0.250   0.142 -0.2159  0.3030 -0.4785
  885MPD2    H213033   2.402   0.159   0.492 -0.8529 -0.2169  0.0376
  885MPD2    H313034   2.276   0.103   0.299  0.3855 -0.4977  1.5848
  885MPD2     N13035   2.249   0.525   0.162  0.0429  0.6259 -0.2306
  885MPD2    H513036   2.296   0.613   0.183  0.9582  0.3439 -1.1457
  885MPD2    N113037   2.486   0.397   0.563  0.5102 -0.4171 -0.8831
  885MPD2    H713038   2.506   0.312   0.615  0.7430  0.2121  0.0517
  886MPD2     C13039   3.979   3.740  15.637  0.7760 -0.7751  0.1615
  886MPD2    C113040   4.109   3.727  15.586 -0.0400  0.2079 -0.6017
  886MPD2    C213041   4.150   3.809  15.479 -0.6518 -0.2617 -0.0459
  886MPD2    C313042   4.060   3.886  15.415 -0.9104  0.1175  0.3622
  886MPD2    C413043   3.932   3.897  15.461 -0.0654  0.5461 -1.1275
  886MPD2    C513044   3.890   3.817  15.564 -0.6442  0.1741 -0.3723
  886MPD2     H13045   4.252   3.804  15.443 -1.0416 -1.5114 -0.9765
  886MPD2    H113046   3.855   3.966  15.430 -1.3684 -1.9709 -3.5004
  886MPD2    H213047   3.937   3.678  15.716 -1.8901 -0.9015 -1.3751
  886MPD2    H313048   3.791   3.830  15.605 -1.4206  0.5259 -2.3965
  886MPD2     N13049   4.109   3.968  15.307 -0.3496  0.2001 -0.4171
  886MPD2    H513050   4.203   3.955  15.272 -0.0080 -0.8223  0.8680
  886MPD2    N113051   4.216   3.643  15.636  0.2805 -0.1831 -0.0277
  886MPD2    H713052   4.307   3.643  15.593  0.6575 -2.5738  0.8287
  887MPD2     C13053   0.099   3.713  16.020 -0.2701 -1.3959  0.1736
  887MPD2    C113054   0.035   3.749  15.905 -1.0618 -0.2726  0.5194
  887MPD2    C213055   0.044   3.879  15.854  0.1558  0.4017 -0.0007
  887MPD2    C313056   0.124   3.974  15.917  0.7391  0.6745 -0.4040
  887MPD2    C413057   0.178   3.934  16.035  0.6987  0.0140 -0.3949
  887MPD2    C513058   0.171   3.806  16.082  0.4882  0.5485 -0.1665
  887MPD2     H13059   4.730   3.923  15.771 -1.1228 -0.3358  0.4439
  887MPD2    H113060   0.217   4.010  16.102 -0.3781  0.1501  0.0789
  887MPD2    H213061   0.085   3.614  16.062 -0.8004 -0.1318  3.0168
  887MPD2    H313062   0.228   3.774  16.168 -2.4739 -2.4860  0.6735
  887MPD2     N13063   0.137   4.104  15.865 -0.1552  0.2071  0.1275
  887MPD2    H513064   0.092   4.120  15.775  0.5395  1.3590 -0.0234
  887MPD2    N113065   4.681   3.673  15.838 -0.6387  0.1990  0.8100
  887MPD2    H713066   4.625   3.721  15.769 -0.4775 -0.9420 -0.1021
  888MPD2     C13067   1.740   4.008  14.805 -0.0157  0.1512  0.1886
  888MPD2    C113068   1.716   4.076  14.924 -0.0108 -0.1479  0.5461
  888MPD2    C213069   1.782   4.191  14.955 -0.1244 -0.5259  0.6559
  888MPD2    C313070   1.846   4.250  14.854  0.2921 -0.1103 -0.3711
  888MPD2    C413071   1.858   4.191  14.731 -0.3432  0.1089 -0.5307
  888MPD2    C513072   1.802   4.068  14.707  0.4986 -0.2750 -0.3251
  888MPD2     H13073   1.757   4.249  15.043 -0.3630 -0.2481  0.4072
  888MPD2    H113074   1.903   4.244  14.648 -0.4745  2.0358  0.6307
  888MPD2    H213075   1.691   3.918  14.768  0.3106 -0.1206  0.4207
  888MPD2    H313076   1.821   4.017  14.613 -1.5073 -0.5424 -0.5780
  888MPD2     N13077   1.884   4.382  14.885 -0.2456 -1.0592  0.6103
  888MPD2    H513078   1.871   4.407  14.982  2.1610  1.6582  0.2307
  888MPD2    N113079   1.628   4.031  15.024 -0.3760  0.1920 -0.4233
  888MPD2    H713080   1.610   4.092  15.103 -1.9982  0.7920 -1.2607
  889MPD2     C13081   0.245   3.832  13.241  0.0484  0.4143  0.0941
  889MPD2    C113082   0.371   3.876  13.212 -0.6875 -1.1684 -0.2718
  889MPD2    C213083   0.414   3.991  13.284 -0.1492 -0.3861 -0.7057
  889MPD2    C313084   0.340   4.053  13.384  0.5853 -0.1702  0.7679
  889MPD2    C413085   0.217   3.998  13.412 -0.1632 -0.6357  0.1196
  889MPD2    C513086   0.168   3.891  13.345  0.4076 -0.3228 -0.1723
  889MPD2     H13087   0.511   4.032  13.258  0.4773 -3.6008 -3.4994
  889MPD2    H113088   0.154   4.056  13.478  0.0547 -2.2465  1.7473
  889MPD2    H213089   0.207   3.736  13.208 -0.5218  0.8271 -0.4450
  889MPD2    H313090   0.067   3.856  13.356  0.8154 -1.2137  0.6950
  889MPD2     N13091   0.396   4.154  13.463 -0.6943 -0.2464 -0.3628
  889MPD2    H513092   0.480   4.196  13.424  0.0854 -1.7944 -0.3584
  889MPD2    N113093   0.431   3.823  13.097  0.3471 -0.8973 -0.3982
  889MPD2    H713094   0.378   3.751  13.048 -2.0581  0.4486  0.2177
  890MPD2     C13095   0.196   0.614  14.548  0.0057 -0.0963 -0.7399
  890MPD2    C113096   0.296   0.696  14.580  0.1140  0.2979  0.1711
  890MPD2    C213097   0.384   0.665  14.679  0.6134 -0.2769  0.4502
  890MPD2    C313098   0.368   0.548  14.752 -0.0002 -0.2999 -0.2602
  890MPD2    C413099   0.264   0.465  14.723 -0.1524 -0.3994  0.5483
  890MPD2    C513100   0.180   0.502  14.621  1.3028  0.0687  0.0366
  890MPD2     H13101   0.467   0.728  14.710  2.5643 -2.7150  0.2193
  890MPD2    H113102   0.255   0.366  14.766 -1.8277 -0.5830 -0.1962
  890MPD2    H213103   0.137   0.641  14.461  0.7590  2.1571 -0.5607
  890MPD2    H313104   0.098   0.435  14.597  0.2067  1.4080  0.0293
  890MPD2     N13105   0.476   0.520  14.843 -0.6026 -0.1828  0.5808
  890MPD2    H513106   0.564   0.569  14.839 -0.8739  0.0814 -2.0699
  890MPD2    N113107   0.304   0.817  14.511  0.1945 -0.3188 -0.2207
  890MPD2    H713108   0.226   0.825  14.447  1.1295  1.6043 -1.1129
  891MPD2     C13109   3.509   3.314  16.906 -0.3129  0.6414 -0.3716
  891MPD2    C113110   3.543   3.435  16.860 -0.2309 -0.2722  0.0688
  891MPD2    C213111   3.642   3.507  16.912  0.5216 -0.9401  0.1570
  891MPD2    C313112   3.706   3.459  17.021  0.7514 -0.1741  1.0115
  891MPD2    C413113   3.669   3.335  17.077  0.1668  0.1112 -0.5390
  891MPD2    C513114   3.565   3.263  17.021  0.6026  0.3786  0.3799
  891MPD2     H13115   3.655   3.611  16.882  0.2929 -0.7269  0.7922
  891MPD2    H113116   3.718   3.301  17.168 -0.0346  2.4829  0.4553
  891MPD2    H213117   3.424   3.260  16.863  0.4483 -0.0076 -1.0619
  891MPD2    H313118   3.535   3.166  17.058  1.3971  0.2235  0.6040
  891MPD2     N13119   3.809   3.537  17.075  0.1232 -0.0713  0.2133
  891MPD2    H513120   3.815   3.637  17.059  0.9600 -0.2001 -0.2630
  891MPD2    N113121   3.469   3.489  16.748 -0.2095 -0.0399 -0.2661
  891MPD2    H713122   3.380   3.443  16.732 -0.4998  0.7710 -0.9630
  892MPD2     C13123   4.432   0.318  14.524 -0.4087 -0.1158 -0.5253
  892MPD2    C113124   4.381   0.197  14.555 -0.7612 -0.5703 -0.0170
  892MPD2    C213125   4.450   0.080  14.547  0.0890  0.0551 -0.6319
  892MPD2    C313126   4.593   0.080  14.533 -0.5209 -0.8374 -0.7818
  892MPD2    C413127   4.651   0.207  14.518 -0.5950  0.4161 -0.3728
  892MPD2    C513128   4.570   0.323  14.505 -0.2955  0.6188 -0.7338
  892MPD2     H13129   4.400   4.725  14.553  2.2331 -0.9663  1.3751
  892MPD2    H113130   0.019   0.219  14.519 -0.6191  0.7194 -1.3213
  892MPD2    H213131   4.371   0.408  14.516  0.8230  0.5568 -2.5173
  892MPD2    H313132   4.614   0.422  14.498  0.6545  0.3595  1.5686
  892MPD2     N13133   4.668   4.699  14.527 -0.2926  0.4023 -0.4144
  892MPD2    H513134   0.028   4.705  14.543 -0.1928  1.3725 -1.3465
  892MPD2    N113135   4.246   0.197  14.601  0.4903  0.5274 -0.3554
  892MPD2    H713136   4.190   0.276  14.571  0.1209  0.5607  0.4364
  893MPD2     C13137   1.140   3.360   1.857  0.2785  0.1844  0.1910
  893MPD2    C113138   1.118   3.373   1.723 -0.1635 -0.6534 -0.4893
  893MPD2    C213139   1.006   3.307   1.666 -0.5010 -0.8973  0.3072
  893MPD2    C313140   0.922   3.232   1.747 -0.0476 -0.4533  0.3349
  893MPD2    C413141   0.941   3.239   1.886  0.5632 -0.7751 -0.0966
  893MPD2    C513142   1.052   3.301   1.941 -0.2853  0.1726 -0.1568
  893MPD2     H13143   0.981   3.302   1.560  0.6637  2.5691 -0.1172
  893MPD2    H113144   0.880   3.190   1.961  2.2147 -1.7195  0.6454
  893MPD2    H213145   1.222   3.414   1.901 -0.6184  0.5082  1.4546
  893MPD2    H313146   1.068   3.304   2.048  2.8719 -0.8126 -0.6203
  893MPD2     N13147   0.820   3.151   1.701 -0.1760 -0.2370 -0.2431
  893MPD2    H513148   0.772   3.097   1.773 -2.5469  0.1901 -1.4761
  893MPD2    N113149   1.206   3.455   1.647 -0.6588 -0.0401 -0.1717
  893MPD2    H713150   1.288   3.491   1.694 -2.3215  0.3179  2.4978
  894MPD2     C13151   3.283   0.355   2.051  0.4435 -0.0609 -0.6453
  894MPD2    C113152   3.294   0.494   2.058 -0.1169  0.3749  0.5765
  894MPD2    C213153   3.410   0.552   2.012 -0.1099  0.7083 -0.4227
  894MPD2    C313154   3.497   0.483   1.936 -0.0109 -0.0603  0.2032
  894MPD2    C413155   3.486   0.348   1.917 -0.4745 -0.2206 -0.0185
  894MPD2    C513156   3.386   0.283   1.983  1.2731 -0.0959 -0.2160
  894MPD2     H13157   3.428   0.657   2.027  0.1205  0.6602 -0.3675
  894MPD2    H113158   3.550   0.294   1.847  0.2494  0.8323 -0.1682
  894MPD2    H213159   3.198   0.300   2.090 -0.1298  1.8370  0.8275
  894MPD2    H313160   3.370   0.176   1.977 -0.3742  0.1757 -0.7123
  894MPD2     N13161   3.605   0.566   1.883 -0.0209 -0.1047  0.2777
  894MPD2    H513162   3.607   0.665   1.903  0.2810  0.1152 -0.8079
  894MPD2    N113163   3.195   0.582   2.113  0.0226  0.0807  0.0421
  894MPD2    H713164   3.220   0.681   2.112 -1.0418  0.3704  2.7872
  895MPD2     C13165   3.410   3.916  13.930 -0.8809  0.0246  0.4327
  895MPD2    C113166   3.384   3.978  13.812 -0.3131 -0.6287  0.3509
  895MPD2    C213167   3.391   3.911  13.695 -0.4574  0.2484 -0.4774
  895MPD2    C313168   3.413   3.778  13.696 -0.3036  0.3745  0.1398
  895MPD2    C413169   3.431   3.713  13.812  0.2894  0.2738  0.2366
  895MPD2    C513170   3.431   3.778  13.928 -0.0474 -0.0513 -0.2022
  895MPD2     H13171   3.358   3.974  13.613 -1.4972  0.2344 -0.0673
  895MPD2    H113172   3.449   3.607  13.827  0.1206  0.0996 -0.8413
  895MPD2    H213173   3.411   3.970  14.024  0.2274 -1.5548  1.3125
  895MPD2    H313174   3.450   3.720  14.017 -0.8230  0.1192  0.0683
  895MPD2     N13175   3.420   3.707  13.572  0.0848  0.1562 -0.2992
  895MPD2    H513176   3.435   3.607  13.586  3.3506  0.7439  0.4390
  895MPD2    N113177   3.348   4.115  13.811  0.0327 -0.0273 -0.4103
  895MPD2    H713178   3.332   4.153  13.718 -1.8001  1.1931  0.4001
  896MPD2     C13179   1.100   1.699   1.268  0.4104  0.5950 -0.3131
  896MPD2    C113180   0.987   1.751   1.205 -0.3672  0.1091 -1.0947
  896MPD2    C213181   0.878   1.664   1.198 -0.2754 -0.4962  0.1116
  896MPD2    C313182   0.876   1.534   1.245 -0.4014 -0.2079  0.2535
  896MPD2    C413183   0.992   1.495   1.309  0.4475  0.4581 -0.0680
  896MPD2    C513184   1.106   1.571   1.320  0.1682  0.1662 -0.3610
  896MPD2     H13185   0.787   1.698   1.147 -0.4762 -0.1165  0.7208
  896MPD2    H113186   0.998   1.397   1.354 -0.8501  0.9925  1.3210
  896MPD2    H213187   1.189   1.762   1.269  0.4220  0.6025 -2.0893
  896MPD2    H313188   1.199   1.517   1.336 -0.4939 -1.3403 -1.5034
  896MPD2     N13189   0.750   1.469   1.240 -0.4288  0.2938 -0.1422
  896MPD2    H513190   0.672   1.514   1.194 -0.9500  1.2917  1.7074
  896MPD2    N113191   0.991   1.886   1.160  0.0655 -0.5156  0.5824
  896MPD2    H713192   1.076   1.940   1.177 -0.4725  1.1788 -2.2327
  897MPD2     C13193   1.792   3.456  10.805  0.2903  0.4263 -0.6185
  897MPD2    C113194   1.756   3.588  10.791 -0.1604 -0.4840 -0.3527
  897MPD2    C213195   1.675   3.643  10.886 -0.6482  0.0324  0.2347
  897MPD2    C313196   1.632   3.560  10.987 -1.0737 -0.4450 -0.4251
  897MPD2    C413197   1.664   3.429  10.998  0.5473 -0.0325  0.5790
  897MPD2    C513198   1.741   3.383  10.900 -0.6117  0.5421 -0.2423
  897MPD2     H13199   1.648   3.748  10.886  0.0177  0.2089  0.0667
  897MPD2    H113200   1.625   3.362  11.073  3.7646 -3.4184 -0.7625
  897MPD2    H213201   1.842   3.403  10.725 -1.6105  0.3556 -1.7506
  897MPD2    H313202   1.766   3.278  10.893 -2.7114  0.1111 -1.3797
  897MPD2     N13203   1.530   3.622  11.065 -0.1023 -0.0264  0.2421
  897MPD2    H513204   1.516   3.722  11.055  2.9490  0.3113 -0.8209
  897MPD2    N113205   1.804   3.665  10.680  0.2061  0.1439 -0.1692
  897MPD2    H713206   1.861   3.620  10.609 -2.1615 -1.2400 -1.2010
  898MPD2     C13207   3.404   3.985  17.741  0.3248 -0.4523  0.5048
  898MPD2    C113208   3.474   3.993   0.103  0.1143  0.3324 -0.3127
  898MPD2    C213209   3.504   4.114   0.157 -0.3739 -0.7347 -0.1720
  898MPD2    C313210   3.483   4.230   0.095 -0.0458  0.4447 -0.0650
  898MPD2    C413211   3.412   4.232  17.740 -0.1636  0.1217 -0.0789
  898MPD2    C513212   3.373   4.110  17.687  0.1237  1.3255 -0.3707
  898MPD2     H13213   3.573   4.128   0.240  0.5692 -0.3277 -1.0192
  898MPD2    H113214   3.383   4.323  17.688  0.3284  0.3106 -0.0269
  898MPD2    H213215   3.366   3.900  17.685 -0.3408  1.9594 -2.6944
  898MPD2    H313216   3.325   4.118  17.591 -1.8063 -3.1663  0.2352
  898MPD2     N13217   3.524   4.352   0.161  0.0727  0.0499 -0.1891
  898MPD2    H513218   3.548   4.344   0.260 -0.1373  0.4392 -0.1072
  898MPD2    N113219   3.522   3.868   0.155  0.2212 -0.2187 -0.0829
  898MPD2    H713220   3.581   3.889   0.235 -1.9454  0.4334  1.3500
  899MPD2     C13221   0.454   4.179  17.426  0.1050 -0.2630 -0.6049
  899MPD2    C113222   0.391   4.287  17.476  0.3521 -0.2300 -0.0640
  899MPD2    C213223   0.329   4.273  17.604  0.0182  0.0736  0.0530
  899MPD2    C313224   0.337   4.159  17.677  0.0587  0.0275  0.0688
  899MPD2    C413225   0.402   4.059  17.611  0.1116  0.5719 -0.4478
  899MPD2    C513226   0.462   4.064  17.491 -0.1005 -0.4593  0.3861
  899MPD2     H13227   0.269   4.357  17.634  2.3900  2.0177 -0.6652
  899MPD2    H113228   0.391   3.969  17.670 -2.8996  0.9315 -0.4558
  899MPD2    H213229   0.482   4.171  17.322  1.8875  0.6660 -0.1920
  899MPD2    H313230   0.497   3.971  17.448  0.0899  0.1443 -0.7716
  899MPD2     N13231   0.257   4.125   0.032  0.6718 -0.4032  0.4521
  899MPD2    H513232   0.242   4.028   0.057 -0.4101 -0.0672  1.1419
  899MPD2    N113233   0.390   4.406  17.402 -0.2317 -0.5003  0.1364
  899MPD2    H713234   0.442   4.414  17.316 -0.7278  2.6632  0.1229
  900MPD2     C13235   4.140   1.806  12.130 -0.0924  0.0139 -0.0133
  900MPD2    C113236   4.033   1.836  12.202 -0.5118  0.4537 -0.5628
  900MPD2    C213237   3.912   1.887  12.141 -0.6867 -0.2922 -0.0012
  900MPD2    C313238   3.901   1.892  12.003  0.4067  0.3941 -0.2505
  900MPD2    C413239   4.012   1.865  11.935 -0.0643  0.1685 -0.7056
  900MPD2    C513240   4.132   1.834  11.994  0.0212  0.1128 -0.9151
  900MPD2     H13241   3.825   1.904  12.204 -2.4896 -0.4360 -2.4562
  900MPD2    H113242   4.026   1.872  11.828  3.2932 -0.3163 -0.3028
  900MPD2    H213243   4.231   1.766  12.174 -0.6106 -2.1506 -0.8937
  900MPD2    H313244   4.221   1.811  11.937  1.3068 -0.2982  1.2961
  900MPD2     N13245   3.774   1.931  11.940  0.3581 -0.3463 -0.6114
  900MPD2    H513246   3.699   1.953  12.005  1.3591  0.8693  0.1471
  900MPD2    N113247   4.043   1.803  12.346  0.5584 -0.2178 -0.0921
  900MPD2    H713248   4.135   1.773  12.375 -0.3960 -1.8002  1.3174
  901MPD2     C13249   3.890   0.935  12.769 -0.6281 -0.2797 -0.6359
  901MPD2    C113250   3.998   0.984  12.706 -0.2427 -0.0463  0.8721
  901MPD2    C213251   4.024   1.122  12.695  0.2172  0.0112  0.1599
  901MPD2    C313252   3.934   1.218  12.733  0.1852 -0.3397 -0.4670
  901MPD2    C413253   3.826   1.172  12.800  0.7066  0.5312  0.2235
  901MPD2    C513254   3.802   1.036  12.817 -0.4869 -0.9866 -0.4940
  901MPD2     H13255   4.115   1.162  12.653  0.7880 -2.5386 -1.0077
  901MPD2    H113256   3.764   1.236  12.860 -0.6488 -0.3214 -0.2572
  901MPD2    H213257   3.865   0.831  12.784 -0.2287 -0.4871 -1.4097
  901MPD2    H313258   3.714   1.007  12.875 -0.1886 -0.2816  0.3225
  901MPD2     N13259   3.978   1.352  12.730  0.1569 -0.6748  0.1389
  901MPD2    H513260   4.069   1.380  12.694  0.1249  0.4557  0.9623
  901MPD2    N113261   4.086   0.889  12.654 -0.0472  0.0807  0.3430
  901MPD2    H713262   4.065   0.792  12.675 -0.8150 -0.0206 -0.8594
  902MPD2     C13263   3.120   4.307  12.644 -0.2669  0.8903  0.2085
  902MPD2    C113264   3.170   4.428  12.699 -0.4953 -0.2939  0.4245
  902MPD2    C213265   3.307   4.427  12.729  1.1697 -0.5186  0.3697
  902MPD2    C313266   3.387   4.316  12.707  0.1319 -0.1347  0.2708
  902MPD2    C413267   3.337   4.209  12.642 -0.7547  0.4485  0.4772
  902MPD2    C513268   3.200   4.201  12.617  0.6826  0.5938  0.2242
  902MPD2     H13269   3.353   4.516  12.771 -1.2274 -0.3199  2.5602
  902MPD2    H113270   3.401   4.124  12.622 -0.6218  1.1040 -1.8424
  902MPD2    H213271   3.019   4.300  12.606 -0.8068 -1.8244  2.1587
  902MPD2    H313272   3.167   4.108  12.571 -0.7366  1.5510 -0.7112
  902MPD2     N13273   3.524   4.318  12.721  0.5605 -0.5319  0.3154
  902MPD2    H513274   3.572   4.249  12.665 -0.8326 -2.0060  0.9154
  902MPD2    N113275   3.091   4.542  12.712  0.2287  0.1955 -0.0140
  902MPD2    H713276   2.997   4.542  12.674 -1.1473 -0.7675  3.3979
  903MPD2     C13277   3.550   0.171  12.528  0.3573  0.1218 -0.3865
  903MPD2    C113278   3.541   0.038  12.489 -0.4952  0.2374 -0.0058
  903MPD2    C213279   3.417   4.723  12.463  0.3416 -0.1408  0.1731
  903MPD2    C313280   3.312   0.065  12.436 -0.4752 -0.1218 -0.1159
  903MPD2    C413281   3.325   0.203  12.460 -0.1613 -0.2225 -0.4654
  903MPD2    C513282   3.441   0.250  12.513  0.3123 -0.6703 -0.3905
  903MPD2     H13283   3.414   4.615  12.462 -1.2927 -0.0891  0.1222
  903MPD2    H113284   3.242   0.274  12.461  0.5098  0.5426  0.7298
  903MPD2    H213285   3.632   0.225  12.574 -1.2222  2.1554  0.0517
  903MPD2    H313286   3.452   0.356  12.536 -1.7877 -0.8341  1.3885
  903MPD2     N13287   3.198   0.001  12.388  0.2500  0.5595  0.3738
  903MPD2    H513288   3.205   4.640  12.376 -1.5811  0.4271  0.4155
  903MPD2    N113289   3.639   4.684  12.522  0.6128  0.6896 -0.2484
  903MPD2    H713290   3.621   4.596  12.474 -1.4841  0.6218  0.6854
  904MPD2     C13291   3.328   3.343  13.925  0.0733 -0.7326  0.4066
  904MPD2    C113292   3.359   3.382  14.057 -0.1215 -0.1513  0.5166
  904MPD2    C213293   3.482   3.337  14.106 -0.1250  0.3756 -0.3116
  904MPD2    C313294   3.569   3.269  14.026  0.0656 -0.6592  0.0425
  904MPD2    C413295   3.539   3.227  13.898  0.2771  0.2416 -0.8620
  904MPD2    C513296   3.414   3.262  13.854 -0.1630  0.0980  0.1141
  904MPD2     H13297   3.526   3.381  14.195 -1.3088 -0.5398  0.7274
  904MPD2    H113298   3.597   3.161  13.834 -0.6144 -0.7876 -0.6044
  904MPD2    H213299   3.236   3.382  13.884  0.6400  0.3533  0.1919
  904MPD2    H313300   3.379   3.236  13.755 -0.8869  1.1105  0.0972
  904MPD2     N13301   3.703   3.251  14.066  1.0311 -0.0452  0.1542
  904MPD2    H513302   3.715   3.276  14.163  0.8341  0.2168  0.1139
  904MPD2    N113303   3.270   3.465  14.116 -0.1810 -1.0408  0.2985
  904MPD2    H713304   3.198   3.495  14.051  0.1436  1.8727  1.2833
  905MPD2     C13305   3.041   4.091  13.746 -0.5415  0.3783  0.1424
  905MPD2    C113306   3.017   3.961  13.788  0.0501  0.3703 -0.0515
  905MPD2    C213307   3.004   3.864  13.691 -0.0523 -0.5260 -0.3754
  905MPD2    C313308   3.015   3.892  13.553 -0.0804  0.0411 -0.9737
  905MPD2    C413309   3.045   4.024  13.515 -0.2461 -0.0953  0.1859
  905MPD2    C513310   3.050   4.122  13.612  0.6957 -0.0829  0.5871
  905MPD2     H13311   2.976   3.762  13.716 -2.7130  0.0629 -0.9185
  905MPD2    H113312   3.058   4.061  13.414 -1.6764  0.4427  0.2072
  905MPD2    H213313   3.037   4.173  13.817  1.9289  0.5084  0.1458
  905MPD2    H313314   3.059   4.226  13.584 -1.4068  0.0687  0.5086
  905MPD2     N13315   3.009   3.779  13.462 -0.0627  0.5550  0.0237
  905MPD2    H513316   2.987   3.691  13.507  0.7952  0.1749 -0.3071
  905MPD2    N113317   3.015   3.932  13.927  0.7772  0.1076  0.3964
  905MPD2    H713318   3.029   4.005  13.995  1.3420  1.4873 -1.2030
  906MPD2     C13319   0.285   3.992  11.518  0.0932  0.9998  0.4414
  906MPD2    C113320   0.329   3.892  11.434 -0.0357 -0.6196 -0.1931
  906MPD2    C213321   0.284   3.764  11.456 -0.2931 -0.1973  0.4728
  906MPD2    C313322   0.196   3.729  11.557 -0.1217  0.5017  0.2346
  906MPD2    C413323   0.156   3.829  11.639 -0.4517 -0.0706  0.4307
  906MPD2    C513324   0.195   3.956  11.619 -0.2361 -0.5347  0.4054
  906MPD2     H13325   0.333   3.692  11.391  1.7599  1.0606  0.6319
  906MPD2    H113326   0.074   3.811  11.708  1.5887 -0.1917  2.8336
  906MPD2    H213327   0.316   4.096  11.510  2.4174  0.2599 -0.2025
  906MPD2    H313328   0.149   4.032  11.680  0.1404  0.2645 -0.3059
  906MPD2     N13329   0.126   3.609  11.578  0.1010 -0.0851  0.1219
  906MPD2    H513330   0.044   3.618  11.637 -1.6129  0.0937 -2.2694
  906MPD2    N113331   0.400   3.905  11.312  0.5106  0.8148  0.2616
  906MPD2    H713332   0.402   3.819  11.257  1.3777  1.3492 -0.5436
  907MPD2     C13333   4.073   2.608  15.337 -0.2274 -0.9864  0.1161
  907MPD2    C113334   4.130   2.486  15.319  0.1526  0.2164 -0.0875
  907MPD2    C213335   4.202   2.435  15.425 -0.3334 -0.1680  0.8045
  907MPD2    C313336   4.220   2.501  15.547  0.1709  0.7090  0.4798
  907MPD2    C413337   4.156   2.624  15.558  0.4373 -0.6252 -0.1266
  907MPD2    C513338   4.081   2.676  15.458  0.3863  0.8847 -0.0374
  907MPD2     H13339   4.247   2.336  15.422  0.1345  0.1082 -0.9192
  907MPD2    H113340   4.178   2.688  15.643  0.3172  1.3183 -1.5568
  907MPD2    H213341   4.001   2.646  15.265 -2.1107 -2.2178  1.3460
  907MPD2    H313342   4.028   2.770  15.471 -1.2865 -0.0671 -0.0695
  907MPD2     N13343   4.307   2.447  15.644 -0.1372  0.1292  0.2367
  907MPD2    H513344   4.348   2.357  15.621 -1.0874 -0.0095 -0.9413
  907MPD2    N113345   4.121   2.412  15.197 -0.1428 -0.5167 -0.5756
  907MPD2    H713346   4.160   2.318  15.189  1.3012  0.1199 -1.1473
  908MPD2     C13347   1.600   3.429   9.852 -0.5303  0.1128  0.1953
  908MPD2    C113348   1.617   3.377   9.983 -0.2857  0.3165 -0.8093
  908MPD2    C213349   1.677   3.450  10.081 -0.3499 -0.3488 -0.1394
  908MPD2    C313350   1.715   3.582  10.062 -0.4097  0.4700  0.2873
  908MPD2    C413351   1.697   3.633   9.934  0.7405 -0.7562 -0.1507
  908MPD2    C513352   1.646   3.558   9.835 -0.5108  0.7673 -0.6375
  908MPD2     H13353   1.698   3.408  10.179 -0.0159  0.1901  0.0250
  908MPD2    H113354   1.715   3.734   9.898  0.0674 -0.3180  0.7489
  908MPD2    H213355   1.554   3.379   9.768 -0.1384  1.4360 -0.8022
  908MPD2    H313356   1.638   3.598   9.735 -0.1612  2.0330 -0.1660
  908MPD2     N13357   1.772   3.654  10.167 -1.1773  0.4232 -0.4029
  908MPD2    H513358   1.776   3.605  10.256  2.5589 -2.7267 -2.3022
  908MPD2    N113359   1.587   3.239   9.997 -1.2960  0.3722 -0.1374
  908MPD2    H713360   1.626   3.193  10.078 -0.8133  0.7172 -0.1749
  909MPD2     C13361   1.833   1.827  12.178  0.0505  0.4078  0.5516
  909MPD2    C113362   1.829   1.949  12.121 -0.3869  0.6187  0.0599
  909MPD2    C213363   1.761   2.044  12.188  0.0407  0.0806  0.3380
  909MPD2    C313364   1.715   2.022  12.315  0.4929 -0.4557  0.2566
  909MPD2    C413365   1.719   1.903  12.372  0.3543 -0.7073  0.2120
  909MPD2    C513366   1.783   1.804  12.301  0.7222 -0.4782 -0.0361
  909MPD2     H13367   1.753   2.142  12.143  0.2782 -1.7654 -3.7114
  909MPD2    H113368   1.667   1.887  12.465  0.4377 -0.2542  0.3331
  909MPD2    H213369   1.881   1.741  12.133 -0.7762 -0.1686  0.7613
  909MPD2    H313370   1.793   1.708  12.350  1.1577 -0.6275 -0.4207
  909MPD2     N13371   1.649   2.142  12.363 -0.4912  0.0254 -0.2436
  909MPD2    H513372   1.648   2.221  12.299 -0.3775  1.0693  1.0409
  909MPD2    N113373   1.867   1.972  11.992 -0.5047  0.2761  0.7588
  909MPD2    H713374   1.853   2.068  11.961 -1.5918  0.7748  2.8525
  910MPD2     C13375   4.192   3.310  16.445  0.3732  0.3316 -0.0693
  910MPD2    C113376   4.115   3.196  16.412  0.0487  0.2434 -0.0019
  910MPD2    C213377   4.024   3.201  16.312  0.0573  0.0764 -0.2093
  910MPD2    C313378   4.010   3.316  16.236  0.1063  0.2652  0.8054
  910MPD2    C413379   4.088   3.420  16.263  0.9019 -0.4075 -0.3920
  910MPD2    C513380   4.177   3.417  16.371  0.4863  0.2801 -0.3838
  910MPD2     H13381   3.961   3.114  16.296 -1.1608  0.9104  0.0197
  910MPD2    H113382   4.062   3.518  16.225  0.8400 -1.3754 -2.8329
  910MPD2    H213383   4.271   3.299  16.518 -0.4957  1.1425  0.9949
  910MPD2    H313384   4.221   3.511  16.402 -0.9630  0.9091 -0.2122
  910MPD2     N13385   3.914   3.341  16.132  0.3562  0.4431 -1.1919
  910MPD2    H513386   3.914   3.433  16.090  1.1227  0.9922 -0.0001
  910MPD2    N113387   4.125   3.065  16.477  0.1480 -0.3278 -0.7059
  910MPD2    H713388   4.078   2.986  16.434  0.6274 -1.3522  0.6603
  911MPD2     C13389   1.764   3.039  16.238  0.4055  0.0762 -0.3317
  911MPD2    C113390   1.812   3.166  16.247 -0.0718  0.7611  0.4066
  911MPD2    C213391   1.728   3.272  16.220  0.4338 -0.4788 -0.5417
  911MPD2    C313392   1.599   3.249  16.174 -0.4546  0.5197  0.1777
  911MPD2    C413393   1.557   3.118  16.157 -0.5605 -0.3618  0.5261
  911MPD2    C513394   1.638   3.014  16.191 -0.2326  0.4435 -0.0071
  911MPD2     H13395   1.763   3.373  16.238  0.2339 -0.6915  1.0156
  911MPD2    H113396   1.457   3.097  16.123 -0.6065 -0.6755  0.8522
  911MPD2    H213397   1.823   2.951  16.261 -3.1952 -2.3245 -0.3058
  911MPD2    H313398   1.603   2.912  16.179  1.4560 -0.2762  1.3247
  911MPD2     N13399   1.505   3.346  16.138 -0.1025  0.7978  0.0371
  911MPD2    H513400   1.419   3.320  16.091  0.8558  0.9194 -1.7765
  911MPD2    N113401   1.949   3.178  16.293  0.8634  0.3372  0.5353
  911MPD2    H713402   1.995   3.089  16.309 -0.5985 -0.4392  0.4100
  912MPD2     C13403   1.526   3.110  15.597 -0.3589  0.5682 -0.2792
  912MPD2    C113404   1.462   3.120  15.716  0.2848 -0.8934  0.2629
  912MPD2    C213405   1.460   3.011  15.802 -0.0139 -0.2671  0.1479
  912MPD2    C313406   1.516   2.889  15.756 -0.1621 -0.3308  0.1319
  912MPD2    C413407   1.565   2.879  15.629 -0.4605  0.0851 -0.0161
  912MPD2    C513408   1.560   2.992  15.547 -0.2282  0.4666  0.6354
  912MPD2     H13409   1.423   3.016  15.903  0.3158 -1.7399  0.3409
  912MPD2    H113410   1.608   2.788  15.590 -0.0937  0.9591 -1.6917
  912MPD2    H213411   1.538   3.190  15.525  0.2254  0.8876  0.1708
  912MPD2    H313412   1.588   2.985  15.443 -1.8245 -0.4426  0.2659
  912MPD2     N13413   1.503   2.779  15.846 -0.1640  0.6060  0.3920
  912MPD2    H513414   1.452   2.801  15.931 -2.9757  0.4607 -1.2309
  912MPD2    N113415   1.414   3.251  15.748 -0.4244  0.6062  0.2951
  912MPD2    H713416   1.414   3.323  15.677 -2.6973  0.8596  0.5460
  913MPD2     C13417   1.233   0.492  10.534  0.1719  0.3876  0.2844
  913MPD2    C113418   1.285   0.616  10.540 -0.4382 -1.0010 -0.6311
  913MPD2    C213419   1.224   0.718  10.464 -0.9150 -0.6904 -0.0206
  913MPD2    C313420   1.111   0.693  10.391  0.2580 -2.0056 -1.3440
  913MPD2    C413421   1.055   0.565  10.388  0.8369 -0.2896 -0.1411
  913MPD2    C513422   1.114   0.466  10.465  0.0691  0.3027 -0.3161
  913MPD2     H13423   1.274   0.813  10.479  1.1505 -1.6414 -0.7968
  913MPD2    H113424   0.964   0.539  10.335  0.5720  0.1264  0.1070
  913MPD2    H213425   1.290   0.415  10.584  0.5586  1.4138  1.4178
  913MPD2    H313426   1.078   0.365  10.476  1.9834 -0.4755 -1.1635
  913MPD2     N13427   1.047   0.784  10.306  0.5046 -0.0991  0.0095
  913MPD2    H513428   0.960   0.752  10.264  0.4326 -0.9078  0.7557
  913MPD2    N113429   1.393   0.632  10.625  0.2489  0.4429 -0.4880
  913MPD2    H713430   1.436   0.545  10.654 -2.2337 -0.3134  0.8990
  914MPD2     C13431   0.020   1.169  12.099  0.5886 -0.7829  0.4355
  914MPD2    C113432   4.721   1.203  12.223 -0.6353  1.0759  0.0080
  914MPD2    C213433   4.652   1.105  12.297  0.6077  0.2026  0.1310
  914MPD2    C313434   4.649   0.974  12.261  1.0393  0.8149  0.6412
  914MPD2    C413435   4.708   0.937  12.145  0.8247  0.4037 -0.5401
  914MPD2    C513436   0.017   1.039  12.064 -0.8895 -0.7386 -0.1028
  914MPD2     H13437   4.612   1.138  12.392 -0.1556  0.0570 -0.1376
  914MPD2    H113438   4.711   0.839  12.099 -0.8705  0.1915 -0.2011
  914MPD2    H213439   0.070   1.237  12.031 -0.3814 -0.2140  0.2966
  914MPD2    H313440   0.062   1.013  11.968 -0.5761  1.7524 -0.6438
  914MPD2     N13441   4.580   0.890  12.348 -0.1181 -0.1144 -0.3153
  914MPD2    H513442   4.538   0.936  12.428  1.4465  0.6152  0.0878
  914MPD2    N113443   4.722   1.343  12.250  0.1241  0.6354  0.0478
  914MPD2    H713444   0.046   1.401  12.196  0.5860 -1.9346 -2.1324
  915MPD2     C13445   2.831   0.353  15.474 -0.9654 -0.1167  0.4731
  915MPD2    C113446   2.699   0.317  15.459 -0.0041 -0.5846 -0.8326
  915MPD2    C213447   2.610   0.340  15.564  0.0554 -0.1502 -0.1162
  915MPD2    C313448   2.655   0.411  15.676  0.3668 -0.5265 -0.1586
  915MPD2    C413449   2.790   0.431  15.697 -0.7572 -0.4520  0.8100
  915MPD2    C513450   2.872   0.404  15.588 -0.0307  0.3208 -0.4500
  915MPD2     H13451   2.506   0.308  15.559 -0.7762  2.4615  0.3527
  915MPD2    H113452   2.839   0.486  15.776 -0.6734 -1.5469  1.5165
  915MPD2    H213453   2.906   0.341  15.397 -0.7248  0.7584  0.5677
  915MPD2    H313454   2.975   0.434  15.606  0.1813  0.8329 -2.4917
  915MPD2     N13455   2.557   0.443  15.773 -0.1106  0.1781  0.7174
  915MPD2    H513456   2.462   0.439  15.737 -0.3736 -1.6179  1.6031
  915MPD2    N113457   2.664   0.257  15.335  0.4040 -0.2852  0.4252
  915MPD2    H713458   2.725   0.273  15.255 -1.1448 -0.0572 -0.6987
  916MPD2     C13459   1.095   3.695  15.853  0.0012  0.1460 -1.1063
  916MPD2    C113460   1.031   3.598  15.921 -0.0143  0.5371 -0.7659
  916MPD2    C213461   0.987   3.480  15.860 -0.1209 -0.6349 -0.7595
  916MPD2    C313462   1.015   3.461  15.728 -0.4372  0.1504 -0.3440
  916MPD2    C413463   1.086   3.557  15.657 -0.0570 -0.1364 -0.3512
  916MPD2    C513464   1.129   3.671  15.723 -0.3299 -0.3402 -0.5069
  916MPD2     H13465   0.935   3.400  15.912 -0.2311  0.4351  0.7786
  916MPD2    H113466   1.108   3.552  15.552  0.5907 -0.9264 -0.1728
  916MPD2    H213467   1.116   3.785  15.909  2.7038 -0.5716 -0.9454
  916MPD2    H313468   1.178   3.748  15.665  0.0214  0.2530  0.5970
  916MPD2     N13469   0.966   3.340  15.668 -0.3103 -0.0150 -0.2462
  916MPD2    H513470   0.910   3.281  15.730 -0.4764  1.7217  1.2606
  916MPD2    N113471   1.002   3.625  16.055  0.0740  0.0383 -0.2185
  916MPD2    H713472   1.044   3.711  16.088  0.5232  0.4477 -1.8466
  917MPD2     C13473   0.757   1.270  11.436  0.4775  0.5026  0.9986
  917MPD2    C113474   0.772   1.367  11.535  0.5866  0.4948 -0.7779
  917MPD2    C213475   0.832   1.494  11.505  0.1473  0.0466  0.1183
  917MPD2    C313476   0.885   1.504  11.379  0.6657 -0.1791  0.5548
  917MPD2    C413477   0.876   1.402  11.291  0.0048  0.6838 -0.1833
  917MPD2    C513478   0.801   1.288  11.314 -0.2158 -0.5002 -1.0032
  917MPD2     H13479   0.839   1.568  11.583  0.1159  0.9273 -0.7204
  917MPD2    H113480   0.917   1.407  11.191 -1.5364  1.2148 -0.7874
  917MPD2    H213481   0.744   1.169  11.473  0.7151 -0.4928 -1.6563
  917MPD2    H313482   0.807   1.208  11.241  0.5874 -0.2886 -1.1773
  917MPD2     N13483   0.956   1.617  11.338  0.0623 -0.0522  0.6852
  917MPD2    H513484   1.013   1.617  11.254  0.7285 -0.8156  1.1458
  917MPD2    N113485   0.699   1.337  11.652  0.8374  0.4986  0.4636
  917MPD2    H713486   0.631   1.262  11.646  0.6119  0.7306  0.0592
  918MPD2     C13487   0.619   1.923  12.421 -0.6454  0.2593  0.3767
  918MPD2    C113488   0.728   1.874  12.351  0.4300 -0.2520 -0.2688
  918MPD2    C213489   0.696   1.756  12.276 -0.8436  0.1861  0.1969
  918MPD2    C313490   0.571   1.702  12.267  0.2433  0.0132  0.7929
  918MPD2    C413491   0.469   1.754  12.339  0.4922 -0.1200  0.2965
  918MPD2    C513492   0.494   1.866  12.417  0.6808 -0.3523  0.9957
  918MPD2     H13493   0.773   1.717  12.210 -0.5297  0.1849  0.5584
  918MPD2    H113494   0.373   1.706  12.344 -0.4435  1.6716 -0.4388
  918MPD2    H213495   0.621   2.006  12.490  1.7841  0.0118  0.6174
  918MPD2    H313496   0.408   1.913  12.464 -1.0366 -2.1551 -0.3700
  918MPD2     N13497   0.559   1.594  12.185 -0.3243  0.4420 -0.2229
  918MPD2    H513498   0.631   1.570  12.118 -0.2778 -1.6554  0.5767
  918MPD2    N113499   0.861   1.925  12.360 -0.2265 -0.6782  0.3120
  918MPD2    H713500   0.930   1.867  12.314  0.2058 -1.0106  1.3728
  919MPD2     C13501   1.205   0.433  11.827 -0.1990 -0.1529 -0.7094
  919MPD2    C113502   1.270   0.327  11.773  0.0322 -0.0544 -0.2537
  919MPD2    C213503   1.320   0.337  11.645 -0.2187 -0.3145 -0.6668
  919MPD2    C313504   1.292   0.438  11.563 -0.4697  0.0180 -0.3086
  919MPD2    C413505   1.219   0.539  11.614  0.8826  0.2411  0.3438
  919MPD2    C513506   1.181   0.538  11.742  0.1177 -0.1332  0.9811
  919MPD2     H13507   1.387   0.259  11.610 -1.0223 -0.6032 -1.5526
  919MPD2    H113508   1.186   0.619  11.548 -0.5018  1.7197  2.8234
  919MPD2    H213509   1.160   0.443  11.925  2.9188 -1.5052  0.8663
  919MPD2    H313510   1.116   0.618  11.775 -0.2643 -0.8861  2.0877
  919MPD2     N13511   1.324   0.450  11.432 -0.2333  0.0614  0.2207
  919MPD2    H513512   1.282   0.529  11.383  1.1033 -1.3715 -3.2969
  919MPD2    N113513   1.290   0.208  11.844  0.5586 -0.2699 -0.1923
  919MPD2    H713514   1.338   0.136  11.791  1.5733 -0.3531  0.8469
  920MPD2     C13515   0.874   0.931  10.787 -0.0344 -0.2679 -0.2521
  920MPD2    C113516   0.877   0.808  10.728  0.7194  0.0740 -0.2721
  920MPD2    C213517   0.985   0.732  10.749  0.5688 -0.1171 -0.5048
  920MPD2    C313518   1.081   0.751  10.847 -0.2549 -0.4911 -0.1161
  920MPD2    C413519   1.066   0.876  10.910  0.1848  0.5117  0.2646
  920MPD2    C513520   0.971   0.967  10.877  0.3119 -0.2507  0.4953
  920MPD2     H13521   0.981   0.641  10.690  1.2552 -2.6161  3.2930
  920MPD2    H113522   1.132   0.913  10.988  1.9579 -2.8152  0.3481
  920MPD2    H213523   0.808   1.011  10.754 -1.2479 -1.3727 -0.5038
  920MPD2    H313524   0.975   1.066  10.922  0.5061 -0.5688  1.1779
  920MPD2     N13525   1.153   0.641  10.895  0.1251 -0.1228  0.1108
  920MPD2    H513526   1.152   0.557  10.838  1.7516  0.2964 -0.5285
  920MPD2    N113527   0.783   0.762  10.637  0.6362 -0.3611 -0.0779
  920MPD2    H713528   0.793   0.664  10.611  0.2849 -0.5650  0.5359
  921MPD2     C13529   2.729   3.715  16.827  0.6731 -0.6241  0.3194
  921MPD2    C113530   2.802   3.641  16.733  0.0115  0.5008  0.5692
  921MPD2    C213531   2.727   3.549  16.655 -0.1021  0.2726 -0.2785
  921MPD2    C313532   2.590   3.529  16.686  0.6967  1.0272 -0.4461
  921MPD2    C413533   2.526   3.604  16.788  0.3287 -0.1302 -0.2430
  921MPD2    C513534   2.593   3.699  16.852 -0.0373  0.0573 -0.7621
  921MPD2     H13535   2.763   3.506  16.562  1.5382  0.4377  0.2702
  921MPD2    H113536   2.423   3.587  16.816  0.7559  0.7006  1.8065
  921MPD2    H213537   2.777   3.795  16.883  1.2359  0.8587 -2.2990
  921MPD2    H313538   2.546   3.762  16.926  3.7685  0.2803  1.4837
  921MPD2     N13539   2.515   3.446  16.601  0.2239  1.0223  0.2489
  921MPD2    H513540   2.564   3.404  16.522  2.4803  1.0857  1.6286
  921MPD2    N113541   2.932   3.677  16.712 -0.6589 -0.1125 -0.2929
  921MPD2    H713542   2.977   3.743  16.775  0.0925 -2.6144  1.8123
  922MPD2     C13543   3.778   1.784  17.474  0.2843  0.2472  0.3090
  922MPD2    C113544   3.761   1.758  17.609  0.1782  0.4551 -0.4309
  922MPD2    C213545   3.692   1.641  17.642  0.4299  0.6648 -0.0471
  922MPD2    C313546   3.641   1.557  17.549 -0.6258  0.0381 -0.0626
  922MPD2    C413547   3.674   1.573  17.416 -0.6478  0.2567  0.4151
  922MPD2    C513548   3.749   1.687  17.373  0.3358  0.1966 -0.1606
  922MPD2     H13549   3.675   1.622  17.747 -1.0467  1.9988 -0.0419
  922MPD2    H113550   3.649   1.498  17.342 -2.0576  1.5657 -0.4373
  922MPD2    H213551   3.817   1.880  17.443 -0.3609  0.1563 -0.7708
  922MPD2    H313552   3.768   1.704  17.267 -0.5722 -0.7581 -0.4773
  922MPD2     N13553   3.552   1.456  17.594 -0.3422 -0.5638  0.1199
  922MPD2    H513554   3.548   1.440  17.694 -1.4957 -0.8665  0.0180
  922MPD2    N113555   3.807   1.845  17.717  0.0885  0.0751 -0.2394
  922MPD2    H713556   3.786   1.802   0.048 -0.4170 -1.0115 -0.8711
  923MPD2     C13557   3.938   4.010   9.209 -0.9071 -0.3178 -0.2169
  923MPD2    C113558   3.928   4.088   9.319  0.4010 -0.6037 -0.1229
  923MPD2    C213559   4.018   4.070   9.423  0.5742  0.1882  0.2130
  923MPD2    C313560   4.107   3.961   9.411 -0.0614 -0.0532  0.0272
  923MPD2    C413561   4.114   3.885   9.300 -0.2552  0.1340  0.0793
  923MPD2    C513562   4.024   3.905   9.206  0.1617  0.2900 -0.0195
  923MPD2     H13563   4.009   4.117   9.520 -0.2260 -0.9732  0.7016
  923MPD2    H113564   4.171   3.793   9.296  0.6934  0.8210 -2.0288
  923MPD2    H213565   3.857   4.016   9.136 -0.5568 -0.0408 -0.5840
  923MPD2    H313566   4.002   3.833   9.128  2.3868  0.2538 -0.6107
  923MPD2     N13567   4.205   3.929   9.511  0.8069 -0.3821  0.6607
  923MPD2    H513568   4.275   3.860   9.486  1.2700  0.0210  0.8285
  923MPD2    N113569   3.821   4.177   9.328 -0.4466  0.2659 -0.1017
  923MPD2    H713570   3.768   4.199   9.244  2.7129 -0.6269 -2.2915
  924MPD2     C13571   4.246   1.642  15.970  0.1084  0.3410  0.7494
  924MPD2    C113572   4.313   1.720  16.060 -0.2304  0.0889 -0.6750
  924MPD2    C213573   4.360   1.851  16.031 -0.0990  0.1486 -0.1562
  924MPD2    C313574   4.357   1.890  15.895  0.7539 -0.0661  0.4998
  924MPD2    C413575   4.292   1.808  15.801  0.3850 -0.3388  0.7633
  924MPD2    C513576   4.240   1.689  15.843  0.4446  0.5879 -0.1279
  924MPD2     H13577   4.394   1.921  16.106  0.5024  0.4111 -0.6723
  924MPD2    H113578   4.276   1.845  15.700  1.1936  0.8809  1.0754
  924MPD2    H213579   4.196   1.550  15.998 -0.7157  0.3608 -0.6951
  924MPD2    H313580   4.181   1.629  15.774  2.0625 -1.6694  0.4501
  924MPD2     N13581   4.411   2.019  15.856 -0.0125  0.1260  0.2949
  924MPD2    H513582   4.395   2.041  15.758  0.5283  2.3030  0.6865
  924MPD2    N113583   4.312   1.672  16.194  0.0167  0.1985 -0.1080
  924MPD2    H713584   4.246   1.600  16.221  0.4143  0.9773  2.9927
  925MPD2     C13585   3.269   4.476  14.998  0.0058  0.0670 -0.1521
  925MPD2    C113586   3.149   4.524  14.946 -0.6052  0.0172 -0.3435
  925MPD2    C213587   3.060   4.586  15.032 -0.1573 -0.4944 -0.6346
  925MPD2    C313588   3.096   4.595  15.169 -0.2437 -0.4378  0.4149
  925MPD2    C413589   3.224   4.562  15.211 -0.0082  0.0178  0.0077
  925MPD2    C513590   3.314   4.507  15.125  0.0751 -0.2199  0.3487
  925MPD2     H13591   2.960   4.607  14.996  0.2406  2.7973  0.1511
  925MPD2    H113592   3.261   4.578  15.312 -1.1139  0.0141  0.4134
  925MPD2    H213593   3.343   4.430  14.933 -1.2745 -1.2641 -0.6666
  925MPD2    H313594   3.410   4.476  15.165 -0.0300 -1.5127 -0.3835
  925MPD2     N13595   3.018   4.629  15.276  0.2928 -0.2040  0.3513
  925MPD2    H513596   3.064   4.618  15.365 -2.7240 -1.5632  1.7360
  925MPD2    N113597   3.105   4.511  14.814  0.1277 -0.5623  0.5233
  925MPD2    H713598   3.010   4.539  14.789 -0.1385 -0.4654  1.6490
  926MPD2     C13599   1.983   3.054  13.322  0.0332 -0.4576  0.3194
  926MPD2    C113600   1.880   3.088  13.230  0.2926  0.0629  0.5919
  926MPD2    C213601   1.911   3.167  13.119  0.4695 -0.4660  0.1951
  926MPD2    C313602   2.036   3.219  13.106 -1.2284 -0.1076 -0.0090
  926MPD2    C413603   2.132   3.176  13.182 -0.3260  0.4159 -0.0629
  926MPD2    C513604   2.105   3.089  13.285  0.2321 -0.2173  0.0024
  926MPD2     H13605   1.827   3.208  13.064  1.0653  0.5791  0.0650
  926MPD2    H113606   2.233   3.210  13.162  0.3585 -0.4689  1.8243
  926MPD2    H213607   1.969   2.996  13.412  1.2001 -1.3438 -0.0775
  926MPD2    H313608   2.181   3.050  13.351 -0.2438 -0.7958  0.2050
  926MPD2     N13609   2.075   3.298  12.999 -0.3922 -0.3259  0.5097
  926MPD2    H513610   2.174   3.321  13.000 -0.6099  0.7088 -1.1757
  926MPD2    N113611   1.743   3.065  13.257  0.0227  0.6792  0.3740
  926MPD2    H713612   1.674   3.103  13.193 -2.7507  2.3028  4.4114
  927MPD2     C13613   2.006   4.594   0.275  0.8881 -0.1642 -0.7084
  927MPD2    C113614   1.902   4.624   0.187  0.4485 -0.3034 -0.0271
  927MPD2    C213615   1.934   4.681   0.063 -0.2865 -0.0551 -0.0895
  927MPD2    C313616   2.069   4.711   0.028 -0.0234 -0.8849 -0.3735
  927MPD2    C413617   2.168   4.664   0.117 -0.7785  0.0860  0.1594
  927MPD2    C513618   2.136   4.609   0.238 -0.3392 -0.2835 -0.6532
  927MPD2     H13619   1.855   4.701  17.749 -0.7813  1.0155  0.7568
  927MPD2    H113620   2.273   4.690   0.107 -0.4573 -1.9702 -1.6411
  927MPD2    H213621   1.983   4.569   0.378  1.4806  2.3877  0.0517
  927MPD2    H313622   2.207   4.589   0.317  0.1837  2.5403 -0.4157
  927MPD2     N13623   2.097   0.025  17.663 -0.0772 -0.1920 -0.2840
  927MPD2    H513624   2.025   0.077  17.615  1.6301  0.7480 -1.7780
  927MPD2    N113625   1.768   4.596   0.232 -0.3854  0.0736  0.7015
  927MPD2    H713626   1.763   4.551   0.322  0.5114 -1.2767  0.0773
  928MPD2     C13627   3.693   3.078   0.085 -0.2216 -0.2347 -0.0458
  928MPD2    C113628   3.733   3.140   0.201 -0.4109  0.1550 -0.1569
  928MPD2    C213629   3.868   3.183   0.211 -0.9660 -0.0060 -0.6624
  928MPD2    C313630   3.958   3.151   0.109 -0.3843  0.6328 -0.0272
  928MPD2    C413631   3.915   3.092  17.754  0.1860 -0.0386 -0.5387
  928MPD2    C513632   3.783   3.056  17.741  0.2474  0.0385 -0.6132
  928MPD2     H13633   3.913   3.230   0.298 -0.8945 -0.5610 -0.3971
  928MPD2    H113634   3.973   3.069  17.666  0.2476 -0.2524 -0.4423
  928MPD2    H213635   3.598   3.028   0.076  0.1697 -1.6772  4.0767
  928MPD2    H313636   3.751   2.997  17.656  0.4947 -0.4569 -0.3583
  928MPD2     N13637   4.097   3.190   0.099  0.2454 -1.1485 -0.1399
  928MPD2    H513638   4.132   3.164   0.007 -1.6815 -1.5431 -0.7684
  928MPD2    N113639   3.642   3.169   0.306  0.2265 -0.6360  0.7960
  928MPD2    H713640   3.544   3.144   0.298 -0.3017  2.4112 -2.1557
  929MPD2     C13641   3.697   4.117  10.014  0.1051  0.0872 -0.2767
  929MPD2    C113642   3.646   4.066  10.130  0.0509  0.4494 -0.5593
  929MPD2    C213643   3.521   4.003  10.125  0.3441  0.0395  0.0390
  929MPD2    C313644   3.444   3.999  10.005  0.7219 -0.7198  0.3682
  929MPD2    C413645   3.493   4.063   9.897 -0.0118  0.2729 -0.4834
  929MPD2    C513646   3.615   4.124   9.900  0.5047  0.3796  0.2242
  929MPD2     H13647   3.494   3.934  10.205 -0.3301  0.6225  0.3190
  929MPD2    H113648   3.435   4.060   9.806  0.6300 -0.1924 -0.8863
  929MPD2    H213649   3.792   4.169  10.015  0.5700 -0.7881  1.1654
  929MPD2    H313650   3.663   4.167   9.813 -0.3870  1.6257  0.3433
  929MPD2     N13651   3.319   3.935   9.996  0.8587  0.7414 -0.4448
  929MPD2    H513652   3.283   3.922   9.902  3.1067 -1.5629 -0.9721
  929MPD2    N113653   3.721   4.063  10.252  0.0157 -0.0468  0.0123
  929MPD2    H713654   3.819   4.089  10.243 -0.8684  2.9444 -1.0200
  930MPD2     C13655   1.771   0.844  14.416 -0.6640 -0.3652 -0.0139
  930MPD2    C113656   1.730   0.963  14.358  0.0602  0.1778  0.1032
  930MPD2    C213657   1.674   0.961  14.229  0.2918 -0.8512 -0.0775
  930MPD2    C313658   1.658   0.840  14.166 -0.3892 -0.3710  0.2249
  930MPD2    C413659   1.697   0.727  14.226  0.2888  0.0913 -0.4281
  930MPD2    C513660   1.743   0.722  14.355 -0.4769  0.5023  0.0206
  930MPD2     H13661   1.645   1.058  14.192 -0.2925 -0.9976 -0.0038
  930MPD2    H113662   1.676   0.636  14.171  0.1865 -0.3903  0.4019
  930MPD2    H213663   1.810   0.836  14.517  0.4993 -1.0332 -0.5119
  930MPD2    H313664   1.768   0.628  14.402 -1.2889  0.1717 -0.2220
  930MPD2     N13665   1.611   0.822  14.040  0.2782  0.3718 -0.7088
  930MPD2    H513666   1.603   0.728  14.002  0.9997  1.0209 -2.4854
  930MPD2    N113667   1.755   1.084  14.429 -0.1286  0.2920 -0.8481
  930MPD2    H713668   1.819   1.089  14.508 -0.5577  1.2790 -0.5613
  931MPD2     C13669   1.637   3.991   0.477 -0.4674  0.2833  0.5120
  931MPD2    C113670   1.557   4.082   0.530 -0.0586  0.0812  0.2760
  931MPD2    C213671   1.477   4.047   0.644  0.5127  0.5278 -0.2163
  931MPD2    C313672   1.502   3.936   0.717  0.3415  0.1333  0.9205
  931MPD2    C413673   1.591   3.843   0.666  1.0158 -0.0552  0.2641
  931MPD2    C513674   1.652   3.871   0.544 -0.2876 -0.6925 -0.1917
  931MPD2     H13675   1.414   4.123   0.690 -1.2184 -0.5643 -0.7666
  931MPD2    H113676   1.601   3.748   0.717 -0.2911 -0.3364 -0.0043
  931MPD2    H213677   1.687   4.004   0.382  0.3132  1.6681  1.1148
  931MPD2    H313678   1.738   3.810   0.520  0.9312  0.8308  0.2896
  931MPD2     N13679   1.445   3.916   0.845 -1.0083  0.1032  0.2898
  931MPD2    H513680   1.488   3.834   0.888  0.5976  1.7080  1.7081
  931MPD2    N113681   1.546   4.200   0.454  0.3285 -0.7676  0.3533
  931MPD2    H713682   1.612   4.208   0.378  1.3489  0.1980  1.3382
  932MPD2     C13683   3.061   0.398  11.723  1.1045  0.0997  0.6944
  932MPD2    C113684   3.166   0.377  11.641  0.1397 -0.2367  0.0165
  932MPD2    C213685   3.221   0.252  11.622  0.4440  0.8136 -0.5221
  932MPD2    C313686   3.179   0.139  11.684 -0.3589  0.6072  0.6037
  932MPD2    C413687   3.069   0.157  11.764  0.7238 -0.1586 -0.3484
  932MPD2    C513688   3.013   0.284  11.779 -0.6926  0.1537  0.0061
  932MPD2     H13689   3.312   0.253  11.564  1.4112  1.1915  1.0078
  932MPD2    H113690   3.031   0.074  11.823  0.5631 -0.3438 -0.7150
  932MPD2    H213691   3.018   0.496  11.737 -1.0886 -0.6058 -1.1638
  932MPD2    H313692   2.931   0.301  11.849 -1.0199 -2.9950  0.3790
  932MPD2     N13693   3.234   0.009  11.677  0.2914  0.0279  0.6009
  932MPD2    H513694   3.204   4.676  11.741  1.3366 -1.4624 -0.6318
  932MPD2    N113695   3.239   0.492  11.583 -0.5514 -0.3347 -0.2775
  932MPD2    H713696   3.323   0.460  11.537 -0.1053  0.2235  0.1654
  933MPD2     C13697   3.178   3.556   0.076  0.5345 -0.5387 -0.4323
  933MPD2    C113698   3.216   3.605   0.198  0.6715  0.2159  0.2174
  933MPD2    C213699   3.207   3.736   0.221  0.1814 -0.5901 -0.2844
  933MPD2    C313700   3.144   3.812   0.125 -1.0127 -0.2727 -0.1974
  933MPD2    C413701   3.091   3.760   0.014 -0.1336  0.3342 -0.0777
  933MPD2    C513702   3.102   3.622  17.744 -0.4340  0.4986  0.0434
  933MPD2     H13703   3.236   3.780   0.315 -0.3736  0.0489 -0.4134
  933MPD2    H113704   3.038   3.818  17.698  0.2098 -0.5830 -1.0398
  933MPD2    H213705   3.189   3.449   0.062 -1.0952 -0.9397  1.3397
  933MPD2    H313706   3.052   3.579  17.658 -1.3533 -1.7619  1.7092
  933MPD2     N13707   3.135   3.952   0.160 -0.6044  0.4777 -0.1545
  933MPD2    H513708   3.192   3.975   0.241  0.7477 -3.3360  0.0234
  933MPD2    N113709   3.276   3.512   0.290 -0.1165  0.2164  0.7544
  933MPD2    H713710   3.290   3.417   0.257 -2.3745  0.2285 -0.2310
  934MPD2     C13711   0.443   1.303   1.627  0.3937  0.1210  0.4490
  934MPD2    C113712   0.526   1.202   1.597  0.5454  0.5949 -0.2188
  934MPD2    C213713   0.474   1.078   1.548 -0.1588  0.1649 -0.0897
  934MPD2    C313714   0.337   1.055   1.537 -0.5687 -0.3378 -0.1829
  934MPD2    C413715   0.261   1.158   1.576  0.0096  0.1185  0.7693
  934MPD2    C513716   0.311   1.278   1.614  0.3971  0.9488  0.1900
  934MPD2     H13717   0.548   1.005   1.518  1.0362  1.0700  0.6707
  934MPD2    H113718   0.153   1.148   1.581 -0.0818 -0.5485 -3.0842
  934MPD2    H213719   0.466   1.399   1.672  2.3310  0.2121 -0.7754
  934MPD2    H313720   0.236   1.351   1.645 -0.0605  0.7494 -0.4410
  934MPD2     N13721   0.280   0.936   1.501 -0.5810  0.4383  0.1906
  934MPD2    H513722   0.180   0.931   1.515 -0.4349 -1.7224  0.4267
  934MPD2    N113723   0.666   1.207   1.608  0.8452 -0.6286  0.2296
  934MPD2    H713724   0.715   1.119   1.597  0.3227 -1.1663  2.1527
  935MPD2     C13725   0.771   0.137   1.446 -0.2499  0.2950  0.3619
  935MPD2    C113726   0.662   0.095   1.382 -0.2812 -0.2218 -0.5239
  935MPD2    C213727   0.545   0.169   1.397  1.1373 -0.3105 -0.4368
  935MPD2    C313728   0.533   0.272   1.487  0.2036 -0.3530 -0.2743
  935MPD2    C413729   0.643   0.300   1.563  0.8666  0.0129  0.1556
  935MPD2    C513730   0.762   0.236   1.544 -0.0924 -0.0986 -0.2938
  935MPD2     H13731   0.456   0.137   1.344  0.4489  1.0304 -0.0705
  935MPD2    H113732   0.648   0.389   1.625 -0.1079  0.8839 -1.0155
  935MPD2    H213733   0.864   0.080   1.447 -0.3817  0.1091  1.3905
  935MPD2    H313734   0.846   0.271   1.603  0.8270 -2.1837 -0.3602
  935MPD2     N13735   0.425   0.360   1.497 -0.5619  0.0287 -0.3119
  935MPD2    H513736   0.433   0.432   1.569  0.1823  0.8910 -1.2701
  935MPD2    N113737   0.665   4.724   1.294 -0.1222 -0.2483 -0.8209
  935MPD2    H713738   0.591   4.711   1.225 -1.3770  0.2775  0.4280
  936MPD2     C13739   3.532   2.777  12.242  0.1896 -0.0844  0.9209
  936MPD2    C113740   3.553   2.778  12.376 -0.3521  0.6684 -0.2916
  936MPD2    C213741   3.572   2.903  12.444 -0.3797 -0.1820 -0.1757
  936MPD2    C313742   3.580   3.018  12.366  0.2039  0.0990 -0.2093
  936MPD2    C413743   3.541   3.022  12.230 -0.2859 -0.0808  0.2197
  936MPD2    C513744   3.523   2.896  12.169  0.8428 -0.5754 -0.7955
  936MPD2     H13745   3.595   2.908  12.550  0.4325 -1.9917 -0.2616
  936MPD2    H113746   3.529   3.116  12.176  2.9564  0.0568 -0.2631
  936MPD2    H213747   3.528   2.685  12.184  0.4345 -0.5582  1.6508
  936MPD2    H313748   3.503   2.895  12.063  0.5946  1.5038 -0.7624
  936MPD2     N13749   3.616   3.135  12.439 -0.4497 -0.0035 -0.8786
  936MPD2    H513750   3.614   3.122  12.540  0.4299 -0.4404 -0.9099
  936MPD2    N113751   3.570   2.662  12.449 -0.2498  0.1580 -0.2120
  936MPD2    H713752   3.602   2.674  12.545 -1.3310 -2.2881  0.4587
  937MPD2     C13753   1.514   4.322  11.658  0.5348 -0.2653 -0.6707
  937MPD2    C113754   1.505   4.456  11.658  0.7997  0.2415 -0.5104
  937MPD2    C213755   1.589   4.526  11.570  0.1849 -0.7726  0.1020
  937MPD2    C313756   1.682   4.467  11.484 -0.4187 -0.5278 -0.3487
  937MPD2    C413757   1.681   4.327  11.485  0.4137 -0.4054  0.3459
  937MPD2    C513758   1.585   4.260  11.559  0.2615 -0.1724  1.2035
  937MPD2     H13759   1.581   4.634  11.567  1.5553 -0.7040 -1.3620
  937MPD2    H113760   1.755   4.276  11.425 -1.3135 -0.4965 -1.7077
  937MPD2    H213761   1.451   4.258  11.720  1.3091 -1.6378 -1.2892
  937MPD2    H313762   1.594   4.152  11.556  0.4815 -0.1092 -0.6587
  937MPD2     N13763   1.763   4.540  11.400 -0.6652 -0.3825 -0.2760
  937MPD2    H513764   1.764   4.642  11.401 -2.0454 -0.3689  0.3216
  937MPD2    N113765   1.433   4.522  11.761 -0.1341 -0.7467  0.4125
  937MPD2    H713766   1.430   4.623  11.752 -3.4120 -0.8711  0.2938
  938MPD2     C13767   4.201   0.122   0.950 -0.3058 -0.7391  0.1435
  938MPD2    C113768   4.161   0.196   1.057 -0.3965 -0.4940  0.5308
  938MPD2    C213769   4.094   0.127   1.166 -0.3730  0.6534  0.2425
  938MPD2    C313770   4.082   4.731   1.168 -0.0356 -0.0339 -0.0601
  938MPD2    C413771   4.132   4.661   1.063 -0.0249 -0.5482 -0.3683
  938MPD2    C513772   4.184   4.729   0.953  0.1356  0.1042 -0.4038
  938MPD2     H13773   4.059   0.193   1.245 -0.9987 -1.0684  1.4153
  938MPD2    H113774   4.111   4.556   1.047  0.6112 -0.6286 -0.6597
  938MPD2    H213775   4.224   0.164   0.852  1.5816  0.5801  1.1480
  938MPD2    H313776   4.190   4.666   0.865 -1.1804 -0.3864 -0.1329
  938MPD2     N13777   4.014   4.657   1.265  0.2347  0.4521  0.1746
  938MPD2    H513778   4.025   4.556   1.262  0.2481  0.4854 -0.9465
  938MPD2    N113779   4.180   0.338   1.065 -0.3971 -0.0718  0.5618
  938MPD2    H713780   4.133   0.383   1.143 -0.6168 -2.0111  1.5568
  939MPD2     C13781   0.194   1.646   0.847 -0.0166  0.8106 -0.8322
  939MPD2    C113782   0.312   1.668   0.913  0.0365 -0.4426 -0.0040
  939MPD2    C213783   0.426   1.598   0.863 -0.2097  0.4386 -0.4787
  939MPD2    C313784   0.425   1.512   0.755  0.0343 -0.0637 -0.5884
  939MPD2    C413785   0.308   1.508   0.689  0.8416  0.3592 -0.3158
  939MPD2    C513786   0.197   1.573   0.729 -0.6526 -0.1918 -0.3374
  939MPD2     H13787   0.524   1.612   0.905  0.3229 -1.2761 -1.1559
  939MPD2    H113788   0.287   1.448   0.601 -0.0068  0.8970 -0.4752
  939MPD2    H213789   0.096   1.687   0.870 -1.1128 -2.0631 -0.3757
  939MPD2    H313790   0.103   1.561   0.678 -0.5704 -0.3995 -0.4386
  939MPD2     N13791   0.555   1.480   0.708  0.4976  0.2429 -0.2688
  939MPD2    H513792   0.637   1.516   0.756  1.3201 -0.5784 -1.0552
  939MPD2    N113793   0.316   1.752   1.027  0.1960  0.4858  0.0516
  939MPD2    H713794   0.223   1.790   1.040 -0.2036 -0.2820 -0.5621
  940MPD2     C13795   4.119   2.677  13.623 -0.7023  0.2449 -1.0347
  940MPD2    C113796   4.053   2.704  13.501 -0.0164  0.5286  0.2601
  940MPD2    C213797   4.113   2.684  13.380 -0.4843 -0.4181  1.2168
  940MPD2    C313798   4.245   2.652  13.376  0.1993  0.0087 -0.5302
  940MPD2    C413799   4.311   2.641  13.497  0.4190  0.0983 -0.8720
  940MPD2    C513800   4.252   2.638  13.621  0.6483 -0.1050 -0.1930
  940MPD2     H13801   4.051   2.677  13.291  0.8503  0.0543  0.2507
  940MPD2    H113802   4.417   2.621  13.498  0.2754 -0.3530  3.8779
  940MPD2    H213803   4.081   2.707  13.720 -0.0364 -2.3836  0.0578
  940MPD2    H313804   4.303   2.638  13.717 -1.8482 -0.8196  1.1371
  940MPD2     N13805   4.315   2.638  13.265  0.0983 -0.1135 -1.1605
  940MPD2    H513806   4.413   2.664  13.262  0.4676 -1.1016  2.5532
  940MPD2    N113807   3.918   2.756  13.487 -0.0923 -0.0953  0.5071
  940MPD2    H713808   3.882   2.785  13.397 -1.6060  0.7412  1.3640
  941MPD2     C13809   3.552   2.941  10.578 -0.1019 -0.1826 -0.1068
  941MPD2    C113810   3.574   2.955  10.442  0.5643  0.2825  0.8147
  941MPD2    C213811   3.541   2.843  10.359 -0.3934 -0.1116  0.3702
  941MPD2    C313812   3.509   2.726  10.413  0.0755 -0.0897 -0.0060
  941MPD2    C413813   3.503   2.717  10.548 -0.5468  0.3743 -0.0191
  941MPD2    C513814   3.511   2.825  10.631 -0.5015  0.9730  0.0059
  941MPD2     H13815   3.549   2.866  10.253  1.4422  0.6257  0.6612
  941MPD2    H113816   3.471   2.622  10.588  2.6018 -0.1309  1.2897
  941MPD2    H213817   3.563   3.022  10.649  0.2002  1.3921 -1.9468
  941MPD2    H313818   3.491   2.814  10.737 -1.6616  0.2248 -0.2896
  941MPD2     N13819   3.463   2.613  10.341  0.5421 -1.4427 -0.2547
  941MPD2    H513820   3.425   2.543  10.403 -0.1525 -0.2548  0.6590
  941MPD2    N113821   3.617   3.078  10.387 -0.2059  0.5018 -0.8738
  941MPD2    H713822   3.598   3.104  10.291  1.9118 -1.2018 -1.7408
  942MPD2     C13823   3.138   4.719   9.431 -0.0576  0.1273  0.7775
  942MPD2    C113824   3.135   4.589   9.472  0.6440  0.2852  0.2428
  942MPD2    C213825   3.148   4.481   9.380 -0.1828 -0.7031  0.5267
  942MPD2    C313826   3.163   4.505   9.244  0.6123 -0.4369 -0.2041
  942MPD2    C413827   3.150   4.636   9.205  0.2241  0.3895 -0.2645
  942MPD2    C513828   3.145   0.002   9.294  0.2911  0.4099 -0.2044
  942MPD2     H13829   3.133   4.381   9.418  0.5930 -1.1992 -0.5139
  942MPD2    H113830   3.145   4.658   9.099 -0.4579 -4.3774 -1.2556
  942MPD2    H213831   3.140   0.066   9.495 -0.9005  1.2748 -0.7616
  942MPD2    H313832   3.146   0.106   9.262 -1.4811  0.0827 -1.3594
  942MPD2     N13833   3.176   4.405   9.141 -0.8356  0.3057 -0.8805
  942MPD2    H513834   3.162   4.438   9.046  2.1546  2.0560 -0.7350
  942MPD2    N113835   3.077   4.559   9.603 -0.3729  0.2427  0.3977
  942MPD2    H713836   3.079   4.462   9.632 -2.3183  0.4432  1.1923
  943MPD2     C13837   1.818   2.298   9.716 -0.3911  0.1254  0.3227
  943MPD2    C113838   1.773   2.191   9.786  0.1463 -0.7681 -0.1004
  943MPD2    C213839   1.864   2.128   9.871 -0.9178 -0.5902 -0.7664
  943MPD2    C313840   1.983   2.177   9.905  0.2499 -0.6391  0.2554
  943MPD2    C413841   2.028   2.290   9.839  0.4145  0.3055  0.3727
  943MPD2    C513842   1.941   2.342   9.744 -0.1010 -0.4353 -0.5470
  943MPD2     H13843   1.842   2.037   9.926 -0.2266 -0.4770 -0.3016
  943MPD2    H113844   2.122   2.339   9.860 -0.6789  1.4706  2.5154
  943MPD2    H213845   1.763   2.349   9.638  1.5653  0.4014 -0.8954
  943MPD2    H313846   1.970   2.436   9.698 -1.1270 -0.8780 -2.0822
  943MPD2     N13847   2.070   2.107   9.988  0.3171 -0.1671  0.3139
  943MPD2    H513848   2.165   2.142   9.992  0.0672  0.5122  0.3548
  943MPD2    N113849   1.646   2.140   9.754 -0.2461  0.5275  0.2510
  943MPD2    H713850   1.594   2.200   9.691 -1.3118 -0.3554  0.2910
  944MPD2     C13851   1.723   1.775  10.953  0.1332  0.5251 -0.3612
  944MPD2    C113852   1.673   1.726  11.070 -0.2153 -0.0800  0.2650
  944MPD2    C213853   1.669   1.802  11.185  0.4294 -0.9248  0.2782
  944MPD2    C313854   1.724   1.929  11.184  0.0651  0.3979  0.5473
  944MPD2    C413855   1.770   1.976  11.067  0.5532  0.2165 -0.2792
  944MPD2    C513856   1.774   1.904  10.959 -0.6426 -0.1001  0.4072
  944MPD2     H13857   1.624   1.767  11.277 -0.2656  1.8838  1.0157
  944MPD2    H113858   1.815   2.075  11.064 -1.4533  1.2661  3.9442
  944MPD2    H213859   1.722   1.716  10.862  1.7467  1.3152 -0.8854
  944MPD2    H313860   1.786   1.960  10.867 -3.2721  0.4152  0.3824
  944MPD2     N13861   1.723   2.012  11.295  0.4235 -0.1866  0.0790
  944MPD2    H513862   1.686   1.979  11.384 -0.0673 -1.4001 -0.5629
  944MPD2    N113863   1.632   1.589  11.073  0.3069  0.0326 -0.3371
  944MPD2    H713864   1.636   1.534  10.987 -3.0849  2.6074 -2.1310
    1TMC1    C113865   0.529   1.680  14.888  0.2723  0.7736  0.5475
    1TMC1    C213866   0.447   1.653  14.780  0.3171  0.9892 -0.4168
    1TMC1    C313867   0.469   1.535  14.721  0.3181 -0.5267  0.4558
    1TMC1    C413868   0.612   1.585  14.937  0.2891  0.4903 -0.3558
    1TMC1    C513869   0.612   1.465  14.875  0.0845 -0.4995  0.0092
    1TMC1    C613870   0.544   1.427  14.771  0.7348  0.4250  0.2076
    1TMC1     C13871   0.523   1.806  14.957  0.1404  1.1739 -0.5663
    1TMC1     O13872   0.567   1.820  15.067 -0.0588 -0.3633 -0.7042
    1TMC1     H13873   0.368   1.723  14.753 -0.3670  0.2067 -0.4617
    1TMC1    H113874   0.668   1.609  15.027 -1.4037  1.1521  0.5016
    1TMC1    H213875   0.572   1.342  14.710 -0.6808  0.1491 -0.0671
    1TMC1    C713876   0.694   1.362  14.938  0.3525  0.1167  0.3242
    1TMC1    C813877   0.389   1.512  14.598  0.6332 -0.1131  0.0532
    1TMC1    O113878   0.790   1.409  15.005 -0.1039 -0.2339 -0.3462
    1TMC1    O213879   0.347   1.409  14.552 -0.0047 -0.3358  0.2178
    1TMC1    O313880   0.623   1.247  14.956  0.5074  0.4087  0.1183
    1TMC1    H313881   0.535   1.242  14.915  0.4386  0.2105  0.2884
    1TMC1    O513882   0.443   1.602  14.515  0.4136 -0.5894  0.1467
    1TMC1    H513883   0.476   1.684  14.558 -0.9636  0.9600 -1.7611
    2MPD2     C13884   0.511   2.308  14.917  0.1720 -0.3469  0.0952
    2MPD2    C113885   0.473   2.257  14.797  0.4784  0.3861 -0.1405
    2MPD2    C213886   0.449   2.120  14.782 -0.1535  0.3174 -0.6241
    2MPD2    C313887   0.471   2.038  14.892  0.3394 -0.0797  0.0719
    2MPD2    C413888   0.495   2.090  15.018 -0.1758  0.6790  0.6322
    2MPD2    C513889   0.523   2.222  15.023  0.2113 -0.1146  0.1782
    2MPD2     H13890   0.426   2.084  14.682  0.5811 -0.9317 -0.3436
    2MPD2    H113891   0.515   2.031  15.107 -0.1032  0.3079  0.3709
    2MPD2    H213892   0.552   2.405  14.941 -1.3823  0.5090 -0.7501
    2MPD2    H313893   0.538   2.259  15.124 -3.1874 -3.7676  2.0373
    2MPD2     N13894   0.479   1.897  14.870 -0.3035  0.0282  0.2698
    2MPD2    H513895   0.454   1.867  14.777 -2.3375  0.3308  0.7014
    2MPD2    N113896   0.466   2.349  14.688  0.3148 -0.1715 -0.2133
    2MPD2    H713897   0.461   2.445  14.720 -0.7981 -0.3253  0.0787
    3TMC2    C113898   0.396   2.430  14.488  0.1776  0.3718  0.0571
    3TMC2    C213899   0.422   2.557  14.531 -0.2172  0.2645 -0.1845
    3TMC2    C313900   0.353   2.654  14.466 -0.4172 -0.4957 -0.4859
    3TMC2    C413901   0.316   2.394  14.378 -0.2034  0.3360  0.2092
    3TMC2    C513902   0.247   2.497  14.336 -0.4773 -0.6688 -0.1017
    3TMC2    C613903   0.266   2.627  14.365 -0.7122  0.7560 -0.3442
    3TMC2     C13904   0.457   2.318  14.555 -0.1572 -0.4099 -0.1136
    3TMC2     O13905   0.473   2.205  14.508  0.3606 -0.1877  0.4470
    3TMC2     H13906   0.489   2.584  14.612 -0.1620  1.1482 -0.5301
    3TMC2    H113907   0.295   2.289  14.359 -0.2142  0.6057 -1.2690
    3TMC2    H213908   0.223   2.704  14.302  0.2329  1.7543  0.2488
    3TMC2    C713909   0.131   2.465  14.260 -0.3310  0.0550 -0.6406
    3TMC2    C813910   0.390   2.792  14.493  0.4928  0.8687 -0.3878
    3TMC2    O113911   0.074   2.357  14.273  0.5782 -0.4311  0.0937
    3TMC2    O213912   0.371   2.880  14.409  0.3767 -0.3582 -0.7563
    3TMC2    O513913   0.419   2.818  14.624  0.4567  0.1527  0.1357
    3TMC2    H513914   0.403   2.745  14.688 -1.7895  1.7611  1.3947
    4TMC2    C113915   4.510   3.098  13.597 -0.1969 -0.4725  0.3248
    4TMC2    C213916   4.596   3.201  13.548  0.2163  0.4752  0.5596
    4TMC2    C313917   4.729   3.197  13.595 -0.4136  0.1263  0.2360
    4TMC2    C413918   4.559   2.995  13.677 -0.1174  0.2403 -0.1562
    4TMC2    C513919   4.688   2.998  13.718 -0.5798  0.5244 -0.0580
    4TMC2    C613920   0.034   3.104  13.690  0.2006 -0.1036 -1.0282
    4TMC2     C13921   4.382   3.081  13.537  0.5830  0.4247 -0.2219
    4TMC2     O13922   4.324   2.977  13.563 -0.5327 -0.2135 -0.3225
    4TMC2     H13923   4.584   3.255  13.455  2.0851 -0.6050 -0.2924
    4TMC2    H113924   4.483   2.933  13.723  1.4041 -1.3367  0.2047
    4TMC2    H213925   0.137   3.093  13.723  0.8052  1.1805 -2.4917
    4TMC2    C713926   0.003   2.885  13.787 -0.8268 -0.0610 -0.4592
    4TMC2    C813927   0.068   3.313  13.573 -0.6959 -0.4770 -0.1833
    4TMC2    O113928   0.125   2.877  13.802 -0.2744 -0.4689 -0.0276
    4TMC2    O213929   0.041   3.391  13.485  0.1464  0.0522 -0.1983
    4TMC2    O513930   0.128   3.345  13.689  0.8575  0.1216  0.0946
    4TMC2    H513931   0.087   3.289  13.758  3.1086  0.5606  1.7840
    5MPD2     C13932   3.960   3.209  13.268  0.2087  0.2621  0.3935
    5MPD2    C113933   4.014   3.323  13.323  0.2489  0.2246 -0.1612
    5MPD2    C213934   4.138   3.320  13.388 -0.1743  0.2552  1.3887
    5MPD2    C313935   4.208   3.198  13.410 -0.2688 -0.1504 -0.4866
    5MPD2    C413936   4.143   3.083  13.366 -0.8601  0.7658 -1.2960
    5MPD2    C513937   4.019   3.087  13.304  0.4722  0.0400  0.7913
    5MPD2     H13938   4.197   3.409  13.406  2.8284 -0.9808 -2.3220
    5MPD2    H113939   4.184   2.983  13.362  0.2866  1.2459 -1.6074
    5MPD2    H213940   3.866   3.207  13.213  0.9289  1.0850 -0.8791
    5MPD2    H313941   3.975   2.997  13.262  1.0881 -0.1700  0.5967
    5MPD2     N13942   4.332   3.191  13.475 -0.0433  0.5813  0.3201
    5MPD2    H513943   4.378   3.280  13.490  1.0047 -0.2089  1.8191
    5MPD2    N113944   3.940   3.443  13.310  0.1680 -0.3442  0.3702
    5MPD2    H713945   3.868   3.434  13.240  0.1587 -1.5025  0.5359
    6MPD1     C13946   3.811   0.684  13.082 -0.6748  0.8635 -0.2605
    6MPD1    C113947   3.889   0.644  13.189  0.2286 -1.0491 -0.3022
    6MPD1    C213948   3.891   0.505  13.204  0.0702  0.6636  0.2263
    6MPD1    C313949   3.855   0.411  13.107  0.0074  0.0437 -0.3119
    6MPD1    C413950   3.791   0.463  13.000 -0.0611 -0.1266 -0.2361
    6MPD1    C513951   3.772   0.597  12.985 -0.7519  0.7361 -0.0623
    6MPD1     H13952   3.950   0.478  13.291  0.1188 -2.3497 -0.7319
    6MPD1    H113953   3.748   0.406  12.918 -1.7507  0.6165  0.1251
    6MPD1    H213954   3.788   0.790  13.082 -0.8504  0.8254  0.3019
    6MPD1    H313955   3.706   0.630  12.905 -0.0270  0.7975 -0.6307
    6MPD1     N13956   3.876   0.270  13.118 -0.4015  0.0333  1.1057
    6MPD1    H513957   3.828   0.213  13.049 -1.5735 -0.6914  2.5256
    6MPD1    N113958   3.924   0.725  13.299 -0.2561  0.1371 -0.1937
    6MPD1    H613959   4.008   0.694  13.347 -0.4886  0.2041  0.2614
    6MPD1    H713960   3.924   0.822  13.268  2.2402 -0.6767 -2.7140
    7MPD2     C13961   3.860   4.356  13.709 -0.0008  0.1320 -0.1476
    7MPD2    C113962   3.823   4.343  13.578  0.5510  0.3538 -0.3752
    7MPD2    C213963   3.774   4.222  13.530 -0.2006  0.0816  0.0872
    7MPD2    C313964   3.759   4.108  13.611  0.0424  0.4724 -0.0178
    7MPD2    C413965   3.803   4.121  13.737 -0.5660  0.4975  0.3786
    7MPD2    C513966   3.848   4.240  13.784 -0.0095 -0.2927 -0.5946
    7MPD2     H13967   3.746   4.223  13.426  0.1358 -1.5757 -0.0202
    7MPD2    H113968   3.824   4.041  13.807 -2.3038  0.2184  0.5738
    7MPD2    H213969   3.911   4.441  13.753  2.2504 -0.8598 -0.8512
    7MPD2    H313970   3.903   4.243  13.877 -0.6193 -1.2432 -0.2043
    7MPD2     N13971   3.737   3.977  13.549  0.4609  0.5662 -0.1854
    7MPD2    H513972   3.748   3.894  13.606  1.4643  2.7506  2.8318
    7MPD2    N113973   3.851   4.443  13.485 -0.4045  0.4586 -0.2606
    7MPD2    H713974   3.823   4.423  13.389  0.1793  2.3373 -0.8183
    8TMC3    C113975   3.721   3.820  13.369  0.3539 -0.2602  0.5145
    8TMC3    C213976   3.826   3.749  13.419 -0.1358 -0.5834 -0.0042
    8TMC3    C313977   3.889   3.665  13.331 -0.7273  0.0550  0.0268
    8TMC3    C413978   3.684   3.805  13.236  0.2264  0.0587 -0.0364
    8TMC3    C513979   3.762   3.732  13.147  0.0345  0.5693  0.3424
    8TMC3    C613980   3.866   3.662  13.196  0.0959 -0.6857  0.6918
    8TMC3     C13981   3.710   3.959  13.414  0.1217  0.0726  0.8113
    8TMC3     O13982   3.695   4.042  13.323  0.3691 -0.7917 -0.0844
    8TMC3     H13983   3.855   3.750  13.523  0.0661 -0.5978 -0.0603
    8TMC3    H113984   3.591   3.845  13.197 -0.6794 -0.7177  1.3192
    8TMC3    H213985   3.940   3.611  13.134 -0.7906 -0.9991 -0.1004
    8TMC3    C713986   3.789   3.818  13.034 -0.1678  0.4852 -0.8448
    8TMC3    C813987   3.961   3.550  13.383 -0.0069 -0.5179  0.0085
    8TMC3    O113988   3.839   3.761  12.940  0.4632 -0.2989 -0.1418
    8TMC3    O213989   4.018   3.549  13.488 -0.5309 -0.6309  0.1748
    9TMC3    C113990   3.903   0.080  13.233  0.1081  1.1211  0.1678
    9TMC3    C213991   3.958   0.011  13.129 -0.2114  0.1653 -0.5265
    9TMC3    C313992   3.990   4.615  13.153  0.2138 -0.1331  0.2368
    9TMC3    C413993   3.892   0.020  13.354 -0.2760 -0.7126 -0.5890
    9TMC3    C513994   3.929   4.633  13.377  0.1845  0.3636  0.4713
    9TMC3    C613995   3.980   4.555  13.275 -0.0129 -0.2984  0.8687
    9TMC3     C13996   3.919   0.215  13.232  0.4822 -0.2029  0.8491
    9TMC3     O13997   3.975   0.255  13.333  0.0820 -0.0828 -0.0633
    9TMC3     H13998   3.966   0.050  13.028 -0.2523  2.0382  0.1902
    9TMC3    H113999   3.863   0.076  13.442 -1.0609 -0.1851 -1.1841
    9TMC3    H214000   3.997   4.450  13.296  1.6028 -0.4077 -0.9489
    9TMC3    C714001   3.909   4.568  13.508  0.1456  0.1128  0.3066
    9TMC3    C814002   3.998   4.520  13.038 -0.0551 -0.2372 -0.2542
    9TMC3    O114003   3.897   4.641  13.605 -0.0590 -0.1563 -0.6239
    9TMC3    O214004   4.060   4.548  12.936  0.0550  0.8386 -0.1480
   10MPD2     C14005   3.929   4.025  12.885  0.7039 -0.2947  0.2590
   10MPD2    C114006   3.870   4.047  13.010 -0.6154  0.0284  0.4295
   10MPD2    C214007   3.880   4.171  13.070  0.1904  0.6689  0.4518
   10MPD2    C314008   3.949   4.273  13.013  0.5701 -0.3802  0.5824
   10MPD2    C414009   4.019   4.241  12.897 -0.1425  0.1215 -0.4652
   10MPD2    C514010   4.001   4.120  12.835  0.2890  0.8649  0.2507
   10MPD2     H14011   3.811   4.191  13.151 -0.0089  0.6666  0.2829
   10MPD2    H114012   4.087   4.314  12.854  0.7440 -0.2241  0.3422
   10MPD2    H214013   3.935   3.932  12.830  0.8309 -0.0966 -0.0608
   10MPD2    H314014   4.060   4.093  12.749 -0.3773  1.3333 -0.3569
   10MPD2     N14015   3.943   4.401  13.071 -0.0713  0.4096 -0.4083
   10MPD2    H514016   3.876   4.410  13.146 -0.3171 -1.7161 -0.3963
   10MPD2    N114017   3.789   3.944  13.077 -1.0017  0.2292  0.6395
   10MPD2    H714018   3.740   3.970  13.162 -1.7454 -2.8633  1.1581
   11MPD2     C14019   4.674   2.441  14.033  0.1659 -0.1055  0.0835
   11MPD2    C114020   0.021   2.551  14.052  1.4105 -0.6669  0.1920
   11MPD2    C214021   0.028   2.655  13.962 -0.2468 -0.2604  0.4075
   11MPD2    C314022   4.675   2.658  13.859 -0.1165 -0.1895 -0.2624
   11MPD2    C414023   4.591   2.557  13.829  0.0906 -0.5203  0.0791
   11MPD2    C514024   4.590   2.458  13.923 -0.1105  0.1332  0.2324
   11MPD2     H14025   0.097   2.737  13.980  0.3448 -0.4885 -0.8394
   11MPD2    H114026   4.524   2.563  13.744 -0.5656 -0.9101  0.5644
   11MPD2    H214027   4.651   2.362  14.103  1.7068 -1.0220 -0.4513
   11MPD2    H314028   4.519   2.377  13.907  0.3027 -0.0803 -0.5055
   11MPD2     N14029   4.661   2.777  13.786  0.1371  0.5266 -0.1495
   11MPD2    H514030   4.568   2.780  13.745  0.8929  0.2212 -1.8626
   11MPD2    N114031   0.110   2.558  14.166  0.2066  0.3955  0.0217
   11MPD2    H714032   0.180   2.632  14.162  0.2905  0.2578 -1.1766
    1MPD1     C14033   3.425   4.737  17.123  0.5990 -0.5568 -0.0845
    1MPD1    C114034   3.531   4.703  17.205  0.2150  1.3920  0.3539
    1MPD1    C214035   3.603   4.589  17.177 -0.2225  0.9182  0.1015
    1MPD1    C314036   3.584   4.519  17.061 -0.2079 -0.4421  0.1994
    1MPD1    C414037   3.482   4.551  16.982 -0.7876 -0.0744  1.1147
    1MPD1    C514038   3.406   4.669  17.005  0.8773 -0.5350  0.2911
    1MPD1     H14039   3.674   4.555  17.251  0.1809 -0.9904 -1.1835
    1MPD1    H114040   3.457   4.495  16.893  1.9187 -0.8919  0.8718
    1MPD1    H214041   3.357   0.073  17.160  2.2342  1.5690 -1.4634
    1MPD1    H314042   3.326   4.693  16.936 -0.2658 -0.8586  1.4993
    1MPD1     N14043   3.655   4.399  17.043 -0.6413 -0.3182  0.0663
    1MPD1    H514044   3.604   4.324  16.997  1.9912 -1.1643 -1.4547
    1MPD1    N114045   3.542   0.025  17.331 -0.1792  0.1087 -0.4332
    1MPD1    H614046   3.635   0.019  17.373 -0.0518  1.4769 -0.4982
    1MPD1    H714047   3.503   0.119  17.338 -0.9930 -0.2523 -0.1653
    2MPD1     C14048   4.505   3.868  16.683  0.0305 -0.4313  0.2433
    2MPD1    C114049   4.385   3.799  16.670 -0.3489  0.3516  0.2272
    2MPD1    C214050   4.278   3.845  16.736 -1.4807 -0.3230  0.0430
    2MPD1    C314051   4.281   3.943  16.833  0.3839 -0.3438 -0.1117
    2MPD1    C414052   4.402   4.007  16.850  0.5170 -0.5466 -0.0965
    2MPD1    C514053   4.515   3.972  16.774  0.6043  0.4890  0.3056
    2MPD1     H14054   4.187   3.789  16.723 -1.1095 -0.8283 -0.4031
    2MPD1    H114055   4.409   4.094  16.914 -1.4344  1.0656 -2.0834
    2MPD1    H214056   4.590   3.838  16.622  1.6325  1.1105  1.7585
    2MPD1    H314057   4.603   4.033  16.786  0.1402  1.3433 -0.6232
    2MPD1     N14058   4.160   3.980  16.894 -0.0960  0.3949  0.5821
    2MPD1    H514059   4.078   3.925  16.874  1.7123 -1.3448 -2.0355
    2MPD1    N114060   4.365   3.701  16.566 -1.1566 -0.1354 -0.0364
    2MPD1    H614061   4.286   3.639  16.583 -2.0976  0.8145 -0.9442
    2MPD1    H714062   4.450   3.656  16.532 -0.2447  0.0469  1.9928
    3TMC3    C114063   3.995   4.106  17.001 -0.0409  0.7102 -0.4231
    3TMC3    C214064   3.916   4.002  16.999 -0.7312 -0.0468 -0.0365
    3TMC3    C314065   3.781   4.026  17.022  0.1893  0.2599  0.4012
    3TMC3    C414066   3.960   4.238  17.026 -0.7544 -0.2069  0.4280
    3TMC3    C514067   3.826   4.255  17.050 -0.0184  0.4626  0.2471
    3TMC3    C614068   3.736   4.151  17.049 -1.3412 -0.1470 -0.4854
    3TMC3     C14069   4.136   4.097  16.968 -0.4523 -0.4492  0.0882
    3TMC3     O14070   4.213   4.187  17.002  0.4388 -0.3887  0.1610
    3TMC3     H14071   3.955   3.902  16.979  2.0022  1.0443 -0.1502
    3TMC3    H114072   4.035   4.315  17.035  0.0485 -0.4559 -4.2813
    3TMC3    H214073   3.635   4.173  17.083 -1.3345 -3.0834  1.3650
    3TMC3    C714074   3.785   4.385  17.077 -0.5216  0.2479 -0.2463
    3TMC3    C814075   3.698   3.910  17.035 -0.6110  0.3905 -0.0115
    3TMC3    O114076   3.863   4.472  17.124 -0.1993 -0.1472 -0.2788
    3TMC3    O214077   3.759   3.809  17.049 -0.2421  0.0691  0.2089
    4MPD1     C14078   3.237   3.680  17.035 -0.2917 -0.0093 -0.7551
    4MPD1    C114079   3.216   3.810  16.994  0.4036  0.3461 -0.0896
    4MPD1    C214080   3.330   3.893  16.981 -0.1319  0.5332  0.0687
    4MPD1    C314081   3.457   3.848  17.020  0.5900 -0.0471  0.4841
    4MPD1    C414082   3.463   3.730  17.095  0.9531 -0.2770 -0.1702
    4MPD1    C514083   3.357   3.646  17.087  0.0813  0.2427 -0.0792
    4MPD1     H14084   3.320   3.988  16.929 -0.1610  0.1399 -0.6406
    4MPD1    H114085   3.553   3.689  17.140  1.7839  1.1620 -0.5279
    4MPD1    H214086   3.154   3.610  17.031  0.1640 -0.5089 -1.3132
    4MPD1    H314087   3.380   3.548  17.127 -1.4434 -1.3263 -3.0124
    4MPD1     N14088   3.570   3.934  16.997  0.0441 -0.2449 -0.4000
    4MPD1    H514089   3.551   4.016  16.940 -0.4999  0.1191  0.3187
    4MPD1    N114090   3.088   3.836  16.936 -0.5373 -0.2771 -0.8413
    4MPD1    H614091   3.062   3.932  16.918 -0.1055 -0.0760 -0.3826
    4MPD1    H714092   3.015   3.785  16.984  0.7290 -0.1747  1.1858
    1TCq1    O114093   4.105   3.836  11.856 -0.9649 -0.1104  0.0384
    1TCq1    C114094   4.229   3.885  11.879  0.1787 -0.3878 -0.0393
    1TCq1    O214095   4.281   3.894  11.990  0.7218 -1.0198  0.4549
    1TCq1    C214096   4.244   3.988  11.783  0.6989 -0.4283 -0.6825
    1TCq1    C314097   4.175   3.970  11.669 -0.0161  0.0991  0.8125
    1TCq1    C414098   4.125   4.081  11.602  0.7946 -1.0429  0.0392
    1TCq1    C514099   4.122   4.200  11.668 -0.3301  0.1570 -0.3715
    1TCq1    C614100   4.181   4.215  11.787 -0.1042 -0.2702  0.0909
    1TCq1    C714101   4.256   4.112  11.844  0.6050  0.2373  0.7824
    1TCq1    C814102   4.161   4.327  11.876 -0.0664 -0.3896  0.8605
    1TCq1    O414103   4.250   4.342  11.961  0.0618  0.5032 -0.8775
    1TCq1    C914104   4.045   4.055  11.488  0.4925 -0.1614  0.1997
    1TCq1    O514105   3.995   4.155  11.426 -0.1970  0.2261 -0.2524
    1TCq1    O614106   4.020   3.935  11.461  0.9153  0.1799 -0.3390
    1TCq1    H114107   4.084   3.829  11.760 -1.7526 -0.3387  0.2266
    1TCq1    H214108   4.190   3.876  11.616 -2.1929  1.2737 -1.9004
    1TCq1    H314109   4.070   4.280  11.616  0.8791  0.2191 -1.5011
    1TCq1    H414110   4.296   4.120  11.944 -0.5513 -2.1090  1.4305
    2MPD1     C14111   3.897   4.722  12.063 -0.1051 -0.3799  0.3278
    2MPD1    C114112   3.848   4.688  11.940  0.7017  0.5199 -0.0268
    2MPD1    C214113   3.889   4.570  11.876  0.1556  0.0096 -0.7728
    2MPD1    C314114   3.986   4.493  11.936  0.4335 -0.1681 -0.5865
    2MPD1    C414115   4.036   4.536  12.057 -0.0173  0.0081 -0.1490
    2MPD1    C514116   3.985   4.639  12.123 -0.0182 -0.5146 -0.0543
    2MPD1     H14117   3.847   4.548  11.779 -1.1235 -0.4708 -0.1199
    2MPD1    H114118   4.107   4.474  12.110  0.1051  0.9168  0.7391
    2MPD1    H214119   3.875   0.074  12.116  1.3273  0.0926  0.1028
    2MPD1    H314120   4.013   4.654  12.226 -1.6844 -0.9691  0.4730
    2MPD1     N14121   4.039   4.383  11.861 -0.0133  0.0035 -0.2464
    2MPD1    H514122   3.977   4.339  11.793 -2.0783  1.1785  0.8610
    2MPD1    N114123   3.737   0.018  11.893 -0.6252  0.2737 -1.0290
    2MPD1    H614124   3.713   0.020  11.794 -0.9612 -0.7688 -0.9622
    2MPD1    H714125   3.731   0.114  11.928 -1.5198 -0.3556  0.5519
    1TMC1    C114126   2.915   1.343   0.502 -0.7865  0.0185 -0.4317
    1TMC1    C214127   2.962   1.422   0.603 -0.6029 -0.5200  0.1031
    1TMC1    C314128   3.028   1.538   0.562 -0.3923  0.2902 -1.3057
    1TMC1    C414129   2.954   1.354   0.374  0.5953  0.2605 -0.6868
    1TMC1    C514130   3.036   1.460   0.346  0.3351 -0.0638  0.5072
    1TMC1    C614131   3.074   1.555   0.438  0.5083  0.0285  0.2507
    1TMC1     C14132   2.822   1.234   0.533 -0.4410  0.3160  0.6698
    1TMC1     O14133   2.750   1.190   0.444  0.1149  0.0144 -0.6332
    1TMC1     H14134   2.939   1.413   0.708 -0.1628  0.3862  0.2807
    1TMC1    H114135   2.933   1.271   0.307 -1.4288 -0.6264  1.0400
    1TMC1    H214136   3.140   1.634   0.407 -0.4601  1.4222  1.7067
    1TMC1    C714137   3.056   1.501   0.215 -0.1770 -0.3487  0.1838
    1TMC1    C814138   3.054   1.632   0.671 -0.1608  0.3954 -0.1032
    1TMC1    O114139   3.139   1.585   0.192 -0.1200 -0.2381  0.0551
    1TMC1    O214140   3.040   1.593   0.786 -0.0363  0.1217  0.6898
    1TMC1    O314141   2.958   1.466   0.134 -0.4299  0.7740 -0.2300
    1TMC1    H314142   2.892   1.404   0.171 -1.7652  1.8868 -0.7646
    1TMC1    O514143   3.062   1.763   0.622 -0.3699  0.1814 -0.0256
    1TMC1    H514144   3.061   1.781   0.525 -0.6969  1.9075  0.3124
    2MPD1     C14145   2.535   1.014   0.889 -0.7639  0.3520  0.2771
    2MPD1    C114146   2.649   1.066   0.946 -0.2107  0.1874  0.6337
    2MPD1    C214147   2.764   1.096   0.864 -0.3669 -0.0412 -0.0523
    2MPD1    C314148   2.745   1.109   0.728 -0.5873  0.0815  0.0306
    2MPD1    C414149   2.628   1.059   0.679 -0.1043  0.1048  1.1873
    2MPD1    C514150   2.534   1.002   0.755  0.0098  0.6030  0.3707
    2MPD1     H14151   2.862   1.122   0.904 -0.6609 -0.6670  1.0619
    2MPD1    H114152   2.606   1.055   0.573 -1.0716 -1.1967  1.4339
    2MPD1    H214153   2.458   0.972   0.953  1.1047  0.2662  2.4626
    2MPD1    H314154   2.444   0.964   0.708  0.5005 -0.5523  0.3519
    2MPD1     N14155   2.844   1.183   0.658  0.0994  0.0962 -0.0579
    2MPD1    H514156   2.926   1.212   0.710  0.5567  0.0471 -0.7678
    2MPD1    N114157   2.662   1.039   1.080 -0.2102 -0.1998  0.0633
    2MPD1    H614158   2.585   1.067   1.141 -1.7374 -2.9708 -0.5780
    2MPD1    H714159   2.743   1.082   1.123 -0.7944  1.4396 -0.4828
    1MPD1     C14160   0.447   3.853  12.497  0.5439  0.0446  0.4774
    1MPD1    C114161   0.374   3.910  12.396  0.5879  0.2301 -0.6118
    1MPD1    C214162   0.432   3.996  12.304  0.0833  0.1225 -0.1858
    1MPD1    C314163   0.571   4.002  12.293 -0.4168  0.2824  0.1113
    1MPD1    C414164   0.646   3.935  12.386  0.3947  0.6856  0.9870
    1MPD1    C514165   0.585   3.863  12.490  0.1498  0.5389  0.1579
    1MPD1     H14166   0.379   4.069  12.245  3.2255 -0.5419 -3.8696
    1MPD1    H114167   0.754   3.941  12.396  0.2706  1.0948  2.1130
    1MPD1    H214168   0.406   3.808  12.586  2.6441 -1.0180  0.9063
    1MPD1    H314169   0.646   3.822  12.570 -1.6339  1.2122  1.8666
    1MPD1     N14170   0.629   4.084  12.196  0.0227 -0.5947  0.6827
    1MPD1    H514171   0.563   4.149  12.156  1.3518 -1.1387 -2.3860
    1MPD1    N114172   0.239   3.912  12.407  0.2363 -0.3010 -0.0298
    1MPD1    H614173   0.194   3.914  12.316  0.5934  0.0366 -0.2019
    1MPD1    H714174   0.204   3.836  12.464 -0.5126 -0.9340 -1.3313
    2MPD1     C14175   4.683   0.041  11.814  0.0589 -0.1407  0.2592
    2MPD1    C114176   4.735   4.657  11.838 -0.8008  0.1298 -0.2263
    2MPD1    C214177   0.049   4.588  11.730 -0.8734  0.0823  0.1853
    2MPD1    C314178   0.086   4.658  11.611  0.3064  0.2517  0.3203
    2MPD1    C414179   0.052   0.052  11.600  0.0946  0.4611 -0.6485
    2MPD1    C514180   4.726   0.112  11.703  0.1290  0.7403  0.0959
    2MPD1     H14181   0.064   4.480  11.732  1.1312  0.3354 -0.7771
    2MPD1    H114182   0.072   0.118  11.516  0.8076  0.7581 -0.2449
    2MPD1    H214183   4.617   0.094  11.881 -0.7076  1.0226 -1.4147
    2MPD1    H314184   4.706   0.217  11.690  0.5176  0.7540 -0.4217
    2MPD1     N14185   0.141   4.600  11.503 -0.5952  0.0222 -0.2384
    2MPD1    H514186   0.159   4.656  11.421 -0.6691  0.7909  0.2607
    2MPD1    N114187   4.684   4.587  11.948 -0.1643 -0.1265 -0.0796
    2MPD1    H614188   4.712   4.494  11.976  0.2350 -0.5324 -1.8115
    2MPD1    H714189   4.683   4.645  12.031 -0.4439 -1.1461  0.6290
    3MPD1     C14190   4.612   3.730  11.116  0.7260  0.1428 -0.9590
    3MPD1    C114191   4.639   3.761  11.245  0.7376 -0.1313 -0.3670
    3MPD1    C214192   4.711   3.872  11.265  0.6920 -0.3775  0.1639
    3MPD1    C314193   0.002   3.959  11.167 -0.6712  0.2906  0.1585
    3MPD1    C414194   4.718   3.926  11.033 -0.2446  0.3228 -0.6521
    3MPD1    C514195   4.659   3.803  11.008 -0.5524  0.0651  0.7628
    3MPD1     H14196   4.736   3.902  11.366 -0.9897 -1.1494  0.8059
    3MPD1    H114197   0.021   3.979  10.949  1.8506 -1.3743 -0.6636
    3MPD1    H214198   4.541   3.649  11.098 -0.7286  1.4164 -0.9995
    3MPD1    H314199   4.644   3.776  10.904 -1.3581  2.3393  0.2781
    3MPD1     N14200   0.070   4.082  11.196  0.4870  0.4614  0.0022
    3MPD1    H514201   0.090   4.101  11.294 -1.1862 -1.0010  0.6176
    3MPD1    N114202   4.574   3.693  11.346 -0.0185 -0.2482 -0.3928
    3MPD1    H614203   4.582   3.596  11.315  1.4413  0.5393 -2.4802
    3MPD1    H714204   4.620   3.704  11.437 -1.2992 -0.2029  0.2428
    4MPD2     C14205   0.723   0.095  11.999 -0.6408 -0.0024 -0.6771
    4MPD2    C114206   0.769   0.001  11.914  0.1730 -0.6308 -0.7350
    4MPD2    C214207   0.846   0.028  11.805  0.1690 -1.4678 -0.6029
    4MPD2    C314208   0.873   0.160  11.765 -0.2158  0.4391  0.3831
    4MPD2    C414209   0.820   0.259  11.849  0.0146 -0.6893 -0.1873
    4MPD2    C514210   0.756   0.224  11.968 -0.3551  0.4589  0.6939
    4MPD2     H14211   0.885   4.689  11.741  2.5340  0.6121 -1.7547
    4MPD2    H114212   0.828   0.365  11.829 -1.0801 -0.4437  0.7312
    4MPD2    H214213   0.666   0.077  12.089  0.3228 -0.5491 -0.1663
    4MPD2    H314214   0.726   0.305  12.034  0.7242  1.1748  0.3098
    4MPD2     N14215   0.951   0.191  11.656  0.8379 -0.1618  0.3543
    4MPD2    H514216   0.946   0.288  11.627 -0.4714 -0.2021  0.4216
    4MPD2    N114217   0.741   4.607  11.928 -0.5299  0.2824  0.1041
    4MPD2    H714218   0.791   4.549  11.861  2.0262 -0.2513  2.4826
    5TMC3    C114219   0.672   4.399  11.995 -0.1452  1.1438 -0.1586
    5TMC3    C214220   0.694   4.314  12.102  0.6285 -0.6062 -0.3114
    5TMC3    C314221   0.776   4.212  12.075 -0.6275  0.1738  0.5002
    5TMC3    C414222   0.728   4.373  11.874 -0.9625 -0.4525  0.0881
    5TMC3    C514223   0.808   4.265  11.857 -0.6563  0.2312 -1.1352
    5TMC3    C614224   0.847   4.187  11.962 -1.3338  0.1998  0.0736
    5TMC3     C14225   0.674   4.542  12.025 -0.0926 -0.5587  0.0567
    5TMC3     O14226   0.623   4.580  12.131 -0.2544 -1.0625  0.1162
    5TMC3     H14227   0.678   4.342  12.205 -0.8078  2.8798 -1.4674
    5TMC3    H114228   0.685   4.426  11.790 -1.9408 -2.1383 -0.4915
    5TMC3    H214229   0.901   4.094  11.948  0.9191  1.5974 -0.5324
    5TMC3    C714230   0.911   4.317  11.773 -0.4240 -0.6587  0.7498
    5TMC3    C814231   0.761   4.096  12.164  0.2731  0.2405 -0.1553
    5TMC3    O114232   0.900   4.435  11.748 -0.4065 -0.3379  0.4398
    5TMC3    O214233   0.849   4.015  12.187  0.3630  0.0730  0.0345
    6TMC3    C114234   0.200   4.433  11.343 -0.2093  0.7032  0.1420
    6TMC3    C214235   0.139   4.326  11.293  0.1561 -0.1238  0.3823
    6TMC3    C314236   0.175   4.294  11.165  0.5252 -0.5027 -0.7899
    6TMC3    C414237   0.272   4.522  11.268  0.2787 -0.6610  0.0778
    6TMC3    C514238   0.305   4.482  11.138  1.1332 -1.2804 -0.7973
    6TMC3    C614239   0.256   4.373  11.084 -0.2470 -0.0505  0.1466
    6TMC3     C14240   0.162   4.465  11.484  1.0999  0.0523  0.6617
    6TMC3     O14241   0.142   4.367  11.559 -0.0149  0.1619 -0.1679
    6TMC3     H14242   0.071   4.269  11.355  0.8521  2.9662  4.0067
    6TMC3    H114243   0.295   4.624  11.294 -0.3224 -0.8649  1.4149
    6TMC3    H214244   0.255   4.364  10.976 -0.0781  0.6828  0.0841
    6TMC3    C714245   0.378   4.566  11.049 -0.6099 -0.3970 -0.0578
    6TMC3    C814246   0.105   4.180  11.102  0.2486 -0.3357  0.5569
    6TMC3    O114247   0.363   4.553  10.930 -0.7687 -0.0980  0.5995
    6TMC3    O214248   0.087   4.185  10.982  0.0844 -0.1825 -0.0579
    7MPD2     C14249   1.263   4.329  11.394 -0.0742  0.4752  0.4811
    7MPD2    C114250   1.203   4.427  11.469  0.6430  0.3038 -0.3139
    7MPD2    C214251   1.134   4.389  11.585  0.3317  0.4330 -0.5159
    7MPD2    C314252   1.099   4.258  11.614  0.1163  0.7997  0.7603
    7MPD2    C414253   1.159   4.161  11.532 -0.1703 -0.6697  0.3723
    7MPD2    C514254   1.240   4.196  11.428 -0.0784  0.0283  0.5225
    7MPD2     H14255   1.099   4.461  11.659 -1.5573 -0.4318 -0.5967
    7MPD2    H114256   1.137   4.056  11.549 -2.8302 -0.0028  1.0265
    7MPD2    H214257   1.320   4.349  11.304  3.3842  0.0578  2.5945
    7MPD2    H314258   1.282   4.113  11.374 -0.8077  0.2445 -0.3747
    7MPD2     N14259   1.001   4.227  11.717  0.0298  0.4527  0.0663
    7MPD2    H514260   0.985   4.127  11.719  0.1434  0.4245 -0.4255
    7MPD2    N114261   1.218   4.569  11.452 -0.4392 -0.0492 -0.4289
    7MPD2    H714262   1.182   4.629  11.525 -0.9068  0.4795 -1.0823
    8TMC3    C114263   1.258   0.023  11.344  0.5504 -0.8048  0.3137
    8TMC3    C214264   1.196   0.074  11.235 -0.0123 -0.4493  0.1543
    8TMC3    C314265   1.086   0.147  11.257 -0.8000  0.4585  0.7257
    8TMC3    C414266   1.221   0.060  11.465 -0.2594  0.2073  0.0398
    8TMC3    C514267   1.114   0.144  11.482  0.3743  0.6421  0.3741
    8TMC3    C614268   1.040   0.183  11.379 -0.5787 -0.0691  0.0476
    8TMC3     C14269   1.286   4.627  11.341 -0.0235 -1.1077  0.0108
    8TMC3     O14270   1.337   4.565  11.247 -0.2345  0.7307  0.3341
    8TMC3     H14271   1.228   0.055  11.133 -2.6091 -0.0474 -0.7343
    8TMC3    H114272   1.281   0.034  11.551  0.3165 -0.7240 -0.6432
    8TMC3    H214273   0.942   0.228  11.395 -0.0958  0.0941  2.4884
    8TMC3    C714274   1.042   0.105  11.602  1.1521  0.2969  0.8978
    8TMC3    C814275   0.996   0.151  11.149 -0.2138  0.8735  0.2996
    8TMC3    O114276   1.090   0.012  11.655  0.4869  0.2780 -0.4276
    8TMC3    O214277   1.041   0.158  11.034  0.2726  0.4736  0.3236
    9MPD2     C14278   0.764   0.116  10.971  0.1349  0.7949  0.2342
    9MPD2    C114279   0.760   0.081  11.105 -0.1420 -0.3491  0.3697
    9MPD2    C214280   0.653   0.015  11.148 -0.0280  0.3964 -0.4785
    9MPD2    C314281   0.546   4.731  11.068  0.1330  0.2573 -0.3116
    9MPD2    C414282   0.547   0.028  10.935  0.0559 -0.0334  0.5590
    9MPD2    C514283   0.660   0.094  10.887 -0.0071 -0.4734 -0.1357
    9MPD2     H14284   0.655   4.726  11.252  0.1362  1.7564 -0.0970
    9MPD2    H114285   0.457   0.009  10.877 -0.7007 -2.8115  2.6711
    9MPD2    H214286   0.840   0.175  10.922  0.3866  0.1786 -0.1175
    9MPD2    H314287   0.663   0.142  10.789 -1.4240  0.2309  0.1670
    9MPD2     N14288   0.452   4.646  11.128  0.4625  0.0439  0.0145
    9MPD2    H514289   0.464   4.608  11.221  2.2616 -1.3015 -0.7969
    9MPD2    N114290   0.875   0.099  11.184  0.0241  0.9384 -0.2291
    9MPD2    H714291   0.874   0.057  11.276 -1.1023  0.3178 -0.5351
    1MPD1     C14292   4.597   2.248  15.358 -0.3268  0.1563 -0.0316
    1MPD1    C114293   4.659   2.187  15.471 -0.4832 -0.2616  0.1343
    1MPD1    C214294   4.705   2.273  15.572  0.7852 -1.1413  0.4985
    1MPD1    C314295   4.712   2.414  15.555  0.2659 -0.2759  0.6164
    1MPD1    C414296   4.643   2.462  15.449  0.6823 -0.2956 -0.4517
    1MPD1    C514297   4.592   2.386  15.351 -0.3920  0.2606 -0.7480
    1MPD1     H14298   4.738   2.236  15.669  2.9001 -0.7792 -0.0762
    1MPD1    H114299   4.651   2.567  15.421 -1.6639  0.2941  1.1248
    1MPD1    H214300   4.556   2.179  15.285  0.6547 -0.0059 -0.4286
    1MPD1    H314301   4.550   2.427  15.259 -0.9964  1.4292  0.0563
    1MPD1     N14302   0.020   2.502  15.651 -0.1126  0.4965 -0.1990
    1MPD1    H514303   0.010   2.601  15.627  1.0516  0.7192  0.2130
    1MPD1    N114304   4.641   2.052  15.500  0.4834 -0.4301 -0.8804
    1MPD1    H614305   4.621   2.004  15.412  1.3265  0.1100 -1.3639
    1MPD1    H714306   4.711   2.004  15.556  0.6178  0.4144 -0.3189
    2TMC2    C114307   0.328   2.767  15.760  0.8429 -0.0348 -0.1071
    2TMC2    C214308   0.386   2.750  15.879 -0.1903 -0.6034 -0.0499
    2TMC2    C314309   0.336   2.651  15.957  0.4703  0.3286 -0.2086
    2TMC2    C414310   0.230   2.693  15.714  0.8464  0.0022 -0.4588
    2TMC2    C514311   0.184   2.589  15.795 -0.7761 -0.2738 -0.4497
    2TMC2    C614312   0.228   2.582  15.924 -0.0746 -0.3485  0.2428
    2TMC2     C14313   0.373   2.879  15.681 -0.1861 -0.1014 -0.5161
    2TMC2     O14314   0.331   2.879  15.569  0.1791  0.1729  0.4282
    2TMC2     H14315   0.474   2.803  15.913  0.7331 -2.4052  0.3460
    2TMC2    H114316   0.203   2.699  15.609  0.6067  1.8626 -0.2746
    2TMC2    H214317   0.190   2.498  15.981  2.1611 -1.8423 -0.4823
    2TMC2    C714318   0.127   2.467  15.739 -0.6196  0.0241 -0.0132
    2TMC2    C814319   0.373   2.632  16.095 -0.3018 -0.2586  0.3712
    2TMC2    O114320   0.163   2.356  15.780 -0.1502 -0.3059  0.5045
    2TMC2    O214321   0.371   2.522  16.145 -0.4442  0.5486 -0.1345
    2TMC2    O514322   0.316   2.744  16.141 -0.5934  0.3827  0.3919
    2TMC2    H514323   0.323   2.818  16.077 -2.2711  0.6960  0.5560
    3MPD1     C14324   0.632   3.315  15.596 -0.4145 -0.1201 -0.2497
    3MPD1    C114325   0.632   3.289  15.736  0.9051  0.1881  0.0772
    3MPD1    C214326   0.576   3.169  15.782 -0.3335 -0.0017 -0.4824
    3MPD1    C314327   0.496   3.091  15.699 -0.3095  0.5862  0.3357
    3MPD1    C414328   0.489   3.118  15.561 -0.3339  0.4389 -0.4954
    3MPD1    C514329   0.559   3.227  15.514 -0.1763 -0.0557 -0.3526
    3MPD1     H14330   0.589   3.136  15.885 -0.0493  0.2157 -0.4489
    3MPD1    H114331   0.430   3.063  15.489 -0.9646 -0.1005  0.4346
    3MPD1    H214332   0.687   3.393  15.545 -3.1044  2.9864  1.5742
    3MPD1    H314333   0.585   3.221  15.409  0.2467  0.0613 -0.2549
    3MPD1     N14334   0.439   2.973  15.754  0.1089 -0.4312  0.2273
    3MPD1    H514335   0.463   2.956  15.851  1.9322  0.4645 -0.0695
    3MPD1    N114336   0.707   3.374  15.824  0.2484  0.4530 -0.2523
    3MPD1    H614337   0.707   3.472  15.795 -0.9565  0.5960  0.1962
    3MPD1    H714338   0.642   3.377  15.903  1.4017  0.6600  0.6767
    1TMC1    C114339   2.918   2.063  13.104 -0.2893  0.0295 -0.3531
    1TMC1    C214340   2.917   2.181  13.171  0.0416 -0.2083 -0.4029
    1TMC1    C314341   2.804   2.254  13.174  0.3664  0.5883  0.6521
    1TMC1    C414342   2.803   2.013  13.049  0.0894 -0.9716  0.7373
    1TMC1    C514343   2.694   2.092  13.062  0.1387  1.1215  0.9877
    1TMC1    C614344   2.685   2.216  13.114  0.2636  0.2367 -0.1005
    1TMC1     C14345   3.034   1.976  13.104 -0.0255  0.5959 -0.6146
    1TMC1     O14346   3.031   1.872  13.036 -0.1348 -0.3523  0.2182
    1TMC1     H14347   3.005   2.228  13.215 -0.4450  0.6881 -0.3776
    1TMC1    H114348   2.798   1.911  13.014  0.6832 -0.0961 -1.9039
    1TMC1    H214349   2.596   2.277  13.104 -1.3472 -1.7927  1.9554
    1TMC1    C714350   2.573   2.035  13.007  0.4347  0.2845  0.5546
    1TMC1    C814351   2.787   2.349  13.283 -0.5393 -0.3536 -0.6392
    1TMC1    O114352   2.510   1.946  13.060  0.1487  0.3015 -0.4189
    1TMC1    O214353   2.859   2.445  13.306  0.1007 -0.2512  0.1891
    1TMC1    O314354   2.521   2.132  12.933 -0.0772  0.5439 -0.1082
    1TMC1    H314355   2.582   2.202  12.902  1.3614 -0.5263  0.2811
    1TMC1    O514356   2.691   2.302  13.372  0.6734  0.0858 -0.7291
    1TMC1    H514357   2.667   2.208  13.362  1.0346 -0.1116  0.1855
    2MPD2     C14358   3.316   1.882  13.136  0.4370  0.1046 -0.0862
    2MPD2    C114359   3.248   1.956  13.231 -0.4958 -0.4574  0.1379
    2MPD2    C214360   3.299   1.959  13.359  0.6432 -0.1318  0.3998
    2MPD2    C314361   3.407   1.885  13.385 -0.6217  0.3233 -0.7413
    2MPD2    C414362   3.471   1.818  13.286  0.0978  0.5122  0.1262
    2MPD2    C514363   3.430   1.825  13.159  0.6591  0.4148 -0.2478
    2MPD2     H14364   3.244   2.016  13.432 -0.9762 -2.9072  1.3279
    2MPD2    H114365   3.551   1.749  13.308 -1.3134 -0.5562  1.8678
    2MPD2    H214366   3.282   1.881  13.033 -0.3445 -0.9073  0.1816
    2MPD2    H314367   3.483   1.760  13.090  0.8099  1.6845 -1.3282
    2MPD2     N14368   3.438   1.882  13.522  0.6424  0.2281  0.3212
    2MPD2    H514369   3.367   1.917  13.585  1.3624 -1.5916  2.1270
    2MPD2    N114370   3.121   2.007  13.208  0.5538  0.1521  0.3484
    2MPD2    H714371   3.086   2.060  13.287 -0.2649  0.7172 -0.3907
    3TCq1    O114372   3.800   1.728  14.075 -0.0167 -0.2956 -0.1327
    3TCq1    C114373   3.781   1.671  13.955  0.2791 -0.1173 -0.5706
    3TCq1    O214374   3.863   1.604  13.895  0.3246  0.1506  0.1588
    3TCq1    C214375   3.674   1.749  13.898  0.6620 -0.0213  1.0081
    3TCq1    C314376   3.572   1.774  13.977 -0.1119  0.2277  0.1512
    3TCq1    C414377   3.470   1.847  13.916  0.0147  0.5183  0.1510
    3TCq1    C514378   3.476   1.891  13.790 -0.8254 -0.7083 -0.4701
    3TCq1    C614379   3.578   1.848  13.711 -0.3724  0.0268  0.0513
    3TCq1    C714380   3.671   1.765  13.763  0.3371 -0.3022  0.0374
    3TCq1    C814381   3.559   1.845  13.565 -0.1922  0.0592  0.4634
    3TCq1    O414382   3.654   1.801  13.503 -0.2497  0.5847 -0.1887
    3TCq1    C914383   3.350   1.877  13.996 -0.0031  0.0572 -0.3625
    3TCq1    O514384   3.337   1.824  14.109  0.1662  0.4180 -0.3506
    3TCq1    O614385   3.264   1.951  13.942  0.1123 -0.3170  0.1779
    3TCq1    H114386   3.741   1.806  14.087 -0.2028 -0.1199 -2.2290
    3TCq1    H214387   3.562   1.745  14.081  1.2496  0.3437  0.3196
    3TCq1    H314388   3.408   1.969  13.755  1.9058  1.2047 -1.5203
    3TCq1    H414389   3.753   1.737  13.698 -1.4334 -1.8595 -1.5082
    1MPD2     C14390   2.723   3.371  14.697 -0.0273  0.6775  0.0461
    1MPD2    C114391   2.648   3.426  14.596 -0.3542  0.0098 -0.0774
    1MPD2    C214392   2.518   3.385  14.581  0.3182 -0.0264 -0.6388
    1MPD2    C314393   2.458   3.285  14.650  0.3971  0.2939  0.4368
    1MPD2    C414394   2.535   3.222  14.742  0.5431  0.3679  0.4413
    1MPD2    C514395   2.670   3.258  14.762 -0.5954 -0.9572  0.5179
    1MPD2     H14396   2.453   3.423  14.502  0.6874 -0.3152 -1.0836
    1MPD2    H114397   2.491   3.149  14.809  1.0040 -0.2915  0.0216
    1MPD2    H214398   2.825   3.405  14.712  0.5317 -0.1346 -1.8985
    1MPD2    H314399   2.729   3.211  14.839  2.9916  1.5047 -0.7196
    1MPD2     N14400   2.320   3.285  14.625 -0.3908 -0.3193  0.9912
    1MPD2    H514401   2.289   3.364  14.569  0.0793 -0.9307 -0.1262
    1MPD2    N114402   2.711   3.516  14.510 -0.1196 -0.0754  0.3346
    1MPD2    H714403   2.804   3.547  14.533  0.0276 -1.8657  2.1784
    2TMC3    C114404   2.742   3.651  14.322  0.1095  0.0976 -0.3462
    2TMC3    C214405   2.721   3.656  14.188 -0.1932 -0.4907  0.2306
    2TMC3    C314406   2.701   3.779  14.135 -0.2507  0.5329  0.8394
    2TMC3    C414407   2.793   3.754  14.401 -0.2500 -0.5892 -0.1362
    2TMC3    C514408   2.788   3.878  14.340 -0.5799  0.2978  0.2916
    2TMC3    C614409   2.737   3.886  14.212  0.7167  0.2218  0.0370
    2TMC3     C14410   2.661   3.550  14.390  0.1467  0.1011  0.3317
    2TMC3     O14411   2.569   3.495  14.332  0.1734  0.1768 -0.9503
    2TMC3     H14412   2.681   3.569  14.137 -1.6859 -0.7689  1.8704
    2TMC3    H114413   2.792   3.745  14.509  0.8679  3.5159  0.2298
    2TMC3    H214414   2.709   3.980  14.166  3.3770 -0.0407 -2.1404
    2TMC3    C714415   2.799   4.007  14.410 -0.0575 -0.3274 -0.0920
    2TMC3    C814416   2.580   3.802  14.067  0.5225  0.0968 -0.2759
    2TMC3    O114417   2.763   4.109  14.351  0.0681  0.0313  0.1702
    2TMC3    O214418   2.575   3.876  13.967  0.3467 -0.1115  0.6654
    3TCq1    O114419   3.537   3.902  15.151 -0.0942  0.3422 -0.0823
    3TCq1    C114420   3.405   3.888  15.150  0.2624  0.6709 -0.2641
    3TCq1    O214421   3.350   3.809  15.073 -0.1066 -0.1948  0.2372
    3TCq1    C214422   3.350   4.016  15.180  0.7193  0.3392  0.6119
    3TCq1    C314423   3.357   4.049  15.309 -0.3779 -0.7099  1.0863
    3TCq1    C414424   3.261   4.137  15.359 -0.2300 -0.1831  0.3319
    3TCq1    C514425   3.148   4.177  15.294  0.3168  0.7340  0.0182
    3TCq1    C614426   3.146   4.135  15.164 -0.4599  0.5701 -0.5444
    3TCq1    C714427   3.244   4.054  15.106  0.4522  0.3137 -0.0999
    3TCq1    C814428   3.031   4.174  15.083 -0.5082  0.3538 -0.3935
    3TCq1    O414429   2.961   4.265  15.130 -0.3279  0.2466 -0.2321
    3TCq1    C914430   3.254   4.161  15.505 -0.2452  0.2443  0.5283
    3TCq1    O514431   3.143   4.208  15.552 -0.7475 -0.1602  0.4251
    3TCq1    O614432   3.336   4.093  15.573  0.4247  0.1996  0.2828
    3TCq1    H114433   3.574   3.988  15.182  1.4151 -1.0890  2.0730
    3TCq1    H214434   3.427   4.002  15.377  0.9222 -2.5730 -1.5614
    3TCq1    H314435   3.076   4.234  15.352 -0.5508 -2.0498  1.6840
    3TCq1    H414436   3.232   4.022  15.003 -0.3254 -2.2385  0.7919
    4MPD2     C14437   2.895   4.284  14.838  0.8259  0.0369  0.1472
    4MPD2    C114438   2.944   4.151  14.852 -0.3305  0.5983 -0.2744
    4MPD2    C214439   2.926   4.063  14.748  0.0209 -0.1667 -0.0188
    4MPD2    C314440   2.868   4.098  14.633 -0.0761 -0.2667 -0.1642
    4MPD2    C414441   2.824   4.226  14.620  0.0871  0.6787  0.2973
    4MPD2    C514442   2.829   4.311  14.725 -0.4986  0.2165 -0.5268
    4MPD2     H14443   2.953   3.958  14.757  1.0282  0.1026  0.1057
    4MPD2    H114444   2.796   4.262  14.521 -0.2282 -2.7058 -0.8579
    4MPD2    H214445   2.893   4.354  14.921  1.8054  0.2625 -0.0221
    4MPD2    H314446   2.789   4.409  14.700  0.6601  0.6768 -0.5937
    4MPD2     N14447   2.857   4.000  14.530 -0.4079  0.4247  0.2683
    4MPD2    H514448   2.892   3.907  14.553  0.7581  1.0445  1.0270
    4MPD2    N114449   3.023   4.109  14.963 -0.1834 -0.1781  0.3709
    4MPD2    H714450   3.054   4.013  14.957  0.1398 -0.0467  0.0116
    5TMC2    C114451   2.033   3.381  14.461 -0.3933  0.4583 -0.3748
    5TMC2    C214452   2.010   3.271  14.379  0.4428 -0.2015 -0.5138
    5TMC2    C314453   2.032   3.141  14.429 -0.8909  0.0738 -0.0894
    5TMC2    C414454   2.075   3.359  14.586 -0.3789  0.3800  0.0750
    5TMC2    C514455   2.094   3.232  14.635  0.3358  0.1753 -0.4805
    5TMC2    C614456   2.066   3.118  14.557 -0.1055 -0.2887 -0.4674
    5TMC2     C14457   2.114   3.468  14.394 -0.3956  0.1867 -0.0870
    5TMC2     O14458   2.220   3.484  14.455  0.1187  0.6148  0.0935
    5TMC2     H14459   1.978   3.281  14.276 -1.0547 -2.2441 -0.2598
    5TMC2    H114460   2.118   3.442  14.641  1.7506  0.1755 -1.3045
    5TMC2    H214461   2.067   3.023  14.608 -0.6655  0.1593  0.3787
    5TMC2    C714462   2.226   3.205  14.688  0.3651 -0.9636 -0.3050
    5TMC2    C814463   2.033   3.031  14.340 -0.2698 -0.1037 -0.0700
    5TMC2    O114464   2.233   3.126  14.780 -0.0913 -0.3391 -0.0865
    5TMC2    O214465   1.955   3.031  14.247  0.2466 -0.8971  0.2769
    5TMC2    O514466   2.171   3.021  14.320 -0.1849  0.6885 -0.0626
    5TMC2    H514467   2.230   3.053  14.391  2.2316 -1.9261 -0.8684
    6MPD2     C14468   2.285   3.739  13.996  0.1965  0.5227  0.5814
    6MPD2    C114469   2.350   3.692  14.110 -0.3422  0.5576 -0.2750
    6MPD2    C214470   2.283   3.610  14.199 -0.0872  0.7450  0.7398
    6MPD2    C314471   2.149   3.586  14.182  0.6552  0.7249  0.1238
    6MPD2    C414472   2.086   3.634  14.070  0.5926  0.2951 -0.4031
    6MPD2    C514473   2.153   3.705  13.976  0.2601 -0.2854 -0.3430
    6MPD2     H14474   2.334   3.585  14.291  0.9947  1.9755  0.4701
    6MPD2    H114475   1.978   3.625  14.069  0.5801  0.1115  1.9569
    6MPD2    H214476   2.324   3.809  13.923  1.0717 -1.3987 -0.7761
    6MPD2    H314477   2.098   3.755  13.897  1.5725  1.9884  0.1991
    6MPD2     N14478   2.069   3.507  14.274  0.4944 -0.1089  0.1613
    6MPD2    H514479   1.973   3.487  14.250 -0.1142  1.1046  1.6310
    6MPD2    N114480   2.485   3.725  14.137 -0.0291 -0.1735  0.7136
    6MPD2    H714481   2.523   3.678  14.219 -0.9374 -2.1251  0.0061
  945NH3     N114482   0.826   1.077  13.859 -0.3949 -0.1141 -0.2269
  945NH3     H214483   0.806   1.032  13.948 -0.6727  0.9994  0.2742
  945NH3     H314484   0.842   1.176  13.877 -0.8841 -0.2548  0.9627
  945NH3     H414485   0.919   1.040  13.844 -1.0342 -0.8986 -2.1629
  946SOD     NA14486   0.739   0.150   9.010  0.1477 -0.0115 -0.3154
  947SOD     NA14487   3.115   3.294  11.943 -0.0005 -0.1721  0.1527
  948SOD     NA14488   1.271   1.225  10.575 -0.4877 -0.2931  0.4609
  949SOD     NA14489   0.747   2.558  16.356  0.1728  0.0854  0.5810
  950SOD     NA14490   0.475   3.189   4.939 -0.5725 -0.1058 -0.1801
  951SOD     NA14491   3.901   3.822  11.298 -0.0316 -0.2807  0.6612
  952SOD     NA14492   3.229   4.032  15.744  0.4940  0.4264  0.4056
  953SOD     NA14493   3.535   4.141  15.685  0.1057 -0.1748  0.3045
  954SOL     OW14494   4.725   2.912  14.779 -0.4777 -0.2815  0.3224
  954SOL    HW114495   4.654   2.866  14.822 -0.7240  0.6834  0.9587
  954SOL    HW214496   0.053   2.845  14.779 -0.2048 -0.0175 -1.1365
  955SOL     OW14497   0.095   0.115  12.562  0.0134  0.1270  0.1773
  955SOL    HW114498   0.049   0.195  12.538 -1.4195 -1.2261 -1.5588
  955SOL    HW214499   0.034   0.050  12.528  0.1929 -0.8719  1.7182
  956SOL     OW14500   0.406   0.319   5.870 -0.2550  0.1248 -0.4873
  956SOL    HW114501   0.383   0.234   5.909  0.1841 -0.0110 -0.5223
  956SOL    HW214502   0.418   0.370   5.950 -0.8158 -3.4962  1.8870
  957SOL     OW14503   3.430   3.227   7.573 -0.3639  0.0107 -0.2334
  957SOL    HW114504   3.514   3.212   7.618 -0.0859  2.4736  0.0848
  957SOL    HW214505   3.415   3.140   7.535  0.1966  0.0912 -0.6360
  958SOL     OW14506   2.916   2.303   7.801 -0.0509 -0.1420  0.1596
  958SOL    HW114507   2.824   2.293   7.826 -0.3743  0.6878 -0.7210
  958SOL    HW214508   2.930   2.216   7.762  1.1487 -0.6783  1.7714
  959SOL     OW14509   3.935   3.138  15.747  0.1056 -0.6331  0.3051
  959SOL    HW114510   3.871   3.068  15.758 -0.6145 -0.1617 -0.9181
  959SOL    HW214511   3.978   3.126  15.831 -2.3523 -0.1098  1.6518
  960SOL     OW14512   3.847   3.822   4.664 -0.7578  0.2892 -0.6481
  960SOL    HW114513   3.909   3.785   4.601 -2.3874 -0.1498 -2.0096
  960SOL    HW214514   3.787   3.747   4.668  0.5055 -0.6012  1.5009
  961SOL     OW14515   1.698   3.037   4.049  0.6391 -0.6505 -0.1776
  961SOL    HW114516   1.743   3.084   3.979  2.2070 -1.5894  0.1966
  961SOL    HW214517   1.638   3.099   4.090  1.8340  1.2295 -1.2892
  962SOL     OW14518   0.812   0.291   4.698  0.2202  0.2302 -0.3011
  962SOL    HW114519   0.805   0.295   4.793  0.8507 -0.0609 -0.2483
  962SOL    HW214520   0.727   0.331   4.677 -0.1378  1.4205  3.4870
  963SOL     OW14521   0.779   2.528  11.890 -0.1928  0.2516  0.0420
  963SOL    HW114522   0.848   2.590  11.864 -0.8511  1.8079  1.9746
  963SOL    HW214523   0.734   2.527  11.805  0.0172 -2.4484 -0.0218
  964SOL     OW14524   1.354   2.509   4.756 -0.2438  0.0113 -0.0265
  964SOL    HW114525   1.290   2.508   4.827 -2.3556 -1.0370 -1.9174
  964SOL    HW214526   1.371   2.414   4.755 -0.7849 -0.0891  0.2050
  965SOL     OW14527   4.533   4.466   2.408 -0.7026 -0.3658 -0.1553
  965SOL    HW114528   4.521   4.510   2.324 -1.6041  0.9131  0.6477
  965SOL    HW214529   4.441   4.468   2.434 -0.7855  1.0973 -0.5876
  966SOL     OW14530   3.491   1.806   0.086  0.6197 -0.3164 -0.4247
  966SOL    HW114531   3.418   1.828   0.144  1.6365 -2.5032  1.7211
  966SOL    HW214532   3.557   1.778   0.150 -1.1165 -1.6430  0.8110
  967SOL     OW14533   2.074   0.655   4.948  0.3984 -0.2551 -0.5044
  967SOL    HW114534   2.026   0.737   4.935  0.2923 -0.3989 -1.0103
  967SOL    HW214535   2.003   0.603   4.985  1.2635 -1.7054 -0.9070
  968SOL     OW14536   1.796   3.102   3.259 -0.2796 -0.4010 -0.1722
  968SOL    HW114537   1.709   3.109   3.297  0.2971  0.5540  0.9915
  968SOL    HW214538   1.805   3.180   3.204 -0.1479 -0.6967 -0.5696
  969SOL     OW14539   0.984   2.354  13.934  0.0238  0.4725  0.0491
  969SOL    HW114540   1.055   2.293  13.919 -0.5232 -0.4193  1.0644
  969SOL    HW214541   0.972   2.394  13.848 -2.1608 -0.8008 -0.2549
  970SOL     OW14542   1.328   2.845   7.740  0.3928  0.0590  0.5262
  970SOL    HW114543   1.273   2.829   7.664 -0.8007 -1.5994  1.7456
  970SOL    HW214544   1.344   2.757   7.775  0.4194 -0.1593 -0.0425
  971SOL     OW14545   1.777   1.234   0.820 -0.0377 -0.2806  0.0179
  971SOL    HW114546   1.721   1.219   0.744  0.1734 -1.2551  0.0555
  971SOL    HW214547   1.817   1.147   0.827  0.6724  0.1027  0.7417
  972SOL     OW14548   0.355   1.544  16.696 -0.1524 -0.0056 -0.7432
  972SOL    HW114549   0.370   1.618  16.638  1.0347 -1.4526 -2.2862
  972SOL    HW214550   0.334   1.596  16.774 -0.0238 -0.1366 -0.6190
  973SOL     OW14551   0.174   0.697  15.443 -0.0438 -0.3100 -0.1256
  973SOL    HW114552   0.135   0.631  15.500 -2.6368  0.4505 -1.0245
  973SOL    HW214553   0.218   0.754  15.508  0.7424  1.0544 -1.8507
  974SOL     OW14554   1.409   4.186   6.473  0.5835 -0.1592 -0.0755
  974SOL    HW114555   1.360   4.265   6.493 -0.8296 -0.4563 -2.4080
  974SOL    HW214556   1.389   4.127   6.546  0.2467  0.8104  0.6129
  975SOL     OW14557   1.510   0.507   6.692 -0.0392 -0.1863  0.5927
  975SOL    HW114558   1.542   0.469   6.611 -0.2587  1.7495 -0.3980
  975SOL    HW214559   1.579   0.561   6.731  0.8808  0.1091 -1.5017
  976SOL     OW14560   0.519   3.876   3.550  0.2265 -0.0200  0.3104
  976SOL    HW114561   0.430   3.876   3.515  0.1856  0.0026  0.4153
  976SOL    HW214562   0.496   3.830   3.631  0.1827 -0.5558 -0.0058
  977SOL     OW14563   0.428   3.751   3.759  0.5154 -0.1467 -0.1756
  977SOL    HW114564   0.384   3.741   3.843  1.4374 -2.0200  0.0858
  977SOL    HW214565   0.357   3.719   3.704  1.5391 -0.9778 -1.0196
  978SOL     OW14566   3.445   0.657   8.547 -0.1176  0.0994 -0.1667
  978SOL    HW114567   3.433   0.588   8.612  1.9385  0.6647  0.8022
  978SOL    HW214568   3.456   0.734   8.603 -2.2307 -2.2766  3.4976
  979SOL     OW14569   0.600   2.504  11.663 -0.2427 -0.2489 -0.5388
  979SOL    HW114570   0.523   2.450  11.650 -0.9588  0.9412 -1.2810
  979SOL    HW214571   0.632   2.513  11.573  0.7513 -0.5463 -0.2146
  980SOL     OW14572   1.250   1.764   0.897  0.3946 -0.3077 -0.3509
  980SOL    HW114573   1.190   1.689   0.903 -0.7828  0.4524 -2.4590
  980SOL    HW214574   1.295   1.759   0.981 -1.1679  0.4138  0.5376
  981SOL     OW14575   2.909   1.161   3.313 -0.0726 -0.4598  0.3845
  981SOL    HW114576   2.916   1.067   3.327  3.6210  0.0105  1.5332
  981SOL    HW214577   2.814   1.166   3.297 -0.0521  1.4089  0.8482
  982SOL     OW14578   0.639   4.486   7.493  0.1086 -0.4967  0.4044
  982SOL    HW114579   0.719   4.460   7.539  1.0782  0.6351 -0.6495
  982SOL    HW214580   0.673   4.552   7.432 -0.1398 -0.1157  0.6796
  983SOL     OW14581   0.919   1.419   9.271 -0.5525 -0.3828  0.4954
  983SOL    HW114582   0.882   1.428   9.359  0.9633  0.3656  1.0545
  983SOL    HW214583   0.848   1.368   9.231 -1.1740  2.6822 -2.2513
  984SOL     OW14584   4.720   0.254   4.182 -0.6327  0.1129 -0.4739
  984SOL    HW114585   0.016   0.260   4.094 -0.6159  0.8717 -0.4195
  984SOL    HW214586   0.007   0.325   4.240  2.0472 -0.2466 -1.2672
  985SOL     OW14587   1.547   3.812   8.229 -0.4253  0.2650  0.0610
  985SOL    HW114588   1.577   3.744   8.169 -2.1637 -0.3147 -0.1531
  985SOL    HW214589   1.630   3.854   8.253  0.7332 -1.1931 -1.3806
  986SOL     OW14590   0.628   4.591   6.621 -0.6666  0.7799  0.6785
  986SOL    HW114591   0.708   4.601   6.673 -0.3136 -0.9585  0.4753
  986SOL    HW214592   0.666   4.529   6.559 -0.0069  2.2386 -0.3727
  987SOL     OW14593   2.377   0.014   6.211 -0.2076  0.4634  0.4620
  987SOL    HW114594   2.293   0.042   6.173 -0.7412 -2.7818 -0.7997
  987SOL    HW214595   2.357   4.671   6.256 -0.3643  0.1592 -0.1705
  988SOL     OW14596   4.673   4.001   7.178 -0.7447  0.4987  1.2149
  988SOL    HW114597   0.004   4.057   7.147 -1.5183  0.1505 -1.1306
  988SOL    HW214598   4.624   4.067   7.227  2.4356  2.7540  1.3526
  989SOL     OW14599   3.333   0.216  15.506  0.4980  0.2035  0.0016
  989SOL    HW114600   3.323   0.121  15.501  2.5527  0.0147 -0.4822
  989SOL    HW214601   3.294   0.248  15.588 -0.5053  1.2782 -0.8779
  990SOL     OW14602   3.238   0.588  14.970 -0.1742 -0.4858 -0.0404
  990SOL    HW114603   3.233   0.587  14.874 -2.0076 -1.8788  0.0728
  990SOL    HW214604   3.326   0.622  14.986 -0.9104  0.2559  2.3782
  991SOL     OW14605   0.963   3.110   5.454 -0.1897  0.0318  0.3468
  991SOL    HW114606   1.055   3.083   5.452  0.1642  1.1801  0.9232
  991SOL    HW214607   0.959   3.191   5.504  3.0622  0.8533 -0.7543
  992SOL     OW14608   1.216   4.548   7.614 -0.0854 -0.7616 -0.0244
  992SOL    HW114609   1.145   4.526   7.674 -0.0109  1.8773  1.0425
  992SOL    HW214610   1.237   4.462   7.579  1.5973 -0.5990  0.5392
  993SOL     OW14611   0.381   1.154   6.739  0.2943  0.3684  0.1759
  993SOL    HW114612   0.426   1.071   6.723 -1.7149 -0.6434 -0.2634
  993SOL    HW214613   0.397   1.158   6.833 -1.2775 -0.8153  0.5007
  994SOL     OW14614   1.891   3.469   5.639  0.0197  0.1008  0.5668
  994SOL    HW114615   1.905   3.376   5.652  0.5801  0.1082 -0.0177
  994SOL    HW214616   1.977   3.504   5.619  0.6412 -2.8118 -1.7077
  995SOL     OW14617   0.423   2.373   9.261 -0.2503  0.2184  0.5298
  995SOL    HW114618   0.423   2.432   9.337  1.1598  2.3444 -1.1227
  995SOL    HW214619   0.437   2.290   9.307 -0.2719  0.4059  0.8805
  996SOL     OW14620   4.382   3.890  10.305 -0.5292  0.2283  0.1366
  996SOL    HW114621   4.307   3.902  10.362 -0.5386 -4.3004  1.0701
  996SOL    HW214622   4.371   3.963  10.245 -1.5086 -0.1054 -0.0945
  997SOL     OW14623   0.844   0.668   6.595  0.2497 -0.7743 -0.3698
  997SOL    HW114624   0.876   0.747   6.551  1.8417 -2.1769 -1.7294
  997SOL    HW214625   0.900   0.650   6.670  0.3613 -1.7477 -0.6855
  998SOL     OW14626   1.416   1.853   4.402 -0.3148  0.3146  0.2089
  998SOL    HW114627   1.327   1.850   4.438 -0.5377 -0.8218 -0.4543
  998SOL    HW214628   1.464   1.843   4.485  2.0697  0.4763 -1.1674
  999SOL     OW14629   4.440   1.013   5.197  0.4122 -0.2256  0.2439
  999SOL    HW114630   4.498   0.940   5.175 -0.5268 -1.1765  0.9645
  999SOL    HW214631   4.487   1.080   5.148 -0.6506  0.1818 -0.1946
 1000SOL     OW14632   2.610   0.332   3.964 -0.1388  0.4510 -0.2096
 1000SOL    HW114633   2.551   0.361   4.033 -1.6332 -0.1822 -1.2080
 1000SOL    HW214634   2.547   0.348   3.893  0.1216 -3.2158 -1.2889
 1001SOL     OW14635   1.642   2.563   9.241 -0.1076 -0.4005 -0.4796
 1001SOL    HW114636   1.675   2.535   9.326 -0.9748 -0.0676 -0.0392
 1001SOL    HW214637   1.555   2.585   9.275 -0.0622  1.5680 -1.6049
 1002SOL     OW14638   0.880   1.641   6.966 -0.3200 -0.3605 -0.4129
 1002SOL    HW114639   0.951   1.655   6.902  0.8459 -1.1739  0.7106
 1002SOL    HW214640   0.803   1.653   6.911 -0.8135  0.5443  0.4879
 1003SOL     OW14641   0.594   0.923   5.145  0.2536  0.3361 -0.1952
 1003SOL    HW114642   0.534   0.942   5.073 -2.1333  0.9325  1.9526
 1003SOL    HW214643   0.533   0.949   5.214  0.8390 -2.2873  1.2790
 1004SOL     OW14644   2.322   4.353   9.105 -0.1125  0.4761  0.1814
 1004SOL    HW114645   2.257   4.336   9.037  0.1180 -0.7776  0.2720
 1004SOL    HW214646   2.341   4.268   9.144 -0.1126  1.3726  2.1303
 1005SOL     OW14647   4.520   4.649   6.021 -0.0346 -0.0794  0.1188
 1005SOL    HW114648   4.539   4.670   6.113 -0.9648  1.2531  0.0188
 1005SOL    HW214649   4.507   4.735   5.981  0.8183 -1.6170 -3.3812
 1006SOL     OW14650   2.629   0.668  15.281 -0.1864 -0.3913 -0.4169
 1006SOL    HW114651   2.712   0.632  15.310 -0.7845 -1.8574 -0.5078
 1006SOL    HW214652   2.647   0.725  15.207  1.0421 -1.1284 -0.6704
 1007SOL     OW14653   0.794   3.265   8.213  0.4600  0.4179  0.7363
 1007SOL    HW114654   0.773   3.222   8.295 -0.1836  1.2058  0.9872
 1007SOL    HW214655   0.867   3.209   8.189 -0.8278 -1.6807  1.7344
 1008SOL     OW14656   0.442   0.730   8.378  0.0529 -0.5127  0.8121
 1008SOL    HW114657   0.431   0.641   8.410  0.6717 -1.2903 -1.1301
 1008SOL    HW214658   0.517   0.719   8.319 -0.8876  0.5824 -0.6058
 1009SOL     OW14659   0.048   1.042   7.478  0.5738  0.5303  0.1266
 1009SOL    HW114660   0.134   1.001   7.475  1.1894  1.9242 -1.0155
 1009SOL    HW214661   0.004   0.964   7.512  0.0584  0.8497  0.1919
 1010SOL     OW14662   0.870   0.299  13.738 -0.0150  0.6858 -0.8549
 1010SOL    HW114663   0.793   0.319  13.685 -2.0832  0.7983  2.1470
 1010SOL    HW214664   0.828   0.231  13.791  0.3831  0.8963 -0.2662
 1011SOL     OW14665   4.553   1.650   5.713  0.6856 -0.0974  0.1159
 1011SOL    HW114666   4.591   1.700   5.641  0.0209 -0.8507 -0.7528
 1011SOL    HW214667   4.511   1.575   5.670  0.6900 -0.0040 -0.0534
 1012SOL     OW14668   1.886   1.343  10.875  0.0459  0.3616 -0.2321
 1012SOL    HW114669   1.976   1.323  10.850  1.2344  2.8294  1.9960
 1012SOL    HW214670   1.877   1.296  10.958 -0.2878 -0.2306 -0.6128
 1013SOL     OW14671   1.026   3.909   3.158 -0.3699  0.0569 -0.4745
 1013SOL    HW114672   1.092   3.840   3.142  0.3346  0.2282  1.7493
 1013SOL    HW214673   1.043   3.937   3.248 -1.3501 -3.2884  0.7365
 1014SOL     OW14674   1.168   2.774   0.027 -0.1132  0.6255 -0.2545
 1014SOL    HW114675   1.244   2.830   0.009  0.6376 -0.1163  0.6270
 1014SOL    HW214676   1.121   2.776  17.701  1.5661  0.1752 -1.2043
 1015SOL     OW14677   4.440   4.064   2.384  0.5222  0.8516  0.0614
 1015SOL    HW114678   4.504   3.993   2.387 -0.0242  0.3304 -0.8943
 1015SOL    HW214679   4.498   4.129   2.345 -0.4684  1.7755  0.1347
 1016SOL     OW14680   2.108   4.578  16.295  0.2589  0.2552  0.2562
 1016SOL    HW114681   2.108   4.661  16.246  1.8107  0.5614  0.7533
 1016SOL    HW214682   2.106   4.605  16.386 -0.9601 -3.7301  1.4024
 1017SOL     OW14683   1.923   4.036   7.009 -0.2247  0.2185  0.0505
 1017SOL    HW114684   1.968   3.994   6.936  0.5178  0.5526  0.3116
 1017SOL    HW214685   1.834   4.045   6.975  0.6221 -0.8421 -2.4592
 1018SOL     OW14686   0.993   0.543   9.097  0.4648 -0.1391  0.3872
 1018SOL    HW114687   0.990   0.458   9.141 -0.7573 -1.0196 -1.3761
 1018SOL    HW214688   0.994   0.600   9.174 -0.7517  0.3706  0.0261
 1019SOL     OW14689   4.413   3.845  12.398 -0.6123 -0.1445  0.0604
 1019SOL    HW114690   4.413   3.809  12.487 -0.1421  0.5333  0.3369
 1019SOL    HW214691   4.376   3.771  12.351 -0.8264 -0.2841  0.4457
 1020SOL     OW14692   2.202   3.166   5.371  0.0954 -0.3538  0.2672
 1020SOL    HW114693   2.277   3.185   5.315 -0.5776  0.1876 -0.4419
 1020SOL    HW214694   2.232   3.231   5.435 -0.8789 -1.2976  1.6710
 1021SOL     OW14695   2.138   3.001   8.032  0.1850  0.0695 -0.3001
 1021SOL    HW114696   2.102   2.914   8.048  1.0692 -0.3948 -0.8047
 1021SOL    HW214697   2.229   2.972   8.031 -0.2666 -1.3503 -2.1333
 1022SOL     OW14698   0.527   3.819   2.929 -0.3767 -0.5766 -0.0535
 1022SOL    HW114699   0.582   3.888   2.892 -0.9051  0.9950  2.0711
 1022SOL    HW214700   0.451   3.877   2.940  1.4977  1.7358  0.7696
 1023SOL     OW14701   3.360   0.315  13.288  0.5017 -0.3822  0.0819
 1023SOL    HW114702   3.403   0.369  13.354  2.3621 -1.8214  0.0211
 1023SOL    HW214703   3.306   0.257  13.341 -1.3747  0.4602 -0.8924
 1024SOL     OW14704   4.668   1.269   7.320 -0.2944  0.2818 -0.1784
 1024SOL    HW114705   4.703   1.186   7.354 -1.1775 -1.0232 -2.4331
 1024SOL    HW214706   4.739   1.284   7.257 -0.5369  1.1472 -0.2405
 1025SOL     OW14707   0.022   2.355   3.448 -0.2244  0.1620  0.0911
 1025SOL    HW114708   4.738   2.293   3.517  1.6636  2.5575  2.9056
 1025SOL    HW214709   4.677   2.388   3.419  0.0818  2.0008  1.2965
 1026SOL     OW14710   3.476   1.598   9.467 -0.1504  0.1256 -0.0636
 1026SOL    HW114711   3.540   1.603   9.396  1.7598  0.1812  1.6815
 1026SOL    HW214712   3.405   1.656   9.437  1.4644  1.6863 -0.8704
 1027SOL     OW14713   0.713   1.897   0.549  0.8301  0.0772 -0.1386
 1027SOL    HW114714   0.723   1.886   0.643  1.0964 -1.4829 -0.3590
 1027SOL    HW214715   0.670   1.983   0.547 -1.8385 -1.2741 -1.5141
 1028SOL     OW14716   2.648   2.885   2.368 -0.6174  0.6255  0.1433
 1028SOL    HW114717   2.671   2.820   2.435  3.9373  0.1516 -1.8659
 1028SOL    HW214718   2.709   2.953   2.394 -0.3175 -0.2927  1.8295
 1029SOL     OW14719   0.840   3.556  11.982  0.0947 -0.0127  0.4468
 1029SOL    HW114720   0.867   3.643  11.951 -1.5337  0.4899  0.4006
 1029SOL    HW214721   0.892   3.544  12.061  0.8133 -1.0570 -0.1991
 1030SOL     OW14722   1.777   2.350  17.386 -0.6959 -0.4390 -0.1762
 1030SOL    HW114723   1.785   2.372  17.479  1.0632 -0.8897 -0.2312
 1030SOL    HW214724   1.831   2.272  17.375 -0.3391 -0.4009  1.3549
 1031SOL     OW14725   3.640   2.763   4.443 -0.2829 -0.0387 -0.4489
 1031SOL    HW114726   3.601   2.790   4.527  0.6440 -1.2766  0.3830
 1031SOL    HW214727   3.580   2.810   4.385 -0.4741  2.0644  1.4536
 1032SOL     OW14728   2.965   0.249  14.871 -0.3248  1.2078 -0.0617
 1032SOL    HW114729   3.034   0.300  14.829  1.0801 -0.0912  0.6698
 1032SOL    HW214730   2.969   0.288  14.958  1.5071  2.2619 -0.6022
 1033SOL     OW14731   0.495   4.679  10.342 -0.4562  0.2499  0.1022
 1033SOL    HW114732   0.536   4.597  10.313 -2.1933 -0.5398 -0.1268
 1033SOL    HW214733   0.449   4.700  10.261 -0.3660 -2.1711 -0.5855
 1034SOL     OW14734   2.428   3.324  10.524 -0.0654  0.1317  0.1295
 1034SOL    HW114735   2.378   3.310  10.444  0.0002 -1.8424  0.4215
 1034SOL    HW214736   2.363   3.316  10.594 -1.2172 -0.3185 -0.9979
 1035SOL     OW14737   2.951   1.830  11.111  0.1766 -0.2778  0.5827
 1035SOL    HW114738   2.872   1.789  11.076  1.1762 -1.3270 -0.4364
 1035SOL    HW214739   2.922   1.921  11.101 -0.9291 -0.6350  0.5408
 1036SOL     OW14740   0.953   3.590   8.050 -0.3908  0.1225 -0.3655
 1036SOL    HW114741   1.029   3.568   8.104  0.3894  1.0206 -1.0938
 1036SOL    HW214742   0.956   3.686   8.056 -1.1127 -0.0545  2.9143
 1037SOL     OW14743   4.146   0.504   5.162 -0.1299 -0.6354 -0.3375
 1037SOL    HW114744   4.235   0.521   5.132  0.1739 -2.5469 -0.5351
 1037SOL    HW214745   4.113   0.577   5.110  1.0661  0.1231 -0.0231
 1038SOL     OW14746   1.592   1.409  15.221 -0.1696  0.0833 -0.4195
 1038SOL    HW114747   1.597   1.504  15.209 -1.6002  0.0934 -0.9447
 1038SOL    HW214748   1.669   1.384  15.170  0.3257  2.2937 -0.7649
 1039SOL     OW14749   1.363   2.535  16.734 -0.0638  0.3741 -0.2783
 1039SOL    HW114750   1.370   2.597  16.807  3.7448 -0.5768  0.1593
 1039SOL    HW214751   1.295   2.570  16.676  1.3746  2.5170 -0.6649
 1040SOL     OW14752   4.236   2.646  17.403  0.1657  0.5624 -0.1659
 1040SOL    HW114753   4.264   2.718  17.346 -1.6640  1.0371 -0.4685
 1040SOL    HW214754   4.141   2.654  17.396  0.3940  1.9606 -1.7583
 1041SOL     OW14755   2.270   2.851   6.643 -0.2416 -0.2053  0.0794
 1041SOL    HW114756   2.319   2.874   6.564  0.1941 -1.8099 -0.1239
 1041SOL    HW214757   2.314   2.890   6.719 -0.2622  1.3790 -0.7295
 1042SOL     OW14758   4.715   4.245   1.597 -0.6799  0.4145 -0.5060
 1042SOL    HW114759   0.022   4.277   1.520  1.4752 -2.1169 -0.2414
 1042SOL    HW214760   0.011   4.158   1.582 -2.1516 -0.8450  3.1334
 1043SOL     OW14761   2.027   3.862   5.506 -0.2231 -0.0651 -0.1628
 1043SOL    HW114762   1.985   3.946   5.527  2.1006  1.3094 -1.1023
 1043SOL    HW214763   2.018   3.861   5.411  0.8769  0.4605 -0.2738
 1044SOL     OW14764   2.418   0.781   5.334  0.7476  0.2337 -0.4111
 1044SOL    HW114765   2.420   0.750   5.243  0.1089  2.3220 -1.1289
 1044SOL    HW214766   2.448   0.707   5.387 -0.4922 -1.0680 -1.5163
 1045SOL     OW14767   0.461   4.296  10.076  0.3776 -0.4455  0.5081
 1045SOL    HW114768   0.419   4.231  10.020 -1.5904  0.5461  0.7996
 1045SOL    HW214769   0.407   4.371  10.049 -0.9301 -1.6861 -0.3204
 1046SOL     OW14770   4.470   1.610   7.527  0.1611  0.2788  0.3230
 1046SOL    HW114771   4.545   1.608   7.468 -0.3474  1.4585 -0.3563
 1046SOL    HW214772   4.478   1.700   7.560  0.3627  1.0910 -1.9182
 1047SOL     OW14773   1.531   0.085   9.452 -0.2535 -0.4352 -0.1323
 1047SOL    HW114774   1.470   0.149   9.487  1.9982  0.5462  1.9589
 1047SOL    HW214775   1.558   0.040   9.532 -0.5338  0.2341  0.3416
 1048SOL     OW14776   1.207   1.524   4.256  0.8706 -0.1609  0.0213
 1048SOL    HW114777   1.293   1.535   4.298  0.3817  0.1680  0.9330
 1048SOL    HW214778   1.180   1.471   4.331 -0.0077  0.5826  0.2243
 1049SOL     OW14779   1.953   3.935   9.058 -0.2722 -0.1025 -0.4290
 1049SOL    HW114780   1.893   3.952   8.985 -0.2987  0.0015 -0.3829
 1049SOL    HW214781   1.966   4.027   9.082 -2.9786 -0.0498  0.9425
 1050SOL     OW14782   2.908   1.998   4.328  0.0879  0.2057 -0.2945
 1050SOL    HW114783   2.822   2.020   4.364  0.8403  0.3763  1.4085
 1050SOL    HW214784   2.934   1.937   4.397  1.1381 -0.7380 -1.5312
 1051SOL     OW14785   2.771   1.801   8.195  0.0187 -0.1647  0.4653
 1051SOL    HW114786   2.690   1.825   8.151  1.2684  1.8326 -0.7789
 1051SOL    HW214787   2.748   1.806   8.287  0.0495 -0.6670  0.4998
 1052SOL     OW14788   3.455   2.121   0.785  0.8141 -0.0425 -0.1021
 1052SOL    HW114789   3.362   2.115   0.767  0.6178  0.1931  0.8244
 1052SOL    HW214790   3.486   2.183   0.718  0.7784 -0.2898 -0.3455
 1053SOL     OW14791   2.035   1.625  16.392  0.2237 -0.3597  0.1275
 1053SOL    HW114792   2.021   1.551  16.332  0.0258 -1.0654  1.0432
 1053SOL    HW214793   2.099   1.585  16.451 -0.1490 -1.3252 -0.1174
 1054SOL     OW14794   3.179   0.295   6.867 -0.5772 -0.2421 -0.0058
 1054SOL    HW114795   3.182   0.361   6.798  3.3887 -0.9053 -0.4795
 1054SOL    HW214796   3.090   0.312   6.897 -0.4087 -0.3653  0.5542
 1055SOL     OW14797   0.077   2.575   5.819  0.4755  0.5918  0.3461
 1055SOL    HW114798   0.068   2.646   5.883 -2.0043  0.4251  0.1858
 1055SOL    HW214799   0.047   2.618   5.738 -0.8153  0.3846  0.7086
 1056SOL     OW14800   1.752   3.966   9.808  0.1018 -0.1942  0.5687
 1056SOL    HW114801   1.843   3.996   9.799  0.3220 -1.0956 -0.2857
 1056SOL    HW214802   1.750   3.936   9.899  0.7555  3.3048  1.7344
 1057SOL     OW14803   2.646   4.411   3.874  0.2511  0.2168 -0.2740
 1057SOL    HW114804   2.654   4.316   3.870 -2.6513  0.0684 -2.4068
 1057SOL    HW214805   2.699   4.437   3.949  1.1752  0.0132 -0.8595
 1058SOL     OW14806   0.229   2.745   2.179  0.1276 -0.0534 -0.1430
 1058SOL    HW114807   0.236   2.673   2.116 -0.6243  2.1816 -2.8108
 1058SOL    HW214808   0.302   2.712   2.231 -1.3004 -1.9056  0.7169
 1059SOL     OW14809   0.330   1.235   4.539 -0.0697  0.4434  0.2423
 1059SOL    HW114810   0.252   1.258   4.590 -0.3830 -0.6081  0.2293
 1059SOL    HW214811   0.287   1.207   4.458 -0.6875 -1.2060  1.1397
 1060SOL     OW14812   0.966   1.660   1.915  0.0778 -0.1631  0.1088
 1060SOL    HW114813   1.046   1.626   1.874 -0.8827 -2.4844  0.1885
 1060SOL    HW214814   0.997   1.707   1.992  0.9344  1.9640 -1.5431
 1061SOL     OW14815   2.242   1.844   2.900  0.2087  0.4874 -0.4298
 1061SOL    HW114816   2.156   1.861   2.938  0.8398 -1.7126  1.9525
 1061SOL    HW214817   2.253   1.917   2.839  0.0048  2.6617  2.1415
 1062SOL     OW14818   0.931   2.412  16.699  0.1582  0.0871 -0.0901
 1062SOL    HW114819   0.922   2.399  16.605  1.7597 -2.5558  0.1056
 1062SOL    HW214820   1.003   2.352  16.718  0.7683  0.9740  0.3812
 1063SOL     OW14821   1.814   1.243   5.366 -0.3028  0.5208 -0.3888
 1063SOL    HW114822   1.892   1.189   5.377  0.3672  1.3464 -1.0743
 1063SOL    HW214823   1.751   1.200   5.424 -0.2545  1.4078  0.3291
 1064SOL     OW14824   2.432   2.264   6.243  0.0498  0.2119 -0.1052
 1064SOL    HW114825   2.349   2.279   6.289 -0.5110  0.0870 -1.0848
 1064SOL    HW214826   2.461   2.354   6.231  2.3636 -0.2908  1.5279
 1065SOL     OW14827   4.309   3.293  13.901  0.1000  0.6406  0.3369
 1065SOL    HW114828   4.229   3.275  13.850 -0.2959  1.1008  0.8017
 1065SOL    HW214829   4.338   3.377  13.868 -0.2496  0.4661 -0.4164
 1066SOL     OW14830   1.835   1.366   1.644  0.5877 -0.4238  0.8973
 1066SOL    HW114831   1.752   1.410   1.625  1.1991  0.8168  1.0380
 1066SOL    HW214832   1.790   1.286   1.671  0.8765 -1.0716 -0.5796
 1067SOL     OW14833   1.977   2.374   2.472  0.2918  0.0313 -0.7403
 1067SOL    HW114834   2.034   2.297   2.481  2.4168  1.4780 -2.0549
 1067SOL    HW214835   1.905   2.336   2.422 -1.0441  0.9026  0.5114
 1068SOL     OW14836   2.865   0.653   6.376  0.3308  0.2953 -0.3450
 1068SOL    HW114837   2.843   0.681   6.287  0.9679 -0.2906 -0.6930
 1068SOL    HW214838   2.811   0.703   6.436 -1.5505 -0.9656 -0.9877
 1069SOL     OW14839   2.913   4.409  15.754 -0.1375 -0.4335  0.6757
 1069SOL    HW114840   2.819   4.407  15.737  0.3168 -2.2503 -1.6681
 1069SOL    HW214841   2.925   4.351  15.829 -1.1301 -1.6652 -0.1145
 1070SOL     OW14842   3.758   3.376   7.623 -0.0508  0.2472 -0.1122
 1070SOL    HW114843   3.748   3.359   7.717 -0.2384  0.2348 -0.1353
 1070SOL    HW214844   3.734   3.469   7.624  1.8018  0.7353 -0.7312
 1071SOL     OW14845   0.578   0.254   7.230 -0.2185  0.6514  0.1395
 1071SOL    HW114846   0.583   0.240   7.135  0.2205  0.5608  0.1775
 1071SOL    HW214847   0.588   0.349   7.233 -0.6994  0.7118 -0.1155
 1072SOL     OW14848   0.588   0.662   6.432 -0.0426  0.1444  0.6783
 1072SOL    HW114849   0.659   0.675   6.495  0.7013 -1.9138  0.2372
 1072SOL    HW214850   0.586   0.567   6.430  2.5604  0.0471  2.8281
 1073SOL     OW14851   0.533   0.059   2.101 -0.1306  0.1639  0.1919
 1073SOL    HW114852   0.565   0.149   2.096  0.2790  0.0171  0.1553
 1073SOL    HW214853   0.533   0.028   2.191  0.1938 -0.5424 -0.0468
 1074SOL     OW14854   2.881   4.216   5.258 -0.7624  0.4289  0.1488
 1074SOL    HW114855   2.924   4.256   5.183  0.5633 -0.0472  0.6560
 1074SOL    HW214856   2.887   4.287   5.323  0.0699  0.3084  0.2019
 1075SOL     OW14857   4.408   2.851  14.649 -0.0624  0.2256  0.1678
 1075SOL    HW114858   4.454   2.812  14.723  0.7781 -0.3561 -0.6630
 1075SOL    HW214859   4.398   2.938  14.689  0.3293  0.4449 -0.2132
 1076SOL     OW14860   2.249   3.128   3.017 -0.4441 -0.5994  0.6495
 1076SOL    HW114861   2.243   3.141   2.923 -2.0946 -0.5060  0.7588
 1076SOL    HW214862   2.341   3.107   3.034  0.0433  1.1218  0.0544
 1077SOL     OW14863   0.706   0.813   0.645  0.0405  0.1276  0.2012
 1077SOL    HW114864   0.627   0.826   0.696 -1.0772 -1.5997 -1.0829
 1077SOL    HW214865   0.698   0.720   0.623  1.0779 -0.0862  0.7157
 1078SOL     OW14866   3.843   2.737   0.960 -0.1423  0.0974 -0.5706
 1078SOL    HW114867   3.769   2.680   0.978 -1.2721  2.3305  1.8756
 1078SOL    HW214868   3.851   2.707   0.870 -1.5380 -2.9489  0.3314
 1079SOL     OW14869   3.894   2.709  11.591 -0.5863  0.2861  0.6023
 1079SOL    HW114870   3.976   2.716  11.640 -0.0232 -0.6705 -0.1873
 1079SOL    HW214871   3.875   2.615  11.588 -2.2293  0.6485 -0.8392
 1080SOL     OW14872   3.514   4.615  15.645 -0.0883 -0.3462 -0.3465
 1080SOL    HW114873   3.447   4.623  15.577  0.7661  0.1981 -1.1332
 1080SOL    HW214874   3.471   4.673  15.708  0.0726 -0.4448 -0.1462
 1081SOL     OW14875   1.521   3.059   3.713  0.4599 -0.3860  1.3066
 1081SOL    HW114876   1.511   3.036   3.621 -0.3412  0.1016  1.2750
 1081SOL    HW214877   1.567   3.142   3.721 -0.9643  0.2052  3.3582
 1082SOL     OW14878   0.531   1.018  11.407 -0.1458 -0.0035  0.1233
 1082SOL    HW114879   0.609   0.988  11.454  0.5408 -1.4248 -1.9380
 1082SOL    HW214880   0.553   0.984  11.320  1.0862  1.5786 -0.1832
 1083SOL     OW14881   4.503   2.743  15.357  0.4003  0.0440 -0.0754
 1083SOL    HW114882   4.436   2.747  15.425  2.5357  1.2050  1.9770
 1083SOL    HW214883   4.452   2.724  15.278  0.3582 -2.2456  0.5148
 1084SOL     OW14884   4.485   0.411   4.177  0.2248 -0.3916  0.0926
 1084SOL    HW114885   4.482   0.451   4.264 -2.4676 -1.6235  0.5910
 1084SOL    HW214886   4.560   0.351   4.179 -0.5452 -1.3316  1.1851
 1085SOL     OW14887   1.951   3.696   1.056  0.0638  0.1049  0.6004
 1085SOL    HW114888   2.036   3.702   1.014 -1.0489  0.2676 -1.6454
 1085SOL    HW214889   1.968   3.745   1.137  1.8272  2.8621 -1.4215
 1086SOL     OW14890   3.577   2.298   9.383 -0.4115  0.1356  0.5803
 1086SOL    HW114891   3.637   2.240   9.336 -0.1319  2.2898 -1.6967
 1086SOL    HW214892   3.514   2.318   9.314  0.7786  0.3609 -0.4510
 1087SOL     OW14893   3.461   2.889   7.166  0.0590 -0.1262 -0.9864
 1087SOL    HW114894   3.376   2.890   7.123 -1.2437  1.5877  1.5851
 1087SOL    HW214895   3.514   2.940   7.105  1.5369 -0.5919 -0.0930
 1088SOL     OW14896   2.033   2.680   8.563 -0.3954 -0.2803 -0.7384
 1088SOL    HW114897   2.032   2.634   8.647  1.4880 -0.9570 -1.0834
 1088SOL    HW214898   1.943   2.667   8.533 -0.8435  0.4008  0.2939
 1089SOL     OW14899   0.563   2.941   6.892 -0.3237  0.1992  0.4046
 1089SOL    HW114900   0.515   3.018   6.922  0.5206  1.0328 -0.3800
 1089SOL    HW214901   0.484   2.894   6.865 -1.4804  1.3295  1.8065
 1090SOL     OW14902   1.945   2.187  10.308  0.5403  0.0254 -0.1342
 1090SOL    HW114903   1.919   2.108  10.261 -0.4141 -0.5256  1.3231
 1090SOL    HW214904   1.983   2.149  10.387  2.3357  1.7544 -0.1453
 1091SOL     OW14905   0.595   3.520  11.893 -0.1505 -0.7060 -0.0724
 1091SOL    HW114906   0.616   3.538  11.801  0.3692  1.3363  0.4453
 1091SOL    HW214907   0.683   3.508  11.930 -0.3377  1.5405  1.0913
 1092SOL     OW14908   4.673   1.063   0.830  0.0697 -0.9387  0.0753
 1092SOL    HW114909   4.646   0.972   0.813 -1.9890 -0.1207 -0.9982
 1092SOL    HW214910   0.029   1.057   0.829  0.2302  1.5977 -0.0198
 1093SOL     OW14911   1.121   1.118  12.477 -0.4744  0.8417 -0.1051
 1093SOL    HW114912   1.058   1.099  12.546 -1.0771 -1.4260 -1.2942
 1093SOL    HW214913   1.123   1.037  12.427  0.1807  1.4150 -1.0074
 1094SOL     OW14914   2.504   0.886   3.856 -0.2953  0.3536 -0.2426
 1094SOL    HW114915   2.502   0.960   3.918 -2.2645 -0.6498  0.9254
 1094SOL    HW214916   2.418   0.888   3.815 -1.5122 -0.7372  2.2181
 1095SOL     OW14917   4.060   4.665  10.681 -0.1740 -0.0976 -0.5728
 1095SOL    HW114918   4.121   4.623  10.620  0.8584 -0.6459  0.8404
 1095SOL    HW214919   3.975   4.657  10.637  0.1713  2.7039 -1.7470
 1096SOL     OW14920   1.955   2.816   2.617  0.2217 -0.7172 -0.0740
 1096SOL    HW114921   2.024   2.751   2.628  2.3917  1.6498  0.2764
 1096SOL    HW214922   1.888   2.766   2.664 -0.9260  0.9496  0.0594
 1097SOL     OW14923   4.230   0.682  15.178 -0.3259  0.4190  0.3879
 1097SOL    HW114924   4.301   0.732  15.138 -0.3680  0.3760  0.2578
 1097SOL    HW214925   4.181   0.746  15.228 -0.3287  1.3341 -0.7995
 1098SOL     OW14926   3.748   0.221   6.388 -0.0773  0.5932  0.1693
 1098SOL    HW114927   3.680   0.287   6.398 -0.1756  0.4519  0.4311
 1098SOL    HW214928   3.795   0.213   6.471  0.1191 -0.2923 -0.0235
 1099SOL     OW14929   2.559   3.137   6.378  0.1206  0.1916  0.0226
 1099SOL    HW114930   2.626   3.157   6.313 -0.9653  1.0524 -0.8383
 1099SOL    HW214931   2.553   3.041   6.383 -0.4115  0.2059 -0.2462
 1100SOL     OW14932   0.748   1.906   2.706 -0.2765  0.3736 -0.2352
 1100SOL    HW114933   0.791   1.839   2.759  0.0362  0.0591 -0.8875
 1100SOL    HW214934   0.737   1.960   2.784  0.7080 -2.0829  1.6285
 1101SOL     OW14935   0.034   1.711   4.467  0.5215 -0.1855 -0.1335
 1101SOL    HW114936   4.725   1.645   4.517  2.1665 -0.4470  1.1548
 1101SOL    HW214937   0.057   1.762   4.545  1.4149 -0.1724 -0.4047
 1102SOL     OW14938   0.764   2.929  13.400 -0.3967  0.5901  0.1497
 1102SOL    HW114939   0.782   2.937  13.306  1.1032  3.0593  0.6672
 1102SOL    HW214940   0.851   2.910  13.436 -0.9649  1.7669  2.1443
 1103SOL     OW14941   3.524   4.160   4.679 -0.2013  0.1937  0.1284
 1103SOL    HW114942   3.543   4.148   4.585 -0.6738  2.9051 -0.3238
 1103SOL    HW214943   3.509   4.072   4.712 -2.8101  0.2736 -0.8754
 1104SOL     OW14944   3.433   3.401  17.680 -0.0811  0.3177  0.4170
 1104SOL    HW114945   3.402   3.482  17.640 -2.0568  0.0624  1.4031
 1104SOL    HW214946   3.528   3.409  17.690 -0.2210  1.7854  0.5514
 1105SOL     OW14947   3.203   1.760  10.973 -0.0886  0.0395  0.1699
 1105SOL    HW114948   3.200   1.685  10.913  2.1474 -1.0075  1.3612
 1105SOL    HW214949   3.111   1.768  10.997 -0.3761  0.6665 -1.1399
 1106SOL     OW14950   2.161   2.700  16.961  0.7748 -0.2436  0.7944
 1106SOL    HW114951   2.167   2.796  16.960 -2.8296 -0.0432  0.2756
 1106SOL    HW214952   2.087   2.693  17.021  1.4850 -2.3552  1.4221
 1107SOL     OW14953   3.979   1.892  15.371 -0.0258  0.1565 -0.4041
 1107SOL    HW114954   4.009   1.801  15.369 -0.9022 -0.2350  3.3974
 1107SOL    HW214955   4.006   1.945  15.297  0.7197  0.1527 -0.1282
 1108SOL     OW14956   1.685   0.898   5.432 -0.2123  0.0839 -0.4138
 1108SOL    HW114957   1.759   0.959   5.431  0.0725 -0.2366  0.7218
 1108SOL    HW214958   1.665   0.896   5.338  1.2256  3.2573 -0.7795
 1109SOL     OW14959   4.549   1.713  13.679 -0.4721  0.4437  0.3073
 1109SOL    HW114960   4.582   1.802  13.694  0.2887 -0.0626  1.6175
 1109SOL    HW214961   4.463   1.727  13.640  0.2409 -1.1330 -1.8651
 1110SOL     OW14962   1.127   1.512   5.571 -0.2632  0.0108  0.3391
 1110SOL    HW114963   1.137   1.589   5.627  0.9263 -0.1362  0.3170
 1110SOL    HW214964   1.182   1.536   5.496 -1.6899 -1.2727 -1.1087
 1111SOL     OW14965   2.899   2.990  15.590  0.1779  0.2027  0.4328
 1111SOL    HW114966   2.879   3.055  15.523  0.9426  0.4954  0.5001
 1111SOL    HW214967   2.907   2.911  15.536 -1.9995  0.1708  0.1300
 1112SOL     OW14968   3.875   0.463  14.815  0.2128  0.2578 -0.5812
 1112SOL    HW114969   3.845   0.386  14.862 -1.8151  1.5646  0.2256
 1112SOL    HW214970   3.969   0.470  14.831 -0.1587 -1.4440  2.3288
 1113SOL     OW14971   0.031   0.213   3.884 -0.2945  0.2462  0.3020
 1113SOL    HW114972   0.030   0.127   3.926 -0.8786  0.1130  0.0152
 1113SOL    HW214973   0.117   0.221   3.845 -0.2741 -1.7906 -0.0534
 1114SOL     OW14974   1.387   2.305   1.686 -0.1572  0.2537  0.3969
 1114SOL    HW114975   1.459   2.257   1.643  1.5075  1.0912  2.2829
 1114SOL    HW214976   1.307   2.268   1.649 -0.4918  1.7026 -0.3247
 1115SOL     OW14977   1.671   0.347   2.119 -0.4143  0.2523 -0.6044
 1115SOL    HW114978   1.731   0.355   2.192 -1.1934 -1.3627  0.2283
 1115SOL    HW214979   1.585   0.330   2.158  0.3761 -1.5797  0.3550
 1116SOL     OW14980   0.572   1.673   2.998  0.3516  0.2086 -0.5430
 1116SOL    HW114981   0.496   1.718   2.961  0.2763  0.1955 -0.4044
 1116SOL    HW214982   0.539   1.657   3.087  0.9694 -1.5819 -0.6198
 1117SOL     OW14983   3.122   3.060  16.816  0.1065 -0.4727  0.4254
 1117SOL    HW114984   3.215   3.041  16.830  0.6639  0.8271 -1.5296
 1117SOL    HW214985   3.108   3.118  16.890 -0.8616  1.8021 -1.5233
 1118SOL     OW14986   0.078   4.314   5.836  0.6653  0.2983  0.3825
 1118SOL    HW114987   0.098   4.317   5.929 -0.8296 -1.4168  0.7531
 1118SOL    HW214988   4.736   4.362   5.837 -0.3591 -1.4240 -0.6965
 1119SOL     OW14989   4.512   2.578   6.668 -0.2088  1.0114 -0.3177
 1119SOL    HW114990   4.441   2.545   6.614 -1.1145  0.7262  1.0365
 1119SOL    HW214991   4.499   2.666   6.635  0.0135  0.3691 -2.0989
 1120SOL     OW14992   1.704   2.425   2.619  0.4979  0.4203 -0.1186
 1120SOL    HW114993   1.714   2.506   2.670 -0.8897 -0.2143  1.1465
 1120SOL    HW214994   1.794   2.417   2.587 -0.8404  0.1152 -3.8420
 1121SOL     OW14995   3.601   3.764  15.384 -0.3371  0.1957  0.0434
 1121SOL    HW114996   3.662   3.781  15.312 -0.0838  2.0987  0.7022
 1121SOL    HW214997   3.625   3.676  15.412 -0.5240  1.4842  4.2218
 1122SOL     OW14998   1.026   2.169   7.682  0.1668 -0.1828 -0.0970
 1122SOL    HW114999   1.083   2.128   7.617 -0.2512 -0.8860 -0.0213
 1122SOL    HW215000   1.022   2.103   7.751 -0.6743  0.3220  0.3454
 1123SOL     OW15001   1.861   1.108  15.524  0.2021  0.0648 -0.4199
 1123SOL    HW115002   1.767   1.127  15.515 -0.3269 -2.8270 -1.0261
 1123SOL    HW215003   1.893   1.104  15.435 -0.9602 -1.6107 -0.7728
 1124SOL     OW15004   4.095   1.124   8.192 -0.2186  0.0732 -0.3053
 1124SOL    HW115005   4.107   1.129   8.287 -1.9403 -1.5773  0.0136
 1124SOL    HW215006   4.040   1.045   8.185 -1.3188  0.8197 -0.0561
 1125SOL     OW15007   1.370   3.412   8.041  0.3407  0.0265 -0.3592
 1125SOL    HW115008   1.345   3.323   8.017  0.1114  0.4069 -1.5127
 1125SOL    HW215009   1.457   3.410   8.003 -0.5254 -2.2088 -2.2524
 1126SOL     OW15010   0.140   0.779   7.287 -0.4565 -0.6059 -0.4605
 1126SOL    HW115011   0.070   0.838   7.258 -0.5315 -1.1319 -1.3742
 1126SOL    HW215012   0.085   0.700   7.283  0.2719 -1.2806  2.9143
 1127SOL     OW15013   1.113   1.018   3.475  0.2246  0.4195  0.3040
 1127SOL    HW115014   1.203   1.038   3.447  0.6744 -2.6193 -0.4104
 1127SOL    HW215015   1.081   1.100   3.513 -2.5649 -1.0803  1.1895
 1128SOL     OW15016   0.601   0.175   4.523  0.4807  0.3532 -0.0263
 1128SOL    HW115017   0.562   0.092   4.498  0.3079  1.0104 -1.9597
 1128SOL    HW215018   0.622   0.163   4.615 -1.7592  1.0307  0.5915
 1129SOL     OW15019   4.141   0.511  14.613  0.5054  0.2618 -0.7377
 1129SOL    HW115020   4.104   0.501  14.526 -2.7917 -1.9140  0.9079
 1129SOL    HW215021   4.109   0.596  14.644 -0.6754 -0.2123 -0.6438
 1130SOL     OW15022   4.512   2.849   8.490 -0.0858  0.9333 -0.2130
 1130SOL    HW115023   4.515   2.767   8.539 -0.7462  1.8338  1.3405
 1130SOL    HW215024   4.443   2.826   8.427 -2.0860 -1.0213  2.6647
 1131SOL     OW15025   0.439   2.220   5.465 -0.4272 -0.5539  0.1155
 1131SOL    HW115026   0.371   2.279   5.431 -0.2541  0.4754  1.5541
 1131SOL    HW215027   0.394   2.179   5.539  0.3088 -0.7599  0.4522
 1132SOL     OW15028   1.470   3.985   3.303  0.3767  0.0694 -0.2300
 1132SOL    HW115029   1.441   4.017   3.388  1.3248 -0.6431  0.3723
 1132SOL    HW215030   1.457   4.069   3.259 -0.6334 -1.2160 -2.3943
 1133SOL     OW15031   3.801   3.021   1.895 -0.1401 -0.5418  0.5520
 1133SOL    HW115032   3.897   3.021   1.886 -0.2367 -0.6864 -0.4562
 1133SOL    HW215033   3.789   3.083   1.823 -1.9661  0.5351  1.7933
 1134SOL     OW15034   0.027   0.929   1.646 -0.2622 -0.5119  0.2611
 1134SOL    HW115035   4.699   0.996   1.645  1.7415  1.4944 -1.3190
 1134SOL    HW215036   0.068   0.947   1.731  1.9539 -0.2840 -0.8724
 1135SOL     OW15037   1.201   0.101  10.346 -0.5278 -0.2133 -0.1122
 1135SOL    HW115038   1.212   0.191  10.313  0.1855 -0.0874  0.4829
 1135SOL    HW215039   1.280   0.079  10.395 -0.4123  1.6538  0.5455
 1136SOL     OW15040   2.095   2.233   0.876  0.2322  0.0573 -0.2409
 1136SOL    HW115041   2.098   2.139   0.892  1.2730 -0.4203 -3.2343
 1136SOL    HW215042   2.189   2.249   0.878  0.1058  0.7704  0.0150
 1137SOL     OW15043   3.597   3.136  15.189 -0.1371 -0.1673  0.1057
 1137SOL    HW115044   3.648   3.070  15.235  3.0179  0.2841 -2.7964
 1137SOL    HW215045   3.664   3.205  15.182 -0.2522  0.1204  1.9484
 1138SOL     OW15046   2.659   3.570  10.104 -0.0746  0.2553  0.7257
 1138SOL    HW115047   2.750   3.549  10.122 -0.6849 -2.4845  0.6631
 1138SOL    HW215048   2.633   3.604  10.190 -0.1225  0.9668  0.4335
 1139SOL     OW15049   4.671   1.121   5.490 -0.1509  0.2040 -0.2349
 1139SOL    HW115050   0.001   1.176   5.523  1.8372 -3.0748  1.0806
 1139SOL    HW215051   4.597   1.178   5.470  0.4426  0.3559 -1.9080
 1140SOL     OW15052   2.642   1.387   2.250 -0.1881  0.6278 -0.2087
 1140SOL    HW115053   2.626   1.304   2.295 -1.7378  1.0075 -0.0691
 1140SOL    HW215054   2.721   1.415   2.296  0.9479 -1.4472 -0.8823
 1141SOL     OW15055   0.359   2.104  10.141 -0.0031 -0.5279  0.3612
 1141SOL    HW115056   0.303   2.036  10.178 -0.7746 -1.6400 -2.8622
 1141SOL    HW215057   0.291   2.134  10.080 -0.0258  1.1679  1.2173
 1142SOL     OW15058   4.456   1.334   1.609 -0.1638  0.1572 -0.2156
 1142SOL    HW115059   4.516   1.346   1.536 -0.5425 -0.5456 -0.6415
 1142SOL    HW215060   4.489   1.404   1.665 -1.6118 -0.5535  1.5342
 1143SOL     OW15061   1.220   3.927   5.015 -0.2200  1.2198 -0.1014
 1143SOL    HW115062   1.149   3.891   5.069  1.6824 -1.4193  0.6260
 1143SOL    HW215063   1.253   3.991   5.079 -3.3637  0.4229  2.3246
 1144SOL     OW15064   2.893   2.760  15.415 -0.4267 -0.2436  0.1497
 1144SOL    HW115065   2.976   2.774  15.370 -0.7829  1.6534  0.0680
 1144SOL    HW215066   2.830   2.740  15.345 -0.3436 -0.2807  0.0860
 1145SOL     OW15067   0.952   2.522  17.682  0.4883 -0.1961  0.3125
 1145SOL    HW115068   1.002   2.514  17.601  1.2782  1.9794  0.5900
 1145SOL    HW215069   1.020   2.490  17.741  0.1777  0.9583  1.2877
 1146SOL     OW15070   2.215   3.476   3.655 -0.3682 -0.1242 -0.7189
 1146SOL    HW115071   2.252   3.518   3.577  0.3366  1.4367  0.4689
 1146SOL    HW215072   2.246   3.385   3.661  2.7816  0.7996 -3.0128
 1147SOL     OW15073   4.365   3.387  12.069  0.6227  0.1243  0.0702
 1147SOL    HW115074   4.275   3.412  12.091  0.3708 -0.2000 -0.6172
 1147SOL    HW215075   4.372   3.293  12.081 -2.3892 -0.2524 -1.0945
 1148SOL     OW15076   3.634   1.812   7.685  0.2723 -0.1817 -0.5238
 1148SOL    HW115077   3.546   1.841   7.661 -0.4397 -0.6333  1.5213
 1148SOL    HW215078   3.682   1.894   7.693  0.3309 -0.2637  0.0044
 1149SOL     OW15079   2.658   1.560  15.995 -0.2736 -0.0495 -0.1652
 1149SOL    HW115080   2.682   1.500  15.924 -0.8452 -2.2951  1.5456
 1149SOL    HW215081   2.718   1.634  15.985 -1.1458  0.5590 -0.9065
 1150SOL     OW15082   1.307   0.233   8.420  0.8459  0.3828 -0.0409
 1150SOL    HW115083   1.379   0.199   8.473  0.0333  0.7745  1.3164
 1150SOL    HW215084   1.357   0.254   8.341  0.3085 -1.6562 -0.9115
 1151SOL     OW15085   0.804   1.882   6.622 -0.3428 -0.2693  0.1654
 1151SOL    HW115086   0.892   1.918   6.636 -0.2138 -0.4887 -0.0992
 1151SOL    HW215087   0.810   1.791   6.652  0.5575 -0.4352 -0.5237
 1152SOL     OW15088   2.244   3.810  12.437  0.2661  0.1692  0.0101
 1152SOL    HW115089   2.331   3.784  12.467  0.1737  1.4514  1.3965
 1152SOL    HW215090   2.261   3.851  12.352 -1.1380 -0.3487 -0.5193
 1153SOL     OW15091   2.284   0.697   4.520  0.8979 -0.2769 -0.0829
 1153SOL    HW115092   2.361   0.736   4.562  0.1611  3.2354 -1.9703
 1153SOL    HW215093   2.284   0.611   4.562  2.6512 -0.6627 -0.8491
 1154SOL     OW15094   1.613   1.133   4.511  0.3685 -0.1028  0.2409
 1154SOL    HW115095   1.606   1.038   4.522 -0.9262  0.1365  1.4761
 1154SOL    HW215096   1.537   1.171   4.554 -1.3854 -4.2300  0.8253
 1155SOL     OW15097   2.125   1.626  14.775  0.1105  0.0869 -0.1801
 1155SOL    HW115098   2.149   1.574  14.698 -1.7894 -1.1503  0.0608
 1155SOL    HW215099   2.040   1.657  14.744 -0.3212 -0.1728  0.7543
 1156SOL     OW15100   2.005   1.460   5.971 -0.1007 -0.1670  0.3339
 1156SOL    HW115101   2.014   1.555   5.968  2.0114 -0.4096 -0.6819
 1156SOL    HW215102   1.997   1.448   6.066 -0.9484 -0.2598  0.2531
 1157SOL     OW15103   2.997   0.078  17.044  0.0660 -0.0355  0.6004
 1157SOL    HW115104   2.924   0.077  16.982  1.4436  1.4988 -1.0468
 1157SOL    HW215105   3.027   0.169  17.053  0.6903 -0.0786 -1.1189
 1158SOL     OW15106   4.717   2.729   2.383 -0.5636 -0.1524 -0.5843
 1158SOL    HW115107   0.032   2.741   2.305  3.2161  0.7685  2.2067
 1158SOL    HW215108   4.697   2.820   2.405 -1.7182  0.3111 -3.4694
 1159SOL     OW15109   2.771   2.947  16.363  0.2801 -0.3949 -0.9560
 1159SOL    HW115110   2.766   2.862  16.320 -1.9780 -0.2149 -1.0563
 1159SOL    HW215111   2.799   3.004  16.291 -0.7152  1.2070 -0.0932
 1160SOL     OW15112   2.008   4.725   1.132  0.1712  0.4712 -0.4652
 1160SOL    HW115113   2.092   0.000   1.089  0.1688  1.2949 -0.1750
 1160SOL    HW215114   2.031   4.719   1.225  0.8647  1.7719 -0.5512
 1161SOL     OW15115   2.560   3.099   5.542 -0.1542 -0.3000  0.3082
 1161SOL    HW115116   2.509   3.029   5.501 -3.7055  2.3536  0.1681
 1161SOL    HW215117   2.646   3.094   5.501 -0.7815  1.0009 -1.1612
 1162SOL     OW15118   1.009   2.694   8.019  0.3484 -0.6652 -0.1991
 1162SOL    HW115119   0.945   2.693   7.947  0.9902 -3.3155 -0.7188
 1162SOL    HW215120   1.093   2.678   7.977  0.3238 -1.0087 -0.1174
 1163SOL     OW15121   0.143   4.456   8.853 -0.0373  0.6203  0.1609
 1163SOL    HW115122   0.116   4.398   8.924  0.6499  1.6476  1.2617
 1163SOL    HW215123   0.073   4.461   8.789 -0.5962  0.4847  0.7629
 1164SOL     OW15124   1.581   1.095   9.057  0.1120  0.0569  0.2962
 1164SOL    HW115125   1.632   1.164   9.013  0.1454  0.1119  0.4197
 1164SOL    HW215126   1.653   1.047   9.098  0.1408  0.0624  0.2521
 1165SOL     OW15127   4.648   2.515   2.067 -0.6069  0.1628 -0.1447
 1165SOL    HW115128   4.735   2.507   2.028 -0.4777 -0.7702  0.3163
 1165SOL    HW215129   4.654   2.610   2.064 -1.6531  0.2589  0.7408
 1166SOL     OW15130   4.434   4.482   5.447 -0.0632  0.0625 -0.2427
 1166SOL    HW115131   4.423   4.442   5.360 -1.7686 -0.1823  0.0770
 1166SOL    HW215132   4.405   4.566   5.413  1.5087  0.4605 -0.5524
 1167SOL     OW15133   1.319   4.687   4.508 -1.0438 -0.1555 -0.1564
 1167SOL    HW115134   1.251   4.642   4.458 -1.3864 -0.5627  0.6878
 1167SOL    HW215135   1.283   4.696   4.596  2.5622  1.6834  1.1315
 1168SOL     OW15136   1.365   1.862  10.732 -0.0563 -0.1810 -0.0820
 1168SOL    HW115137   1.406   1.948  10.742  1.0153 -0.3812 -2.6431
 1168SOL    HW215138   1.357   1.839  10.824  1.2660  2.8524  0.7786
 1169SOL     OW15139   0.819   1.567   6.602  0.0940  0.2347 -0.0010
 1169SOL    HW115140   0.903   1.527   6.624  0.3793  0.1599 -1.2244
 1169SOL    HW215141   0.757   1.542   6.670  0.1740  1.2825  0.4593
 1170SOL     OW15142   1.878   4.661   8.278  0.9994 -0.1817 -0.1178
 1170SOL    HW115143   1.806   4.604   8.305  1.1607 -0.3987 -0.1519
 1170SOL    HW215144   1.903   4.618   8.196  1.3747 -0.5909  0.2158
 1171SOL     OW15145   1.928   2.863   4.759  0.5223  0.3157  0.3706
 1171SOL    HW115146   1.919   2.878   4.853 -1.3779 -1.8336  0.5247
 1171SOL    HW215147   1.960   2.948   4.728 -0.8425  1.0389  0.9504
 1172SOL     OW15148   2.139   4.587  10.171  0.2591  0.3501 -0.0932
 1172SOL    HW115149   2.116   4.679  10.188 -0.2642 -0.0752  1.5858
 1172SOL    HW215150   2.129   4.590  10.076 -0.2171  1.0675 -0.0246
 1173SOL     OW15151   0.550   4.708   2.978 -0.2387  1.0196  0.2764
 1173SOL    HW115152   0.519   4.701   2.887 -2.8060 -0.8068  1.2528
 1173SOL    HW215153   0.464   4.725   3.017  0.2227 -1.9727  2.6135
 1174SOL     OW15154   3.019   0.645  12.255 -0.1532  0.0414  0.1664
 1174SOL    HW115155   3.046   0.663  12.164  2.9860 -1.2550  0.8356
 1174SOL    HW215156   2.986   0.727  12.293  2.5981  0.5785  1.4046
 1175SOL     OW15157   3.410   4.625   7.320 -0.1410 -0.1934  0.4293
 1175SOL    HW115158   3.485   4.611   7.263  1.0070 -0.9501  2.1311
 1175SOL    HW215159   3.401   4.544   7.370 -0.8887  0.6805  1.7260
 1176SOL     OW15160   3.810   1.291   8.060  0.4735 -0.0393  0.3815
 1176SOL    HW115161   3.781   1.269   8.149 -0.8237  2.1318  0.4892
 1176SOL    HW215162   3.840   1.382   8.058 -1.6815  0.6296 -1.7854
 1177SOL     OW15163   3.932   3.352   2.940  0.7635  0.0855 -0.8560
 1177SOL    HW115164   3.948   3.295   2.866  0.9948 -1.1869  0.1791
 1177SOL    HW215165   4.018   3.394   2.945  1.8783 -2.2533 -0.2724
 1178SOL     OW15166   1.575   4.125   9.686  0.5234 -0.4156  0.0051
 1178SOL    HW115167   1.643   4.087   9.742  1.5660 -0.7681 -1.4785
 1178SOL    HW215168   1.589   4.218   9.707 -0.1847 -0.0067 -1.3861
 1179SOL     OW15169   1.224   3.832   9.022 -0.2542 -0.4061  0.1646
 1179SOL    HW115170   1.238   3.915   8.976  0.1436 -0.3508  0.3928
 1179SOL    HW215171   1.245   3.779   8.945 -0.8388  1.8569 -1.5444
 1180SOL     OW15172   0.427   0.300   3.348  0.1062  0.6559 -0.2830
 1180SOL    HW115173   0.362   0.362   3.315 -0.3169  1.6428  2.3943
 1180SOL    HW215174   0.460   0.349   3.423 -0.3962  0.2168  0.2284
 1181SOL     OW15175   4.091   0.474   6.369 -0.1200  0.6677  0.5079
 1181SOL    HW115176   4.093   0.558   6.324 -0.6833  0.4179  0.0031
 1181SOL    HW215177   4.056   0.417   6.300 -1.7900 -0.0291  1.9300
 1182SOL     OW15178   3.916   0.817   6.035  0.1841 -0.2266  0.2985
 1182SOL    HW115179   3.921   0.911   6.050 -1.1327 -0.2159  0.6686
 1182SOL    HW215180   3.867   0.802   5.954  0.0243 -2.2294  0.7472
 1183SOL     OW15181   4.043   2.148   5.514  0.5637  0.0109  0.2164
 1183SOL    HW115182   4.122   2.098   5.496 -0.0192 -0.6315 -0.5470
 1183SOL    HW215183   4.063   2.180   5.602  0.9161  3.0467 -0.9754
 1184SOL     OW15184   1.885   3.770  15.539 -0.1484  0.4058 -0.4265
 1184SOL    HW115185   1.891   3.675  15.534  2.0871  0.7233 -3.5012
 1184SOL    HW215186   1.790   3.783  15.545 -0.1490  0.9080 -1.6152
 1185SOL     OW15187   3.584   4.356   7.238 -0.3435 -0.0041  0.4798
 1185SOL    HW115188   3.555   4.270   7.208 -1.9325  0.5436  0.4382
 1185SOL    HW215189   3.526   4.353   7.314 -2.6136  1.9229 -1.1381
 1186SOL     OW15190   3.693   3.877   5.523  0.2564  0.1909 -0.0716
 1186SOL    HW115191   3.615   3.933   5.515 -0.7899 -1.1359  0.9533
 1186SOL    HW215192   3.742   3.942   5.472 -0.2169  0.7987  0.2436
 1187SOL     OW15193   1.503   3.980   7.621  0.1301  0.5573 -0.2928
 1187SOL    HW115194   1.565   4.048   7.649  3.0940 -2.6427  0.8925
 1187SOL    HW215195   1.482   3.926   7.697  0.9666 -0.3639 -0.7210
 1188SOL     OW15196   1.631   2.055   6.072 -0.0919 -0.0814  0.1568
 1188SOL    HW115197   1.656   2.016   6.156  0.9211  3.5104  1.5486
 1188SOL    HW215198   1.686   2.006   6.010  1.7491  2.8428 -0.5202
 1189SOL     OW15199   4.421   0.346   7.184  0.2889  0.4199 -0.0432
 1189SOL    HW115200   4.498   0.331   7.240 -0.8547  0.1537  1.4846
 1189SOL    HW215201   4.352   0.319   7.245  0.8366 -2.1456 -0.5730
 1190SOL     OW15202   1.575   2.935  16.985  0.1374 -0.1832  0.3184
 1190SOL    HW115203   1.667   2.946  16.960 -1.0134  1.5400 -3.2379
 1190SOL    HW215204   1.544   2.853  16.948 -1.5584  0.1679  0.9846
 1191SOL     OW15205   2.149   2.301   7.379  0.1815 -0.3017  0.4622
 1191SOL    HW115206   2.110   2.255   7.454 -0.9036  0.6288  0.4516
 1191SOL    HW215207   2.086   2.372   7.371 -0.2250 -0.5929  1.1273
 1192SOL     OW15208   2.458   4.263  14.997  0.0645  0.0738 -0.3634
 1192SOL    HW115209   2.379   4.231  14.954 -0.3291 -2.6948  2.3989
 1192SOL    HW215210   2.515   4.187  14.993  2.6122  1.8131  2.6403
 1193SOL     OW15211   2.862   0.806   1.082  0.4725 -0.2765  0.0382
 1193SOL    HW115212   2.774   0.841   1.097  0.2925  0.0241 -1.6688
 1193SOL    HW215213   2.914   0.878   1.044  0.3505  0.2535  0.8740
 1194SOL     OW15214   1.405   0.661  15.913  0.3306 -0.2691 -0.4132
 1194SOL    HW115215   1.362   0.704  15.839 -0.5254 -0.2084  0.1181
 1194SOL    HW215216   1.375   0.570  15.911  0.9227 -0.4819  0.4099
 1195SOL     OW15217   2.106   4.676   3.793 -0.0741  0.2133 -0.7157
 1195SOL    HW115218   2.196   4.644   3.802 -0.2380  0.8140  3.1807
 1195SOL    HW215219   2.053   4.598   3.777 -0.8286  0.9748 -1.9051
 1196SOL     OW15220   0.946   4.067   6.861  0.4000  0.2168 -0.0692
 1196SOL    HW115221   0.922   4.151   6.899  2.2920 -0.0237  1.6545
 1196SOL    HW215222   0.961   4.082   6.767  2.3573 -0.5642  0.1057
 1197SOL     OW15223   4.097   2.990   9.676  0.3707 -0.2813 -0.2185
 1197SOL    HW115224   4.105   2.989   9.580 -0.3400  0.7303 -0.2968
 1197SOL    HW215225   4.012   2.947   9.683  1.0040 -1.4909 -0.0357
 1198SOL     OW15226   1.181   1.482   0.997 -0.2529  0.6797  0.2666
 1198SOL    HW115227   1.163   1.389   0.998  0.3059  0.5306 -2.1675
 1198SOL    HW215228   1.232   1.499   1.076 -3.4788 -0.4673  2.5962
 1199SOL     OW15229   4.571   1.800   7.326  0.0217  1.0726 -0.6346
 1199SOL    HW115230   4.586   1.846   7.408  1.2916 -0.0103 -0.2580
 1199SOL    HW215231   4.482   1.828   7.303  1.1380  2.7733 -2.9267
 1200SOL     OW15232   1.222   3.001   6.933 -0.1859  0.3378  0.1091
 1200SOL    HW115233   1.142   3.030   6.977  0.0235  1.4603 -0.2430
 1200SOL    HW215234   1.182   2.958   6.858  1.0042 -1.4727  0.5044
 1201SOL     OW15235   4.193   0.078   7.699 -0.2932  0.0036 -0.7248
 1201SOL    HW115236   4.101   0.102   7.696  0.3616  2.4882 -0.7749
 1201SOL    HW215237   4.197   4.732   7.658  2.1972 -0.8482  1.2797
 1202SOL     OW15238   2.630   0.491   5.343 -0.0348 -0.1254  0.5531
 1202SOL    HW115239   2.632   0.424   5.275  0.2976 -0.8840  1.3045
 1202SOL    HW215240   2.581   0.439   5.406  2.8365 -0.4532  2.5202
 1203SOL     OW15241   2.016   4.486  17.461  0.4195  0.2406  0.0943
 1203SOL    HW115242   1.952   4.558  17.457  0.5782  0.2768 -2.0937
 1203SOL    HW215243   1.992   4.444  17.543 -0.3593 -0.2078 -0.3564
 1204SOL     OW15244   4.694   3.995   6.752  0.0868  0.5141 -0.3739
 1204SOL    HW115245   0.015   3.943   6.806 -0.0974  0.2396 -0.4261
 1204SOL    HW215246   4.714   4.086   6.772  0.8922 -0.0520  1.4653
 1205SOL     OW15247   1.411   0.541  14.018  0.4942  0.1612  0.2955
 1205SOL    HW115248   1.370   0.455  14.025 -1.4611  0.9488 -1.4642
 1205SOL    HW215249   1.431   0.538  14.112  1.1002 -2.0442  0.0852
 1206SOL     OW15250   2.487   1.592   8.063  0.6911 -0.0047  0.6103
 1206SOL    HW115251   2.422   1.662   8.070  0.0002 -0.5222 -0.6228
 1206SOL    HW215252   2.437   1.530   8.009  0.5757  1.6333 -1.1425
 1207SOL     OW15253   0.867   1.895   3.297  0.8045  0.3753 -0.3685
 1207SOL    HW115254   0.948   1.844   3.288  0.7025  0.1997 -0.2807
 1207SOL    HW215255   0.868   1.945   3.216  1.0591  0.1896 -0.4826
 1208SOL     OW15256   2.430   2.391   5.315  0.0654 -0.5880  0.4508
 1208SOL    HW115257   2.464   2.460   5.258 -1.4756  0.3441  0.6502
 1208SOL    HW215258   2.339   2.378   5.286 -0.3754  0.0539  1.5347
 1209SOL     OW15259   1.124   2.715  16.963 -0.2513 -0.2906  0.1683
 1209SOL    HW115260   1.094   2.700  16.873 -1.4704 -1.3093  0.7327
 1209SOL    HW215261   1.128   2.623  16.988 -2.5783 -0.3040  0.5720
 1210SOL     OW15262   0.328   2.522   7.244  0.0243  0.1684  0.4302
 1210SOL    HW115263   0.343   2.594   7.306  1.3122 -2.2455  2.9566
 1210SOL    HW215264   0.233   2.523   7.233  0.2688  0.3069 -1.6505
 1211SOL     OW15265   0.594   2.403  16.271  0.2413 -0.4770  0.2347
 1211SOL    HW115266   0.601   2.316  16.231 -2.4508 -0.6710  0.1421
 1211SOL    HW215267   0.516   2.426  16.219  1.9233 -2.1657 -3.0030
 1212SOL     OW15268   2.360   2.572  14.233 -0.4364 -0.3607 -0.1854
 1212SOL    HW115269   2.453   2.595  14.230 -0.3551 -0.6179  0.4529
 1212SOL    HW215270   2.354   2.496  14.176 -0.5895 -1.4127  1.2382
 1213SOL     OW15271   3.225   0.795   3.244  0.2441  0.4963  0.1400
 1213SOL    HW115272   3.157   0.839   3.296  1.1781  1.1609  0.8040
 1213SOL    HW215273   3.235   0.856   3.171  0.0174 -0.8277 -0.9808
 1214SOL     OW15274   3.053   4.348   2.143  0.1196  0.4230 -0.0380
 1214SOL    HW115275   3.089   4.427   2.182 -0.1703 -0.0641  1.2040
 1214SOL    HW215276   3.133   4.297   2.129 -0.5638 -0.8897  0.7935
 1215SOL     OW15277   1.533   1.898  14.420 -0.0677 -0.5304  0.7885
 1215SOL    HW115278   1.602   1.953  14.381  3.0544 -3.1300  2.6795
 1215SOL    HW215279   1.498   1.877  14.334  0.0901  1.8972  0.1086
 1216SOL     OW15280   2.196   3.872   3.074  0.6120  0.2384 -0.3617
 1216SOL    HW115281   2.282   3.865   3.033  1.1906  2.3298  0.4952
 1216SOL    HW215282   2.222   3.894   3.164 -0.2347  2.4246 -0.6675
 1217SOL     OW15283   0.445   2.296   8.704  0.4056  0.3127  0.2029
 1217SOL    HW115284   0.489   2.279   8.620  1.0998 -1.4412  0.9359
 1217SOL    HW215285   0.522   2.335   8.746  0.8672 -1.6692  1.1742
 1218SOL     OW15286   0.151   2.373   4.287 -0.3187  0.1655  0.8875
 1218SOL    HW115287   0.080   2.341   4.231 -0.4972 -0.1710  1.3067
 1218SOL    HW215288   0.111   2.456   4.314 -0.7899 -0.4037  1.9064
 1219SOL     OW15289   3.867   4.630   6.188 -0.1109 -0.8240  0.1397
 1219SOL    HW115290   3.952   4.606   6.225  0.6042  0.5733 -0.5777
 1219SOL    HW215291   3.806   4.563   6.218  0.0636  0.3160  3.0171
 1220SOL     OW15292   2.801   4.310   2.212 -0.6787 -0.3113 -0.2411
 1220SOL    HW115293   2.894   4.288   2.209 -1.2788 -2.8850 -0.0399
 1220SOL    HW215294   2.769   4.232   2.167 -1.8370  0.0910 -0.1272
 1221SOL     OW15295   3.204   3.894   6.343  0.2595 -0.5526  0.0231
 1221SOL    HW115296   3.128   3.843   6.369 -0.6224  0.1084 -1.2323
 1221SOL    HW215297   3.248   3.887   6.427  2.5843  0.6847 -1.0880
 1222SOL     OW15298   0.346   2.288   6.118 -0.8798 -0.1508 -0.6467
 1222SOL    HW115299   0.343   2.203   6.073 -0.5486 -0.2993 -0.3927
 1222SOL    HW215300   0.322   2.254   6.204 -2.8846  1.3170 -0.6293
 1223SOL     OW15301   0.626   0.489   4.590 -0.2600 -0.1394 -0.2964
 1223SOL    HW115302   0.563   0.477   4.519  1.2560 -1.7025 -1.3653
 1223SOL    HW215303   0.569   0.491   4.667  0.1335 -1.8845  0.0238
 1224SOL     OW15304   1.631   2.576   3.837 -0.0684  0.1973 -0.4782
 1224SOL    HW115305   1.644   2.670   3.823  4.1224 -0.2659  0.1654
 1224SOL    HW215306   1.600   2.554   3.749 -2.6728 -0.3351  0.5721
 1225SOL     OW15307   4.048   2.348   9.048  0.0796  0.2453 -0.1626
 1225SOL    HW115308   4.009   2.419   8.997 -2.0620  0.9116  2.4191
 1225SOL    HW215309   4.067   2.385   9.134 -0.1560 -2.2656  0.9540
 1226SOL     OW15310   2.873   1.110  11.010 -0.0116 -0.3863 -0.1822
 1226SOL    HW115311   2.834   1.058  11.080 -3.1891 -0.8496 -2.2947
 1226SOL    HW215312   2.818   1.188  11.018 -0.1309 -0.5166  0.2758
 1227SOL     OW15313   1.225   2.477   2.731 -0.1273  0.0029 -0.5667
 1227SOL    HW115314   1.255   2.402   2.679 -0.4898 -1.0047  0.6835
 1227SOL    HW215315   1.306   2.525   2.748  0.1326 -0.6213 -0.0484
 1228SOL     OW15316   2.441   3.383   8.155 -0.6171 -0.5613 -0.1360
 1228SOL    HW115317   2.476   3.312   8.208  0.8892 -0.4830 -1.0345
 1228SOL    HW215318   2.469   3.359   8.067  0.5190  1.3466 -0.2998
 1229SOL     OW15319   0.630   3.634   4.321 -0.7340  0.2236 -0.2846
 1229SOL    HW115320   0.621   3.587   4.238  0.0112  0.1398 -0.3211
 1229SOL    HW215321   0.652   3.568   4.386  0.5263 -0.4918 -1.4387
 1230SOL     OW15322   1.242   1.872  13.257 -0.7695 -0.5454 -0.4795
 1230SOL    HW115323   1.223   1.837  13.170 -0.1935  0.6670 -1.0951
 1230SOL    HW215324   1.184   1.818  13.310  0.7110 -0.8381  0.8339
 1231SOL     OW15325   3.372   0.815   8.947 -0.1190  0.3276 -0.3816
 1231SOL    HW115326   3.457   0.800   8.906 -0.7182 -0.2017 -1.4157
 1231SOL    HW215327   3.317   0.858   8.882  2.5050  0.7539 -2.3201
 1232SOL     OW15328   3.280   4.261   7.225  0.0494  0.3605  0.0592
 1232SOL    HW115329   3.346   4.193   7.211  0.0571  0.1043  1.3661
 1232SOL    HW215330   3.203   4.208   7.247  0.3436 -0.3452 -0.6303
 1233SOL     OW15331   1.818   1.152   7.311  0.3840 -0.4131 -0.0860
 1233SOL    HW115332   1.911   1.157   7.285  0.5214  0.1617  0.5200
 1233SOL    HW215333   1.819   1.144   7.406  0.6729 -1.6529 -0.1924
 1234SOL     OW15334   1.136   3.048   9.348  0.0876  0.0923  0.2087
 1234SOL    HW115335   1.205   3.111   9.330 -0.3151  0.1129 -1.3013
 1234SOL    HW215336   1.112   3.076   9.436  1.2795  2.3832 -0.1890
 1235SOL     OW15337   0.769   3.334   6.422  0.2109  0.5338 -0.6435
 1235SOL    HW115338   0.783   3.361   6.513 -0.2204  0.4906 -0.5640
 1235SOL    HW215339   0.804   3.415   6.384 -0.4208  0.7945 -0.6708
 1236SOL     OW15340   2.548   2.413   7.003 -0.3798  0.1728 -0.0454
 1236SOL    HW115341   2.588   2.437   6.920  1.5350 -0.4546  0.6991
 1236SOL    HW215342   2.608   2.439   7.073  0.5961 -1.4048 -0.2884
 1237SOL     OW15343   1.860   2.092   7.789 -0.1751 -0.3763 -0.2668
 1237SOL    HW115344   1.870   2.046   7.873  0.4275  1.1801  0.5195
 1237SOL    HW215345   1.773   2.062   7.766  1.1017 -3.1867 -1.4020
 1238SOL     OW15346   3.405   4.416   5.767 -0.0103  0.0954 -0.1502
 1238SOL    HW115347   3.334   4.479   5.778 -0.1090 -0.1577  0.6518
 1238SOL    HW215348   3.477   4.480   5.764  0.6510 -0.6215  0.1761
 1239SOL     OW15349   2.570   1.218   4.739  0.0966  0.3362 -0.2356
 1239SOL    HW115350   2.663   1.213   4.716 -0.4513 -1.4312 -2.0382
 1239SOL    HW215351   2.565   1.271   4.818  0.2198 -1.3772  0.9222
 1240SOL     OW15352   3.911   3.118  11.315 -0.9002  0.2280 -0.9840
 1240SOL    HW115353   3.997   3.088  11.287 -0.1261 -0.2984  1.9416
 1240SOL    HW215354   3.860   3.039  11.296  0.5727 -0.7921 -0.6482
 1241SOL     OW15355   2.417   2.318   4.332  0.1496  0.7178 -0.8582
 1241SOL    HW115356   2.434   2.266   4.411  1.4549  0.4778 -1.3011
 1241SOL    HW215357   2.383   2.400   4.369  1.6045  1.0945 -0.3566
 1242SOL     OW15358   3.596   0.975   0.445  0.4635 -0.4126  0.0208
 1242SOL    HW115359   3.670   0.945   0.498  3.0549  1.3890 -2.5297
 1242SOL    HW215360   3.523   0.922   0.477 -0.0600 -0.1776 -0.7852
 1243SOL     OW15361   0.968   2.952   3.539  0.0139 -0.3498  0.1711
 1243SOL    HW115362   1.003   2.868   3.509 -1.5251 -1.1092  0.4913
 1243SOL    HW215363   0.881   2.936   3.503  1.1673 -1.0124 -2.3059
 1244SOL     OW15364   4.400   4.553   0.743 -0.1871  0.1642  0.0285
 1244SOL    HW115365   4.394   4.478   0.683  1.3790  2.3515 -2.8506
 1244SOL    HW215366   4.393   4.507   0.827  0.6325  1.9831  1.0811
 1245SOL     OW15367   0.982   2.802   1.047  0.7940 -0.4951  0.0541
 1245SOL    HW115368   0.890   2.826   1.060  1.2141  0.7278  0.7105
 1245SOL    HW215369   0.970   2.708   1.059 -2.0507 -0.0579  0.8142
 1246SOL     OW15370   4.630   0.763   2.508 -0.5676  0.6630  0.0977
 1246SOL    HW115371   4.711   0.811   2.527 -0.8956  1.1486  0.2399
 1246SOL    HW215372   4.600   0.802   2.426 -0.4273  0.6084  0.0199
 1247SOL     OW15373   2.583   2.494   9.156  0.2047  0.1002 -0.4820
 1247SOL    HW115374   2.615   2.465   9.070  1.3122 -0.9110  0.2592
 1247SOL    HW215375   2.573   2.414   9.208  3.0119  0.3281  0.4349
 1248SOL     OW15376   2.740   2.333   5.701 -0.0317 -0.5674 -0.4346
 1248SOL    HW115377   2.780   2.409   5.659  0.2124 -1.8392 -2.4843
 1248SOL    HW215378   2.650   2.366   5.711 -0.0204 -1.1337  1.6127
 1249SOL     OW15379   1.363   2.683   9.073  0.6722  0.3330  0.6447
 1249SOL    HW115380   1.318   2.619   9.129 -0.2266 -1.5516 -2.1990
 1249SOL    HW215381   1.312   2.760   9.098  0.1537  0.5018 -0.9649
 1250SOL     OW15382   4.419   1.999   6.518  0.2727  0.9222 -0.0167
 1250SOL    HW115383   4.451   1.996   6.609  3.1129  0.8566 -1.0042
 1250SOL    HW215384   4.494   1.967   6.467 -0.2198 -2.4296  1.3048
 1251SOL     OW15385   3.512   2.953   5.476 -0.6249 -0.2644  0.4591
 1251SOL    HW115386   3.536   2.860   5.480  2.3610  0.5858  1.9180
 1251SOL    HW215387   3.593   3.003   5.477 -0.7953 -0.0244  2.0085
 1252SOL     OW15388   2.472   0.901  15.362 -0.0045 -0.4616 -0.1277
 1252SOL    HW115389   2.475   0.909  15.458 -2.0321  2.9946 -0.3710
 1252SOL    HW215390   2.499   0.811  15.341  0.3515 -0.3852 -0.0000
 1253SOL     OW15391   3.817   2.220   1.330 -0.2039 -0.0682  0.2613
 1253SOL    HW115392   3.760   2.162   1.381 -3.1788  1.6860 -1.0665
 1253SOL    HW215393   3.845   2.287   1.392 -2.4975  1.0954  0.0275
 1254SOL     OW15394   0.082   3.469  15.378 -0.3997  0.0903  0.6531
 1254SOL    HW115395   0.079   3.447  15.285  1.8962 -1.3801  0.9113
 1254SOL    HW215396   0.078   3.563  15.391  1.8029  0.2390  0.2126
 1255SOL     OW15397   1.629   2.477   1.316 -0.8259  0.0805 -0.3247
 1255SOL    HW115398   1.573   2.547   1.350 -2.6648 -1.1645 -0.8283
 1255SOL    HW215399   1.651   2.429   1.396 -0.9953 -1.3305 -1.1298
 1256SOL     OW15400   0.265   2.419   2.969 -0.0488  0.6114  0.2333
 1256SOL    HW115401   0.268   2.418   2.874  2.3692 -1.9196  0.3305
 1256SOL    HW215402   0.334   2.355   2.990 -0.7070 -0.2046 -0.1135
 1257SOL     OW15403   4.080   1.694   9.297  0.4947 -0.1814 -0.3173
 1257SOL    HW115404   4.009   1.675   9.359  1.0951 -0.6011  0.2447
 1257SOL    HW215405   4.144   1.749   9.341 -1.4788  1.6446  0.2626
 1258SOL     OW15406   0.233   0.194  10.679  0.5693 -0.0996  0.0569
 1258SOL    HW115407   0.285   0.124  10.639  2.1198  0.5748  0.8846
 1258SOL    HW215408   0.209   0.239  10.598 -1.1154 -0.3010  0.4374
 1259SOL     OW15409   3.481   3.682   2.489 -0.2030  0.1414  0.2140
 1259SOL    HW115410   3.405   3.678   2.547  1.8120  2.4852  2.9894
 1259SOL    HW215411   3.552   3.705   2.549  1.3115 -1.0734 -1.1250
 1260SOL     OW15412   1.959   1.201   6.123 -0.1983  0.4530 -0.5777
 1260SOL    HW115413   2.024   1.248   6.175 -0.2539  0.2565 -0.3286
 1260SOL    HW215414   1.897   1.172   6.190 -0.7735 -0.7660 -1.6330
 1261SOL     OW15415   1.334   3.777   5.305  0.1866 -0.2201 -0.5069
 1261SOL    HW115416   1.352   3.759   5.397 -3.3313 -2.5490 -0.2865
 1261SOL    HW215417   1.312   3.870   5.297  0.8467 -0.2342 -2.5189
 1262SOL     OW15418   1.710   1.850   7.256 -0.7105 -0.0631  0.0621
 1262SOL    HW115419   1.732   1.856   7.349 -1.2811 -3.6876  0.4326
 1262SOL    HW215420   1.625   1.893   7.251 -0.5343  0.0216 -2.1153
 1263SOL     OW15421   3.736   0.983   7.643 -0.2301  0.2730 -0.3101
 1263SOL    HW115422   3.704   0.977   7.733  2.1296 -0.4277  0.5030
 1263SOL    HW215423   3.830   0.973   7.658 -0.6290 -0.1938  1.8174
 1264SOL     OW15424   3.457   3.201  13.132  0.0239  0.0453  0.1905
 1264SOL    HW115425   3.479   3.213  13.224  1.5107  1.2925 -0.3341
 1264SOL    HW215426   3.375   3.153  13.148  0.0933 -0.5373 -1.2056
 1265SOL     OW15427   2.468   2.649  16.330  0.3613 -0.3535  0.0399
 1265SOL    HW115428   2.509   2.592  16.395 -1.0751 -1.3044  0.1135
 1265SOL    HW215429   2.547   2.691  16.294  0.7457 -3.7016 -3.0119
 1266SOL     OW15430   3.116   4.735   2.728  0.1111 -0.0668 -0.0009
 1266SOL    HW115431   3.101   0.086   2.702 -0.2079  0.1704  1.0226
 1266SOL    HW215432   3.097   4.734   2.821 -1.7460 -1.1262 -0.3714
 1267SOL     OW15433   1.048   2.549  11.525  0.1151 -0.2078 -0.3079
 1267SOL    HW115434   1.050   2.457  11.500  0.3578 -0.2449 -0.1500
 1267SOL    HW215435   1.069   2.543  11.618  0.1480  1.5331 -0.2078
 1268SOL     OW15436   1.710   2.092   3.133 -0.3584  0.4295 -0.2314
 1268SOL    HW115437   1.746   2.096   3.044 -0.5356 -2.8564 -0.4553
 1268SOL    HW215438   1.662   2.009   3.128  1.9612 -0.9533  0.5932
 1269SOL     OW15439   4.003   2.767   2.002 -0.5495 -0.2217 -0.6793
 1269SOL    HW115440   4.037   2.764   2.091 -1.1216 -1.4445 -0.5012
 1269SOL    HW215441   4.034   2.681   1.975  1.1352  0.2407 -0.2317
 1270SOL     OW15442   3.126   2.102   5.617 -0.1375 -0.3722  0.2634
 1270SOL    HW115443   3.176   2.060   5.687 -0.7652  0.7145  1.3446
 1270SOL    HW215444   3.189   2.092   5.546 -2.4980 -2.1742 -1.5801
 1271SOL     OW15445   2.691   3.573   4.528  0.2148  0.1245 -0.4093
 1271SOL    HW115446   2.640   3.500   4.494  1.3025 -1.0091  0.4081
 1271SOL    HW215447   2.639   3.643   4.488  1.8050  1.3312 -0.4091
 1272SOL     OW15448   1.927   0.737   5.523 -0.0936  0.1507  0.0398
 1272SOL    HW115449   1.887   0.822   5.543 -1.9809 -1.0197  1.2627
 1272SOL    HW215450   2.001   0.750   5.465  0.2926  0.6001  0.6283
 1273SOL     OW15451   4.275   1.966   4.331 -0.0323  0.1241 -0.2521
 1273SOL    HW115452   4.249   1.886   4.378  0.1155 -0.9345 -1.9604
 1273SOL    HW215453   4.315   2.017   4.401 -1.2324 -0.1549  0.6425
 1274SOL     OW15454   0.997   4.429   3.273  0.1515  0.2398  0.1488
 1274SOL    HW115455   0.951   4.351   3.303 -0.2970 -0.0610 -1.3439
 1274SOL    HW215456   0.921   4.486   3.265 -2.0652 -2.2683  3.1810
 1275SOL     OW15457   2.316   2.311  12.587  0.6724  0.2954 -0.0506
 1275SOL    HW115458   2.377   2.383  12.573  1.0798  0.2695  1.5734
 1275SOL    HW215459   2.372   2.237  12.565  0.9062  0.2201  0.8037
 1276SOL     OW15460   1.757   2.431   3.385 -0.1911  0.3241  0.2416
 1276SOL    HW115461   1.833   2.402   3.436 -0.9282 -1.0298  0.5761
 1276SOL    HW215462   1.780   2.524   3.382 -2.0716  0.8068  0.8568
 1277SOL     OW15463   4.520   3.105   1.235 -0.1928 -0.1574 -0.2333
 1277SOL    HW115464   4.515   3.191   1.193 -1.2144 -0.3253 -0.4362
 1277SOL    HW215465   4.449   3.062   1.188 -1.3948  0.5113  0.9471
 1278SOL     OW15466   1.646   4.426   7.915 -0.8340  0.1739 -0.3573
 1278SOL    HW115467   1.572   4.385   7.871 -1.1302  1.4537 -1.0413
 1278SOL    HW215468   1.701   4.460   7.844 -0.0970  2.0630  1.1119
 1279SOL     OW15469   3.403   0.241   5.322 -0.2006  0.1612 -0.0796
 1279SOL    HW115470   3.345   0.310   5.354 -1.0666 -1.3233  1.5238
 1279SOL    HW215471   3.353   0.170   5.361 -0.5465  0.3624 -0.1533
 1280SOL     OW15472   3.012   3.238   3.801  0.0185 -0.1701 -0.5664
 1280SOL    HW115473   3.005   3.324   3.759 -2.3807 -0.1753 -0.2175
 1280SOL    HW215474   2.920   3.217   3.817 -0.4412  2.0307 -0.2011
 1281SOL     OW15475   2.212   0.419   3.928 -0.0707 -0.1965 -0.3925
 1281SOL    HW115476   2.214   0.341   3.872  1.2347 -0.9536  0.7126
 1281SOL    HW215477   2.168   0.485   3.874  1.1334  0.0643 -1.0422
 1282SOL     OW15478   2.610   3.216   4.876 -0.0353 -0.0616  0.2603
 1282SOL    HW115479   2.624   3.309   4.857  0.7960  0.1187  1.7632
 1282SOL    HW215480   2.699   3.184   4.889  0.2104 -0.4358 -2.2254
 1283SOL     OW15481   3.528   3.389   2.551  0.4973  0.3748 -0.0370
 1283SOL    HW115482   3.501   3.446   2.479 -2.5139 -1.4710 -0.3710
 1283SOL    HW215483   3.621   3.411   2.561  0.5744  0.3750 -0.7770
 1284SOL     OW15484   2.498   2.679   4.031  0.0878  0.3131 -0.1447
 1284SOL    HW115485   2.423   2.738   4.028  1.5445  2.1560 -0.6834
 1284SOL    HW215486   2.564   2.747   4.016 -1.0419  1.2830 -0.6917
 1285SOL     OW15487   2.684   2.608   9.904  0.2507  0.4340  0.0771
 1285SOL    HW115488   2.739   2.560   9.843 -0.5910 -0.8060  0.2849
 1285SOL    HW215489   2.745   2.675   9.934  1.0214  1.4200 -3.6216
 1286SOL     OW15490   0.778   3.411  13.169 -0.4233 -0.1691 -0.0453
 1286SOL    HW115491   0.846   3.345  13.153  0.3551  0.6582 -0.1397
 1286SOL    HW215492   0.717   3.380  13.102 -0.1284 -0.0044 -0.3871
 1287SOL     OW15493   2.218   3.958  12.849  0.5753 -0.1261 -0.8076
 1287SOL    HW115494   2.298   4.002  12.878 -0.2993  0.1323  1.1470
 1287SOL    HW215495   2.238   3.872  12.887  0.9492  0.5772  0.5581
 1288SOL     OW15496   3.689   0.673   8.808  0.3725  0.2682  0.6031
 1288SOL    HW115497   3.700   0.702   8.718  1.3968 -1.1722  0.2580
 1288SOL    HW215498   3.696   0.579   8.789 -0.1759  0.3540 -0.0175
 1289SOL     OW15499   3.097   1.212   0.822 -0.1920  0.6318 -0.5819
 1289SOL    HW115500   3.114   1.173   0.907 -1.6005 -1.9465 -1.4902
 1289SOL    HW215501   3.182   1.195   0.783 -0.3178  0.8058 -0.9395
 1290SOL     OW15502   2.882   3.105   6.668  0.2285  0.7058 -0.1458
 1290SOL    HW115503   2.886   3.180   6.609  3.5532 -0.1418 -0.9400
 1290SOL    HW215504   2.888   3.138   6.758 -0.4353 -2.1694  0.9528
 1291SOL     OW15505   3.874   0.956   8.285  0.0809  0.0433 -0.1633
 1291SOL    HW115506   3.811   0.901   8.238  0.7664 -1.4172  0.6082
 1291SOL    HW215507   3.928   0.888   8.326 -0.2636  0.0096  0.2353
 1292SOL     OW15508   1.025   1.267   4.178  0.4341 -0.7930 -0.0021
 1292SOL    HW115509   1.089   1.289   4.110  0.0707 -0.3856 -0.2123
 1292SOL    HW215510   1.080   1.292   4.252  0.2505  0.9133 -0.4282
 1293SOL     OW15511   2.735   3.984  11.859  0.1505 -0.1582  0.5699
 1293SOL    HW115512   2.655   4.020  11.821 -0.8722 -1.8792  1.0918
 1293SOL    HW215513   2.802   4.040  11.819 -1.1083  2.4821  2.1931
 1294SOL     OW15514   2.553   4.576   4.242  0.0435 -0.3115 -0.4438
 1294SOL    HW115515   2.552   4.562   4.336  1.2373 -0.1199 -0.4076
 1294SOL    HW215516   2.532   4.668   4.225 -2.5621 -0.6349  0.9191
 1295SOL     OW15517   2.421   0.690   6.558  0.1416 -0.5825  0.4074
 1295SOL    HW115518   2.429   0.597   6.536  0.0208 -0.0343 -1.9507
 1295SOL    HW215519   2.444   0.728   6.473  1.3969 -0.7373  0.6896
 1296SOL     OW15520   1.689   1.508   8.394  0.2139 -0.6039  0.6458
 1296SOL    HW115521   1.681   1.466   8.480  0.5877  0.4503  1.1946
 1296SOL    HW215522   1.750   1.454   8.345  2.1029  0.0838  2.2646
 1297SOL     OW15523   3.534   3.633   5.670  0.4129 -0.1747  0.3551
 1297SOL    HW115524   3.543   3.675   5.755  0.3302 -0.3206  0.4372
 1297SOL    HW215525   3.466   3.687   5.629  2.3727  1.4444 -0.7427
 1298SOL     OW15526   2.181   2.852  14.838 -0.3675  0.1826  0.4156
 1298SOL    HW115527   2.203   2.877  14.927  0.1946  1.8406 -0.1967
 1298SOL    HW215528   2.216   2.928  14.792  1.0205  0.2771  1.6215
 1299SOL     OW15529   2.180   3.280  10.674  0.2298 -0.4545 -0.0381
 1299SOL    HW115530   2.093   3.307  10.642  0.9029 -0.0569 -1.5493
 1299SOL    HW215531   2.162   3.234  10.756 -0.9594  0.9993  0.5221
 1300SOL     OW15532   4.538   3.967  17.633 -0.3810  0.7533  0.3987
 1300SOL    HW115533   4.516   3.951  17.725  1.8177 -1.7759  0.4932
 1300SOL    HW215534   4.626   4.005  17.637  0.4447 -1.1673  0.5713
 1301SOL     OW15535   0.221   4.079   3.802 -0.4031 -0.0048 -0.1027
 1301SOL    HW115536   0.211   4.157   3.856  0.4977 -1.5321  2.2405
 1301SOL    HW215537   0.127   4.065   3.790 -0.2155  0.8165 -2.7482
 1302SOL     OW15538   1.314   3.172   8.567  0.0022  0.4999  0.3553
 1302SOL    HW115539   1.381   3.238   8.580  1.6869 -1.3932  1.3738
 1302SOL    HW215540   1.241   3.231   8.550  0.2201  0.3352 -1.1147
 1303SOL     OW15541   2.199   4.317   0.762  0.8551 -0.1849  0.0800
 1303SOL    HW115542   2.265   4.253   0.790  2.0056  0.7193 -0.5453
 1303SOL    HW215543   2.125   4.257   0.767  0.3798  0.3789 -0.2227
 1304SOL     OW15544   3.011   0.739  15.631 -0.2170  0.2654  0.2085
 1304SOL    HW115545   3.013   0.723  15.726  0.2120 -1.9493 -0.1745
 1304SOL    HW215546   3.093   0.700  15.599 -1.1243 -0.5485 -1.1142
 1305SOL     OW15547   2.313   2.251   1.283  0.2530  0.5607 -0.5290
 1305SOL    HW115548   2.284   2.323   1.339  0.1463  1.0770 -1.2468
 1305SOL    HW215549   2.327   2.302   1.203  3.2695  0.1474 -0.2504
 1306SOL     OW15550   1.246   2.824  10.445  0.2523  0.5255 -0.1225
 1306SOL    HW115551   1.160   2.854  10.475  0.8273 -0.0161  2.0613
 1306SOL    HW215552   1.246   2.846  10.352  0.8067 -0.8147 -0.4341
 1307SOL     OW15553   3.950   2.466   6.248 -1.0442  0.4331 -0.2269
 1307SOL    HW115554   3.870   2.466   6.301  0.4054 -1.5542  1.9396
 1307SOL    HW215555   4.017   2.459   6.316 -0.7172 -1.5652 -0.7693
 1308SOL     OW15556   4.508   0.501   9.620 -0.1068  0.2456  0.4742
 1308SOL    HW115557   4.527   0.427   9.677 -0.5868 -0.2510 -0.0131
 1308SOL    HW215558   4.461   0.562   9.677  0.2756 -1.0152  2.1171
 1309SOL     OW15559   1.958   4.446   9.359 -0.0860  0.0958 -0.0698
 1309SOL    HW115560   2.039   4.492   9.382 -0.3288  0.4150  0.1426
 1309SOL    HW215561   1.983   4.378   9.295 -0.6555  0.3238 -0.5316
 1310SOL     OW15562   2.946   2.737   9.626  0.5331 -0.8213 -0.0964
 1310SOL    HW115563   2.925   2.657   9.675 -0.1795  0.3374  1.4975
 1310SOL    HW215564   3.038   2.725   9.601  0.7218 -1.8560  1.0850
 1311SOL     OW15565   3.137   0.433   7.457  0.3260 -0.4697 -0.0558
 1311SOL    HW115566   3.130   0.349   7.502  0.2437 -0.5646 -0.2435
 1311SOL    HW215567   3.179   0.488   7.523 -2.6979  1.5905  0.1704
 1312SOL     OW15568   0.959   2.339  10.529  0.3418 -0.1191 -0.3781
 1312SOL    HW115569   0.868   2.344  10.560 -0.1401 -1.9254 -1.4935
 1312SOL    HW215570   0.953   2.364  10.437 -0.3477  3.6466  0.6757
 1313SOL     OW15571   1.958   4.444   8.588 -0.0360  0.7396  0.0929
 1313SOL    HW115572   1.981   4.354   8.612 -1.5370 -0.0987 -1.6354
 1313SOL    HW215573   1.863   4.445   8.599  0.0947 -1.5449  1.4745
 1314SOL     OW15574   0.278   3.201   5.520 -0.4117  0.3751  0.8332
 1314SOL    HW115575   0.204   3.245   5.562  0.0847 -0.0495  2.1575
 1314SOL    HW215576   0.256   3.114   5.553  1.5236 -0.5437 -0.2652
 1315SOL     OW15577   0.076   0.314   8.659 -0.0319 -0.0220  0.5966
 1315SOL    HW115578   0.009   0.322   8.591 -0.8466 -0.6324  1.3325
 1315SOL    HW215579   0.055   0.382   8.722 -0.2634  1.0554 -0.6578
 1316SOL     OW15580   4.293   3.337   2.814  0.3133  0.0721  0.3687
 1316SOL    HW115581   4.224   3.390   2.772  0.9500  0.2909 -0.4102
 1316SOL    HW215582   4.370   3.392   2.798  0.8132 -0.6535  0.2866
 1317SOL     OW15583   1.711   3.894  17.454 -0.4456  0.2185  0.2159
 1317SOL    HW115584   1.746   3.856  17.374 -3.2685 -0.0548 -0.8843
 1317SOL    HW215585   1.785   3.883  17.515  0.3020  0.2379 -0.6884
 1318SOL     OW15586   2.963   0.897   3.318 -0.9665 -0.2582  0.3936
 1318SOL    HW115587   2.929   0.874   3.405 -0.2803 -1.1484  0.4148
 1318SOL    HW215588   2.930   0.823   3.267  0.9410  0.5282 -1.9805
 1319SOL     OW15589   3.375   1.316   8.276 -0.0314  0.0285  0.2179
 1319SOL    HW115590   3.340   1.379   8.212 -1.4053 -1.0284 -0.0599
 1319SOL    HW215591   3.367   1.235   8.226 -1.4803  1.3752 -1.7336
 1320SOL     OW15592   1.288   4.340   3.686 -0.5457 -0.1006  0.3483
 1320SOL    HW115593   1.234   4.354   3.764 -2.0447 -1.5492 -0.4377
 1320SOL    HW215594   1.232   4.396   3.632 -2.5727 -0.3628  2.1749
 1321SOL     OW15595   1.783   2.475  17.138 -0.4014  0.2580  0.2691
 1321SOL    HW115596   1.754   2.522  17.216 -0.7542 -0.4405  0.5621
 1321SOL    HW215597   1.753   2.390  17.170 -0.8412 -0.5411 -2.2837
 1322SOL     OW15598   2.154   3.633   3.865  0.2887  0.3259  0.4042
 1322SOL    HW115599   2.168   3.592   3.780  0.9657 -0.6653  0.9797
 1322SOL    HW215600   2.078   3.684   3.840 -0.6080 -1.7121 -1.0624
 1323SOL     OW15601   2.133   1.406   4.085 -0.7886  0.2973  0.5765
 1323SOL    HW115602   2.094   1.385   4.000  1.5596 -0.6479 -0.2732
 1323SOL    HW215603   2.069   1.470   4.118 -0.7662  0.7492 -0.2675
 1324SOL     OW15604   3.644   0.748   3.646  0.5357 -0.4621 -0.3319
 1324SOL    HW115605   3.644   0.843   3.645 -0.8374 -0.4705 -0.7409
 1324SOL    HW215606   3.583   0.726   3.576  0.4492 -1.2645 -0.0097
 1325SOL     OW15607   3.526   3.263   5.466  0.4337  0.0030 -0.2245
 1325SOL    HW115608   3.575   3.218   5.536 -1.3711 -1.7492 -0.0635
 1325SOL    HW215609   3.600   3.287   5.410  0.9844 -1.8697 -0.3232
 1326SOL     OW15610   2.977   4.005   3.593  0.2666 -0.2139 -0.4849
 1326SOL    HW115611   3.059   4.037   3.630  0.7297 -0.8532 -0.9623
 1326SOL    HW215612   2.985   4.006   3.497 -2.5998 -1.2976 -0.7435
 1327SOL     OW15613   1.314   4.538   8.971 -0.3967  0.7854 -0.1001
 1327SOL    HW115614   1.236   4.519   8.919  0.2918  1.5404 -1.3968
 1327SOL    HW215615   1.274   4.541   9.058 -1.7212  0.9749 -0.7128
 1328SOL     OW15616   0.809   0.305   6.030 -0.1234 -0.4914  0.9233
 1328SOL    HW115617   0.895   0.318   6.070 -0.3508  2.7844  0.3690
 1328SOL    HW215618   0.750   0.313   6.105 -1.8397 -2.3768 -0.2473
 1329SOL     OW15619   2.863   0.366   3.241 -0.1731  0.1580 -0.0099
 1329SOL    HW115620   2.927   0.422   3.195  0.0696 -0.0876  0.0302
 1329SOL    HW215621   2.843   0.307   3.168  0.9442 -0.1931 -0.0421
 1330SOL     OW15622   1.930   1.736   2.104  0.1781 -0.4028  0.1891
 1330SOL    HW115623   1.988   1.672   2.144 -0.1308 -2.5290 -2.7340
 1330SOL    HW215624   1.985   1.752   2.027 -0.2770  0.9907  0.1507
 1331SOL     OW15625   0.116   1.869   4.677  0.0021 -0.1133  0.1237
 1331SOL    HW115626   0.212   1.863   4.672 -0.0470 -1.6096  0.9865
 1331SOL    HW215627   0.104   1.903   4.766 -1.4423 -0.7759  0.1708
 1332SOL     OW15628   4.556   1.092   1.652  0.3427 -0.5213  0.6122
 1332SOL    HW115629   4.482   1.042   1.618  1.1461 -1.6164  0.4842
 1332SOL    HW215630   4.523   1.180   1.634 -2.5745 -1.6968  0.1771
 1333SOL     OW15631   2.781   4.571   4.111 -0.3431 -0.0957  0.2722
 1333SOL    HW115632   2.766   4.655   4.067  0.2361 -0.5335 -0.7719
 1333SOL    HW215633   2.701   4.560   4.162 -0.7696  1.3517 -0.0592
 1334SOL     OW15634   2.975   2.212   4.602 -0.0919  0.7332  0.7628
 1334SOL    HW115635   3.014   2.299   4.609  1.6258  0.0233 -0.0617
 1334SOL    HW215636   2.935   2.221   4.515 -2.4815 -2.8552  1.5122
 1335SOL     OW15637   4.152   2.762   4.703 -0.1700 -0.0885  0.0606
 1335SOL    HW115638   4.145   2.785   4.610 -0.3267  2.2181  0.6427
 1335SOL    HW215639   4.066   2.723   4.716  0.7883 -1.9873  0.7052
 1336SOL     OW15640   1.721   0.369  10.066  0.0417 -0.0067  0.6080
 1336SOL    HW115641   1.725   0.321   9.984  1.7242  0.6343  0.3071
 1336SOL    HW215642   1.774   0.443  10.037  0.9389 -0.3235  1.4242
 1337SOL     OW15643   0.671   3.020   2.840 -0.4103  0.4713  0.4841
 1337SOL    HW115644   0.712   3.038   2.925  1.1512 -1.1126  0.0632
 1337SOL    HW215645   0.682   2.926   2.832 -2.7525  0.4591 -2.4925
 1338SOL     OW15646   0.292   1.962   5.081 -0.6435  0.0210 -0.6877
 1338SOL    HW115647   0.307   2.048   5.119  0.6595 -0.4139 -0.2080
 1338SOL    HW215648   0.276   1.917   5.165  0.0714  0.7573 -0.1631
 1339SOL     OW15649   4.273   3.430   6.552 -0.1304 -0.6693 -0.2475
 1339SOL    HW115650   4.191   3.423   6.600 -0.6421  0.0962 -0.9997
 1339SOL    HW215651   4.238   3.483   6.480 -0.0853 -2.5403 -1.6812
 1340SOL     OW15652   0.132   2.631   7.047  0.2733  0.0378  0.7597
 1340SOL    HW115653   0.075   2.681   7.105  1.5960 -0.5694  2.5843
 1340SOL    HW215654   0.082   2.636   6.965  0.5129  1.0423  0.6739
 1341SOL     OW15655   0.148   2.292  16.326  0.2011 -0.3604 -0.2198
 1341SOL    HW115656   0.181   2.238  16.254  0.2806  1.4325 -1.5407
 1341SOL    HW215657   0.055   2.268  16.325  0.3093 -0.7743 -0.5989
 1342SOL     OW15658   2.525   0.347   8.371 -0.0173  0.0630 -0.4390
 1342SOL    HW115659   2.484   0.425   8.408  2.6541  0.7060  1.1411
 1342SOL    HW215660   2.461   0.281   8.398  0.6197 -0.4255 -0.1063
 1343SOL     OW15661   2.636   2.572   6.772  0.5725 -0.2829 -0.3272
 1343SOL    HW115662   2.679   2.627   6.838  0.8208 -0.7849 -0.0774
 1343SOL    HW215663   2.548   2.612   6.771  1.5383  1.8414 -0.5324
 1344SOL     OW15664   3.514   4.172   5.752 -0.5936  0.3549  0.3519
 1344SOL    HW115665   3.596   4.181   5.799 -1.1700  1.3478  1.1727
 1344SOL    HW215666   3.477   4.260   5.759 -0.5259  0.3492  0.7801
 1345SOL     OW15667   0.423   3.425   6.279 -0.6142  0.1904  0.2992
 1345SOL    HW115668   0.439   3.464   6.366 -0.2132 -0.6048  0.5796
 1345SOL    HW215669   0.463   3.340   6.295  0.4407  0.2641 -2.0037
 1346SOL     OW15670   3.800   1.405   8.504 -0.0943  0.6061  0.7155
 1346SOL    HW115671   3.797   1.330   8.446  0.5345  1.2625 -0.1694
 1346SOL    HW215672   3.705   1.419   8.507  0.4165  3.6756  2.7744
 1347SOL     OW15673   2.561   3.179   8.735 -0.3248 -0.7627  0.0366
 1347SOL    HW115674   2.630   3.133   8.688  0.3634  1.7811 -1.4884
 1347SOL    HW215675   2.586   3.173   8.827 -0.8915 -2.2149  0.0997
 1348SOL     OW15676   2.976   1.537  15.618 -0.2111  0.0365  0.4982
 1348SOL    HW115677   3.020   1.460  15.654 -0.1223  0.2219  0.7870
 1348SOL    HW215678   3.004   1.601  15.684  1.0167  1.0280 -1.0058
 1349SOL     OW15679   1.873   1.907   8.702  0.5437  0.1264  0.4439
 1349SOL    HW115680   1.822   1.852   8.642  0.2489  0.6965  0.1733
 1349SOL    HW215681   1.829   1.907   8.787 -0.2786  0.3701  0.0175
 1350SOL     OW15682   3.622   4.554   2.412  0.8354  0.3690  0.0381
 1350SOL    HW115683   3.566   4.518   2.481 -0.3378  1.7590 -0.1940
 1350SOL    HW215684   3.669   4.473   2.393 -0.5395 -0.3766 -0.1429
 1351SOL     OW15685   0.479   3.156   2.301 -0.4557  0.0136 -0.0220
 1351SOL    HW115686   0.405   3.134   2.244 -2.1557  1.7550  1.5237
 1351SOL    HW215687   0.549   3.190   2.245  0.1204  0.8576  1.2047
 1352SOL     OW15688   3.492   2.949   8.543  0.3655 -0.0611  0.3702
 1352SOL    HW115689   3.480   2.861   8.580 -2.8801  0.7965  1.3264
 1352SOL    HW215690   3.550   2.985   8.610  0.1007  0.1322  0.4931
 1353SOL     OW15691   4.545   0.610   6.258  0.3322  0.4212 -0.2557
 1353SOL    HW115692   4.486   0.614   6.184  0.3639 -1.9034 -0.4139
 1353SOL    HW215693   4.485   0.637   6.327 -0.1464  1.1251 -0.9599
 1354SOL     OW15694   4.659   1.991   8.943  0.0653 -0.4933 -0.6347
 1354SOL    HW115695   4.682   1.922   8.881  0.0005 -2.2020  1.2201
 1354SOL    HW215696   4.638   2.063   8.884  0.1162  0.7611  0.8864
 1355SOL     OW15697   3.447   3.668  12.947  0.7186  0.0968 -0.0337
 1355SOL    HW115698   3.479   3.606  13.013  4.8220  5.4419  2.9714
 1355SOL    HW215699   3.512   3.646  12.880 -0.9685  2.4131 -2.4169
 1356SOL     OW15700   0.293   3.527  14.447 -0.2401  0.3665 -0.2419
 1356SOL    HW115701   0.374   3.503  14.403  0.6292 -1.5923  2.4656
 1356SOL    HW215702   0.253   3.583  14.380 -0.0576 -0.4534 -1.0321
 1357SOL     OW15703   4.624   1.892   6.364 -0.6439  0.5881 -0.3005
 1357SOL    HW115704   4.694   1.949   6.333  0.8370  0.0376  1.9960
 1357SOL    HW215705   4.681   1.815   6.369  0.3889  1.4587  1.1492
 1358SOL     OW15706   1.633   2.190   1.628  0.3840  0.0368 -0.1543
 1358SOL    HW115707   1.613   2.099   1.607 -0.6595  0.2723 -0.1878
 1358SOL    HW215708   1.679   2.213   1.548 -1.5307  0.7193 -1.0664
 1359SOL     OW15709   3.126   2.909   7.341 -0.3230  0.0486 -0.2455
 1359SOL    HW115710   3.081   2.860   7.272 -1.4489  0.1622  0.4056
 1359SOL    HW215711   3.189   2.843   7.370  0.4731  1.4114  1.1108
 1360SOL     OW15712   3.836   3.600  16.593  0.1297  0.2909  0.1387
 1360SOL    HW115713   3.841   3.620  16.500  0.8972  1.2325  0.3827
 1360SOL    HW215714   3.743   3.623  16.602  0.2734  0.8581  0.1913
 1361SOL     OW15715   0.681   0.066   7.838 -0.3831 -0.0524 -0.5909
 1361SOL    HW115716   0.622   0.131   7.876 -1.0473  0.7519 -2.9600
 1361SOL    HW215717   0.683   0.089   7.745  0.9993  0.9771 -0.3135
 1362SOL     OW15718   0.355   1.435   7.454  0.4994  0.2990  0.6160
 1362SOL    HW115719   0.365   1.383   7.374  0.5014  1.5496 -0.1910
 1362SOL    HW215720   0.381   1.368   7.518 -0.8061  1.1013  1.9759
 1363SOL     OW15721   1.013   2.616   2.664 -0.3509  0.4737 -0.4392
 1363SOL    HW115722   1.036   2.705   2.691  1.0085 -0.2412  0.7605
 1363SOL    HW215723   1.089   2.560   2.676 -2.2047 -2.0909 -0.6943
 1364SOL     OW15724   2.524   3.515   6.269  0.0402  0.3690  0.4120
 1364SOL    HW115725   2.487   3.470   6.345 -0.0154  2.0740  1.3930
 1364SOL    HW215726   2.482   3.474   6.194  0.7914 -0.3102  0.3575
 1365SOL     OW15727   0.353   2.564   7.707  0.0507 -0.4159 -0.2844
 1365SOL    HW115728   0.307   2.510   7.643 -0.6843 -0.2194  0.0689
 1365SOL    HW215729   0.406   2.622   7.652  3.1373 -0.9083  2.1460
 1366SOL     OW15730   2.616   3.955   4.292 -0.7598  0.3089 -0.0655
 1366SOL    HW115731   2.570   3.979   4.212  1.2822 -0.1403 -1.3732
 1366SOL    HW215732   2.643   4.038   4.331  2.5664  0.0297 -1.8252
 1367SOL     OW15733   3.902   0.126   7.696  0.4718  0.6925 -0.2640
 1367SOL    HW115734   3.837   0.124   7.766  0.6557  0.1129 -0.1142
 1367SOL    HW215735   3.906   0.220   7.675  3.0532  1.2350  2.5932
 1368SOL     OW15736   2.116   0.013   4.106 -0.3324 -0.2572 -0.4362
 1368SOL    HW115737   2.163   0.030   4.025  1.4882  0.6137  0.8208
 1368SOL    HW215738   2.069   4.679   4.068 -1.1739  0.2689 -0.4162
 1369SOL     OW15739   3.208   2.447   7.259 -0.0203 -0.2217  0.2619
 1369SOL    HW115740   3.275   2.391   7.219  0.1716  1.0004 -1.1125
 1369SOL    HW215741   3.128   2.426   7.211 -0.4757 -0.5780  1.1739
 1370SOL     OW15742   3.418   0.642   2.366  0.7262  0.3152  0.1452
 1370SOL    HW115743   3.491   0.592   2.331  2.8691  1.5411  2.8713
 1370SOL    HW215744   3.348   0.576   2.364  2.2668 -1.3278  0.9628
 1371SOL     OW15745   3.954   1.133   6.950 -0.6134 -0.5651  0.2748
 1371SOL    HW115746   3.928   1.043   6.931  0.8944 -1.1391  0.9534
 1371SOL    HW215747   3.933   1.185   6.872 -2.3286 -0.7926  0.5738
 1372SOL     OW15748   4.626   3.414  10.209 -0.2122 -0.5154  0.4416
 1372SOL    HW115749   4.593   3.364  10.134  0.7214 -2.2252  1.1696
 1372SOL    HW215750   4.689   3.475  10.172 -1.4045 -0.1643 -1.0116
 1373SOL     OW15751   0.911   1.138   6.093 -0.1922 -0.6699  0.0212
 1373SOL    HW115752   0.934   1.122   6.185 -0.8974  0.6773  0.4257
 1373SOL    HW215753   0.929   1.051   6.058 -0.6750 -1.1382  0.9120
 1374SOL     OW15754   4.157   1.634   8.778  0.1794  0.1067  0.1241
 1374SOL    HW115755   4.239   1.584   8.786  0.2032 -0.3996 -3.1527
 1374SOL    HW215756   4.161   1.651   8.683 -0.8302 -1.5943 -0.2181
 1375SOL     OW15757   3.802   4.210  17.640 -0.0774  0.4177  0.4131
 1375SOL    HW115758   3.762   4.137  17.593  2.9704 -0.5717 -0.6875
 1375SOL    HW215759   3.728   4.270  17.638 -2.1391 -2.1131  0.6584
 1376SOL     OW15760   4.128   2.710  11.328 -0.0010  0.1648 -0.7259
 1376SOL    HW115761   4.056   2.665  11.284  0.8893  0.0168 -2.0393
 1376SOL    HW215762   4.089   2.796  11.341  1.1599  0.3752  1.3491
 1377SOL     OW15763   1.368   4.464   3.097  0.3366 -0.1358  0.5156
 1377SOL    HW115764   1.275   4.470   3.074  0.3413 -0.6326  0.3674
 1377SOL    HW215765   1.395   4.374   3.081  0.8173  0.2028 -0.6431
 1378SOL     OW15766   1.183   0.797   5.980  0.2936 -0.0844  0.1649
 1378SOL    HW115767   1.265   0.780   6.026  1.9546  1.6434 -2.1291
 1378SOL    HW215768   1.184   0.717   5.928 -0.1310  1.1887 -1.8048
 1379SOL     OW15769   2.588   1.256  10.522  0.2846  0.8770  0.0033
 1379SOL    HW115770   2.661   1.274  10.462 -0.1563 -1.6116 -1.2772
 1379SOL    HW215771   2.519   1.223  10.465  0.8475  1.5474 -1.0779
 1380SOL     OW15772   1.334   4.214   9.046  0.2225  0.0266 -0.3661
 1380SOL    HW115773   1.404   4.158   9.078  0.4720  0.7842  0.4119
 1380SOL    HW215774   1.361   4.294   9.090  0.1087 -0.9161  1.4138
 1381SOL     OW15775   1.051   3.961   0.531  0.5881  0.2863  0.4808
 1381SOL    HW115776   1.140   3.945   0.499  0.1462  2.5907 -1.8510
 1381SOL    HW215777   1.069   4.046   0.572 -3.4571  0.4552  1.8472
 1382SOL     OW15778   0.599   4.376   2.411 -0.2386  0.0996  0.0465
 1382SOL    HW115779   0.664   4.439   2.380 -2.2029  2.1489  0.0855
 1382SOL    HW215780   0.625   4.308   2.350 -0.3309  1.3042 -1.3472
 1383SOL     OW15781   0.588   4.258   4.060 -0.2022 -0.0835 -0.0426
 1383SOL    HW115782   0.565   4.257   4.153  2.7555  0.2920  0.6789
 1383SOL    HW215783   0.568   4.168   4.034  0.1935 -0.5477  1.2532
 1384SOL     OW15784   4.244   1.546  16.776  0.1344 -0.5705  0.2245
 1384SOL    HW115785   4.182   1.505  16.836  0.0357 -2.7143 -1.3283
 1384SOL    HW215786   4.197   1.629  16.766 -1.8880 -1.4617  2.3216
 1385SOL     OW15787   0.049   4.624  13.474 -0.5382 -0.0239  0.0939
 1385SOL    HW115788   0.138   4.610  13.443 -0.5423  1.3316 -0.5471
 1385SOL    HW215789   0.066   4.683  13.548 -1.9706  1.7449 -0.9607
 1386SOL     OW15790   0.872   4.574  10.469 -0.0834 -0.5389  0.0610
 1386SOL    HW115791   0.873   4.577  10.565  0.6724  0.9590  0.0125
 1386SOL    HW215792   0.915   4.490  10.455 -1.1538 -1.1358  0.3537
 1387SOL     OW15793   1.787   4.643  17.431  0.2774 -0.2724  0.0307
 1387SOL    HW115794   1.703   4.611  17.465  1.2591 -1.3717  1.4584
 1387SOL    HW215795   1.761   4.715  17.374  0.5865 -1.8874 -2.1146
 1388SOL     OW15796   0.969   3.708   8.904  0.5522  0.0126 -0.4247
 1388SOL    HW115797   0.898   3.652   8.934  0.5326  0.5105  0.4767
 1388SOL    HW215798   0.945   3.789   8.949 -0.5328 -1.1247  1.0309
 1389SOL     OW15799   0.801   0.856   7.861 -0.1034 -0.4377 -0.0954
 1389SOL    HW115800   0.894   0.864   7.881 -0.9659  2.6599  2.5742
 1389SOL    HW215801   0.762   0.918   7.923  0.1124 -0.9711  0.5644
 1390SOL     OW15802   0.155   1.778   7.064  0.2502 -0.3261 -0.0065
 1390SOL    HW115803   0.179   1.717   7.133  1.6073 -0.4499 -0.5993
 1390SOL    HW215804   0.237   1.825   7.049  0.6225 -0.1172  2.6767
 1391SOL     OW15805   4.095   3.097  14.669 -0.1802 -0.2271 -0.4562
 1391SOL    HW115806   4.101   3.184  14.709  1.9807 -0.7703  0.4008
 1391SOL    HW215807   4.046   3.057  14.741  1.6274  0.0498  0.9556
 1392SOL     OW15808   1.337   3.078   9.590 -0.1252  0.0550 -0.0666
 1392SOL    HW115809   1.365   3.150   9.647  1.5317 -1.1958  0.6802
 1392SOL    HW215810   1.401   3.081   9.519 -0.5341 -1.6582 -0.5121
 1393SOL     OW15811   1.398   3.689   5.610 -0.1298  0.2830  0.4229
 1393SOL    HW115812   1.425   3.760   5.668 -0.3630 -0.1620  1.0733
 1393SOL    HW215813   1.484   3.646   5.611  1.2529  2.9960  0.7310
 1394SOL     OW15814   0.750   0.953   9.198 -0.1778 -0.4443 -0.0015
 1394SOL    HW115815   0.692   0.996   9.135  1.7140 -0.6758 -1.9322
 1394SOL    HW215816   0.820   0.922   9.141 -0.4958 -0.2816 -0.4828
 1395SOL     OW15817   4.609   2.529   2.992  0.0506  0.3011  0.7057
 1395SOL    HW115818   4.596   2.437   2.968  4.1808  0.1734 -0.9885
 1395SOL    HW215819   4.664   2.553   2.918  1.4117  1.2013  2.0136
 1396SOL     OW15820   3.742   3.327  14.352  0.7289  0.1390  0.2572
 1396SOL    HW115821   3.804   3.257  14.371  2.4277  1.4839 -0.2916
 1396SOL    HW215822   3.662   3.287  14.386  1.7866 -0.9308  1.4517
 1397SOL     OW15823   1.532   1.845   4.123  0.6153 -0.8264 -0.1265
 1397SOL    HW115824   1.468   1.854   4.194  1.8724  0.1048  0.8926
 1397SOL    HW215825   1.474   1.852   4.047  0.9058  0.1608 -0.2672
 1398SOL     OW15826   2.780   3.772   3.605 -0.6522  0.5837  0.5230
 1398SOL    HW115827   2.807   3.858   3.570  3.0757 -1.2217 -1.0091
 1398SOL    HW215828   2.772   3.809   3.693  0.3184  2.3065 -0.1003
 1399SOL     OW15829   0.521   1.002   8.583 -0.1899 -0.3372 -0.1567
 1399SOL    HW115830   0.478   1.003   8.497 -3.8446 -0.2462  1.6844
 1399SOL    HW215831   0.459   0.957   8.639 -1.3813  0.6687 -0.6721
 1400SOL     OW15832   0.259   2.713  15.296  0.5284  0.1533  0.2352
 1400SOL    HW115833   0.311   2.680  15.369 -0.1007 -0.2118  0.5058
 1400SOL    HW215834   0.260   2.808  15.308  1.0711  0.3373 -1.1691
 1401SOL     OW15835   3.139   4.540   8.872 -0.0101  0.0971  0.4551
 1401SOL    HW115836   3.204   4.480   8.836  0.8711  1.1584  0.2508
 1401SOL    HW215837   3.065   4.520   8.816 -0.7309 -0.1516  1.4938
 1402SOL     OW15838   0.288   4.395   5.678  0.1444 -0.4074 -0.1534
 1402SOL    HW115839   0.219   4.383   5.744  0.4305 -0.6944  0.0885
 1402SOL    HW215840   0.268   4.327   5.614  1.2645 -0.3655 -0.5478
 1403SOL     OW15841   1.331   0.003   8.698 -0.2994 -0.6618  0.3887
 1403SOL    HW115842   1.316   4.675   8.632 -3.0487  0.6066 -0.3339
 1403SOL    HW215843   1.370   0.066   8.638 -2.1011  1.0427  1.0118
 1404SOL     OW15844   3.742   0.265  11.401 -0.0640 -0.3092 -0.3209
 1404SOL    HW115845   3.706   0.196  11.345  0.9890 -1.4892  0.4542
 1404SOL    HW215846   3.825   0.220  11.418 -0.7354 -1.7175 -0.7799
 1405SOL     OW15847   0.812   1.687  13.762 -0.5133 -0.3652  0.0354
 1405SOL    HW115848   0.789   1.728  13.679  1.4254  2.6985  1.0106
 1405SOL    HW215849   0.786   1.598  13.738  1.1189 -0.3550 -1.7922
 1406SOL     OW15850   0.890   2.742   8.584  0.3790 -0.1466  0.2658
 1406SOL    HW115851   0.870   2.679   8.514 -1.6955  0.0113  0.7233
 1406SOL    HW215852   0.905   2.681   8.657  2.7577 -1.9053 -1.6953
 1407SOL     OW15853   1.047   0.468   8.754 -0.0075  0.2704 -0.0438
 1407SOL    HW115854   1.083   0.521   8.826 -1.7288  3.5632 -1.5932
 1407SOL    HW215855   1.076   0.383   8.787  1.6996  1.2503  1.0280
 1408SOL     OW15856   0.912   1.501   7.200 -0.0762  0.6743  0.2499
 1408SOL    HW115857   0.865   1.426   7.163  1.8939 -0.9778  1.0830
 1408SOL    HW215858   0.925   1.554   7.122 -0.2557  0.7920  0.3001
 1409SOL     OW15859   4.281   0.012   7.953  0.4903  0.3357 -0.1717
 1409SOL    HW115860   4.217   0.049   8.014  1.4108  0.5099  0.7030
 1409SOL    HW215861   4.246   0.038   7.868  1.9679  0.3876 -0.7730
 1410SOL     OW15862   4.157   4.364   6.560  0.1859 -0.1435  0.6699
 1410SOL    HW115863   4.130   4.291   6.505  0.8748  0.8480 -0.9887
 1410SOL    HW215864   4.115   4.338   6.642  0.7589  2.0714  1.6619
 1411SOL     OW15865   4.313   2.363  14.160  0.2654  0.0741 -0.0727
 1411SOL    HW115866   4.264   2.360  14.078 -1.7498  1.8132  1.0670
 1411SOL    HW215867   4.326   2.457  14.169 -0.1629  0.1401 -0.1695
 1412SOL     OW15868   2.660   0.593   2.608 -0.0779 -0.1601  0.6458
 1412SOL    HW115869   2.684   0.597   2.515 -0.1550 -0.8923  0.5904
 1412SOL    HW215870   2.566   0.580   2.595 -0.3460  1.6178  0.8602
 1413SOL     OW15871   0.380   1.113   0.642 -0.9829 -0.0919  0.2036
 1413SOL    HW115872   0.423   1.196   0.619 -1.3478  0.3740  1.2093
 1413SOL    HW215873   0.386   1.075   0.554 -0.2280  1.0356 -0.2387
 1414SOL     OW15874   3.287   0.814  14.548  0.4410  0.1797  0.3500
 1414SOL    HW115875   3.216   0.874  14.573  0.0953  0.3756 -1.1136
 1414SOL    HW215876   3.249   0.777  14.469 -2.0921 -0.0955  1.6919
 1415SOL     OW15877   4.562   0.457   2.153 -0.1672 -0.1586 -0.1246
 1415SOL    HW115878   4.487   0.421   2.105 -0.4107 -0.0109  0.1463
 1415SOL    HW215879   4.520   0.510   2.221 -0.2657 -2.4357  1.5829
 1416SOL     OW15880   4.107   1.392   8.194  0.7698  0.2074  0.0574
 1416SOL    HW115881   4.099   1.297   8.181 -0.9749  0.3247  0.2300
 1416SOL    HW215882   4.020   1.427   8.215  0.4739 -0.8224  0.5670
 1417SOL     OW15883   2.466   4.702   6.986  0.1864  0.2813  0.5693
 1417SOL    HW115884   2.409   0.014   6.930 -0.7794  0.8863  2.1267
 1417SOL    HW215885   2.408   4.628   6.998  1.4375 -0.7265  0.4580
 1418SOL     OW15886   2.276   0.870  10.753  0.0012 -0.3655  0.2751
 1418SOL    HW115887   2.310   0.953  10.719 -2.2998  0.4558 -0.0607
 1418SOL    HW215888   2.305   0.884  10.843  2.0748  0.2290 -0.4956
 1419SOL     OW15889   1.021   0.029   0.020  0.1391  0.3136  0.3547
 1419SOL    HW115890   1.091   0.015  17.714 -0.1732 -0.0169  0.0891
 1419SOL    HW215891   1.061   4.727   0.096 -2.1698 -0.3107  1.2156
 1420SOL     OW15892   1.310   0.621   3.472 -0.8133 -0.3021 -0.2732
 1420SOL    HW115893   1.342   0.532   3.489  0.6278  0.0876 -0.9312
 1420SOL    HW215894   1.391   0.661   3.441 -0.5885  0.3062  1.1026
 1421SOL     OW15895   0.528   2.936   8.763  0.0420  0.2067  0.3468
 1421SOL    HW115896   0.556   3.019   8.724 -0.6855  1.0756  1.6700
 1421SOL    HW215897   0.512   2.890   8.681  1.5892  0.8861 -0.3297
 1422SOL     OW15898   1.915   3.220   5.790 -0.1201  0.6766 -0.0764
 1422SOL    HW115899   1.883   3.248   5.876 -2.7793  2.8462 -1.7726
 1422SOL    HW215900   2.007   3.198   5.800  0.2034  1.0280 -2.3496
 1423SOL     OW15901   1.174   1.672   6.870  0.1220 -0.0650 -0.3517
 1423SOL    HW115902   1.168   1.726   6.949 -1.8740  1.9334 -1.8576
 1423SOL    HW215903   1.263   1.691   6.842  0.5371 -1.1238  0.2446
 1424SOL     OW15904   2.805   4.361   5.049 -0.0669 -0.1095  0.1369
 1424SOL    HW115905   2.738   4.380   5.115 -0.0098  1.7272 -0.3368
 1424SOL    HW215906   2.823   4.447   5.011 -1.9164 -0.6013 -1.8714
 1425SOL     OW15907   1.698   4.652   4.829 -0.5059  0.3602 -0.3414
 1425SOL    HW115908   1.606   4.667   4.808  0.2160  1.3514 -2.7413
 1425SOL    HW215909   1.726   4.574   4.781  2.1267 -0.3872  2.4277
 1426SOL     OW15910   2.611   3.161   6.997 -0.1250 -0.9505 -0.4965
 1426SOL    HW115911   2.578   3.193   7.081 -0.8944 -1.0604 -0.7603
 1426SOL    HW215912   2.559   3.082   6.990 -1.6899  0.0559 -0.1761
 1427SOL     OW15913   2.096   0.727   3.972 -0.0330  0.4761 -0.2435
 1427SOL    HW115914   2.127   0.732   4.063  1.6998 -0.1789 -0.7832
 1427SOL    HW215915   2.063   0.815   3.957  2.7066  1.2017 -2.0688
 1428SOL     OW15916   1.906   0.136  11.979 -0.6554  0.1074  0.2124
 1428SOL    HW115917   1.862   0.066  11.932 -0.4538  0.2786 -0.2311
 1428SOL    HW215918   1.998   0.110  11.976 -0.2944  1.3332  0.6129
 1429SOL     OW15919   3.921   3.939   2.137  0.0755 -0.5188 -0.2041
 1429SOL    HW115920   3.967   3.880   2.077  0.2791  0.0696 -0.6238
 1429SOL    HW215921   3.932   4.022   2.092  0.2036  0.6542  2.0010
 1430SOL     OW15922   2.583   4.438   2.732  0.0404 -0.7308  0.3279
 1430SOL    HW115923   2.551   4.446   2.642  0.9811  1.1280  0.1733
 1430SOL    HW215924   2.575   4.526   2.769  0.4388 -0.5088 -0.1221
 1431SOL     OW15925   1.001   0.797  13.153 -0.1601 -0.7062  0.5314
 1431SOL    HW115926   0.986   0.715  13.200  0.9696 -1.7265 -0.9311
 1431SOL    HW215927   1.043   0.849  13.222  0.7672 -2.5268  1.3320
 1432SOL     OW15928   4.570   0.571   7.732  0.6601  0.0483 -0.0641
 1432SOL    HW115929   4.537   0.498   7.679  0.2049 -1.0745  1.7473
 1432SOL    HW215930   4.488   0.607   7.765 -0.0959 -0.1942 -1.6776
 1433SOL     OW15931   3.918   4.047   2.661  0.2707  0.1659  0.0995
 1433SOL    HW115932   3.974   4.012   2.730  2.6536 -1.8856 -2.8281
 1433SOL    HW215933   3.965   4.130   2.651 -3.0123  2.0041 -0.2033
 1434SOL     OW15934   1.465   3.660   8.803 -0.1724  0.6517  0.1548
 1434SOL    HW115935   1.558   3.680   8.803  0.0212 -0.2629  0.5545
 1434SOL    HW215936   1.462   3.578   8.852 -1.0061  0.4585 -0.2209
 1435SOL     OW15937   3.413   0.668   3.103 -0.2428 -0.0457 -0.1908
 1435SOL    HW115938   3.372   0.707   3.180  1.0268 -1.8201  1.3837
 1435SOL    HW215939   3.337   0.643   3.051 -0.6537  1.0183 -0.0838
 1436SOL     OW15940   1.255   4.383   6.615 -0.4992  0.1792 -0.0449
 1436SOL    HW115941   1.272   4.345   6.702  1.1122 -2.9099 -1.6877
 1436SOL    HW215942   1.163   4.401   6.630 -0.6988 -0.2048 -0.8391
 1437SOL     OW15943   2.107   3.472  11.352 -0.1936  0.0591  0.2120
 1437SOL    HW115944   2.040   3.532  11.384  0.6022 -0.3691  2.7275
 1437SOL    HW215945   2.148   3.539  11.298  1.3268 -2.6158 -1.9782
 1438SOL     OW15946   1.465   2.402   0.349  0.1098 -0.0237  0.4106
 1438SOL    HW115947   1.388   2.378   0.400  0.0185  0.4609  0.4990
 1438SOL    HW215948   1.419   2.471   0.301  2.1638  0.8428 -0.2994
 1439SOL     OW15949   2.821   4.364   9.116  0.1828  0.2443  0.9498
 1439SOL    HW115950   2.818   4.287   9.060  1.8526  0.0341  1.1522
 1439SOL    HW215951   2.727   4.381   9.104  0.2010  1.5367  2.6288
 1440SOL     OW15952   3.425   0.780   0.542 -0.4939  0.9742  0.0059
 1440SOL    HW115953   3.482   0.762   0.617 -0.9377 -0.0107  0.1144
 1440SOL    HW215954   3.353   0.832   0.578 -0.0454  1.5043  0.1394
 1441SOL     OW15955   0.757   2.985  12.748  0.2194  0.1828 -0.2122
 1441SOL    HW115956   0.763   3.052  12.816 -1.9720  0.3645 -0.1984
 1441SOL    HW215957   0.738   2.910  12.805  3.1574 -0.7936 -0.5231
 1442SOL     OW15958   3.197   2.924   2.087 -0.1275  0.0996 -0.1474
 1442SOL    HW115959   3.193   3.006   2.038 -1.3490  0.0210 -0.1640
 1442SOL    HW215960   3.273   2.940   2.143  0.2130 -1.3028 -0.2120
 1443SOL     OW15961   0.134   2.193   2.662 -0.1140  0.0717 -0.1242
 1443SOL    HW115962   0.169   2.266   2.611 -0.7696 -0.2390 -1.0217
 1443SOL    HW215963   0.040   2.212   2.660 -0.3363 -0.8439  1.8576
 1444SOL     OW15964   4.275   1.737   2.403 -0.1139  0.0536 -0.0762
 1444SOL    HW115965   4.357   1.738   2.453 -0.8561  0.7047  1.1005
 1444SOL    HW215966   4.230   1.664   2.445  2.0232  0.0185  2.1838
 1445SOL     OW15967   0.904   2.406   2.818 -0.2765 -0.1947  0.3325
 1445SOL    HW115968   0.935   2.486   2.774  0.0127  1.0069  2.7042
 1445SOL    HW215969   0.890   2.349   2.743  2.2767  0.1402 -0.4158
 1446SOL     OW15970   4.140   0.293   5.866  0.4943  0.4397 -0.2634
 1446SOL    HW115971   4.100   0.379   5.855 -1.3096 -0.4276 -0.5148
 1446SOL    HW215972   4.228   0.299   5.829  0.4415  1.0827 -0.2826
 1447SOL     OW15973   2.793   3.340   2.139  0.3942 -0.5662  0.0767
 1447SOL    HW115974   2.790   3.423   2.186 -0.5055 -0.2841 -0.4921
 1447SOL    HW215975   2.702   3.312   2.134  0.0815  0.5701 -0.5439
 1448SOL     OW15976   0.596   1.047   2.529  0.5121  0.6770  0.6735
 1448SOL    HW115977   0.669   0.986   2.522 -0.8320 -0.8833  0.1948
 1448SOL    HW215978   0.552   1.018   2.610  0.4686  0.3112  0.5205
 1449SOL     OW15979   2.316   3.941   7.417  0.7133 -0.2606 -0.1831
 1449SOL    HW115980   2.229   3.965   7.447  0.3452 -2.4093  0.4610
 1449SOL    HW215981   2.320   3.850   7.446  1.2767 -0.0649  0.3481
 1450SOL     OW15982   3.711   4.304  14.988 -0.2073  0.2199 -0.2086
 1450SOL    HW115983   3.779   4.280  14.924 -0.7331  2.4911 -1.6089
 1450SOL    HW215984   3.670   4.383  14.951  2.4170  1.6820  0.0086
 1451SOL     OW15985   2.630   3.470   4.797 -0.1814  0.1892 -0.2294
 1451SOL    HW115986   2.652   3.476   4.704 -0.1877  0.2484 -0.2272
 1451SOL    HW215987   2.715   3.499   4.831  0.0742 -0.4223 -0.3370
 1452SOL     OW15988   3.768   1.157   3.064 -0.1695  0.0942 -0.1587
 1452SOL    HW115989   3.831   1.229   3.073  1.2884 -1.0726 -1.0606
 1452SOL    HW215990   3.687   1.198   3.034  0.0569  1.2988  0.8593
 1453SOL     OW15991   3.924   1.565  16.357  0.1165 -0.4606  0.2560
 1453SOL    HW115992   3.829   1.566  16.347  0.1235  1.8795  0.4372
 1453SOL    HW215993   3.935   1.651  16.399 -2.2064 -0.4100  0.7169
 1454SOL     OW15994   1.977   4.209   9.146 -0.7017  0.4854 -0.1688
 1454SOL    HW115995   2.021   4.241   9.068  0.0479 -2.6142 -1.0071
 1454SOL    HW215996   2.061   4.186   9.186  0.0757  0.6287 -1.7422
 1455SOL     OW15997   0.142   0.449   9.359 -0.9337 -0.3055 -0.0260
 1455SOL    HW115998   0.048   0.436   9.374 -1.1864 -0.1620 -1.4821
 1455SOL    HW215999   0.171   0.358   9.364  3.2121  1.1505  2.1777
 1456SOL     OW16000   3.512   1.349  10.866 -0.2205 -0.0096  0.2834
 1456SOL    HW116001   3.472   1.398  10.938  0.4300 -1.3572  1.5365
 1456SOL    HW216002   3.485   1.259  10.884  3.2896 -0.8042  1.5238
 1457SOL     OW16003   1.195   1.448   3.029  0.0924  0.9467 -0.6202
 1457SOL    HW116004   1.183   1.389   2.955 -2.7489 -0.3405  0.8756
 1457SOL    HW216005   1.238   1.396   3.096 -2.2277  1.0327  0.9315
 1458SOL     OW16006   2.159   0.624   3.715 -0.8233 -0.6403  0.5494
 1458SOL    HW116007   2.104   0.673   3.654  0.2579  0.6358  0.6117
 1458SOL    HW216008   2.134   0.661   3.799  1.7284  0.9181  0.6148
 1459SOL     OW16009   3.952   4.705  17.270 -0.6657  0.3282  0.0549
 1459SOL    HW116010   3.946   4.623  17.222  2.4935  1.1005 -1.6090
 1459SOL    HW216011   3.936   0.029  17.201  0.1169  1.0929  0.5881
 1460SOL     OW16012   3.542   1.987  17.640  0.2235 -0.0690 -0.5851
 1460SOL    HW116013   3.537   1.915  17.702  0.1349 -1.1108 -1.7875
 1460SOL    HW216014   3.502   1.951  17.561 -0.7374 -0.2168 -0.0333
 1461SOL     OW16015   2.144   3.187  10.912 -0.3832 -0.0877 -0.0089
 1461SOL    HW116016   2.158   3.106  10.962 -1.5744  0.9109  1.9090
 1461SOL    HW216017   2.123   3.242  10.987 -0.6367  1.9388 -1.5824
 1462SOL     OW16018   1.897   3.793  13.002  0.0024  0.1329 -0.6587
 1462SOL    HW116019   1.859   3.843  12.929  0.5500 -0.9492 -1.6878
 1462SOL    HW216020   1.853   3.711  12.983  0.7414 -1.0293  2.7221
 1463SOL     OW16021   3.449   3.519   3.114 -0.1640 -0.2868  0.8387
 1463SOL    HW116022   3.490   3.490   3.033  1.3672 -0.3908  1.6532
 1463SOL    HW216023   3.484   3.608   3.115 -1.3534  0.1382  3.3551
 1464SOL     OW16024   4.020   3.235   4.178  0.1638  0.2047 -0.4147
 1464SOL    HW116025   4.086   3.195   4.121  0.2792 -0.8638  0.4532
 1464SOL    HW216026   4.022   3.320   4.135 -2.1895 -0.0666 -1.0195
 1465SOL     OW16027   4.729   2.059   5.501 -0.3439 -0.2688  0.1989
 1465SOL    HW116028   4.647   2.060   5.551  0.7778  0.3032  2.0315
 1465SOL    HW216029   0.047   2.111   5.556  0.7029 -1.8062  0.5391
 1466SOL     OW16030   1.325   0.795  17.499 -0.5446 -0.3767  0.1252
 1466SOL    HW116031   1.290   0.778  17.586  0.1355 -1.1716  0.2420
 1466SOL    HW216032   1.250   0.836  17.456  1.2856  1.2892 -1.5256
 1467SOL     OW16033   1.658   1.905   4.865  0.1343 -0.2145  0.0654
 1467SOL    HW116034   1.753   1.905   4.872  0.1626  0.1469 -0.3180
 1467SOL    HW216035   1.632   1.982   4.814  1.6389  1.1173  1.3334
 1468SOL     OW16036   4.731   2.643   7.548 -0.2570  1.1162 -0.2353
 1468SOL    HW116037   4.678   2.582   7.600 -0.6027  1.9971  0.4319
 1468SOL    HW216038   4.696   2.728   7.572 -1.2212  0.1846  1.7058
 1469SOL     OW16039   2.438   2.450   0.418  0.0087  0.2838 -0.3607
 1469SOL    HW116040   2.499   2.513   0.456  1.2271  0.0437 -1.9135
 1469SOL    HW216041   2.459   2.438   0.325 -0.6882  1.2515 -0.6518
 1470SOL     OW16042   4.151   0.877   9.423  0.3076  0.1254 -0.3861
 1470SOL    HW116043   4.205   0.871   9.501  0.7956 -1.4860 -0.8503
 1470SOL    HW216044   4.205   0.930   9.364 -0.3572  0.9717 -0.2287
 1471SOL     OW16045   1.109   0.747   0.715 -0.3664  0.5257 -0.8305
 1471SOL    HW116046   1.034   0.773   0.663  0.7718  1.8159 -1.8426
 1471SOL    HW216047   1.120   0.659   0.681 -2.9814  0.7823 -2.3502
 1472SOL     OW16048   4.182   1.109   3.023 -0.0882  0.1682  0.4812
 1472SOL    HW116049   4.131   1.058   3.086 -1.5405 -0.6585 -1.4032
 1472SOL    HW216050   4.137   1.111   2.939 -0.7271 -1.6492  0.7904
 1473SOL     OW16051   2.182   3.887   1.487  0.5244  0.2493  0.0430
 1473SOL    HW116052   2.182   3.887   1.583 -0.0087 -0.4166  0.0507
 1473SOL    HW216053   2.092   3.855   1.492  0.1430  1.4089  0.4961
 1474SOL     OW16054   1.402   0.221   9.689  0.6670 -0.6847  0.2479
 1474SOL    HW116055   1.410   0.312   9.717  1.0377 -0.0455 -1.9542
 1474SOL    HW216056   1.306   0.222   9.690  0.6795  0.1485  0.2760
 1475SOL     OW16057   1.373   2.112   4.888 -0.4707 -0.1866  0.0963
 1475SOL    HW116058   1.384   2.079   4.799 -1.8845  1.4589 -0.6958
 1475SOL    HW216059   1.436   2.184   4.892 -0.8188  0.2580 -2.3874
 1476SOL     OW16060   1.039   3.492  12.547 -0.2665  0.3207  0.9709
 1476SOL    HW116061   1.032   3.573  12.498  0.3088 -1.5706 -2.2260
 1476SOL    HW216062   1.072   3.532  12.628  1.7268  0.1657  0.2318
 1477SOL     OW16063   1.746   1.243   8.811  0.1072  0.0369  0.0932
 1477SOL    HW116064   1.766   1.152   8.833  1.8205  0.9999  2.4437
 1477SOL    HW216065   1.796   1.293   8.876  2.1742 -0.1735 -1.3242
 1478SOL     OW16066   4.573   4.496  13.290  0.6486  0.5621 -0.2413
 1478SOL    HW116067   4.638   4.433  13.258  1.4126  1.2364 -0.0062
 1478SOL    HW216068   4.610   4.530  13.371 -0.9077 -0.8458  1.0730
 1479SOL     OW16069   1.452   1.375   9.317 -0.8557  0.5515 -0.0855
 1479SOL    HW116070   1.369   1.354   9.360 -0.7496 -1.2091 -0.7409
 1479SOL    HW216071   1.523   1.349   9.375  0.1901  3.6514 -0.0024
 1480SOL     OW16072   0.822   0.691   8.940 -0.4685  0.5538  0.0227
 1480SOL    HW116073   0.839   0.783   8.958  0.2178  0.7135 -1.4363
 1480SOL    HW216074   0.877   0.655   9.010  0.4969  0.9919 -0.5250
 1481SOL     OW16075   4.452   3.169   8.237 -0.0771  0.1455 -0.2381
 1481SOL    HW116076   4.481   3.130   8.155 -0.9480 -1.0297  0.0011
 1481SOL    HW216077   4.420   3.257   8.215  2.6466  0.8992 -1.2042
 1482SOL     OW16078   3.080   0.473  15.165  0.3046 -0.1844 -0.0087
 1482SOL    HW116079   3.147   0.490  15.231  0.1600 -0.5484  0.2314
 1482SOL    HW216080   3.105   0.538  15.100 -1.3055 -0.7567 -1.2085
 1483SOL     OW16081   0.162   0.597   6.001  0.2901 -0.6018 -0.0559
 1483SOL    HW116082   0.160   0.664   5.933 -0.4293 -0.1993  0.3715
 1483SOL    HW216083   0.254   0.569   6.000  1.0876  2.0469  1.2369
 1484SOL     OW16084   4.529   2.512   4.111 -0.5911 -0.1614  0.1103
 1484SOL    HW116085   4.437   2.514   4.088 -0.9033 -0.5659  1.3304
 1484SOL    HW216086   4.578   2.570   4.053 -1.4825 -0.8982 -1.3756
 1485SOL     OW16087   2.440   3.975  10.868  0.0385  0.4206 -0.3015
 1485SOL    HW116088   2.490   3.982  10.950 -0.0915 -0.4663 -0.1454
 1485SOL    HW216089   2.371   4.039  10.883 -2.3574 -2.3553  0.5766
 1486SOL     OW16090   4.015   4.726   4.228 -0.1827  0.0915 -0.2659
 1486SOL    HW116091   4.015   0.044   4.152  1.1428  0.8763  0.3250
 1486SOL    HW216092   4.102   0.009   4.263 -1.1946  1.9406  1.0085
 1487SOL     OW16093   3.416   2.934   3.167  0.4651  0.1070 -0.3928
 1487SOL    HW116094   3.501   2.946   3.125  0.2966  0.8352 -0.5258
 1487SOL    HW216095   3.419   2.984   3.249 -1.4602 -0.2616 -0.0864
 1488SOL     OW16096   4.059   2.410   6.794 -0.2965  0.0927 -0.1861
 1488SOL    HW116097   4.052   2.472   6.721  1.2054  0.7260  0.1944
 1488SOL    HW216098   4.155   2.412   6.800 -0.3080  2.2376 -0.8973
 1489SOL     OW16099   1.976   1.736  13.974  0.1756  0.3096  0.0759
 1489SOL    HW116100   1.955   1.799  14.043  1.5958 -0.7915  1.4985
 1489SOL    HW216101   2.043   1.786  13.926 -1.3647 -0.6560 -3.0848
 1490SOL     OW16102   0.972   1.839   5.837  0.0835 -0.2591 -0.4110
 1490SOL    HW116103   1.058   1.805   5.811  0.4457  0.7007 -0.4603
 1490SOL    HW216104   0.996   1.853   5.928  2.2233  0.4157 -1.0918
 1491SOL     OW16105   0.134   3.429   7.157  0.7818  0.0258  0.2357
 1491SOL    HW116106   0.046   3.394   7.173  0.6505 -0.1314 -0.8419
 1491SOL    HW216107   0.126   3.504   7.216  2.1937 -0.5805  1.1755
 1492SOL     OW16108   2.758   1.839  10.730  0.6609 -0.5704  0.0197
 1492SOL    HW116109   2.787   1.778  10.663  1.1289 -0.3138 -0.0145
 1492SOL    HW216110   2.759   1.925  10.687  1.3164 -1.1161 -1.0512
 1493SOL     OW16111   2.366   0.600  16.911 -0.3240  0.2017 -0.5002
 1493SOL    HW116112   2.364   0.522  16.967 -0.9879 -0.4026 -1.3714
 1493SOL    HW216113   2.382   0.667  16.977 -1.5724  0.5801 -0.5734
 1494SOL     OW16114   3.422   2.838   3.635  0.0570 -0.0895 -0.4784
 1494SOL    HW116115   3.356   2.769   3.639  3.0829 -3.0728 -2.6024
 1494SOL    HW216116   3.376   2.922   3.640 -1.3408 -0.7017 -3.4054
 1495SOL     OW16117   1.628   3.314   3.770 -0.2655 -0.0876 -0.2400
 1495SOL    HW116118   1.707   3.364   3.750 -1.3330  2.1005  1.0254
 1495SOL    HW216119   1.629   3.310   3.866  2.1968 -1.5232 -0.3228
 1496SOL     OW16120   3.928   1.866   8.697  0.5508  0.4889 -0.2286
 1496SOL    HW116121   3.834   1.883   8.701  0.7734  2.0467 -1.3539
 1496SOL    HW216122   3.949   1.899   8.784  0.8362  0.2519 -0.2096
 1497SOL     OW16123   2.309   3.957  11.958 -0.5482  0.1770  1.3154
 1497SOL    HW116124   2.338   3.895  12.024  1.2787 -1.4290 -0.9758
 1497SOL    HW216125   2.219   3.977  11.982 -0.4740  1.9926  0.1271
 1498SOL     OW16126   0.316   0.282   2.460  0.2639 -0.1847  0.2008
 1498SOL    HW116127   0.327   0.335   2.382  0.2198 -0.0119  0.3111
 1498SOL    HW216128   0.326   0.340   2.535 -1.0679  1.1736 -0.6820
 1499SOL     OW16129   4.503   0.598   7.012 -0.0016  0.6896 -0.3531
 1499SOL    HW116130   4.593   0.605   7.042  0.1590  1.0135 -0.9225
 1499SOL    HW216131   4.473   0.510   7.037  0.2345  0.3301 -1.3191
 1500SOL     OW16132   1.282   1.963   1.921 -0.2218 -0.1252  0.2957
 1500SOL    HW116133   1.319   1.936   2.006  1.2119 -0.0884 -0.3086
 1500SOL    HW216134   1.326   2.048   1.916 -0.2545 -0.1753 -0.8082
 1501SOL     OW16135   1.623   3.165   8.745 -0.4274  0.0229  0.3424
 1501SOL    HW116136   1.702   3.189   8.696 -0.5950 -1.0107 -0.4172
 1501SOL    HW216137   1.660   3.083   8.776 -0.3928 -0.4467 -0.9578
 1502SOL     OW16138   3.634   2.263   0.619  0.0666  0.0763 -0.1662
 1502SOL    HW116139   3.714   2.211   0.625 -0.4068 -0.5225  0.9936
 1502SOL    HW216140   3.610   2.256   0.527  0.3182  0.0835 -0.2327
 1503SOL     OW16141   4.307   1.970   5.084  0.5329  0.0867  0.2448
 1503SOL    HW116142   4.401   1.983   5.090  0.7953 -2.4242  1.3594
 1503SOL    HW216143   4.296   1.876   5.098  1.3893 -0.3260 -1.8090
 1504SOL     OW16144   3.999   4.527   6.855 -0.0729  0.4394  0.4753
 1504SOL    HW116145   4.029   4.617   6.843  1.9642 -0.1572  1.1255
 1504SOL    HW216146   3.974   4.523   6.947 -0.8278 -0.2498  0.2421
 1505SOL     OW16147   1.677   1.210  12.875  0.1882 -0.2314  0.3093
 1505SOL    HW116148   1.727   1.135  12.906  1.3328  0.1470 -0.6219
 1505SOL    HW216149   1.716   1.272  12.937 -0.3200  2.0545 -1.6308
 1506SOL     OW16150   0.193   1.932   6.748 -0.6083  0.6680  0.2495
 1506SOL    HW116151   0.212   2.005   6.808  0.5469  0.4952  0.0928
 1506SOL    HW216152   0.110   1.968   6.719 -0.2515  0.7779 -0.6358
 1507SOL     OW16153   2.073   3.695   1.922 -0.3551 -0.3695  0.3076
 1507SOL    HW116154   1.999   3.657   1.969 -1.1793  0.8395  0.0033
 1507SOL    HW216155   2.135   3.623   1.910  0.3514  0.3341 -0.2813
 1508SOL     OW16156   3.675   4.123  15.165  0.1083 -0.2255 -0.1295
 1508SOL    HW116157   3.763   4.120  15.204 -1.4718  1.7016  3.6130
 1508SOL    HW216158   3.684   4.195  15.102  0.1958  0.6503  0.8743
 1509SOL     OW16159   3.509   3.379   3.693  0.3312  0.2742  0.1867
 1509SOL    HW116160   3.419   3.409   3.679 -0.1712 -0.2904  2.2820
 1509SOL    HW216161   3.551   3.387   3.607 -0.6733  2.2480 -0.1298
 1510SOL     OW16162   1.470   3.216   2.974 -0.6421 -0.4185 -0.7572
 1510SOL    HW116163   1.416   3.266   3.035 -1.4647 -3.9421  1.3923
 1510SOL    HW216164   1.505   3.160   3.043  0.2435 -0.0025 -0.8680
 1511SOL     OW16165   4.250   1.917  11.106 -0.4679 -0.2636  0.3655
 1511SOL    HW116166   4.281   1.923  11.197  0.1579 -1.7000  0.2492
 1511SOL    HW216167   4.329   1.933  11.055  0.3281  0.1469  1.7214
 1512SOL     OW16168   2.015   0.341   8.375 -0.0826  0.2756  0.0068
 1512SOL    HW116169   2.027   0.272   8.440  0.9680  1.6114  1.2377
 1512SOL    HW216170   2.086   0.405   8.385  1.1128 -0.9167 -0.9259
 1513SOL     OW16171   1.891   2.353   9.299 -0.0039 -0.4437  0.0086
 1513SOL    HW116172   1.908   2.441   9.331 -0.3347 -0.7986  1.1526
 1513SOL    HW216173   1.807   2.330   9.339 -0.3100  0.4925 -0.0995
 1514SOL     OW16174   4.653   2.436   5.407 -0.1199  0.0078 -0.4688
 1514SOL    HW116175   4.569   2.480   5.393  0.0616  0.5244  0.0510
 1514SOL    HW216176   4.634   2.363   5.467 -1.2321  0.7756  0.1117
 1515SOL     OW16177   1.243   2.722   3.926  0.1785 -0.3466 -0.4255
 1515SOL    HW116178   1.158   2.720   3.970  0.3441 -0.3102 -0.1093
 1515SOL    HW216179   1.278   2.790   3.984 -0.3329 -1.1861  0.8462
 1516SOL     OW16180   4.458   4.167  12.379  0.0567 -0.3582  0.6493
 1516SOL    HW116181   4.516   4.102  12.419 -0.1517 -0.3036  1.0333
 1516SOL    HW216182   4.382   4.164  12.437 -1.0161 -1.3494 -0.7953
 1517SOL     OW16183   3.262   3.151   5.864 -0.4710 -0.1929  0.3224
 1517SOL    HW116184   3.305   3.089   5.805 -1.4924 -0.7618  0.1690
 1517SOL    HW216185   3.332   3.150   5.930  0.7908 -0.4120 -1.0207
 1518SOL     OW16186   0.395   1.882   4.627 -0.5209  0.2928 -0.2552
 1518SOL    HW116187   0.430   1.940   4.560 -3.4023  0.4154 -1.6463
 1518SOL    HW216188   0.403   1.799   4.580 -1.4742 -0.6328  1.2028
 1519SOL     OW16189   0.222   0.746  10.909  0.3816 -1.0183 -0.1654
 1519SOL    HW116190   0.227   0.672  10.849  1.8241 -2.5518  1.8427
 1519SOL    HW216191   0.131   0.739  10.937  0.5699 -1.2494  0.3883
 1520SOL     OW16192   3.888   1.930   3.042  0.3452 -0.1423  0.1999
 1520SOL    HW116193   3.808   1.883   3.016  0.2439 -0.0835  0.4068
 1520SOL    HW216194   3.957   1.893   2.986 -0.3326 -0.7359 -0.2519
 1521SOL     OW16195   2.741   3.299   7.640 -0.0156 -0.6175  0.2149
 1521SOL    HW116196   2.734   3.244   7.718 -1.7599  0.0202  0.5020
 1521SOL    HW216197   2.790   3.245   7.578  0.0591  0.7944 -0.9397
 1522SOL     OW16198   1.650   0.306   4.828 -0.6685  0.3125  0.1177
 1522SOL    HW116199   1.595   0.377   4.794  0.2347  0.8020 -0.3247
 1522SOL    HW216200   1.595   0.234   4.797  0.5710 -0.0616 -1.1825
 1523SOL     OW16201   4.411   1.747   8.266  0.5424  0.1747 -0.4788
 1523SOL    HW116202   4.470   1.672   8.277 -1.6394 -1.4711 -0.0478
 1523SOL    HW216203   4.424   1.772   8.174  2.0990 -0.0810 -0.3372
 1524SOL     OW16204   2.845   4.489   2.598 -0.1274 -0.3636 -0.3483
 1524SOL    HW116205   2.828   4.583   2.601  1.7450 -0.0636  0.8224
 1524SOL    HW216206   2.770   4.446   2.639  1.3946 -1.6062  1.1415
 1525SOL     OW16207   4.509   0.550  11.714  0.7148  0.5849  0.2193
 1525SOL    HW116208   4.417   0.540  11.738  0.6735 -1.3105 -0.7964
 1525SOL    HW216209   4.517   0.462  11.679  2.3875  0.0836  1.8940
 1526SOL     OW16210   1.849   1.304   9.075  0.2588  0.2345  0.3145
 1526SOL    HW116211   1.944   1.313   9.066 -0.3644  2.5073 -4.0425
 1526SOL    HW216212   1.844   1.230   9.135 -0.4819 -0.1947 -0.2824
 1527SOL     OW16213   0.651   1.321   9.164  0.0365  0.3476  0.1946
 1527SOL    HW116214   0.574   1.361   9.205 -0.2443 -1.3436  1.3220
 1527SOL    HW216215   0.607   1.238   9.146 -0.6278  0.3555  1.7013
 1528SOL     OW16216   4.524   1.213  14.076  0.1058 -0.3332  0.6464
 1528SOL    HW116217   4.617   1.235  14.084 -0.2689  0.1713  3.4786
 1528SOL    HW216218   4.525   1.147  14.007  0.4384  0.2306  0.1145
 1529SOL     OW16219   0.007   3.482  15.043 -0.2904 -0.1653 -0.4749
 1529SOL    HW116220   0.023   3.523  14.958  1.9752 -0.2667 -0.0978
 1529SOL    HW216221   4.692   3.412  15.008  2.1902 -0.7237 -3.3145
 1530SOL     OW16222   3.434   2.813   4.653  0.0045 -0.3210 -0.9547
 1530SOL    HW116223   3.384   2.803   4.571 -0.6562 -0.2381 -0.5649
 1530SOL    HW216224   3.365   2.836   4.716  1.6068 -0.2747  0.7764
 1531SOL     OW16225   1.567   0.977   5.973  0.3223 -0.0436 -0.2780
 1531SOL    HW116226   1.530   0.970   5.885  0.3655 -1.1096 -0.2099
 1531SOL    HW216227   1.640   0.916   5.971  0.1140 -0.3165  0.8226
 1532SOL     OW16228   3.557   1.573   3.336  0.3472  0.1001 -0.4863
 1532SOL    HW116229   3.521   1.513   3.271 -0.0874  1.1231 -1.1905
 1532SOL    HW216230   3.473   1.600   3.372 -0.1061  0.2110 -1.6179
 1533SOL     OW16231   2.445   1.753   5.069 -0.5465  0.5066 -0.5325
 1533SOL    HW116232   2.380   1.781   5.133  0.3781 -2.6344  1.7618
 1533SOL    HW216233   2.514   1.820   5.068  2.1515 -2.2233  0.7457
 1534SOL     OW16234   0.399   0.119  12.603  0.3585 -0.1793 -0.3040
 1534SOL    HW116235   0.453   0.071  12.666 -1.1547  0.1508  1.2337
 1534SOL    HW216236   0.319   0.129  12.654  0.8942 -3.2360  1.1801
 1535SOL     OW16237   4.048   0.753   3.863 -0.3138  0.1745  0.0877
 1535SOL    HW116238   4.042   0.757   3.958  2.0448 -0.6286  0.2832
 1535SOL    HW216239   3.959   0.719   3.854 -0.5778  0.9379 -0.2641
 1536SOL     OW16240   1.286   2.060   2.887 -0.0635 -0.1606  0.2891
 1536SOL    HW116241   1.198   2.057   2.848 -0.6787  2.3890  1.4971
 1536SOL    HW216242   1.282   2.112   2.967 -1.1473  0.8290 -0.3934
 1537SOL     OW16243   3.671   2.675   5.516 -0.0052 -0.1345  0.0258
 1537SOL    HW116244   3.607   2.605   5.533 -3.1291  2.4041 -1.2786
 1537SOL    HW216245   3.732   2.673   5.590 -0.1116 -5.3813 -0.0085
 1538SOL     OW16246   0.189   2.177   6.827 -0.4293 -0.1796 -0.7337
 1538SOL    HW116247   0.191   2.231   6.906  1.2221 -2.3798  0.7371
 1538SOL    HW216248   0.173   2.250   6.767  2.3268  1.4067  0.4517
 1539SOL     OW16249   0.851   0.408  10.153 -0.4841 -0.4685 -0.0857
 1539SOL    HW116250   0.799   0.367  10.222 -1.1176  3.3519  1.6819
 1539SOL    HW216251   0.840   0.500  10.178  0.5156 -0.7769  1.4256
 1540SOL     OW16252   1.797   4.549   8.892  0.3001  0.0990  0.0707
 1540SOL    HW116253   1.709   4.577   8.869  0.2785  1.3289  1.6923
 1540SOL    HW216254   1.777   4.476   8.950 -1.1610  1.1146  0.8259
 1541SOL     OW16255   1.888   1.330   3.538  0.1578  0.3136  0.3248
 1541SOL    HW116256   1.893   1.421   3.566  1.2258  0.3268  0.0776
 1541SOL    HW216257   1.981   1.307   3.542  0.4010  1.1834 -0.4763
 1542SOL     OW16258   4.160   2.731   5.674  0.0392 -0.5027  0.1362
 1542SOL    HW116259   4.254   2.726   5.657 -0.0002 -0.4217 -0.1043
 1542SOL    HW216260   4.155   2.675   5.752 -0.1264  0.4333  0.7999
 1543SOL     OW16261   1.983   1.339   4.607  0.0888  0.2584 -0.0265
 1543SOL    HW116262   1.970   1.431   4.584 -0.8040 -0.2631 -1.5877
 1543SOL    HW216263   2.056   1.332   4.669 -0.7598  1.3807  1.1152
 1544SOL     OW16264   0.154   3.311  14.162 -0.7688  0.0786  0.8339
 1544SOL    HW116265   0.189   3.256  14.232 -1.6882  0.1098  1.3265
 1544SOL    HW216266   0.234   3.333  14.114 -0.5891 -1.4401  0.4489
 1545SOL     OW16267   3.437   4.523   7.957 -0.0264  0.0433 -0.1345
 1545SOL    HW116268   3.375   4.465   7.913 -0.4101 -1.9212  2.9234
 1545SOL    HW216269   3.520   4.477   7.942 -0.3400 -1.0719  1.4619
 1546SOL     OW16270   2.817   0.793   8.203  0.1313 -0.6366 -0.5016
 1546SOL    HW116271   2.752   0.751   8.146 -0.9507 -1.1746  1.1264
 1546SOL    HW216272   2.806   0.741   8.282 -2.3336  2.4968  1.2632
 1547SOL     OW16273   4.731   0.588   5.683 -0.7459 -0.6257  0.6140
 1547SOL    HW116274   4.644   0.629   5.675  1.4016  3.7578 -0.1071
 1547SOL    HW216275   0.049   0.655   5.648  0.3600 -1.5695  0.6720
 1548SOL     OW16276   0.708   0.674   1.331 -0.0336  0.3319 -0.2195
 1548SOL    HW116277   0.698   0.756   1.282 -2.1159 -0.9401 -1.9065
 1548SOL    HW216278   0.701   0.712   1.419 -0.3499 -0.0984 -0.0585
 1549SOL     OW16279   2.059   0.167   2.092  0.3817  0.4473  0.1696
 1549SOL    HW116280   2.085   0.193   2.180 -1.1727  1.4963  0.3207
 1549SOL    HW216281   1.981   0.114   2.111 -0.5108  1.6974  0.0057
 1550SOL     OW16282   1.226   4.129   7.920 -0.2734  0.3405 -0.1564
 1550SOL    HW116283   1.312   4.101   7.952  0.4979  0.1832 -2.3840
 1550SOL    HW216284   1.177   4.136   8.002  0.8462 -0.9927  0.6206
 1551SOL     OW16285   3.454   1.644   4.431 -0.3027  0.4455 -0.3741
 1551SOL    HW116286   3.472   1.723   4.481 -0.8412  0.9473 -0.9833
 1551SOL    HW216287   3.378   1.664   4.377 -2.2447 -0.6000  1.9177
 1552SOL     OW16288   0.463   3.285   7.990 -0.1123 -0.1007 -0.0954
 1552SOL    HW116289   0.396   3.353   7.994  2.7350  2.5904  1.9242
 1552SOL    HW216290   0.540   3.324   8.032 -0.4840 -0.9706  1.4307
 1553SOL     OW16291   1.667   0.091   3.783  0.2379 -0.2452  0.1464
 1553SOL    HW116292   1.675   0.186   3.797 -1.1598 -0.1739  0.4131
 1553SOL    HW216293   1.613   0.078   3.705 -0.0992  0.0571  0.3287
 1554SOL     OW16294   1.120   0.729  13.496 -0.3226  0.2090 -0.1963
 1554SOL    HW116295   1.044   0.755  13.548  0.5153  2.4539 -0.1006
 1554SOL    HW216296   1.102   0.641  13.463 -3.0463  0.8499 -0.4689
 1555SOL     OW16297   1.093   3.592   7.718 -0.0369  0.2068 -0.4735
 1555SOL    HW116298   1.165   3.623   7.773 -1.7804  0.5175  1.6242
 1555SOL    HW216299   1.105   3.647   7.640  1.6699  3.2384  1.9281
 1556SOL     OW16300   2.824   0.754   7.872 -0.1145 -0.5543  0.4014
 1556SOL    HW116301   2.745   0.701   7.864  0.3143 -0.8584 -1.6920
 1556SOL    HW216302   2.875   0.692   7.924  0.8333  1.0806  1.4149
 1557SOL     OW16303   2.805   4.545   1.740  0.2481 -0.2807  0.1531
 1557SOL    HW116304   2.823   4.499   1.658 -2.0847 -0.2380 -0.3859
 1557SOL    HW216305   2.840   4.490   1.810 -0.2565 -0.4264  0.2935
 1558SOL     OW16306   4.719   4.694   8.455 -0.0895 -0.3494  0.3298
 1558SOL    HW116307   0.016   4.623   8.403  0.3188 -0.0602  0.2298
 1558SOL    HW216308   4.641   4.715   8.403  1.3575 -1.3976 -2.2696
 1559SOL     OW16309   1.035   3.193   5.876 -0.5342  0.2020 -0.0582
 1559SOL    HW116310   0.993   3.272   5.843  0.3842  0.1634 -1.3267
 1559SOL    HW216311   1.103   3.168   5.813  0.4867  0.9505  0.7429
 1560SOL     OW16312   4.243   4.666   6.514 -0.1990 -0.7097 -0.3039
 1560SOL    HW116313   4.242   0.008   6.466  0.4486 -0.6255 -0.1734
 1560SOL    HW216314   4.181   4.683   6.585 -0.8964 -0.8069 -0.8885
 1561SOL     OW16315   1.780   0.125   6.105  0.0333  0.1592 -0.3831
 1561SOL    HW116316   1.739   0.191   6.049  2.5011  0.4880 -1.7796
 1561SOL    HW216317   1.704   0.107   6.161 -0.9567 -1.6047 -2.2935
 1562SOL     OW16318   2.431   4.534  14.797 -0.3936  0.1680  0.2189
 1562SOL    HW116319   2.510   4.493  14.832  0.2796  1.7865  0.6216
 1562SOL    HW216320   2.482   4.596  14.744 -0.5468  0.2477  0.1635
 1563SOL     OW16321   1.765   2.587   7.647 -0.6270  0.1164 -0.1117
 1563SOL    HW116322   1.790   2.617   7.560 -0.2780  0.8369  0.2316
 1563SOL    HW216323   1.670   2.601   7.646 -0.6874 -0.4807 -1.9495
 1564SOL     OW16324   4.303   3.087  17.091  0.1928 -0.2053  0.5925
 1564SOL    HW116325   4.326   3.079  16.998  2.5795  1.0727  1.0646
 1564SOL    HW216326   4.211   3.109  17.082  0.1352 -1.3737 -1.7759
 1565SOL     OW16327   4.020   0.267  12.173 -1.0909 -0.1259  0.2669
 1565SOL    HW116328   4.002   0.215  12.251  1.2974  2.3935  2.4764
 1565SOL    HW216329   4.066   0.342  12.209  1.3399 -0.2937 -2.4526
 1566SOL     OW16330   1.329   3.757  14.288 -0.4207  0.0215 -0.6759
 1566SOL    HW116331   1.351   3.713  14.371 -0.3979  3.7392  1.2923
 1566SOL    HW216332   1.408   3.735  14.238  0.0578  1.2426 -0.4525
 1567SOL     OW16333   4.255   2.302  16.272 -0.4765  0.2421  0.1982
 1567SOL    HW116334   4.199   2.336  16.341 -1.0104  1.7790 -0.9738
 1567SOL    HW216335   4.316   2.262  16.333  1.5362  0.6787 -1.5180
 1568SOL     OW16336   2.221   0.595  16.670  0.4363  0.1198  0.0470
 1568SOL    HW116337   2.283   0.571  16.739 -1.4616 -0.9372  1.3948
 1568SOL    HW216338   2.187   0.676  16.708  0.0493  0.8063 -1.7695
 1569SOL     OW16339   0.843   0.877   0.916 -0.1308 -0.2490 -0.3739
 1569SOL    HW116340   0.892   0.956   0.938 -0.7763 -0.1863  0.8135
 1569SOL    HW216341   0.854   0.878   0.821  0.8228 -2.5627 -0.2720
 1570SOL     OW16342   3.515   1.823   2.469  0.1569  0.0165 -0.3848
 1570SOL    HW116343   3.594   1.876   2.465 -0.2129  0.7346  1.5728
 1570SOL    HW216344   3.451   1.869   2.524 -0.0679  0.4936 -1.0410
 1571SOL     OW16345   0.840   0.373   2.455 -0.4186  0.4269 -0.7638
 1571SOL    HW116346   0.765   0.327   2.492  0.2705  1.0879  1.4103
 1571SOL    HW216347   0.891   0.409   2.527 -2.6905 -2.5335  2.2741
 1572SOL     OW16348   2.702   4.158  11.475 -0.0074 -0.2110 -0.0280
 1572SOL    HW116349   2.723   4.246  11.443  0.9703 -0.6310 -0.5423
 1572SOL    HW216350   2.787   4.123  11.502 -1.8313 -3.2915  1.6938
 1573SOL     OW16351   3.036   1.970  12.308  0.1968  0.0519 -0.0476
 1573SOL    HW116352   3.071   1.921  12.383 -1.4686 -1.5188 -0.2820
 1573SOL    HW216353   3.110   1.991  12.252  0.1055 -0.6068 -0.4170
 1574SOL     OW16354   3.719   1.291   3.585  0.1841  0.1411 -0.0738
 1574SOL    HW116355   3.808   1.300   3.549  0.9006  2.1233  2.2231
 1574SOL    HW216356   3.715   1.361   3.649  1.5804  0.0328  0.1392
 1575SOL     OW16357   2.176   1.765   9.745 -0.4370  0.2366 -0.0022
 1575SOL    HW116358   2.255   1.716   9.725 -0.1558  0.2294  1.1328
 1575SOL    HW216359   2.195   1.859   9.736  1.4032 -0.2240 -0.8343
 1576SOL     OW16360   0.910   3.165   8.444 -0.0784  0.4088 -0.3625
 1576SOL    HW116361   0.885   3.079   8.476 -0.4019  0.3416 -0.8055
 1576SOL    HW216362   0.995   3.149   8.403  0.4087 -0.9406  1.1898
 1577SOL     OW16363   2.475   3.671   3.314 -0.2758 -0.2427  0.5667
 1577SOL    HW116364   2.531   3.601   3.283 -2.9165 -2.9900  2.0380
 1577SOL    HW216365   2.474   3.742   3.249 -3.0533  0.4213  1.3220
 1578SOL     OW16366   3.497   0.164   7.520  0.3919 -0.1369 -0.1447
 1578SOL    HW116367   3.436   0.182   7.592  1.1842 -1.2584  0.8128
 1578SOL    HW216368   3.462   0.236   7.467 -0.9054 -0.9274 -0.3581
 1579SOL     OW16369   2.361   1.508   3.886 -0.4839  0.3587 -0.6686
 1579SOL    HW116370   2.396   1.528   3.974  1.0870 -0.3910 -1.1152
 1579SOL    HW216371   2.302   1.581   3.870  2.2584  3.4225  3.0649
 1580SOL     OW16372   0.551   3.462  16.382 -0.3647  0.1079  0.0700
 1580SOL    HW116373   0.459   3.452  16.356 -0.1504  1.1002 -1.0881
 1580SOL    HW216374   0.541   3.530  16.448 -1.1416  0.7976 -0.7573
 1581SOL     OW16375   1.095   2.051   4.059  0.6082 -0.1975  0.3572
 1581SOL    HW116376   1.002   2.042   4.081  0.3925 -0.1249 -0.5585
 1581SOL    HW216377   1.123   1.960   4.050 -1.6149 -1.0159  1.4768
 1582SOL     OW16378   0.186   0.959   3.551  0.1636 -0.2326 -0.5511
 1582SOL    HW116379   0.155   0.871   3.572  1.5001 -0.4901  0.3720
 1582SOL    HW216380   0.199   0.956   3.457 -0.9800  2.5099 -0.7741
 1583SOL     OW16381   4.156   1.600   2.630  0.4999  0.1066 -0.3355
 1583SOL    HW116382   4.210   1.610   2.708 -1.4594 -0.2521  1.0781
 1583SOL    HW216383   4.092   1.671   2.630 -0.5454 -0.8381  0.8581
 1584SOL     OW16384   0.335   4.482   4.473 -0.1761  1.0043  0.4169
 1584SOL    HW116385   0.328   4.449   4.563 -1.8979  0.0634 -0.0599
 1584SOL    HW216386   0.240   4.491   4.461  0.0020  2.2104 -0.0636
 1585SOL     OW16387   2.566   1.829  16.807  0.2135 -0.6298 -0.5055
 1585SOL    HW116388   2.504   1.782  16.862  0.4821  0.6909  0.9449
 1585SOL    HW216389   2.541   1.827  16.714  0.0252 -1.2454 -0.4398
 1586SOL     OW16390   4.031   3.906  10.147  0.2816  0.1089  0.2002
 1586SOL    HW116391   4.082   3.866  10.218  0.3184  0.8198  0.5654
 1586SOL    HW216392   4.019   3.995  10.178  0.0891 -0.1182  0.7634
 1587SOL     OW16393   1.997   0.609   2.257 -0.2166  0.6311  0.6174
 1587SOL    HW116394   2.047   0.547   2.205 -1.6164  1.9821 -2.3426
 1587SOL    HW216395   1.930   0.554   2.298  0.0707 -0.1202  0.0626
 1588SOL     OW16396   4.163   2.774  15.891  0.2407  0.1233  0.2796
 1588SOL    HW116397   4.242   2.732  15.857  0.5580 -0.9333  2.2695
 1588SOL    HW216398   4.176   2.763  15.986 -2.6518 -2.9620  0.3155
 1589SOL     OW16399   3.359   1.055   8.123 -0.2344 -0.2392 -0.2315
 1589SOL    HW116400   3.285   1.057   8.063 -0.2801  0.8044 -0.1430
 1589SOL    HW216401   3.437   1.053   8.067  0.5797  0.3829  0.8735
 1590SOL     OW16402   3.264   0.327   3.103  0.0979  0.1841  0.1584
 1590SOL    HW116403   3.282   0.291   3.190  1.3103  1.2687  0.3604
 1590SOL    HW216404   3.217   0.409   3.121 -0.0131  0.8003 -2.9416
 1591SOL     OW16405   0.377   3.114   4.419  0.3320 -0.1913  0.4613
 1591SOL    HW116406   0.448   3.056   4.390  0.6798  1.1978 -1.4714
 1591SOL    HW216407   0.434   3.188   4.441  0.8517 -0.0518 -1.3831
 1592SOL     OW16408   4.427   2.865   0.111  0.3059 -0.3452 -0.3966
 1592SOL    HW116409   4.477   2.813   0.048  1.0253 -0.2471  0.0925
 1592SOL    HW216410   4.335   2.839   0.111  1.5545 -4.7501  2.5924
 1593SOL     OW16411   4.313   4.249   3.058 -0.1175  0.8956 -0.4814
 1593SOL    HW116412   4.350   4.327   3.102  0.7367 -0.8850  2.0008
 1593SOL    HW216413   4.331   4.269   2.966 -0.5353 -0.1837 -0.7903
 1594SOL     OW16414   4.530   3.342   6.139  0.0458  0.0567  0.7308
 1594SOL    HW116415   4.519   3.357   6.233 -0.2953 -1.3943  0.9256
 1594SOL    HW216416   4.446   3.298   6.125 -0.2902  0.6062  1.0002
 1595SOL     OW16417   0.219   0.124   5.969  0.1918 -0.7154 -0.2668
 1595SOL    HW116418   0.194   0.064   5.899 -0.5954 -0.4935 -0.1786
 1595SOL    HW216419   0.140   0.175   5.991  0.2412 -1.3218  1.3029
 1596SOL     OW16420   3.099   4.070  16.527 -0.0290 -0.6118  0.5096
 1596SOL    HW116421   3.053   4.123  16.462  1.9062 -0.3251 -0.6161
 1596SOL    HW216422   3.022   4.032  16.568 -0.0725 -1.1969 -0.1355
 1597SOL     OW16423   1.893   2.915  11.056 -0.3654  0.2124 -0.4338
 1597SOL    HW116424   1.928   2.940  11.142  2.4326  0.5777 -1.6705
 1597SOL    HW216425   1.800   2.903  11.072 -0.1824  0.9914  1.2599
 1598SOL     OW16426   1.893   3.709  17.605 -0.5332 -0.6256 -0.0584
 1598SOL    HW116427   1.961   3.773  17.627 -1.4183  0.5854 -0.8195
 1598SOL    HW216428   1.881   3.671  17.692  1.2217  0.9207  0.8661
 1599SOL     OW16429   4.650   4.297   5.117 -0.2630 -0.3908 -0.1476
 1599SOL    HW116430   4.700   4.259   5.044 -0.8734 -1.6672  0.0928
 1599SOL    HW216431   4.604   4.221   5.152 -0.3198  0.0741  0.7654
 1600SOL     OW16432   0.290   0.907  13.222 -0.3645  0.5490  0.6408
 1600SOL    HW116433   0.207   0.911  13.270 -0.6178  0.0448  0.2524
 1600SOL    HW216434   0.280   0.964  13.145  0.1437  1.3565  1.1684
 1601SOL     OW16435   3.693   0.816  10.434  0.1054  0.0446  0.1435
 1601SOL    HW116436   3.707   0.905  10.468 -2.5155 -0.3518  2.3030
 1601SOL    HW216437   3.759   0.760  10.474  2.1266  2.1067 -0.2797
 1602SOL     OW16438   3.140   2.097   9.123 -0.1399 -0.2598 -0.5264
 1602SOL    HW116439   3.177   2.015   9.090  1.8761  0.2062  0.5953
 1602SOL    HW216440   3.057   2.056   9.144 -0.3388 -0.1750 -1.1399
 1603SOL     OW16441   3.144   1.256  15.115  0.0459  0.3693 -0.1720
 1603SOL    HW116442   3.078   1.254  15.185  2.0834 -0.0550  1.7499
 1603SOL    HW216443   3.201   1.183  15.139 -0.3356 -0.3133 -1.3734
 1604SOL     OW16444   1.620   0.461   0.459  0.1860 -0.1205  0.2350
 1604SOL    HW116445   1.541   0.445   0.408  0.8604 -0.0435 -0.8291
 1604SOL    HW216446   1.616   0.383   0.514  0.9352 -1.6039 -1.7831
 1605SOL     OW16447   2.201   2.619   1.870 -0.3244  0.6357 -0.1817
 1605SOL    HW116448   2.231   2.647   1.957 -4.0765  2.4327  0.5149
 1605SOL    HW216449   2.261   2.545   1.857 -0.6705  0.2380  0.4929
 1606SOL     OW16450   4.063   4.185  11.164  0.3298  0.4953 -0.5791
 1606SOL    HW116451   4.138   4.244  11.164  1.7617 -1.3364 -2.4568
 1606SOL    HW216452   4.038   4.191  11.256  0.0668 -1.4702 -0.5289
 1607SOL     OW16453   1.484   2.053   9.225 -0.4490 -0.4402  0.5763
 1607SOL    HW116454   1.432   1.973   9.226  2.7617 -2.5591  1.1259
 1607SOL    HW216455   1.418   2.120   9.208  1.2159  0.3881 -2.5910
 1608SOL     OW16456   0.137   2.582  12.334  1.0014 -0.1374 -0.1026
 1608SOL    HW116457   0.191   2.506  12.356  2.4045  1.6702  2.6331
 1608SOL    HW216458   0.201   2.648  12.309  1.1555 -1.0588 -2.1682
 1609SOL     OW16459   1.565   1.223   6.844  0.9209 -0.9070  0.0073
 1609SOL    HW116460   1.629   1.204   6.776 -1.2090 -2.4090 -1.5918
 1609SOL    HW216461   1.613   1.217   6.927  0.6400  0.2637  0.2638
 1610SOL     OW16462   3.217   1.721   4.653 -0.1986  0.2590  0.0956
 1610SOL    HW116463   3.223   1.789   4.720  0.1821  1.9737 -1.6604
 1610SOL    HW216464   3.299   1.743   4.608  0.9196 -1.7279  1.1656
 1611SOL     OW16465   2.830   0.984  12.623 -0.1293 -0.0818 -0.0484
 1611SOL    HW116466   2.746   0.996  12.579  0.6207 -2.2673 -2.0427
 1611SOL    HW216467   2.809   0.899  12.659  0.3565 -0.9935 -1.9037
 1612SOL     OW16468   4.501   0.182   6.013  0.4721  0.0951 -0.2565
 1612SOL    HW116469   4.527   0.261   5.966  0.9466 -1.3482 -2.3882
 1612SOL    HW216470   4.466   0.217   6.095 -1.1677 -1.0451 -0.4650
 1613SOL     OW16471   0.413   0.540   4.440 -0.1482  0.1817 -0.0140
 1613SOL    HW116472   0.420   0.632   4.464  2.6684  0.3637 -1.5327
 1613SOL    HW216473   0.416   0.528   4.345 -1.2900 -1.8752  0.2035
 1614SOL     OW16474   4.379   0.859   3.792 -0.1370 -0.6443 -0.5508
 1614SOL    HW116475   4.416   0.807   3.720 -1.5518 -0.8769 -1.1105
 1614SOL    HW216476   4.357   0.782   3.844 -1.2736  0.7821  1.0407
 1615SOL     OW16477   3.520   3.464   4.992 -0.6976  0.5020  0.0681
 1615SOL    HW116478   3.562   3.386   5.029  0.5821  1.5843  0.8853
 1615SOL    HW216479   3.465   3.486   5.068  0.9290 -1.0037  1.6744
 1616SOL     OW16480   2.825   1.303   8.565 -0.4939 -0.1703 -0.1246
 1616SOL    HW116481   2.903   1.344   8.529 -0.2251  0.0897  0.7743
 1616SOL    HW216482   2.843   1.210   8.551 -0.3015 -0.1863  0.2287
 1617SOL     OW16483   4.268   2.421   0.827 -0.7312  0.0927  0.3884
 1617SOL    HW116484   4.273   2.501   0.879 -1.3329 -0.7800  1.8054
 1617SOL    HW216485   4.347   2.372   0.846  0.3049  1.5842 -0.0488
 1618SOL     OW16486   4.431   3.401   9.012  0.5826 -0.0076  0.1884
 1618SOL    HW116487   4.410   3.425   9.102  2.9807  2.0526  0.1842
 1618SOL    HW216488   4.442   3.306   9.019  1.7745  0.1852  1.0908
 1619SOL     OW16489   3.532   4.385   4.076  0.6795 -0.3721  0.0793
 1619SOL    HW116490   3.584   4.313   4.112  1.5366  0.1540 -0.1100
 1619SOL    HW216491   3.601   4.431   4.028  0.5116  0.2762  0.4686
 1620SOL     OW16492   0.270   1.656  16.949 -0.3678  0.4459 -0.2297
 1620SOL    HW116493   0.190   1.699  16.919 -0.5432  0.0080 -0.3874
 1620SOL    HW216494   0.269   1.668  17.043 -0.1026 -0.5345 -0.1012
 1621SOL     OW16495   2.512   3.952   2.561 -0.1909 -0.2394 -0.1198
 1621SOL    HW116496   2.460   3.940   2.481  1.0204 -2.4942 -0.5616
 1621SOL    HW216497   2.590   4.002   2.539  0.0773 -1.5164 -2.1053
 1622SOL     OW16498   1.761   3.956   3.072  0.0005 -0.2023 -0.3489
 1622SOL    HW116499   1.786   3.936   3.162  0.7729 -0.6821 -0.6650
 1622SOL    HW216500   1.849   3.972   3.037 -0.2233 -0.9862 -1.2848
 1623SOL     OW16501   1.395   1.401   8.987  0.4850  0.0526 -0.2997
 1623SOL    HW116502   1.458   1.361   9.047 -0.6906  0.0788  0.9647
 1623SOL    HW216503   1.326   1.420   9.052 -1.0149  0.1111 -1.9069
 1624SOL     OW16504   1.658   4.027   5.123  0.1880 -0.3500 -0.3995
 1624SOL    HW116505   1.661   4.105   5.178  1.0242 -0.1242 -0.7734
 1624SOL    HW216506   1.567   4.003   5.143  0.9236 -2.0983  0.8166
 1625SOL     OW16507   3.867   1.628   4.349  0.0979  0.6442 -0.0655
 1625SOL    HW116508   3.958   1.631   4.319 -0.6324 -0.9017 -2.3642
 1625SOL    HW216509   3.822   1.561   4.298  0.2492 -1.1162  2.1234
 1626SOL     OW16510   0.656   2.474  10.683  0.2424 -0.0138  0.6289
 1626SOL    HW116511   0.641   2.395  10.736 -2.9015  0.1566 -0.0229
 1626SOL    HW216512   0.680   2.432  10.600  0.7671 -0.5164  1.0344
 1627SOL     OW16513   1.940   2.496   4.899 -0.3149  0.1588 -0.0058
 1627SOL    HW116514   2.017   2.451   4.934  0.8546  2.1018 -0.0624
 1627SOL    HW216515   1.982   2.577   4.870 -4.4589  1.6873 -1.7011
 1628SOL     OW16516   4.085   2.641   6.522  0.1937 -0.0351  0.4574
 1628SOL    HW116517   4.109   2.682   6.439  0.5682  0.9432  1.0483
 1628SOL    HW216518   3.994   2.671   6.521 -0.4962 -2.1969  0.2264
 1629SOL     OW16519   1.134   4.212   0.688  0.1442  0.0269 -0.3079
 1629SOL    HW116520   1.165   4.184   0.774 -1.4644 -0.9616 -0.0472
 1629SOL    HW216521   1.216   4.248   0.652  2.6068 -2.5129  2.7411
 1630SOL     OW16522   0.120   4.015   1.507 -0.0688 -0.0069  0.0061
 1630SOL    HW116523   0.108   3.937   1.561 -1.5247  0.6365  0.6063
 1630SOL    HW216524   0.146   3.983   1.420  0.3507 -2.0237  0.8626
 1631SOL     OW16525   4.461   4.053   3.135 -0.0631 -0.0891 -0.0413
 1631SOL    HW116526   4.410   4.131   3.114 -0.3652  0.4249  2.6293
 1631SOL    HW216527   4.490   4.023   3.049  1.0292 -4.5693  1.8449
 1632SOL     OW16528   3.306   4.084  13.266  0.0617  0.0064 -0.1188
 1632SOL    HW116529   3.339   4.008  13.314 -0.0537 -0.8566 -1.4013
 1632SOL    HW216530   3.239   4.112  13.328  0.5004  1.6537 -0.3796
 1633SOL     OW16531   1.573   1.067   3.208  0.1318  0.1488  0.0628
 1633SOL    HW116532   1.642   1.012   3.245  1.1996  0.1371 -1.9418
 1633SOL    HW216533   1.613   1.123   3.142  3.4955 -0.4511  1.5949
 1634SOL     OW16534   2.729   1.070  15.406 -0.4197 -0.3253 -0.4291
 1634SOL    HW116535   2.707   0.979  15.428 -1.7254 -0.0947 -0.7958
 1634SOL    HW216536   2.695   1.115  15.484  3.3256  0.7388  0.6105
 1635SOL     OW16537   1.960   0.582  16.449  0.0672  0.8469  0.0746
 1635SOL    HW116538   2.017   0.608  16.521  0.7613 -0.0587 -0.1499
 1635SOL    HW216539   1.998   0.498  16.423  0.6705  1.2200 -0.2337
 1636SOL     OW16540   1.087   4.138   3.731 -0.0576 -0.3671  0.2317
 1636SOL    HW116541   1.132   4.070   3.781  1.2146 -0.1511 -0.6229
 1636SOL    HW216542   1.127   4.212   3.778  1.1829  0.8869 -2.7875
 1637SOL     OW16543   3.750   1.299   4.182  0.1203 -0.3901 -0.5298
 1637SOL    HW116544   3.698   1.220   4.200  0.3290 -0.7896 -1.6795
 1637SOL    HW216545   3.687   1.350   4.130  3.0082 -0.0275 -3.6282
 1638SOL     OW16546   3.992   0.129  11.498  0.7699  0.0744 -0.7251
 1638SOL    HW116547   4.061   0.164  11.554 -0.0665  1.4052 -0.5369
 1638SOL    HW216548   3.982   0.038  11.527 -0.9485  0.4806 -0.0149
 1639SOL     OW16549   3.913   0.892   2.213 -0.1144 -0.6485  0.1636
 1639SOL    HW116550   3.870   0.963   2.260  0.3755 -0.9791  1.1115
 1639SOL    HW216551   3.872   0.901   2.127 -1.8937  0.4173  1.1116
 1640SOL     OW16552   2.344   3.503  11.495  0.4117 -0.9645  0.3723
 1640SOL    HW116553   2.288   3.499  11.417  2.5236 -1.0521 -1.1247
 1640SOL    HW216554   2.291   3.561  11.550 -0.4731 -2.3949  1.0076
 1641SOL     OW16555   4.178   0.899  13.476  0.1081 -0.6599 -0.2925
 1641SOL    HW116556   4.176   0.804  13.487  0.1276 -0.2471  3.4227
 1641SOL    HW216557   4.253   0.903  13.417  1.1759 -1.6979  0.9909
 1642SOL     OW16558   3.624   0.661   4.440 -0.3978 -0.6519  0.3335
 1642SOL    HW116559   3.598   0.579   4.482  1.3962 -0.9472  0.8758
 1642SOL    HW216560   3.603   0.633   4.352  0.0766  0.6934 -0.2089
 1643SOL     OW16561   0.962   4.545   6.502 -0.6126  0.3741 -0.0876
 1643SOL    HW116562   0.944   4.468   6.448 -1.1739  0.4483 -0.0080
 1643SOL    HW216563   0.964   4.610   6.432  0.7381  1.2580  0.7628
 1644SOL     OW16564   2.544   0.410   7.490 -0.1832 -0.0536  0.3067
 1644SOL    HW116565   2.564   0.459   7.410 -0.1177 -2.2467 -1.0069
 1644SOL    HW216566   2.548   0.323   7.450  1.2642  0.2814 -0.2748
 1645SOL     OW16567   2.302   2.492   1.489  0.5446  0.3268  0.1714
 1645SOL    HW116568   2.372   2.538   1.443  0.9501 -0.7199 -0.2565
 1645SOL    HW216569   2.236   2.560   1.493 -0.8349 -1.0055 -0.1506
 1646SOL     OW16570   4.171   1.978   1.517  0.3744  0.2190 -0.2200
 1646SOL    HW116571   4.161   1.900   1.572  1.5184  0.4615  0.3407
 1646SOL    HW216572   4.084   1.983   1.477  0.6203 -1.9392 -1.0621
 1647SOL     OW16573   4.070   1.184   8.834 -0.1899 -0.2481  0.5107
 1647SOL    HW116574   4.067   1.257   8.773 -0.4764 -0.7572 -0.0859
 1647SOL    HW216575   4.027   1.217   8.913 -3.1410  1.6873 -1.8937
 1648SOL     OW16576   1.792   0.646   4.075 -0.2441 -0.2473 -0.1153
 1648SOL    HW116577   1.715   0.633   4.019 -0.0510  0.4205 -0.5332
 1648SOL    HW216578   1.861   0.648   4.008  1.5183  0.0850  1.7178
 1649SOL     OW16579   3.342   3.960   1.527 -0.3655 -0.0312 -0.1081
 1649SOL    HW116580   3.352   3.944   1.620 -0.7086  0.9818  0.1062
 1649SOL    HW216581   3.434   3.984   1.513 -1.0755  2.7050 -0.0680
 1650SOL     OW16582   2.513   1.360  17.751 -0.0287 -0.4871  0.1826
 1650SOL    HW116583   2.542   1.435  17.700 -2.3645  0.6999  0.6251
 1650SOL    HW216584   2.421   1.364  17.727 -0.5623 -0.3019  2.2073
 1651SOL     OW16585   4.551   2.808  14.958 -0.0351 -0.4498  0.8020
 1651SOL    HW116586   4.477   2.759  14.995 -0.6516 -0.4531 -0.4461
 1651SOL    HW216587   4.607   2.831  15.032  1.3634  0.7620 -0.6283
 1652SOL     OW16588   4.073   3.660   4.232  0.2158 -0.2836  0.0597
 1652SOL    HW116589   4.060   3.599   4.159 -1.6858  0.5245 -0.2672
 1652SOL    HW216590   4.011   3.727   4.204  1.4410  1.7261  2.2332
 1653SOL     OW16591   2.569   1.389  16.233 -0.0244 -0.4852 -0.0028
 1653SOL    HW116592   2.542   1.311  16.183  0.4179 -0.3561 -0.4468
 1653SOL    HW216593   2.616   1.431  16.161 -0.4262  0.3245  0.2011
 1654SOL     OW16594   2.273   3.060   7.592 -0.8062  0.6696  0.3082
 1654SOL    HW116595   2.193   3.080   7.641 -1.1118 -1.9444  0.8503
 1654SOL    HW216596   2.271   3.137   7.534 -0.1503  0.4985  0.0567
 1655SOL     OW16597   4.333   1.368   1.310  0.2936 -0.2292  0.2096
 1655SOL    HW116598   4.270   1.409   1.370  0.7801  0.1078  0.4975
 1655SOL    HW216599   4.312   1.278   1.336  0.8610 -1.0739 -2.2683
 1656SOL     OW16600   2.348   1.731   9.062  0.2306 -0.7704 -0.0859
 1656SOL    HW116601   2.258   1.702   9.077  0.4610 -0.7655  1.2689
 1656SOL    HW216602   2.338   1.820   9.026 -1.0275 -0.6702  0.5131
 1657SOL     OW16603   4.650   4.013  15.258 -0.6074  0.2411 -0.1502
 1657SOL    HW116604   4.720   3.964  15.217  0.0101  1.8648 -1.0357
 1657SOL    HW216605   4.615   4.071  15.190 -1.6134  0.5002  0.5701
 1658SOL     OW16606   3.204   4.359  16.661  0.1175  0.8635  0.2029
 1658SOL    HW116607   3.199   4.324  16.572  2.3802  1.4258 -0.1479
 1658SOL    HW216608   3.115   4.348  16.694 -1.2405  2.7221 -2.8612
 1659SOL     OW16609   4.066   3.237   4.449  0.2451  0.0997  0.6389
 1659SOL    HW116610   4.072   3.215   4.356 -0.1142  2.6285  0.0130
 1659SOL    HW216611   4.034   3.326   4.433 -0.8727 -0.4691 -0.3177
 1660SOL     OW16612   1.145   3.445  16.906 -0.2482 -0.2249  0.1357
 1660SOL    HW116613   1.071   3.473  16.852 -1.5953  0.8564  2.5746
 1660SOL    HW216614   1.192   3.524  16.932  1.2302 -1.7286  2.1137
 1661SOL     OW16615   0.288   4.738   3.109  0.5107  0.1514  0.3609
 1661SOL    HW116616   0.276   0.048   3.190 -0.7591  0.6565 -0.1377
 1661SOL    HW216617   0.215   0.039   3.061 -0.8531 -1.3390  1.1627
 1662SOL     OW16618   4.657   1.941   7.115  0.1077 -0.2516  0.6567
 1662SOL    HW116619   4.627   1.896   7.194 -0.3600  2.7263  2.1601
 1662SOL    HW216620   4.727   1.878   7.098 -0.2000 -0.3565 -0.2182
 1663SOL     OW16621   3.081   2.722   5.638  0.1789  0.3686  0.0293
 1663SOL    HW116622   3.091   2.693   5.729  3.0975  2.1698  0.2669
 1663SOL    HW216623   3.164   2.769   5.637  0.2574  0.2928  1.9278
 1664SOL     OW16624   1.148   3.969  15.485  0.5506 -0.1482 -0.7497
 1664SOL    HW116625   1.099   3.934  15.410 -2.5888 -0.8723  1.6558
 1664SOL    HW216626   1.077   4.016  15.528  0.0095 -1.1974 -0.4867
 1665SOL     OW16627   1.720   3.335   4.951 -0.5463  0.1591 -0.5174
 1665SOL    HW116628   1.663   3.259   4.962  1.0082 -1.2906 -2.3462
 1665SOL    HW216629   1.752   3.341   5.041 -1.3793 -2.1998 -0.0734
 1666SOL     OW16630   2.171   0.379   8.078  0.3443  0.5566  0.2898
 1666SOL    HW116631   2.156   0.298   8.128 -2.3224  0.9587  0.1395
 1666SOL    HW216632   2.172   0.336   7.993  0.4047 -2.5424  1.8552
 1667SOL     OW16633   0.976   1.063  13.559 -0.2188  0.4919 -0.0714
 1667SOL    HW116634   1.047   1.031  13.616 -0.4730  1.7806  0.9706
 1667SOL    HW216635   1.026   1.105  13.490  1.0636  1.0186  1.1640
 1668SOL     OW16636   1.953   1.837   1.508 -0.1354  0.1187 -0.1606
 1668SOL    HW116637   1.863   1.807   1.502 -0.8029  1.7093  1.8672
 1668SOL    HW216638   1.948   1.912   1.450 -4.6149 -1.7616 -2.1729
 1669SOL     OW16639   0.632   0.311  13.569  0.3971  0.2986 -0.4157
 1669SOL    HW116640   0.644   0.398  13.532 -2.5146  0.4999 -0.9024
 1669SOL    HW216641   0.561   0.337  13.628 -0.8182 -1.5446 -1.0602
 1670SOL     OW16642   1.383   0.238   8.914 -0.1990 -0.6266 -0.0010
 1670SOL    HW116643   1.404   0.181   8.988  0.2883 -3.3557 -2.2476
 1670SOL    HW216644   1.327   0.297   8.964  2.7223  2.1825 -0.0402
 1671SOL     OW16645   1.008   2.673   3.440 -0.0638 -0.0924  0.0487
 1671SOL    HW116646   1.081   2.611   3.448  1.1781  1.3148 -0.4519
 1671SOL    HW216647   0.928   2.626   3.419 -0.0998  0.1197 -0.2858
 1672SOL     OW16648   1.068   3.698   5.253  0.6207  0.2628  0.0567
 1672SOL    HW116649   1.071   3.607   5.222 -0.9260 -0.4254  1.9584
 1672SOL    HW216650   1.157   3.733   5.247  1.0427 -0.9579 -1.0473
 1673SOL     OW16651   3.263   1.930   6.611 -0.1410  0.2414 -0.2747
 1673SOL    HW116652   3.289   2.018   6.585  1.2141 -0.1871 -0.3419
 1673SOL    HW216653   3.242   1.877   6.534 -0.4964 -0.8005  0.5275
 1674SOL     OW16654   3.440   4.684   5.565 -0.1873 -0.7238  0.0216
 1674SOL    HW116655   3.451   0.019   5.623 -1.0057 -0.0935 -0.6440
 1674SOL    HW216656   3.352   4.704   5.533 -1.1465 -2.1256  1.7897
 1675SOL     OW16657   0.037   1.318  13.517 -0.0770  0.7247  0.0417
 1675SOL    HW116658   4.729   1.396  13.491  0.3602  1.6747  2.0466
 1675SOL    HW216659   4.706   1.254  13.524  0.6328 -0.2384 -1.6034
 1676SOL     OW16660   0.571   2.163  16.145 -0.1596  0.0834  0.2965
 1676SOL    HW116661   0.512   2.151  16.070  0.1926 -0.0968  0.0448
 1676SOL    HW216662   0.645   2.115  16.106  0.3924 -0.1908  1.6759
 1677SOL     OW16663   2.175   1.264   2.216 -0.1588 -1.0892 -0.6128
 1677SOL    HW116664   2.270   1.247   2.217  0.1912  0.8949  2.5267
 1677SOL    HW216665   2.171   1.325   2.143 -1.9503 -0.5501 -0.0500
 1678SOL     OW16666   1.575   2.639   3.183  0.4471  0.7688 -0.0513
 1678SOL    HW116667   1.634   2.580   3.137  0.7124  1.7055 -0.9080
 1678SOL    HW216668   1.626   2.649   3.263  0.9349 -1.8458 -0.0313
 1679SOL     OW16669   4.224   3.669   8.768 -0.1776  0.3693 -0.9008
 1679SOL    HW116670   4.177   3.638   8.846  1.3575  0.5758  0.0953
 1679SOL    HW216671   4.259   3.589   8.730 -1.4887  0.4577 -2.3036
 1680SOL     OW16672   2.054   1.842   5.670 -0.0418 -0.1676 -0.0904
 1680SOL    HW116673   1.968   1.801   5.660 -0.2562  0.1763  0.3482
 1680SOL    HW216674   2.100   1.825   5.587 -0.5483 -1.3593 -0.1264
 1681SOL     OW16675   0.448   0.540   1.728  0.6417 -0.0139 -0.1768
 1681SOL    HW116676   0.480   0.627   1.748 -0.1882  0.5231 -1.1757
 1681SOL    HW216677   0.390   0.533   1.804 -0.3890 -0.4600 -1.0017
 1682SOL     OW16678   2.825   3.870   9.577  1.0470  0.1129  0.2671
 1682SOL    HW116679   2.824   3.883   9.672 -1.0726 -0.3046  0.3107
 1682SOL    HW216680   2.872   3.948   9.548 -0.8196  0.4064 -1.9398
 1683SOL     OW16681   2.225   0.897   4.845 -0.3940  0.2107 -0.0347
 1683SOL    HW116682   2.162   0.967   4.863  0.3227  1.0022 -0.5541
 1683SOL    HW216683   2.200   0.877   4.755  0.8861  1.9341 -0.7695
 1684SOL     OW16684   3.173   1.293   4.391 -0.1377 -0.6860  0.9843
 1684SOL    HW116685   3.131   1.379   4.395  0.9931 -0.1091  0.3269
 1684SOL    HW216686   3.255   1.312   4.346 -1.2931  1.0825 -0.4028
 1685SOL     OW16687   2.934   0.873  12.370 -0.1059 -0.7923  0.0346
 1685SOL    HW116688   2.917   0.912  12.456 -2.0500 -0.4347 -0.5117
 1685SOL    HW216689   2.901   0.945  12.316  0.2163 -0.5112  0.2100
 1686SOL     OW16690   1.309   2.392   6.950  0.1370  0.3631  0.1817
 1686SOL    HW116691   1.368   2.369   7.022 -0.0872 -0.3807  0.1240
 1686SOL    HW216692   1.371   2.366   6.882  1.0625  2.5207  0.1744
 1687SOL     OW16693   4.182   1.867   9.992  0.2131  0.4703  0.4237
 1687SOL    HW116694   4.159   1.874  10.085  1.9198  1.5027  0.7726
 1687SOL    HW216695   4.225   1.952   9.983 -1.5950  1.4560  0.9392
 1688SOL     OW16696   0.584   3.558   7.261  0.2655 -0.6512  0.4444
 1688SOL    HW116697   0.655   3.592   7.315 -0.5171 -1.5484  2.0417
 1688SOL    HW216698   0.571   3.622   7.191  0.6867 -1.7394 -0.6254
 1689SOL     OW16699   0.561   4.368  11.250 -0.0443  0.0888  0.6474
 1689SOL    HW116700   0.617   4.365  11.328  1.3172 -0.5547 -0.3531
 1689SOL    HW216701   0.504   4.293  11.266 -0.2574  0.0625 -0.2228
 1690SOL     OW16702   4.647   3.352   6.471 -0.0390  0.1137 -0.2846
 1690SOL    HW116703   4.732   3.378   6.506  0.4052 -0.6936 -0.7453
 1690SOL    HW216704   4.615   3.437   6.442 -0.1571  0.1359 -0.0841
 1691SOL     OW16705   3.538   1.351   3.864  0.3758  0.5253 -0.2434
 1691SOL    HW116706   3.472   1.382   3.803 -2.1619 -1.3268  1.5373
 1691SOL    HW216707   3.615   1.397   3.830  0.9857  1.0014  1.7795
 1692SOL     OW16708   4.345   2.186  14.618  0.1642 -0.0918 -0.5790
 1692SOL    HW116709   4.250   2.183  14.610  0.1343 -0.6171 -0.0600
 1692SOL    HW216710   4.363   2.173  14.525  3.3120 -1.5377  0.2098
 1693SOL     OW16711   0.535   0.893   7.730  0.8233  0.4281 -0.1459
 1693SOL    HW116712   0.459   0.835   7.735  0.4157  1.0786  1.5192
 1693SOL    HW216713   0.615   0.844   7.715 -0.3962 -1.5413 -0.2492
 1694SOL     OW16714   1.494   4.711   8.260 -0.9170  0.0350 -0.2881
 1694SOL    HW116715   1.552   4.634   8.254 -0.8274  0.0496  0.3466
 1694SOL    HW216716   1.479   4.721   8.354 -1.2386 -2.6890 -0.0509
 1695SOL     OW16717   3.749   2.181   0.917 -0.3769  0.1473 -0.3568
 1695SOL    HW116718   3.824   2.240   0.907  0.9270 -1.7971 -2.1305
 1695SOL    HW216719   3.671   2.231   0.941 -1.1180  0.3289 -3.1958
 1696SOL     OW16720   2.681   0.820   6.111  0.6130  0.2805 -0.0032
 1696SOL    HW116721   2.661   0.829   6.018 -0.7679 -1.3765  0.1249
 1696SOL    HW216722   2.756   0.879   6.121 -1.1948  2.6273 -0.3452
 1697SOL     OW16723   0.583   1.060   7.454  0.3378  0.3402 -0.0354
 1697SOL    HW116724   0.648   0.990   7.463  0.5602  0.3531 -1.5391
 1697SOL    HW216725   0.560   1.064   7.361 -0.8909 -0.3017  0.2333
 1698SOL     OW16726   4.338   2.514  10.796 -0.1031 -0.3950  0.3008
 1698SOL    HW116727   4.412   2.464  10.761 -0.8098  1.0431 -3.2740
 1698SOL    HW216728   4.317   2.566  10.718  2.2904 -1.7230 -1.2316
 1699SOL     OW16729   0.234   1.344   8.104  0.5434 -0.1004  0.2226
 1699SOL    HW116730   0.269   1.336   8.016  2.2044  0.3283  0.8464
 1699SOL    HW216731   0.142   1.329   8.083  0.7002 -0.1196 -0.4337
 1700SOL     OW16732   3.923   0.566   5.812 -0.4485 -0.7129 -0.4399
 1700SOL    HW116733   3.880   0.526   5.737 -1.4092 -1.3604  0.4602
 1700SOL    HW216734   3.850   0.621   5.840 -2.3235 -2.4681 -1.9609
 1701SOL     OW16735   2.098   2.945  15.879  0.0196  0.4429 -0.0286
 1701SOL    HW116736   2.045   2.950  15.799  0.5488 -0.3983 -0.4298
 1701SOL    HW216737   2.186   2.953  15.842  0.3768 -1.6279  0.4089
 1702SOL     OW16738   2.155   1.798   5.098  1.3625 -0.3015 -0.2139
 1702SOL    HW116739   2.169   1.880   5.050  1.5062  0.1030  0.5158
 1702SOL    HW216740   2.143   1.743   5.021 -0.9079  1.9247 -1.4457
 1703SOL     OW16741   0.615   3.967   7.230 -0.1946  0.8423  0.0386
 1703SOL    HW116742   0.653   3.934   7.149  2.5265  1.3234  1.1099
 1703SOL    HW216743   0.608   4.058   7.201 -0.3876  0.9980  0.5688
 1704SOL     OW16744   2.025   0.256   4.216  0.1644 -0.4549  0.4310
 1704SOL    HW116745   1.931   0.272   4.203  0.2299  0.2680  0.8765
 1704SOL    HW216746   2.028   0.162   4.196  1.8059 -0.8406  2.5566
 1705SOL     OW16747   3.405   1.682   1.989 -0.4303  0.1404  0.2064
 1705SOL    HW116748   3.386   1.719   2.075 -3.2206 -1.3543  0.2435
 1705SOL    HW216749   3.355   1.738   1.930 -1.5653 -0.5620  0.4912
 1706SOL     OW16750   1.532   2.238   3.620 -0.8833 -0.1513  0.2805
 1706SOL    HW116751   1.559   2.252   3.529 -0.4161  1.5417  0.6678
 1706SOL    HW216752   1.471   2.166   3.610  0.1360 -0.7672 -1.5087
 1707SOL     OW16753   4.200   1.096  16.607  0.2338 -0.2154 -0.1413
 1707SOL    HW116754   4.293   1.089  16.583  0.3905 -0.5119  0.5397
 1707SOL    HW216755   4.154   1.024  16.565  3.0835 -0.7172 -2.4739
 1708SOL     OW16756   2.442   0.757   0.163  0.1129 -0.7924  0.1821
 1708SOL    HW116757   2.529   0.720   0.148  1.0439  2.8584 -3.1363
 1708SOL    HW216758   2.462   0.806   0.243 -2.0657 -2.2621  1.6471
 1709SOL     OW16759   1.589   2.506  14.965  0.1374 -0.0205  0.1811
 1709SOL    HW116760   1.557   2.594  14.984  1.1159  0.1982  0.8360
 1709SOL    HW216761   1.651   2.491  15.037  2.5150  4.4493 -0.9526
 1710SOL     OW16762   4.098   3.380   6.325 -0.2748 -0.0980 -0.0536
 1710SOL    HW116763   4.161   3.317   6.291 -0.3134  0.3289 -0.9254
 1710SOL    HW216764   4.074   3.435   6.250 -0.0963  0.8427  0.5765
 1711SOL     OW16765   1.879   1.287  14.124 -0.2643 -0.0511 -0.1468
 1711SOL    HW116766   1.841   1.256  14.042 -1.0519 -0.3170  0.3140
 1711SOL    HW216767   1.953   1.227  14.137 -1.0005 -1.0974 -0.7999
 1712SOL     OW16768   4.315   2.708  13.939  0.1465  0.4465  0.6650
 1712SOL    HW116769   4.342   2.685  14.028  0.6833 -1.2956  0.0395
 1712SOL    HW216770   4.330   2.803  13.933 -1.0609  0.7058  1.8514
 1713SOL     OW16771   2.620   4.611   1.995 -0.0075  0.2485 -0.2102
 1713SOL    HW116772   2.684   4.580   2.059 -0.2817 -0.4033 -0.2494
 1713SOL    HW216773   2.629   4.706   2.003 -0.3619  0.3864 -1.5068
 1714SOL     OW16774   3.540   4.541  13.665 -0.1730 -0.0838  0.0857
 1714SOL    HW116775   3.542   4.542  13.761 -2.8565  0.3112  0.1200
 1714SOL    HW216776   3.617   4.486  13.648  0.9080  1.0189  1.4386
 1715SOL     OW16777   0.055   3.395   2.903 -0.1567 -0.3892 -0.4830
 1715SOL    HW116778   4.735   3.445   2.848  0.9654 -0.5918 -1.8882
 1715SOL    HW216779   0.123   3.383   2.837 -0.6947  1.7164 -1.4181
 1716SOL     OW16780   1.894   0.571  10.016  0.4370 -0.0620  0.2485
 1716SOL    HW116781   1.984   0.550  10.041  0.0566  2.6387  3.9488
 1716SOL    HW216782   1.888   0.662  10.044 -0.7603  0.4144 -1.5425
 1717SOL     OW16783   1.640   2.916   6.634  0.2604 -0.2075 -0.3864
 1717SOL    HW116784   1.623   2.926   6.540  0.2491  0.9782 -0.2556
 1717SOL    HW216785   1.566   2.960   6.676  0.8572  0.1700  0.2626
 1718SOL     OW16786   0.573   1.288  15.628  0.4094  0.3684  0.5643
 1718SOL    HW116787   0.511   1.216  15.631  0.5326  0.2987  1.4324
 1718SOL    HW216788   0.589   1.292  15.533  1.5649 -0.1032  0.7335
 1719SOL     OW16789   0.452   4.030   8.027 -0.6584 -0.6637  0.4631
 1719SOL    HW116790   0.425   3.938   8.032 -3.4285 -0.0127 -2.7320
 1719SOL    HW216791   0.547   4.014   8.026 -0.9627 -2.5361  1.4622
 1720SOL     OW16792   1.200   1.089  14.011  0.1059  0.2924  0.1636
 1720SOL    HW116793   1.149   1.170  14.010 -0.2826  0.0296 -1.4308
 1720SOL    HW216794   1.258   1.096  14.087  2.3172 -0.9677 -1.4023
 1721SOL     OW16795   3.446   1.155   6.430  0.4780  0.1799 -0.0338
 1721SOL    HW116796   3.368   1.100   6.437 -0.7035  1.6619 -1.5687
 1721SOL    HW216797   3.516   1.089   6.434 -0.2161 -0.5076  0.8707
 1722SOL     OW16798   1.017   0.726   2.750  0.0928  0.6266 -0.1151
 1722SOL    HW116799   1.058   0.653   2.797  1.0054  0.7050 -0.7897
 1722SOL    HW216800   1.058   0.795   2.802  0.3867  0.3734 -0.0096
 1723SOL     OW16801   3.573   0.836   7.494 -0.6585 -0.5549  0.2231
 1723SOL    HW116802   3.624   0.899   7.545 -0.6757  0.8016 -1.4006
 1723SOL    HW216803   3.551   0.895   7.421 -1.7950  0.9846  1.8055
 1724SOL     OW16804   3.014   2.965  12.161 -0.0044 -0.1446  0.1549
 1724SOL    HW116805   3.036   2.917  12.082 -1.3449  0.8009 -0.7882
 1724SOL    HW216806   3.102   2.995  12.186 -0.6375 -0.1301  2.3939
 1725SOL     OW16807   1.923   2.879   2.344  0.1370 -0.4129 -0.5220
 1725SOL    HW116808   1.910   2.788   2.317  1.4116 -0.3130 -1.4761
 1725SOL    HW216809   1.923   2.860   2.438  0.8503  1.2531 -0.1886
 1726SOL     OW16810   4.517   0.919   7.431  0.3837  0.0137  0.4051
 1726SOL    HW116811   4.428   0.922   7.395  0.5064  2.1380  0.3050
 1726SOL    HW216812   4.577   0.918   7.357 -0.4376  0.2074 -0.2617
 1727SOL     OW16813   4.689   4.349  16.790 -0.4321  0.1841 -0.3721
 1727SOL    HW116814   4.650   4.353  16.877  1.0287 -0.5440  0.3056
 1727SOL    HW216815   0.036   4.387  16.799 -0.6120  0.6900 -0.7378
 1728SOL     OW16816   1.843   3.830   8.554 -0.0544 -0.1594  0.0263
 1728SOL    HW116817   1.918   3.803   8.502 -1.0398  0.0303 -1.5165
 1728SOL    HW216818   1.799   3.868   8.478 -1.5705  1.2277  1.5958
 1729SOL     OW16819   3.970   2.362   0.884 -0.1018 -0.5139 -0.0877
 1729SOL    HW116820   4.058   2.389   0.858 -0.6565  0.8755 -0.5071
 1729SOL    HW216821   3.989   2.363   0.977  0.6476  0.5104 -0.2525
 1730SOL     OW16822   0.654   1.916  11.520 -0.0717 -0.4104  0.5669
 1730SOL    HW116823   0.603   1.838  11.538  1.8197 -1.7360  0.1282
 1730SOL    HW216824   0.740   1.878  11.507  0.3875  1.0866 -0.7936
 1731SOL     OW16825   0.734   2.314  12.185  0.3550 -0.3482  0.1079
 1731SOL    HW116826   0.810   2.275  12.228  1.5819  1.9525  0.0052
 1731SOL    HW216827   0.717   2.260  12.108 -0.3495  0.2096 -0.1316
 1732SOL     OW16828   3.200   0.081   5.405  0.0263 -0.3685 -0.4739
 1732SOL    HW116829   3.163   0.099   5.492  0.0251 -0.2381 -0.5026
 1732SOL    HW216830   3.154   4.738   5.392  1.0322 -0.5183 -2.9776
 1733SOL     OW16831   0.213   2.749   9.730  0.3871 -0.5119  0.5183
 1733SOL    HW116832   0.304   2.730   9.752  0.7547 -1.1790 -1.4918
 1733SOL    HW216833   0.236   2.760   9.637  1.0001  1.8304  0.9355
 1734SOL     OW16834   1.002   2.791   4.038  0.5308  0.0645  0.4741
 1734SOL    HW116835   0.929   2.773   4.096  1.3574  0.4179  1.6270
 1734SOL    HW216836   0.955   2.832   3.965  0.5460 -0.3480  0.2300
 1735SOL     OW16837   2.745   1.412   5.425 -1.2000 -0.3357 -0.1947
 1735SOL    HW116838   2.821   1.356   5.443  0.5701  1.7967 -0.9551
 1735SOL    HW216839   2.689   1.413   5.503  0.3346  2.2745  0.8816
 1736SOL     OW16840   0.210   1.361  11.739 -0.2505  0.8832  0.5160
 1736SOL    HW116841   0.120   1.340  11.763  0.3129 -1.2534  0.7339
 1736SOL    HW216842   0.217   1.292  11.672  0.3155  1.5210 -0.0850
 1737SOL     OW16843   1.884   0.657   9.573  0.4292 -0.4734 -0.3319
 1737SOL    HW116844   1.964   0.628   9.617  0.4606  2.0823  1.2435
 1737SOL    HW216845   1.864   0.739   9.619 -0.0836  0.5451 -2.4027
 1738SOL     OW16846   2.863   0.286   4.233 -0.5703 -0.0497 -0.4052
 1738SOL    HW116847   2.849   0.380   4.228 -0.6417 -0.0623 -0.4427
 1738SOL    HW216848   2.959   0.285   4.236 -0.4975  1.9036 -2.3643
 1739SOL     OW16849   3.125   3.102   5.549 -0.2320  0.4431 -0.0281
 1739SOL    HW116850   3.196   3.043   5.575  0.0302  0.6872 -0.1932
 1739SOL    HW216851   3.111   3.154   5.629  1.7769  0.3106  0.4098
 1740SOL     OW16852   4.406   3.471  13.529 -0.2137 -0.6787 -0.2491
 1740SOL    HW116853   4.486   3.517  13.551 -0.1441 -1.3999  0.9978
 1740SOL    HW216854   4.346   3.516  13.589  2.6343  2.8341 -0.0422
 1741SOL     OW16855   0.039   1.691   0.436  0.1047  0.0261  0.2087
 1741SOL    HW116856   0.119   1.707   0.385 -0.1817 -1.7713 -0.7980
 1741SOL    HW216857   0.021   1.776   0.477  1.2683  1.5234 -2.4141
 1742SOL     OW16858   2.137   0.626   9.649  0.6664 -0.0564  0.0292
 1742SOL    HW116859   2.153   0.661   9.737  1.3805  0.8194 -0.4526
 1742SOL    HW216860   2.214   0.642   9.596  0.7058  0.2025  0.1647
 1743SOL     OW16861   3.658   0.060  11.618 -0.2124  0.4285 -0.7012
 1743SOL    HW116862   3.724   0.118  11.581 -1.4323  0.1710 -3.3005
 1743SOL    HW216863   3.586   0.081  11.557 -1.1030 -0.3787  0.0858
 1744SOL     OW16864   0.920   2.724   7.560  0.1810  0.0045 -0.3477
 1744SOL    HW116865   0.902   2.711   7.653 -0.3141  2.4002 -0.0932
 1744SOL    HW216866   0.947   2.816   7.559  3.0403 -0.8516 -1.1363
 1745SOL     OW16867   2.453   2.988   6.840 -0.3584 -0.2634 -0.4283
 1745SOL    HW116868   2.507   3.032   6.775  0.7626  1.3401  1.6197
 1745SOL    HW216869   2.374   3.042   6.829  0.0850  0.6536  0.9954
 1746SOL     OW16870   0.750   2.557   0.082  0.1630  0.1043 -0.4444
 1746SOL    HW116871   0.796   2.606   0.150  1.2296 -0.7417 -0.5541
 1746SOL    HW216872   0.819   2.541   0.018  0.9394 -0.0189  0.4298
 1747SOL     OW16873   1.260   1.264   3.244 -0.4104 -0.3520 -0.3776
 1747SOL    HW116874   1.304   1.210   3.310  0.6129  2.0362  0.8791
 1747SOL    HW216875   1.181   1.211   3.235 -2.6829  3.1260 -0.8233
 1748SOL     OW16876   2.514   3.626   7.720 -0.0559  0.4292  0.1117
 1748SOL    HW116877   2.537   3.692   7.784 -1.5812 -0.9438  2.0652
 1748SOL    HW216878   2.467   3.563   7.775 -3.5709  2.3944 -0.6740
 1749SOL     OW16879   2.583   0.539   6.727 -0.6262  0.0015 -0.3319
 1749SOL    HW116880   2.662   0.569   6.773  0.5670  0.5447 -2.7311
 1749SOL    HW216881   2.544   0.620   6.696  1.6149  1.4998  0.7695
 1750SOL     OW16882   1.766   2.353   4.364  0.4857  0.1882  0.0824
 1750SOL    HW116883   1.704   2.289   4.398 -0.7611  1.6898  0.6622
 1750SOL    HW216884   1.754   2.356   4.269 -3.1278  2.3055  0.5873
 1751SOL     OW16885   2.783   4.629  11.391 -0.2319 -0.5694 -0.2755
 1751SOL    HW116886   2.816   4.687  11.323 -2.5053  0.7298 -0.2721
 1751SOL    HW216887   2.790   4.690  11.465 -0.6747 -3.5964  2.2882
 1752SOL     OW16888   0.781   3.403   3.798 -0.6735 -0.1369  0.2162
 1752SOL    HW116889   0.740   3.469   3.742  2.8969  0.5851 -1.5410
 1752SOL    HW216890   0.730   3.325   3.775  1.5504 -2.0117  1.6838
 1753SOL     OW16891   1.414   3.057   4.104  1.0151  0.4065 -0.1755
 1753SOL    HW116892   1.469   3.024   4.175  1.4726 -0.4014 -0.8974
 1753SOL    HW216893   1.336   3.088   4.150  1.2553 -1.2698  1.3697
 1754SOL     OW16894   4.060   2.623   1.133  0.5539 -0.1623  0.0678
 1754SOL    HW116895   3.975   2.635   1.092  0.1422 -1.3754  0.5609
 1754SOL    HW216896   4.063   2.527   1.141 -0.1470 -0.4544 -3.1475
 1755SOL     OW16897   1.294   1.200   1.426 -0.3012  0.1840  0.2204
 1755SOL    HW116898   1.261   1.131   1.370 -0.3790  0.8662 -0.5638
 1755SOL    HW216899   1.352   1.234   1.358 -0.1693  1.8585  1.1694
 1756SOL     OW16900   2.127   0.343  11.509 -0.4172 -0.0670  0.0327
 1756SOL    HW116901   2.161   0.271  11.455 -1.5193  0.1720 -0.9876
 1756SOL    HW216902   2.045   0.362  11.464  0.3224  3.2942  0.1328
 1757SOL     OW16903   0.132   3.202   7.891  0.4002 -0.1173 -0.1568
 1757SOL    HW116904   0.203   3.138   7.902  0.8921  0.6989  1.4421
 1757SOL    HW216905   0.137   3.251   7.973 -2.6695  0.4471 -0.3202
 1758SOL     OW16906   3.734   1.861  11.184  0.1904 -0.3160 -0.1888
 1758SOL    HW116907   3.717   1.941  11.235 -1.7172  0.5395 -2.1569
 1758SOL    HW216908   3.663   1.870  11.121  0.2005 -2.8360 -0.5616
 1759SOL     OW16909   1.091   2.163   5.731  0.3644 -0.0922  0.6416
 1759SOL    HW116910   1.035   2.238   5.712  2.5523  1.2168 -0.5239
 1759SOL    HW216911   1.102   2.113   5.649 -0.6817 -0.2795  0.6053
 1760SOL     OW16912   4.157   3.324   3.596 -0.3836  0.4054 -0.3683
 1760SOL    HW116913   4.234   3.370   3.565  0.4546 -0.3523  0.5940
 1760SOL    HW216914   4.200   3.266   3.659 -0.2557  0.6232 -0.2550
 1761SOL     OW16915   2.668   3.922   3.263  0.2918  0.0143  0.0104
 1761SOL    HW116916   2.646   4.012   3.238  1.9125  0.2216 -0.6614
 1761SOL    HW216917   2.688   3.925   3.356 -2.0213  2.5285  0.4316
 1762SOL     OW16918   2.549   3.802   4.682 -0.2822 -0.0914 -0.2167
 1762SOL    HW116919   2.482   3.812   4.749 -1.1478 -3.6502 -0.5573
 1762SOL    HW216920   2.604   3.880   4.692 -1.9645  0.9071  1.2039
 1763SOL     OW16921   2.988   3.151  14.970 -0.8151 -0.0435  0.3097
 1763SOL    HW116922   2.974   3.218  15.037  0.9305  1.2388 -0.6256
 1763SOL    HW216923   3.075   3.175  14.939 -1.0644 -0.7459 -0.9393
 1764SOL     OW16924   0.768   3.691   7.499  0.9614 -0.2012  0.0000
 1764SOL    HW116925   0.704   3.761   7.488 -0.4544 -1.6766 -1.1461
 1764SOL    HW216926   0.709   3.617   7.516  1.2715 -0.6195 -0.7539
 1765SOL     OW16927   3.508   1.269  15.117 -0.1768  0.1044 -0.4297
 1765SOL    HW116928   3.550   1.210  15.055  1.5835  2.4406 -1.4864
 1765SOL    HW216929   3.438   1.210  15.143  1.4828 -0.2287  3.2438
 1766SOL     OW16930   3.433   2.546   5.774  0.7401  0.1837  0.0781
 1766SOL    HW116931   3.425   2.526   5.680  2.6004  1.3826 -0.3360
 1766SOL    HW216932   3.459   2.456   5.796  0.7585 -0.0852 -1.0413
 1767SOL     OW16933   1.436   1.574   5.097  0.0766  0.1296 -0.1706
 1767SOL    HW116934   1.474   1.661   5.109 -1.4764  1.0768 -2.1513
 1767SOL    HW216935   1.510   1.523   5.130 -0.9172 -0.2762  1.4415
 1768SOL     OW16936   1.224   0.070   3.519  0.0460 -0.0914 -0.5788
 1768SOL    HW116937   1.153   0.101   3.576 -0.5686 -0.1837 -1.2934
 1768SOL    HW216938   1.176   0.049   3.439 -0.7246  2.4429 -0.7780
 1769SOL     OW16939   1.310   4.682   8.044  0.3845  0.4141 -0.5050
 1769SOL    HW116940   1.224   4.698   8.085  1.2935  1.8380  0.8469
 1769SOL    HW216941   1.372   4.705   8.114 -1.0124 -0.4538  1.0406
 1770SOL     OW16942   0.115   3.254   6.169  0.4364  0.0605  0.6841
 1770SOL    HW116943   0.153   3.207   6.242  1.6666  0.4263  0.2794
 1770SOL    HW216944   0.022   3.258   6.194  0.5903  2.1480  0.9322
 1771SOL     OW16945   3.364   0.114  13.087  0.1423 -0.2783  0.4736
 1771SOL    HW116946   3.286   0.059  13.095  0.0100  0.1948  2.3678
 1771SOL    HW216947   3.359   0.183  13.154 -2.4220 -0.3687  0.3804
 1772SOL     OW16948   0.466   3.458   1.904  0.6543  0.3806  0.0468
 1772SOL    HW116949   0.396   3.486   1.846  1.9443  1.9204 -0.7618
 1772SOL    HW216950   0.547   3.457   1.854  1.6115  1.8227  1.5453
 1773SOL     OW16951   2.743   0.163   8.176 -0.2307  0.5032 -0.3701
 1773SOL    HW116952   2.729   0.116   8.094 -0.7499 -1.3835  0.7838
 1773SOL    HW216953   2.665   0.217   8.179  1.7332  3.3415 -0.4780
 1774SOL     OW16954   1.387   2.489   5.923  0.7972 -0.7622 -0.7107
 1774SOL    HW116955   1.385   2.397   5.949 -1.2776 -0.2612  0.9821
 1774SOL    HW216956   1.438   2.528   5.994 -0.2682 -1.0813  0.2305
 1775SOL     OW16957   4.716   0.661   4.880  0.1283 -0.8029 -0.5362
 1775SOL    HW116958   0.015   0.623   4.801  2.1147 -1.5296  0.7977
 1775SOL    HW216959   0.026   0.624   4.953 -1.6700 -0.1207  1.0231
 1776SOL     OW16960   2.956   3.265   9.318 -0.0480 -0.3393 -0.6736
 1776SOL    HW116961   2.978   3.182   9.275  1.0857 -0.3585 -0.0586
 1776SOL    HW216962   3.024   3.316   9.276 -0.4387  0.7823  0.0643
 1777SOL     OW16963   3.063   0.419  12.407 -0.4632 -0.0900 -0.2968
 1777SOL    HW116964   3.060   0.483  12.336  0.0109  0.2765  0.0128
 1777SOL    HW216965   3.082   0.334  12.369  0.1186 -0.8952  1.7909
 1778SOL     OW16966   2.303   1.246   3.841 -0.5043 -0.2703  0.7778
 1778SOL    HW116967   2.209   1.258   3.825 -0.0664  0.6708 -1.1679
 1778SOL    HW216968   2.329   1.338   3.839  1.0693 -0.7591 -1.0915
 1779SOL     OW16969   0.052   0.432  11.559  0.6647  0.5486 -0.2094
 1779SOL    HW116970   4.703   0.462  11.540 -0.2253 -1.0130  1.5078
 1779SOL    HW216971   0.053   0.437  11.654 -1.3364 -0.4620 -0.1274
 1780SOL     OW16972   1.832   1.095   9.237 -0.4562  0.1586  0.2248
 1780SOL    HW116973   1.863   1.011   9.272  3.0713  1.0647 -0.7975
 1780SOL    HW216974   1.763   1.117   9.300  1.4770 -0.1962  2.4302
 1781SOL     OW16975   2.412   1.071   2.147  0.0561 -0.0912  0.2837
 1781SOL    HW116976   2.507   1.066   2.150  0.1011  0.9426  0.5442
 1781SOL    HW216977   2.395   1.037   2.235 -1.6545  0.6599  0.2393
 1782SOL     OW16978   0.876   2.359  13.206 -0.5241 -0.1626  0.0313
 1782SOL    HW116979   0.949   2.352  13.145 -0.1720 -0.9239  0.5485
 1782SOL    HW216980   0.885   2.276  13.252 -1.5524 -0.7803 -0.8804
 1783SOL     OW16981   0.551   0.145   5.077  0.1301 -0.0563 -0.4442
 1783SOL    HW116982   0.508   0.207   5.136 -0.3089 -0.2495 -0.5618
 1783SOL    HW216983   0.545   0.066   5.130  0.2397  0.5639  0.4964
 1784SOL     OW16984   2.370   2.392  11.962  0.2271 -0.5929  0.4278
 1784SOL    HW116985   2.299   2.445  11.998  1.0144  2.7855 -2.9956
 1784SOL    HW216986   2.321   2.346  11.895  1.4999 -3.2594  1.3173
 1785SOL     OW16987   0.381   3.846   4.903  0.4022 -0.7527  0.1955
 1785SOL    HW116988   0.296   3.837   4.861 -0.0777 -0.8538  1.1828
 1785SOL    HW216989   0.441   3.899   4.852 -1.8281 -0.9134 -2.5739
 1786SOL     OW16990   3.700   4.077   2.362 -0.5718 -0.2293 -0.5189
 1786SOL    HW116991   3.669   4.167   2.373  2.6344  0.4952  2.2210
 1786SOL    HW216992   3.790   4.108   2.354 -1.6858  2.9254 -0.5657
 1787SOL     OW16993   1.670   1.309   3.392 -0.1799 -0.3018 -0.1243
 1787SOL    HW116994   1.606   1.276   3.455  0.2348  3.5343  2.2852
 1787SOL    HW216995   1.748   1.304   3.447 -0.4141  0.7273  0.3047
 1788SOL     OW16996   1.930   3.870   5.246 -0.3724 -0.3201 -0.4262
 1788SOL    HW116997   1.916   3.962   5.227 -2.4748 -0.6117 -0.2097
 1788SOL    HW216998   1.967   3.843   5.162 -0.6069  1.0826 -0.9702
 1789SOL     OW16999   0.061   4.007   2.493  0.1100  0.5247 -0.5696
 1789SOL    HW117000   0.079   4.086   2.544  0.9287  0.6654 -1.0684
 1789SOL    HW217001   0.084   3.942   2.559 -1.7537  1.1496  0.7110
 1790SOL     OW17002   2.482   4.138   4.065  0.0121  0.3234  0.1746
 1790SOL    HW117003   2.422   4.098   4.003 -0.9622  0.7753  0.8163
 1790SOL    HW217004   2.443   4.226   4.059  1.3021  0.9140  0.5612
 1791SOL     OW17005   2.091   3.439   9.317 -0.4987 -0.3168  0.8710
 1791SOL    HW117006   2.163   3.384   9.346  0.3109 -0.2499 -0.9517
 1791SOL    HW217007   2.071   3.388   9.238 -0.8421  0.9760  0.1090
 1792SOL     OW17008   2.322   4.124   4.323  0.1736  0.8076  0.0884
 1792SOL    HW117009   2.379   4.129   4.247  2.0861 -4.6433  1.1974
 1792SOL    HW217010   2.271   4.048   4.296 -1.5158  2.2050 -0.6250
 1793SOL     OW17011   2.647   1.641  12.152 -0.3437 -0.1595 -0.0054
 1793SOL    HW117012   2.694   1.598  12.224 -0.4089 -0.8723 -0.3879
 1793SOL    HW217013   2.664   1.733  12.174 -0.0456 -0.7558  2.2725
 1794SOL     OW17014   1.324   4.505   4.093  0.3501  0.6677  0.0805
 1794SOL    HW117015   1.399   4.560   4.115 -0.3194  2.6188 -2.4631
 1794SOL    HW217016   1.362   4.434   4.040  2.5183  0.9331  1.2479
 1795SOL     OW17017   2.627   1.269  15.607 -0.0646  0.6844  0.0815
 1795SOL    HW117018   2.550   1.321  15.583 -1.6444 -1.6161  0.0599
 1795SOL    HW217019   2.662   1.317  15.681  0.9509  0.9882 -0.5964
 1796SOL     OW17020   3.673   0.580   7.355  0.1630 -0.8690  0.2340
 1796SOL    HW117021   3.726   0.520   7.406  0.0626  2.0591  3.7542
 1796SOL    HW217022   3.660   0.653   7.416  0.8972 -0.2636 -0.3331
 1797SOL     OW17023   2.632   4.200   3.250  0.3750  0.2340  0.3477
 1797SOL    HW117024   2.697   4.265   3.227  0.2030  0.3833  0.2829
 1797SOL    HW217025   2.566   4.225   3.185  1.7955  0.9004 -0.8412
 1798SOL     OW17026   2.723   1.619   9.669  0.2128 -0.4260  0.1660
 1798SOL    HW117027   2.755   1.536   9.634  1.3885  0.3361 -0.5573
 1798SOL    HW217028   2.776   1.641   9.745 -0.8606  0.6227  0.6188
 1799SOL     OW17029   4.039   4.431   3.842  0.2163  0.2611  0.2364
 1799SOL    HW117030   4.089   4.349   3.844 -1.0697 -0.5306  0.7329
 1799SOL    HW217031   4.076   4.469   3.922  2.9986  0.1222 -0.9847
 1800SOL     OW17032   4.665   0.891   5.364  0.1202 -0.6429 -0.4507
 1800SOL    HW117033   4.659   0.980   5.400  1.9909 -0.0639 -1.5383
 1800SOL    HW217034   4.695   0.919   5.278  1.1301 -3.4605 -1.0238
 1801SOL     OW17035   0.258   4.023   9.559  0.0966 -0.2513  0.5687
 1801SOL    HW117036   0.278   3.941   9.513  1.7500 -0.1265  1.0734
 1801SOL    HW217037   0.342   4.064   9.579  0.5492 -1.2278  0.6206
 1802SOL     OW17038   2.757   0.085   4.039  0.0822 -0.0266  0.2796
 1802SOL    HW117039   2.790   0.111   4.125 -0.0696 -1.2256  0.7043
 1802SOL    HW217040   2.711   0.167   4.023 -2.8247 -2.0544 -1.8259
 1803SOL     OW17041   0.599   3.038   0.832  0.2141  0.0758 -0.8521
 1803SOL    HW117042   0.674   3.029   0.773  2.1006  2.3866  1.2228
 1803SOL    HW217043   0.544   3.080   0.765  0.0409  1.5738  0.2323
 1804SOL     OW17044   0.166   1.427   8.685 -0.4095 -0.9436 -0.0398
 1804SOL    HW117045   0.128   1.510   8.714  0.8794 -1.1453  2.2035
 1804SOL    HW217046   0.198   1.390   8.767 -2.7128  1.7893  2.0776
 1805SOL     OW17047   0.836   1.115  12.470 -0.4082  0.3344  0.0806
 1805SOL    HW117048   0.854   1.202  12.435 -0.9861  1.0662  1.5826
 1805SOL    HW217049   0.805   1.130  12.560 -0.6026 -0.9740  0.2336
 1806SOL     OW17050   3.309   2.789  11.787 -0.0493 -0.0016 -0.0465
 1806SOL    HW117051   3.394   2.833  11.783  1.2814 -2.2306  4.2626
 1806SOL    HW217052   3.327   2.701  11.753 -0.3613 -0.5912  1.3379
 1807SOL     OW17053   1.119   0.244  14.549 -0.5878 -0.4850  0.1132
 1807SOL    HW117054   1.190   0.255  14.613 -0.3642 -2.5210  0.2184
 1807SOL    HW217055   1.174   0.213  14.477  0.7065  0.8340  0.5254
 1808SOL     OW17056   1.500   2.359   8.015  0.6040 -0.5002  0.3877
 1808SOL    HW117057   1.575   2.312   8.052  0.0002  0.3097  2.6332
 1808SOL    HW217058   1.443   2.390   8.085  0.4951  0.4295 -0.1149
 1809SOL     OW17059   0.169   1.629   7.346  0.9367 -0.4476  0.3677
 1809SOL    HW117060   0.090   1.584   7.374  1.3727 -0.5915  1.3850
 1809SOL    HW217061   0.226   1.557   7.374  3.6058  1.7317  0.6017
 1810SOL     OW17062   1.975   0.738   8.268 -0.4333  0.2783  0.1585
 1810SOL    HW117063   2.040   0.797   8.307 -0.8056 -0.7074  2.2559
 1810SOL    HW217064   1.997   0.738   8.175  0.5045  0.2715  0.3815
 1811SOL     OW17065   2.058   0.851   1.882  0.3475 -0.7409 -0.0422
 1811SOL    HW117066   2.032   0.880   1.795 -1.3419 -1.3794  0.2488
 1811SOL    HW217067   2.007   0.916   1.931 -1.8476 -2.3958 -0.1261
 1812SOL     OW17068   1.450   4.266   2.190 -0.2084 -0.0084 -0.4003
 1812SOL    HW117069   1.366   4.310   2.179  0.7886  2.0998  0.3821
 1812SOL    HW217070   1.471   4.306   2.274  0.4805 -1.3644  0.0744
 1813SOL     OW17071   1.499   0.060  11.741  0.6949  0.5159 -0.4609
 1813SOL    HW117072   1.526   0.065  11.832  4.2595 -1.0056 -1.4210
 1813SOL    HW217073   1.563   0.113  11.695 -0.0038  1.5422 -0.2402
 1814SOL     OW17074   4.703   0.538   8.777  0.2061  0.6061 -0.0525
 1814SOL    HW117075   4.685   0.485   8.855  0.5822  0.8881  0.2296
 1814SOL    HW217076   4.651   0.618   8.789  0.8267  1.2505 -1.7030
 1815SOL     OW17077   1.467   2.670   1.399 -0.6053 -0.3675 -0.0747
 1815SOL    HW117078   1.427   2.643   1.481 -3.4608  0.3582 -1.2491
 1815SOL    HW217079   1.395   2.697   1.343 -1.0461 -0.0581  0.6526
 1816SOL     OW17080   3.981   2.287  13.059  0.1457  0.0755  0.1658
 1816SOL    HW117081   3.954   2.340  12.983  2.7940 -0.2166 -0.9888
 1816SOL    HW217082   4.005   2.347  13.130  0.4739 -0.3236  0.3867
 1817SOL     OW17083   2.497   2.608   6.453  0.0002 -0.7152 -0.1943
 1817SOL    HW117084   2.585   2.577   6.430  0.0642  0.3970 -1.4576
 1817SOL    HW217085   2.478   2.543   6.521  1.6449  1.3002  2.1636
 1818SOL     OW17086   4.730   3.856   3.523  0.5693  0.1808 -0.2081
 1818SOL    HW117087   4.651   3.889   3.480  0.7617  1.1512  0.1860
 1818SOL    HW217088   4.704   3.887   3.610 -1.4639  0.1951 -0.8159
 1819SOL     OW17089   1.286   1.692   5.328 -0.1349  0.0419  0.4500
 1819SOL    HW117090   1.320   1.626   5.267 -1.2502  0.9437 -1.1229
 1819SOL    HW217091   1.217   1.742   5.284  0.1762 -1.3155 -1.6153
 1820SOL     OW17092   0.257   3.231   4.861  0.0475 -0.3887 -0.1097
 1820SOL    HW117093   0.185   3.294   4.863 -0.2572 -0.7825  1.8820
 1820SOL    HW217094   0.228   3.177   4.788  0.7029  0.0401 -0.6904
 1821SOL     OW17095   0.412   0.788  13.003  0.1577  0.4100 -0.5531
 1821SOL    HW117096   0.403   0.816  13.094 -3.3116  2.3132 -1.5221
 1821SOL    HW217097   0.366   0.705  12.990 -1.0775  1.0415 -0.1215
 1822SOL     OW17098   3.427   1.531  15.154  0.3201 -0.0252  0.1108
 1822SOL    HW117099   3.374   1.546  15.076  0.4829  1.8577  0.3655
 1822SOL    HW217100   3.449   1.441  15.134  1.3392  0.4389 -0.8342
 1823SOL     OW17101   4.281   0.519   2.832 -0.6702  0.2749  0.7158
 1823SOL    HW117102   4.293   0.446   2.771 -0.1292  1.5739 -0.7186
 1823SOL    HW217103   4.310   0.598   2.786  0.9477  0.2674  1.7287
 1824SOL     OW17104   1.428   1.315   5.337  0.1395 -0.1493 -0.9667
 1824SOL    HW117105   1.340   1.320   5.299 -0.1544 -2.9630 -0.6378
 1824SOL    HW217106   1.396   1.255   5.405 -2.8740  1.6665 -0.8214
 1825SOL     OW17107   4.508   1.491   4.050  0.2759 -0.1071 -0.4026
 1825SOL    HW117108   4.578   1.426   4.042  0.8848  0.5818 -0.6418
 1825SOL    HW217109   4.444   1.454   3.990 -0.1623  0.2282 -0.1420
 1826SOL     OW17110   4.209   2.160   6.584 -0.2196 -0.4542 -0.3005
 1826SOL    HW117111   4.268   2.104   6.532  1.5315  1.9191 -0.8930
 1826SOL    HW217112   4.267   2.205   6.646 -0.4718  1.5216 -1.5142
 1827SOL     OW17113   0.036   2.947   4.915  0.2522 -0.1605  0.0651
 1827SOL    HW117114   0.070   2.943   5.004 -1.1727  3.1514  0.7652
 1827SOL    HW217115   0.033   3.042   4.902  0.1541 -0.4100 -1.7408
 1828SOL     OW17116   2.999   1.677   8.472  0.0250 -0.6599 -0.0577
 1828SOL    HW117117   2.983   1.684   8.566 -2.6212  1.6975 -0.6888
 1828SOL    HW217118   3.052   1.756   8.469  0.2230 -0.7899  0.0087
 1829SOL     OW17119   1.638   2.195   9.427 -0.3554 -0.2682 -0.2747
 1829SOL    HW117120   1.618   2.141   9.351  0.0279 -1.6220  0.5872
 1829SOL    HW217121   1.560   2.251   9.429  0.7324  1.2732 -1.2158
 1830SOL     OW17122   2.694   2.748   9.050 -0.4106  0.2359 -0.0666
 1830SOL    HW117123   2.776   2.718   9.009 -1.5698 -0.7483 -1.6588
 1830SOL    HW217124   2.685   2.677   9.114 -0.2559  0.7641  0.5326
 1831SOL     OW17125   0.282   0.761   2.036 -0.1936  0.5601  0.0379
 1831SOL    HW117126   0.309   0.783   2.125 -0.7519 -0.2716  0.4136
 1831SOL    HW217127   0.213   0.698   2.058  2.1427 -1.0099  2.7831
 1832SOL     OW17128   3.812   3.028   0.768  0.3810  0.3814 -0.1189
 1832SOL    HW117129   3.865   2.948   0.760  0.0443  0.0740  0.7496
 1832SOL    HW217130   3.878   3.080   0.812  0.1601  1.3026 -0.8788
 1833SOL     OW17131   0.791   1.778   8.082 -0.1113  0.1601  0.7110
 1833SOL    HW117132   0.869   1.722   8.084  1.1026  1.8352 -0.5885
 1833SOL    HW217133   0.758   1.784   8.171  0.6376  0.2469  0.9760
 1834SOL     OW17134   2.476   0.304   9.870 -0.6800  0.2404 -0.0440
 1834SOL    HW117135   2.468   0.388   9.824  0.1652  0.2883 -0.0993
 1834SOL    HW217136   2.475   0.343   9.957 -2.3785 -0.6347  0.3350
 1835SOL     OW17137   4.287   1.634   1.925  0.0588 -0.4601 -0.2502
 1835SOL    HW117138   4.221   1.628   1.995  0.6376  1.4099  0.4520
 1835SOL    HW217139   4.239   1.578   1.864  2.9462 -2.2024 -0.8897
 1836SOL     OW17140   0.135   0.607   2.514  0.1739 -0.3923  0.0741
 1836SOL    HW117141   0.082   0.679   2.480  0.9098  0.6556  1.0961
 1836SOL    HW217142   0.080   0.530   2.523  1.3853 -1.1737  0.8762
 1837SOL     OW17143   2.318   4.135   8.272  0.0215  0.1031 -0.3581
 1837SOL    HW117144   2.366   4.193   8.332 -1.1229  0.3918  0.2682
 1837SOL    HW217145   2.231   4.172   8.285  0.3972  1.4416 -1.5580
 1838SOL     OW17146   2.696   4.505  16.134  0.3464  0.0156 -0.4786
 1838SOL    HW117147   2.720   4.585  16.180  0.2428 -1.1102  1.5327
 1838SOL    HW217148   2.601   4.502  16.127  0.1610  0.5763  1.6986
 1839SOL     OW17149   1.824   0.522   1.916  0.4036 -0.3310 -0.4355
 1839SOL    HW117150   1.853   0.469   1.990  1.3394 -0.2949 -0.7745
 1839SOL    HW217151   1.909   0.547   1.878  0.7080 -3.7446 -1.9626
 1840SOL     OW17152   0.439   4.031   3.953 -0.1757 -0.2213 -0.2983
 1840SOL    HW117153   0.392   3.955   3.987 -1.5831  0.7367 -0.1353
 1840SOL    HW217154   0.381   4.047   3.878  1.5020 -0.3376 -1.6292
 1841SOL     OW17155   0.639   3.803   6.752 -0.5860  0.3017  0.4158
 1841SOL    HW117156   0.658   3.709   6.747 -1.0159  0.2338  0.0068
 1841SOL    HW217157   0.546   3.798   6.774 -1.1184  0.4730 -1.8130
 1842SOL     OW17158   4.709   1.222   8.389 -0.6060  0.1279 -0.5367
 1842SOL    HW117159   4.632   1.213   8.332 -0.5717  2.7646 -0.9959
 1842SOL    HW217160   4.704   1.313   8.418 -2.5743 -0.3817  0.7341
 1843SOL     OW17161   0.553   3.294   4.521 -0.0117  0.3253 -0.3915
 1843SOL    HW117162   0.630   3.345   4.546 -1.3419  1.9237  0.4556
 1843SOL    HW217163   0.513   3.298   4.608 -1.0241  0.7689 -0.8693
 1844SOL     OW17164   2.547   3.212  10.230  0.0925 -0.3596 -0.1351
 1844SOL    HW117165   2.558   3.141  10.168  2.3069  2.4332 -2.9591
 1844SOL    HW217166   2.521   3.285  10.173  0.8208  0.3640  0.4416
 1845SOL     OW17167   3.180   1.605  14.108  0.2881  0.4191 -0.2780
 1845SOL    HW117168   3.158   1.625  14.018 -0.4282  1.7223  0.1995
 1845SOL    HW217169   3.243   1.677  14.112 -0.5491  1.2117 -1.6292
 1846SOL     OW17170   4.531   2.842   8.854 -0.1013  0.0760 -0.6830
 1846SOL    HW117171   4.527   2.850   8.950  0.4192  0.9652 -0.7376
 1846SOL    HW217172   4.439   2.849   8.828 -1.3403 -0.3298  3.5047
 1847SOL     OW17173   0.321   3.327   3.649  0.2301  0.1695  0.3119
 1847SOL    HW117174   0.400   3.291   3.688 -1.2726 -4.1262 -0.5945
 1847SOL    HW217175   0.350   3.349   3.561  1.1258 -0.3436  0.4838
 1848SOL     OW17176   1.685   2.886   1.657 -0.4719 -0.2959  0.1721
 1848SOL    HW117177   1.679   2.981   1.648  2.1117  0.0395  1.9661
 1848SOL    HW217178   1.682   2.860   1.565 -1.1964  0.0620  0.0952
 1849SOL     OW17179   3.061   4.063   6.964 -0.2575 -0.3151 -0.0348
 1849SOL    HW117180   3.006   4.139   6.987  1.9190  1.2544  0.0153
 1849SOL    HW217181   3.136   4.111   6.929  0.0434 -0.8640 -0.1293
 1850SOL     OW17182   1.807   2.161   7.229 -0.4649 -0.2698 -0.2091
 1850SOL    HW117183   1.771   2.243   7.263 -1.7524  0.0865 -2.4006
 1850SOL    HW217184   1.848   2.126   7.308  1.1488  0.6730 -0.6148
 1851SOL     OW17185   1.554   2.879   2.028 -0.4063 -0.1062 -0.3207
 1851SOL    HW117186   1.560   2.853   2.120 -2.4814  1.2234  0.1786
 1851SOL    HW217187   1.611   2.819   1.979  1.8004  1.0619  0.7876
 1852SOL     OW17188   0.121   3.704  15.508 -0.5714 -0.4225 -0.0431
 1852SOL    HW117189   0.190   3.770  15.519  1.2563 -2.3814  0.1719
 1852SOL    HW217190   0.160   3.636  15.563  1.5235 -0.7211 -1.8687
 1853SOL     OW17191   1.740   1.174   3.836 -0.5017  1.0197  0.0932
 1853SOL    HW117192   1.667   1.231   3.814 -0.9126  0.0122 -1.1539
 1853SOL    HW217193   1.743   1.122   3.756 -1.7892 -1.2792  1.5445
 1854SOL     OW17194   2.113   3.222   4.064 -0.0413  0.0927  0.0836
 1854SOL    HW117195   2.052   3.176   4.007 -0.3814  0.7638 -0.0952
 1854SOL    HW217196   2.138   3.148   4.119  1.5316 -0.7587 -1.7876
 1855SOL     OW17197   1.203   0.472   4.343  0.1899  0.1657 -0.1462
 1855SOL    HW117198   1.180   0.387   4.306 -1.4017  0.0479  1.1457
 1855SOL    HW217199   1.204   0.446   4.435 -1.8851  0.5439 -0.0165
 1856SOL     OW17200   0.411   1.562   1.909  0.0430 -0.4881 -0.7131
 1856SOL    HW117201   0.406   1.582   1.816  0.0435  1.3530 -0.3127
 1856SOL    HW217202   0.500   1.528   1.917 -0.4629 -1.7118 -0.2299
 1857SOL     OW17203   3.334   1.881   6.078  0.1783 -0.5697 -0.1755
 1857SOL    HW117204   3.369   1.832   6.003  0.2805 -2.8691  1.3749
 1857SOL    HW217205   3.255   1.919   6.039  1.3219  0.9818 -0.9901
 1858SOL     OW17206   2.840   3.400   1.190 -0.0839  0.0449  0.2196
 1858SOL    HW117207   2.921   3.441   1.160 -1.5080  0.5949 -2.8577
 1858SOL    HW217208   2.797   3.452   1.257 -1.5770 -0.0371 -0.6682
 1859SOL     OW17209   0.625   1.814   5.611 -0.0734  0.3175 -0.5350
 1859SOL    HW117210   0.709   1.860   5.608  0.2588 -0.3457 -1.3945
 1859SOL    HW217211   0.571   1.883   5.649 -1.1411 -0.0104 -1.4724
 1860SOL     OW17212   4.431   1.425   5.805 -0.3922  0.2125 -0.4007
 1860SOL    HW117213   4.410   1.383   5.888  0.2998  1.6913  0.5326
 1860SOL    HW217214   4.524   1.402   5.798 -0.4174 -0.1676  0.5339
 1861SOL     OW17215   1.643   1.457  16.745  0.1480 -0.0891 -0.1874
 1861SOL    HW117216   1.583   1.386  16.722  2.0252 -1.2761 -1.3849
 1861SOL    HW217217   1.597   1.507  16.813 -0.5542  0.0318 -0.7550
 1862SOL     OW17218   1.611   4.271   5.897 -0.1089  0.3132 -0.1479
 1862SOL    HW117219   1.604   4.225   5.980  0.1724 -2.3569 -1.6161
 1862SOL    HW217220   1.706   4.282   5.891  0.1821 -1.8225  0.5859
 1863SOL     OW17221   1.163   0.604   3.721  0.0066  0.1680 -1.1634
 1863SOL    HW117222   1.077   0.595   3.680  0.4655  0.0655 -2.0957
 1863SOL    HW217223   1.230   0.603   3.653  1.6580 -1.1666  0.4990
 1864SOL     OW17224   0.939   1.196   4.624 -0.0060  0.6388  0.1269
 1864SOL    HW117225   0.864   1.250   4.598 -0.5628 -0.0257  0.3550
 1864SOL    HW217226   0.889   1.115   4.631 -0.7691  0.9221 -2.0089
 1865SOL     OW17227   0.580   3.969   6.049  0.6546 -0.0080 -0.4196
 1865SOL    HW117228   0.502   4.014   6.016  0.9024  1.3580  0.8347
 1865SOL    HW217229   0.636   4.047   6.051 -0.0786  0.4919  0.9533
 1866SOL     OW17230   3.119   4.649   3.725  0.1408 -0.1948 -0.0422
 1866SOL    HW117231   3.052   4.584   3.745 -0.2854 -0.1444 -1.3539
 1866SOL    HW217232   3.142   4.686   3.810 -2.0694 -1.6168  1.1496
 1867SOL     OW17233   4.638   3.728   4.400  0.2420 -0.2798 -0.2274
 1867SOL    HW117234   4.628   3.690   4.488  0.2984 -1.2383 -0.6368
 1867SOL    HW217235   4.579   3.674   4.348 -0.2114  0.0497 -0.0594
 1868SOL     OW17236   2.583   3.815   7.890  0.4499  0.2940  0.4270
 1868SOL    HW117237   2.552   3.859   7.969 -0.5794 -1.2110  0.8700
 1868SOL    HW217238   2.578   3.885   7.825 -0.3353 -0.5271 -0.3895
 1869SOL     OW17239   1.845   0.540   8.453 -0.1167  0.0700  0.3162
 1869SOL    HW117240   1.886   0.599   8.390  3.2854 -0.1396  2.3139
 1869SOL    HW217241   1.874   0.454   8.422  2.1051  0.5405  1.0963
 1870SOL     OW17242   1.848   4.620   5.757  0.3440  0.3156 -0.1064
 1870SOL    HW117243   1.829   4.552   5.692  3.0387 -2.1806  1.6975
 1870SOL    HW217244   1.800   4.699   5.733  0.4460  0.1974 -0.6917
 1871SOL     OW17245   2.036   3.861  15.351  0.5114 -0.1171  0.1705
 1871SOL    HW117246   2.076   3.906  15.426  0.1480  0.8185 -0.1988
 1871SOL    HW217247   1.962   3.834  15.406  0.9157  2.5540  2.0136
 1872SOL     OW17248   2.499   2.996   7.709 -0.5065 -0.1682 -0.2831
 1872SOL    HW117249   2.417   3.039   7.685 -1.5572 -1.4679  1.0096
 1872SOL    HW217250   2.466   2.906   7.710  0.6878 -0.5593  2.3286
 1873SOL     OW17251   3.966   0.957   5.678 -0.8857  0.3973 -0.2004
 1873SOL    HW117252   3.972   0.978   5.585 -2.6526 -1.3394 -0.7110
 1873SOL    HW217253   4.041   0.900   5.691 -1.0020  0.2954  0.0235
 1874SOL     OW17254   4.560   4.108   7.702  0.0380  0.1208 -0.3208
 1874SOL    HW117255   4.640   4.161   7.697 -1.0898  2.0555  1.6796
 1874SOL    HW217256   4.502   4.139   7.632  0.5277  1.5428 -0.1139
 1875SOL     OW17257   3.025   0.358   8.545 -0.1571 -0.1112  0.0423
 1875SOL    HW117258   3.038   0.353   8.640  1.6978 -3.0380 -0.3643
 1875SOL    HW217259   2.929   0.352   8.538  0.0935 -2.5629 -1.3951
 1876SOL     OW17260   4.274   2.471   2.879 -0.0774 -0.1329  0.1949
 1876SOL    HW117261   4.329   2.485   2.802  1.8268  2.3133  1.9870
 1876SOL    HW217262   4.199   2.523   2.851 -0.7933 -1.1631  0.2081
 1877SOL     OW17263   4.403   1.824   8.554 -0.1090 -0.3089  0.2768
 1877SOL    HW117264   4.396   1.822   8.458 -1.3142 -0.0426  0.3552
 1877SOL    HW217265   4.346   1.895   8.582 -1.2168 -1.0358 -0.1315
 1878SOL     OW17266   3.098   0.515   0.334 -0.1642  0.6020  1.1134
 1878SOL    HW117267   3.108   0.455   0.260 -0.1352  1.2103  0.6211
 1878SOL    HW217268   3.025   0.566   0.300  0.4322  1.5401  1.2367
 1879SOL     OW17269   0.363   3.950   5.488  0.0085  0.8389  0.3411
 1879SOL    HW117270   0.350   3.950   5.393 -1.3112  1.5531  0.5191
 1879SOL    HW217271   0.427   3.880   5.501 -1.7405 -0.8180 -0.0248
 1880SOL     OW17272   1.504   3.123   9.362 -0.4287  0.0699  0.0853
 1880SOL    HW117273   1.441   3.180   9.318  3.9903  4.0479 -1.1593
 1880SOL    HW217274   1.554   3.187   9.412 -0.8285  0.4642 -0.0193
 1881SOL     OW17275   0.101   0.090  17.505 -0.2647 -0.0897 -0.0624
 1881SOL    HW117276   0.025   0.032  17.506 -0.1753 -0.2160 -1.0642
 1881SOL    HW217277   0.085   0.151  17.433  2.0215  0.9482  0.3122
 1882SOL     OW17278   1.142   2.008   6.362  0.6225  0.2455  0.2812
 1882SOL    HW117279   1.069   1.988   6.421 -0.4709 -2.4606 -1.9592
 1882SOL    HW217280   1.195   1.935   6.394  2.4407  2.0984  1.4093
 1883SOL     OW17281   4.504   3.142   8.989 -0.0684 -0.0565  0.1764
 1883SOL    HW117282   4.494   3.080   9.061  4.0340 -1.4401 -0.4659
 1883SOL    HW217283   4.596   3.164   9.003  0.7550 -1.1032 -3.4320
 1884SOL     OW17284   2.442   3.321   8.542 -0.7044 -0.6875 -0.2285
 1884SOL    HW117285   2.474   3.276   8.620 -1.8012 -0.2358  0.4958
 1884SOL    HW217286   2.416   3.246   8.489 -0.5560 -0.5634 -0.4771
 1885SOL     OW17287   0.104   0.091   2.654  1.1767  0.8682 -0.4591
 1885SOL    HW117288   0.092   0.122   2.564  2.0023 -2.5348 -1.7108
 1885SOL    HW217289   0.046   0.015   2.648 -0.0851  1.7567  0.4110
 1886SOL     OW17290   4.693   1.705   4.215  0.0695  0.5458  0.4597
 1886SOL    HW117291   4.602   1.733   4.230  0.0065  0.4461  0.2610
 1886SOL    HW217292   4.723   1.704   4.306  0.4785 -1.6405  0.2819
 1887SOL     OW17293   3.209   3.467   6.133  0.8900  0.1331  0.0077
 1887SOL    HW117294   3.235   3.556   6.110  1.8326  0.1384  1.1077
 1887SOL    HW217295   3.269   3.436   6.201 -2.4926 -1.9486  2.0286
 1888SOL     OW17296   2.371   0.536   8.014 -0.6732  0.0112  0.4896
 1888SOL    HW117297   2.293   0.485   8.033  0.1568 -1.0201  1.1132
 1888SOL    HW217298   2.355   0.607   8.076  2.1134 -0.0929  1.3600
 1889SOL     OW17299   2.815   3.178   3.194  0.0198  0.5731 -0.3657
 1889SOL    HW117300   2.898   3.226   3.192  0.0154  0.6520  2.3965
 1889SOL    HW217301   2.776   3.217   3.272 -0.6298  0.6255 -0.7182
 1890SOL     OW17302   0.083   3.586   7.385 -0.7391  0.5525 -0.3619
 1890SOL    HW117303   0.018   3.657   7.392 -0.6323  0.6996 -0.8469
 1890SOL    HW217304   0.159   3.636   7.416 -2.4902  2.9861  0.0338
 1891SOL     OW17305   1.244   0.375  17.670  0.2608 -0.2336 -0.0453
 1891SOL    HW117306   1.270   0.413  17.586  2.6245 -1.0297  0.3475
 1891SOL    HW217307   1.236   0.455  17.722 -0.2392 -0.8404  0.8014
 1892SOL     OW17308   2.527   2.522   6.170  0.1328  0.1551 -0.3479
 1892SOL    HW117309   2.595   2.562   6.116  1.3084  0.2839  1.2359
 1892SOL    HW217310   2.527   2.573   6.251  2.2766  1.0781 -0.9218
 1893SOL     OW17311   3.204   3.451  14.766 -0.0476 -0.2225 -0.1187
 1893SOL    HW117312   3.274   3.438  14.702 -0.2959 -1.3765 -0.1547
 1893SOL    HW217313   3.191   3.364  14.803  1.4905 -0.0444  0.8391
 1894SOL     OW17314   2.059   3.035  15.104 -0.0263  0.2402  0.0031
 1894SOL    HW117315   2.137   3.078  15.071  0.0377  1.2944  1.5569
 1894SOL    HW217316   2.015   3.110  15.143 -1.5661 -1.0274  0.7397
 1895SOL     OW17317   0.239   2.942   2.578 -0.0921 -0.0365  0.1872
 1895SOL    HW117318   0.319   2.927   2.527  0.0448 -1.6738  0.8824
 1895SOL    HW217319   0.237   3.037   2.562 -0.8669 -0.2185 -0.8421
 1896SOL     OW17320   3.555   2.336   6.146  0.0496  0.4388 -0.4685
 1896SOL    HW117321   3.465   2.354   6.121 -0.1633  1.3392  0.9780
 1896SOL    HW217322   3.539   2.241   6.149 -0.6374  0.6136  0.9139
 1897SOL     OW17323   3.646   1.996   6.966  0.7641  0.6248 -0.0451
 1897SOL    HW117324   3.605   1.914   6.991 -0.3783  0.4398 -2.5007
 1897SOL    HW217325   3.605   2.009   6.881  2.5893  0.9286 -0.8945
 1898SOL     OW17326   2.788   4.602   4.867 -0.1912  0.1990  0.0827
 1898SOL    HW117327   2.878   4.621   4.842  0.2001 -0.3734  1.0631
 1898SOL    HW217328   2.747   4.585   4.782 -0.2561  2.0125 -0.2399
 1899SOL     OW17329   4.018   0.779   4.124  0.1296 -0.5193  0.2841
 1899SOL    HW117330   4.015   0.717   4.197  1.0967  0.1400  0.8837
 1899SOL    HW217331   3.932   0.822   4.123  0.5490  0.2390 -2.3724
 1900SOL     OW17332   0.552   4.167   3.474  0.2789 -0.2625 -0.2455
 1900SOL    HW117333   0.555   4.165   3.569 -0.6070 -2.7098 -0.2836
 1900SOL    HW217334   0.573   4.078   3.448  0.3062  0.3757 -2.4662
 1901SOL     OW17335   4.084   2.687   4.233 -0.2665 -0.6574 -0.5775
 1901SOL    HW117336   4.130   2.634   4.299  0.1725  1.9635  1.1946
 1901SOL    HW217337   3.994   2.659   4.245 -0.2030 -0.7277 -0.2454
 1902SOL     OW17338   0.106   1.405   3.820 -0.0683  0.2311  0.1822
 1902SOL    HW117339   0.142   1.476   3.768 -2.2838  1.3661  0.1948
 1902SOL    HW217340   0.016   1.403   3.787  0.1698 -3.5460 -0.2818
 1903SOL     OW17341   0.747   2.141  16.422  0.2358  0.0665 -0.5773
 1903SOL    HW117342   0.660   2.144  16.462  0.9830 -0.8886  1.1226
 1903SOL    HW217343   0.755   2.046  16.416  1.7528 -0.0224  2.8652
 1904SOL     OW17344   3.700   0.661   8.466  0.2000 -0.2098  0.1112
 1904SOL    HW117345   3.606   0.647   8.473  0.5881 -1.8886  2.0562
 1904SOL    HW217346   3.708   0.685   8.374  0.8952 -2.2341 -0.3503
 1905SOL     OW17347   3.447   2.020  17.385  0.4640  0.5258 -0.5827
 1905SOL    HW117348   3.406   2.078  17.321 -0.5335 -0.1523 -0.5587
 1905SOL    HW217349   3.431   1.932  17.351 -1.3942 -0.1032  1.9319
 1906SOL     OW17350   2.489   4.267  16.242  0.3234  0.2820 -0.4128
 1906SOL    HW117351   2.501   4.298  16.152  1.8067  0.1512 -0.2655
 1906SOL    HW217352   2.394   4.273  16.252  0.3120 -0.1551 -0.2604
 1907SOL     OW17353   4.456   1.945  10.949  0.0064  0.3539 -0.7895
 1907SOL    HW117354   4.457   2.002  10.872 -1.0612 -0.7468 -1.6066
 1907SOL    HW217355   4.489   2.012  11.010 -0.3611 -1.0706  0.9624
 1908SOL     OW17356   4.399   3.652   3.878  0.2510 -0.2122 -0.3305
 1908SOL    HW117357   4.416   3.568   3.835  2.2534 -0.1795  0.3828
 1908SOL    HW217358   4.445   3.649   3.962 -1.0364 -1.0821  0.3509
 1909SOL     OW17359   2.389   0.544   2.507  0.3569 -0.1292  0.5297
 1909SOL    HW117360   2.396   0.453   2.476  0.4573  0.1870 -0.3934
 1909SOL    HW217361   2.376   0.596   2.428  3.7281 -1.9701 -1.2634
 1910SOL     OW17362   4.199   3.580  13.684 -0.4957  0.0715 -0.2448
 1910SOL    HW117363   4.147   3.556  13.607 -1.3869 -0.5111  0.5453
 1910SOL    HW217364   4.156   3.660  13.714 -1.3516 -0.3354 -0.4054
 1911SOL     OW17365   0.497   1.979   8.111  0.2097  0.2692 -0.5349
 1911SOL    HW117366   0.544   1.952   8.190 -0.7513  1.5273  0.4726
 1911SOL    HW217367   0.475   1.896   8.069 -0.3287 -1.0264  2.3112
 1912SOL     OW17368   0.957   0.455  16.812 -0.4024 -0.0959  0.5297
 1912SOL    HW117369   1.042   0.483  16.847  0.1797 -1.1336 -0.0569
 1912SOL    HW217370   0.984   0.451  16.720  1.1557 -1.7917  1.0646
 1913SOL     OW17371   3.936   3.390   3.767 -0.4165 -0.7555 -0.4942
 1913SOL    HW117372   3.856   3.410   3.719  0.5437  0.3001 -1.6347
 1913SOL    HW217373   3.996   3.356   3.702  0.7389 -1.0738  0.7406
 1914SOL     OW17374   1.574   3.420   7.068  0.8247 -0.4341  0.1932
 1914SOL    HW117375   1.529   3.337   7.083  1.1389 -0.9190 -1.5910
 1914SOL    HW217376   1.530   3.444   6.987  2.3592  0.0889 -0.4795
 1915SOL     OW17377   2.189   1.409  13.073 -0.4461  0.0210  0.1612
 1915SOL    HW117378   2.157   1.494  13.104 -2.0566  0.3897 -2.5305
 1915SOL    HW217379   2.244   1.438  13.001  0.8379  1.3871  1.6924
 1916SOL     OW17380   1.366   0.548   4.147 -0.0941 -1.0500 -0.4449
 1916SOL    HW117381   1.293   0.607   4.127 -1.0921 -1.9570  0.5317
 1916SOL    HW217382   1.347   0.525   4.238  2.1234 -0.5865  0.1287
 1917SOL     OW17383   1.544   0.182   8.551  0.1690 -0.4344 -0.9274
 1917SOL    HW117384   1.584   0.237   8.618 -1.0437  0.2205 -0.7505
 1917SOL    HW217385   1.617   0.160   8.493  0.6029 -1.0303 -0.1445
 1918SOL     OW17386   1.929   0.931  14.016 -0.0606 -0.3733  0.5856
 1918SOL    HW117387   1.842   0.959  14.045  0.9242  0.9645  2.2757
 1918SOL    HW217388   1.927   0.845  14.059  0.2921 -2.0522 -2.8348
 1919SOL     OW17389   1.511   4.631   2.737  0.2692 -0.3140  0.2599
 1919SOL    HW117390   1.517   4.704   2.676 -2.1446 -0.1607  0.2012
 1919SOL    HW217391   1.427   4.591   2.718 -0.2129  1.8247 -2.0223
 1920SOL     OW17392   1.317   1.309  12.410 -0.3844  0.1389 -0.8224
 1920SOL    HW117393   1.295   1.357  12.491  2.3873  1.4889 -0.8843
 1920SOL    HW217394   1.237   1.257  12.402  0.4056 -1.2646  0.5174
 1921SOL     OW17395   3.176   3.057   3.627 -1.0150  0.0768 -0.6774
 1921SOL    HW117396   3.109   3.106   3.675 -0.2449  0.3472  0.1186
 1921SOL    HW217397   3.247   3.091   3.682  0.8077 -2.7311 -1.3200
 1922SOL     OW17398   2.978   4.662   7.482 -0.5741  0.0062  0.3260
 1922SOL    HW117399   3.036   4.592   7.452 -1.1467 -0.7025  0.8771
 1922SOL    HW217400   2.933   4.678   7.399  0.1699  0.0850 -0.0608
 1923SOL     OW17401   2.733   2.720   9.423  0.5007  0.9628  0.5062
 1923SOL    HW117402   2.650   2.714   9.470 -0.4705  2.1630 -1.0463
 1923SOL    HW217403   2.795   2.672   9.478  1.5028 -0.5595 -1.9606
 1924SOL     OW17404   4.086   0.045   5.784 -0.1697 -0.1640 -0.0646
 1924SOL    HW117405   4.147   0.039   5.710 -0.8937  0.2707 -0.7078
 1924SOL    HW217406   4.090   0.138   5.804  0.6557 -0.0103 -0.9169
 1925SOL     OW17407   3.130   0.106   3.002  0.0116  0.7642 -0.2325
 1925SOL    HW117408   3.148   0.188   3.049  3.1356 -1.1782  1.9585
 1925SOL    HW217409   3.036   0.118   2.990 -0.1577 -0.1014  0.2222
 1926SOL     OW17410   2.976   0.687   5.076  0.3343 -0.1638 -0.6995
 1926SOL    HW117411   2.954   0.763   5.022  3.5345  3.0525  2.5319
 1926SOL    HW217412   2.908   0.688   5.143  0.3530  2.3797 -0.7245
 1927SOL     OW17413   4.018   1.802   9.784  0.1715 -0.4586  0.4762
 1927SOL    HW117414   4.061   1.829   9.865 -1.7600 -2.7451  2.2489
 1927SOL    HW217415   4.080   1.735   9.754  1.0215  0.3697  0.3992
 1928SOL     OW17416   0.679   1.210   8.281 -0.1483  0.2258 -0.1577
 1928SOL    HW117417   0.649   1.291   8.322 -1.0159 -0.1923  0.0495
 1928SOL    HW217418   0.593   1.182   8.248  0.1345 -3.0737  1.8580
 1929SOL     OW17419   0.169   1.656   3.758 -0.2072 -0.4592 -0.5069
 1929SOL    HW117420   0.080   1.677   3.731  0.3498  1.3866 -0.9065
 1929SOL    HW217421   0.183   1.720   3.827  2.9872  0.5754 -2.1136
 1930SOL     OW17422   3.705   1.267   7.096 -0.3860  0.0039 -0.4075
 1930SOL    HW117423   3.770   1.332   7.124  0.2923 -0.8836  0.0881
 1930SOL    HW217424   3.711   1.277   7.001  1.3751  0.9623 -0.2041
 1931SOL     OW17425   1.953   1.914   8.384  0.1712 -0.1097 -0.1130
 1931SOL    HW117426   1.969   1.941   8.474 -3.0254 -0.0037  0.4257
 1931SOL    HW217427   1.903   1.833   8.393  2.1199 -1.1726  1.1335
 1932SOL     OW17428   2.774   3.203   6.221 -0.1121 -0.1953  0.1283
 1932SOL    HW117429   2.801   3.293   6.201 -1.7733  0.5348  1.0847
 1932SOL    HW217430   2.838   3.159   6.165  0.2936 -0.4008  0.7652
 1933SOL     OW17431   4.072   3.993  17.626 -0.3768  0.3271 -0.7916
 1933SOL    HW117432   4.039   4.067  17.575  0.0429  1.9083  1.2170
 1933SOL    HW217433   4.163   3.995  17.596 -1.3217  0.8987 -3.5934
 1934SOL     OW17434   2.903   2.146   8.379 -0.3285  0.2912  0.1217
 1934SOL    HW117435   2.838   2.084   8.411 -0.3238 -1.1570 -2.6674
 1934SOL    HW217436   2.868   2.178   8.296  1.0093 -0.4761 -0.7452
 1935SOL     OW17437   4.642   3.618  13.491  0.2455  0.0227  0.4201
 1935SOL    HW117438   4.699   3.541  13.490 -2.0367 -1.6779  0.1149
 1935SOL    HW217439   4.643   3.654  13.402 -2.2764 -2.7396 -0.7437
 1936SOL     OW17440   4.199   2.535   0.585 -0.6403  0.4391  0.1913
 1936SOL    HW117441   4.247   2.471   0.533 -2.3306 -0.9240  0.3177
 1936SOL    HW217442   4.240   2.519   0.670  1.0333 -0.0833 -0.7178
 1937SOL     OW17443   4.575   0.630  10.913 -0.4468 -0.3725  0.2900
 1937SOL    HW117444   4.618   0.697  10.966  0.3772 -1.2558  0.7163
 1937SOL    HW217445   4.506   0.695  10.896 -2.6618 -2.6296  0.6213
 1938SOL     OW17446   1.020   0.742   4.628  0.5207 -0.0302 -0.2724
 1938SOL    HW117447   0.950   0.709   4.571  0.3997  3.6406 -2.2310
 1938SOL    HW217448   1.045   0.658   4.667  2.6968  0.1837 -1.1707
 1939SOL     OW17449   3.823   0.139   1.741  0.0645 -0.2426  0.0280
 1939SOL    HW117450   3.792   0.222   1.778 -0.8923  0.7180 -2.9010
 1939SOL    HW217451   3.885   0.105   1.806  0.8038 -1.5529 -1.3507
 1940SOL     OW17452   1.944   0.170   3.251 -0.0790  0.6127  0.1995
 1940SOL    HW117453   1.951   0.166   3.156 -0.8885  0.8501  0.1256
 1940SOL    HW217454   1.906   0.084   3.270 -1.6615  0.7670 -2.2477
 1941SOL     OW17455   3.970   2.000   8.154 -0.2325 -0.4603  1.0470
 1941SOL    HW117456   4.041   2.064   8.147 -2.9342  2.4986  1.0634
 1941SOL    HW217457   4.015   1.918   8.178  1.5619 -0.1290 -1.2653
 1942SOL     OW17458   2.278   2.324  17.268  0.3307  0.2954 -0.5048
 1942SOL    HW117459   2.317   2.380  17.201  2.4995 -0.6103 -0.0100
 1942SOL    HW217460   2.204   2.378  17.296 -0.0921 -0.9491  0.7585
 1943SOL     OW17461   2.746   3.020   9.151 -0.4390 -0.2786  0.2459
 1943SOL    HW117462   2.702   2.939   9.124 -0.5845  0.1457 -0.8120
 1943SOL    HW217463   2.805   2.993   9.221  0.3930 -0.8748 -0.6844
 1944SOL     OW17464   0.208   1.350   6.711 -0.1003 -0.1019  0.4316
 1944SOL    HW117465   0.275   1.283   6.699 -0.4665 -0.2243 -0.8874
 1944SOL    HW217466   0.223   1.413   6.641 -2.8473 -1.1810 -1.0928
 1945SOL     OW17467   0.021   3.258   4.184  0.7007  0.1487 -0.5918
 1945SOL    HW117468   0.086   3.289   4.247 -0.3910 -0.7440  0.9841
 1945SOL    HW217469   0.060   3.178   4.148  1.0189 -0.5514  1.2975
 1946SOL     OW17470   2.325   3.523   8.844  0.1600 -0.4728  0.1463
 1946SOL    HW117471   2.280   3.553   8.922  0.5375  1.5029 -0.3967
 1946SOL    HW217472   2.415   3.517   8.877  0.1441  1.5189  0.5111
 1947SOL     OW17473   0.736   0.065  10.370 -0.0180 -0.2511 -0.5808
 1947SOL    HW117474   0.798   4.734  10.386 -0.0011 -0.3736 -1.2035
 1947SOL    HW217475   0.654   0.016  10.364  0.7599 -1.8379  1.8104
 1948SOL     OW17476   0.660   2.622   6.820 -0.4358 -0.2746  0.0195
 1948SOL    HW117477   0.610   2.626   6.902 -1.3423  0.7851 -0.5866
 1948SOL    HW217478   0.707   2.541   6.838 -0.9955 -0.9887 -1.7256
 1949SOL     OW17479   2.140   4.296   0.491 -0.2931  0.6251 -0.3023
 1949SOL    HW117480   2.191   4.306   0.571  1.9605  0.8881 -1.7871
 1949SOL    HW217481   2.060   4.261   0.532  1.0108 -0.6761  1.1125
 1950SOL     OW17482   0.385   4.482   3.154  0.2057 -0.1559 -0.8653
 1950SOL    HW117483   0.352   4.568   3.130  1.7166  0.3723 -1.0165
 1950SOL    HW217484   0.475   4.491   3.124  0.7330  2.1293  1.4494
 1951SOL     OW17485   0.233   3.773   8.179 -0.0112 -0.3422 -0.2763
 1951SOL    HW117486   0.227   3.783   8.084 -0.9258 -0.6437 -0.2457
 1951SOL    HW217487   0.161   3.713   8.194 -0.0037  0.0808  1.4002
 1952SOL     OW17488   2.342   2.472  16.631  0.1741  0.3767  0.2084
 1952SOL    HW117489   2.393   2.415  16.689 -2.6038 -1.3263  1.0143
 1952SOL    HW217490   2.355   2.416  16.553  4.2165  1.0554  0.3944
 1953SOL     OW17491   4.263   3.148   0.817  0.1533  0.5994 -0.0796
 1953SOL    HW117492   4.209   3.199   0.756 -1.0350 -1.6525 -0.9047
 1953SOL    HW217493   4.319   3.103   0.753 -1.0941 -1.7096  0.4852
 1954SOL     OW17494   2.168   3.973  14.845  0.4818  0.6908 -0.2171
 1954SOL    HW117495   2.085   3.978  14.892  0.6798 -2.5855  0.4667
 1954SOL    HW217496   2.204   4.056  14.875 -1.4170  1.4833 -0.1256
 1955SOL     OW17497   4.301   2.742   2.518 -0.4491 -0.1567 -0.1691
 1955SOL    HW117498   4.238   2.681   2.557  0.7183 -2.5888 -2.0993
 1955SOL    HW217499   4.370   2.741   2.585  0.7423 -0.4143 -1.3859
 1956SOL     OW17500   1.356   2.062  11.470  0.1980 -0.2376 -0.1648
 1956SOL    HW117501   1.311   1.996  11.523  0.0105  0.4465  0.5185
 1956SOL    HW217502   1.318   2.138  11.514  0.4232 -0.3566  0.2336
 1957SOL     OW17503   2.208   1.012  10.436  0.2870  0.0620  0.0268
 1957SOL    HW117504   2.297   1.047  10.434 -0.7234  2.3808 -3.6012
 1957SOL    HW217505   2.175   1.073  10.503  1.2100  1.1774 -0.5323
 1958SOL     OW17506   1.103   0.204   7.494  0.1206  0.9924  0.3708
 1958SOL    HW117507   1.161   0.262   7.444  0.1135 -0.6923 -1.5727
 1958SOL    HW217508   1.084   0.135   7.431  0.7861  0.4444  0.7618
 1959SOL     OW17509   0.945   3.386  13.627 -0.2160  0.2126 -0.5475
 1959SOL    HW117510   0.940   3.381  13.531  1.0286  0.2740 -0.6070
 1959SOL    HW217511   1.019   3.331  13.652 -0.5767 -0.3971 -0.8120
 1960SOL     OW17512   2.648   2.469   8.862  0.1407 -0.6441  0.3916
 1960SOL    HW117513   2.722   2.491   8.806 -1.0687 -0.9264 -1.3312
 1960SOL    HW217514   2.598   2.551   8.863  0.9791 -0.1581  1.9003
 1961SOL     OW17515   1.255   2.002   1.256 -0.0830 -0.1381  0.0465
 1961SOL    HW117516   1.324   1.940   1.231  0.4852 -0.1070  1.5109
 1961SOL    HW217517   1.299   2.086   1.249  0.9751 -0.8982 -2.5368
 1962SOL     OW17518   2.880   2.295  17.486 -0.3728  0.4748  0.1427
 1962SOL    HW117519   2.953   2.262  17.434 -1.6395  1.2521 -2.1470
 1962SOL    HW217520   2.815   2.232  17.453  1.2858 -2.2030  2.0301
 1963SOL     OW17521   3.302   4.198   2.061 -0.2905 -0.1492 -0.3131
 1963SOL    HW117522   3.284   4.169   1.972 -2.2691 -1.7082  0.5907
 1963SOL    HW217523   3.347   4.282   2.056  0.2103 -0.3957 -0.0176
 1964SOL     OW17524   2.878   1.428   2.401 -0.0062  0.2427 -0.2932
 1964SOL    HW117525   2.957   1.470   2.368  0.1971 -0.7317 -1.0466
 1964SOL    HW217526   2.922   1.356   2.447 -1.1822 -0.4031 -0.1701
 1965SOL     OW17527   1.777   2.473   6.909 -0.0672  0.1181 -0.0293
 1965SOL    HW117528   1.726   2.539   6.861  1.6267  2.1240  0.9346
 1965SOL    HW217529   1.855   2.470   6.854 -1.0318  0.5366 -1.4438
 1966SOL     OW17530   3.350   4.323   4.801  0.1709  0.2378  0.0547
 1966SOL    HW117531   3.397   4.264   4.742  0.7642  1.2588 -0.4784
 1966SOL    HW217532   3.365   4.403   4.751 -0.2560  0.2115 -0.1107
 1967SOL     OW17533   2.298   2.874  13.171  0.2126  0.0478 -0.5009
 1967SOL    HW117534   2.344   2.886  13.254 -1.1164  0.1393  0.2188
 1967SOL    HW217535   2.295   2.779  13.168 -0.6656  0.0267  0.9334
 1968SOL     OW17536   1.771   4.365  15.540 -0.0952  0.3066  0.0765
 1968SOL    HW117537   1.676   4.368  15.554 -0.7155 -2.9502 -3.4203
 1968SOL    HW217538   1.782   4.275  15.570 -0.0363  1.0847  2.3678
 1969SOL     OW17539   2.276   1.546   8.801 -0.1143 -0.3488 -0.3160
 1969SOL    HW117540   2.243   1.625   8.844  0.3402  0.7819 -2.0057
 1969SOL    HW217541   2.268   1.570   8.708  0.8760 -0.1363 -0.3459
 1970SOL     OW17542   0.242   2.388   5.319 -0.0617 -0.1630  1.0313
 1970SOL    HW117543   0.226   2.456   5.385 -0.0468  0.2057  0.6569
 1970SOL    HW217544   0.215   2.438   5.242  0.6465 -1.7715 -0.2607
 1971SOL     OW17545   2.097   0.482  11.867 -0.2475  0.5552  0.7768
 1971SOL    HW117546   2.176   0.535  11.864 -0.2232  0.5543  1.4380
 1971SOL    HW217547   2.052   0.509  11.947 -1.6371  4.6786 -1.4168
 1972SOL     OW17548   3.081   2.834  11.950 -0.1373 -0.0246 -0.0474
 1972SOL    HW117549   3.045   2.748  11.927  1.4180 -0.6703 -0.0771
 1972SOL    HW217550   3.147   2.844  11.882 -0.2833  1.1093 -0.0208
 1973SOL     OW17551   2.548   3.167  17.388  0.5312 -0.5345  0.0922
 1973SOL    HW117552   2.573   3.115  17.464 -1.8777 -0.7511  0.7483
 1973SOL    HW217553   2.566   3.255  17.423  0.6757 -0.1853 -0.8594
 1974SOL     OW17554   1.891   1.572   7.217  0.4447 -0.0396  0.0072
 1974SOL    HW117555   1.824   1.629   7.254  0.5022 -0.0681  0.1524
 1974SOL    HW217556   1.833   1.503   7.183  2.9880 -0.0271 -4.4082
 1975SOL     OW17557   4.625   3.200   2.590  0.2713 -0.3144 -0.1976
 1975SOL    HW117558   4.559   3.206   2.520  0.4529  0.0619 -0.3362
 1975SOL    HW217559   4.608   3.280   2.640 -0.4469 -0.3436 -0.3874
 1976SOL     OW17560   3.867   2.692   9.349  0.0008  0.5615 -0.4181
 1976SOL    HW117561   3.860   2.707   9.255  0.9133 -2.0969 -0.9156
 1976SOL    HW217562   3.948   2.642   9.359  0.6245  1.5647 -0.4385
 1977SOL     OW17563   3.676   1.965   0.765  0.3379  0.9222 -0.0950
 1977SOL    HW117564   3.732   2.035   0.798  4.2051 -2.4848  0.5976
 1977SOL    HW217565   3.589   2.003   0.760  0.4100  1.0998  0.0295
 1978SOL     OW17566   3.264   3.379   3.952 -0.0870 -0.6111 -0.4738
 1978SOL    HW117567   3.272   3.459   3.901 -1.7215  0.7228  1.3606
 1978SOL    HW217568   3.178   3.348   3.923 -0.8142 -1.6993  2.8868
 1979SOL     OW17569   3.676   2.774   2.680  0.4677 -0.3913 -0.6443
 1979SOL    HW117570   3.717   2.729   2.606  0.2101 -2.0820  0.2269
 1979SOL    HW217571   3.587   2.738   2.683 -0.4056  1.6879 -2.1818
 1980SOL     OW17572   2.880   3.594   9.060 -0.4933 -0.2699 -0.2844
 1980SOL    HW117573   2.871   3.598   9.155  2.5910 -0.3602 -0.0083
 1980SOL    HW217574   2.892   3.499   9.048  1.1528 -0.4616  2.7817
 1981SOL     OW17575   1.285   1.558   7.233  0.5363 -0.4740 -0.2516
 1981SOL    HW117576   1.333   1.485   7.271  0.3009 -0.5395 -0.0790
 1981SOL    HW217577   1.347   1.595   7.171  1.8231  0.5578  1.6635
 1982SOL     OW17578   3.372   1.558   2.517 -0.2497  0.6880 -0.3979
 1982SOL    HW117579   3.428   1.636   2.514  0.9949 -0.1695  0.9551
 1982SOL    HW217580   3.352   1.544   2.609  1.1107 -0.1777 -0.2367
 1983SOL     OW17581   2.147   1.950   3.892  0.1261 -0.3773  0.0647
 1983SOL    HW117582   2.236   1.981   3.913 -0.4827  2.1955 -1.0922
 1983SOL    HW217583   2.103   2.020   3.844 -0.1836 -0.2911  0.4759
 1984SOL     OW17584   0.433   0.056  10.075 -0.3680 -0.4602 -0.2573
 1984SOL    HW117585   0.433   0.138  10.125 -1.8006  0.3655 -1.5947
 1984SOL    HW217586   0.519   0.065  10.034  0.0426  0.3171  0.7723
 1985SOL     OW17587   3.279   3.714   1.416 -0.0895 -0.4822 -0.5932
 1985SOL    HW117588   3.360   3.668   1.434 -0.4610 -0.1788  1.9065
 1985SOL    HW217589   3.290   3.805   1.445 -0.3820 -0.9939  1.1053
 1986SOL     OW17590   2.504   4.133  11.799  0.1844 -0.1486  0.3038
 1986SOL    HW117591   2.535   4.198  11.863  0.3053 -0.0151  0.1087
 1986SOL    HW217592   2.461   4.080  11.866 -1.5643 -0.0002 -0.7106
 1987SOL     OW17593   3.407   3.516   7.139  0.2492 -0.1505  0.1870
 1987SOL    HW117594   3.329   3.559   7.103  1.2144 -0.2395 -1.9914
 1987SOL    HW217595   3.475   3.569   7.097 -0.0716  0.0300 -0.1072
 1988SOL     OW17596   2.819   1.447   4.816 -0.0555  0.0683  0.1079
 1988SOL    HW117597   2.856   1.364   4.786 -2.1356 -0.7297 -0.2780
 1988SOL    HW217598   2.776   1.409   4.892  2.4148  1.0135  1.9560
 1989SOL     OW17599   4.611   3.325  14.231  0.1394  0.4459 -0.1409
 1989SOL    HW117600   4.567   3.293  14.151  0.9957  1.8270 -1.1658
 1989SOL    HW217601   4.705   3.310  14.219 -0.0971 -1.2437  0.1836
 1990SOL     OW17602   2.121   4.358  15.242  0.0053 -0.0271  0.0493
 1990SOL    HW117603   2.139   4.317  15.327 -0.5080  1.6304  0.9646
 1990SOL    HW217604   2.188   4.427  15.241  0.3656 -0.3884 -0.7794
 1991SOL     OW17605   0.318   0.992   2.884  0.1439 -0.6742 -0.0105
 1991SOL    HW117606   0.294   1.085   2.892 -0.8536 -0.8409 -1.0409
 1991SOL    HW217607   0.336   0.977   2.791 -0.9266 -2.2332  0.0307
 1992SOL     OW17608   2.337   2.252  16.183  0.3737  0.1933 -0.6533
 1992SOL    HW117609   2.400   2.215  16.122 -0.4339  1.3202 -2.1833
 1992SOL    HW217610   2.309   2.325  16.127 -0.1752 -0.0998 -0.7524
 1993SOL     OW17611   2.518   1.622  11.880 -0.0064  0.2783  0.6006
 1993SOL    HW117612   2.592   1.567  11.854 -0.9352 -0.0347 -1.3619
 1993SOL    HW217613   2.521   1.600  11.973 -1.4085 -0.2629  0.5073
 1994SOL     OW17614   2.610   2.879  11.471  0.5937 -0.5132 -0.1951
 1994SOL    HW117615   2.702   2.904  11.459  0.5306 -0.2666 -0.1447
 1994SOL    HW217616   2.609   2.837  11.557  0.5385 -1.1482 -0.4997
 1995SOL     OW17617   3.771   1.014   8.669  0.7347 -0.4336  0.2028
 1995SOL    HW117618   3.741   1.105   8.671  0.2932 -0.5550 -1.1902
 1995SOL    HW217619   3.690   0.963   8.676  1.1038 -0.8596  1.4024
 1996SOL     OW17620   2.886   3.203   6.941  0.6572  0.1974  0.3437
 1996SOL    HW117621   2.798   3.167   6.951  0.0024  1.8160  0.4330
 1996SOL    HW217622   2.890   3.256   7.021 -0.1019  0.5709  0.1376
 1997SOL     OW17623   1.054   4.350   9.492  0.6346  0.3150  0.1442
 1997SOL    HW117624   0.988   4.288   9.459  1.2620  0.0633 -0.6342
 1997SOL    HW217625   0.999   4.416   9.535  0.0694  0.3079 -0.5676
 1998SOL     OW17626   1.791   1.886   4.104 -0.3365 -0.3301  0.3006
 1998SOL    HW117627   1.787   1.940   4.025  1.5988 -1.1825 -0.3909
 1998SOL    HW217628   1.699   1.867   4.122 -0.2974  0.0586  0.9084
 1999SOL     OW17629   1.522   4.286  15.644  0.2684  0.4148 -0.1477
 1999SOL    HW117630   1.453   4.251  15.587  0.4585 -1.1549  0.5751
 1999SOL    HW217631   1.566   4.204  15.668  0.6825  0.9248  0.8203
 2000SOL     OW17632   4.642   2.667   3.417 -0.1125 -0.2517 -0.5351
 2000SOL    HW117633   4.608   2.733   3.357 -1.2781 -1.2606 -0.9862
 2000SOL    HW217634   4.738   2.665   3.406  0.0581 -2.2755  1.3473
 2001SOL     OW17635   1.990   4.726   7.434  0.1484  0.1345  0.0344
 2001SOL    HW117636   1.976   4.697   7.344 -0.9313  2.5340 -0.5688
 2001SOL    HW217637   1.998   4.648   7.489 -2.8088 -0.1888 -0.0465
 2002SOL     OW17638   0.229   0.048   9.752  0.3293 -0.2267  0.1026
 2002SOL    HW117639   0.267   4.710   9.711 -0.8275 -0.6289 -0.1892
 2002SOL    HW217640   0.310   0.099   9.757 -0.0052  0.2183  1.0800
 2003SOL     OW17641   1.701   3.800   6.092 -0.3788 -0.1984  0.1241
 2003SOL    HW117642   1.643   3.744   6.039 -0.1357 -0.2708 -0.0655
 2003SOL    HW217643   1.765   3.815   6.022  1.5665 -0.3180  1.8925
 2004SOL     OW17644   0.409   1.383  15.137 -0.3076  0.5468  0.4556
 2004SOL    HW117645   0.357   1.437  15.079  0.0742 -0.1317 -0.5127
 2004SOL    HW217646   0.354   1.305  15.142  1.7627 -0.8904  0.9230
 2005SOL     OW17647   1.372   1.567   4.556  0.1639  0.5319  0.1029
 2005SOL    HW117648   1.329   1.532   4.633  2.2719 -1.5849  0.3287
 2005SOL    HW217649   1.406   1.649   4.592  1.9643  0.5067 -1.5141
 2006SOL     OW17650   1.193   3.892   3.873  0.5009 -0.4267  0.1835
 2006SOL    HW117651   1.282   3.922   3.890  0.7296  0.6251 -2.8645
 2006SOL    HW217652   1.174   3.875   3.965  0.0839  3.5089  0.7839
 2007SOL     OW17653   3.945   3.686   2.752  0.0120  0.6343  0.2531
 2007SOL    HW117654   3.999   3.751   2.799  1.1568 -0.6360  0.7124
 2007SOL    HW217655   4.011   3.625   2.718 -1.8979 -0.6678 -1.0547
 2008SOL     OW17656   3.850   2.982   6.904 -0.5470 -0.3458  0.2968
 2008SOL    HW117657   3.868   2.913   6.841 -3.3595 -2.4882  1.8721
 2008SOL    HW217658   3.756   2.997   6.910 -0.2931  1.1134  0.8147
 2009SOL     OW17659   3.504   1.416   1.036  0.3141 -0.0865  0.4045
 2009SOL    HW117660   3.503   1.444   1.127  1.4919 -0.2912  0.4824
 2009SOL    HW217661   3.413   1.399   1.013 -0.5222  0.8641  3.0704
 2010SOL     OW17662   4.719   2.931   3.794  0.5760  0.1725  0.4943
 2010SOL    HW117663   0.073   2.942   3.805  0.6701  1.4256 -1.5304
 2010SOL    HW217664   4.714   2.847   3.749  0.1056  0.8447 -0.6950
 2011SOL     OW17665   4.436   2.217   5.280 -0.5145 -0.0984  0.7339
 2011SOL    HW117666   4.515   2.263   5.252 -1.0732  0.4829  0.1012
 2011SOL    HW217667   4.382   2.221   5.201  1.1939  0.1727 -0.4190
 2012SOL     OW17668   2.448   0.544   3.707  0.7607 -0.3506 -0.0804
 2012SOL    HW117669   2.365   0.569   3.668 -0.2151  0.1386  2.3190
 2012SOL    HW217670   2.447   0.448   3.709  2.0584 -0.4023 -2.2094
 2013SOL     OW17671   2.914   3.716   8.825  0.3536  0.2736  0.1470
 2013SOL    HW117672   2.913   3.694   8.918 -1.1973 -1.5543 -0.2973
 2013SOL    HW217673   2.888   3.628   8.797  2.5698 -0.5084  0.5047
 2014SOL     OW17674   3.000   1.139   5.832  1.3468 -0.2934  0.3413
 2014SOL    HW117675   2.922   1.176   5.791  0.7639  0.3076  1.9817
 2014SOL    HW217676   3.059   1.212   5.813 -0.8378  1.3550 -0.0033
 2015SOL     OW17677   2.128   1.599   8.090  0.0988 -0.0194 -0.2226
 2015SOL    HW117678   2.066   1.593   8.017 -1.1198  1.0790  0.7173
 2015SOL    HW217679   2.122   1.506   8.113  1.5377 -0.2451 -0.7856
 2016SOL     OW17680   0.580   4.094   5.219  0.0205  0.3130  0.6414
 2016SOL    HW117681   0.605   4.036   5.147 -0.2389 -1.5760  2.0745
 2016SOL    HW217682   0.497   4.128   5.187 -0.4358 -1.1082  0.3067
 2017SOL     OW17683   0.379   2.118   9.776 -0.7314 -0.5655 -0.3016
 2017SOL    HW117684   0.433   2.067   9.836  1.3981  1.3926 -0.5223
 2017SOL    HW217685   0.327   2.158   9.846 -0.8229 -0.5445 -0.3813
 2018SOL     OW17686   1.316   3.140   7.959 -0.1341  0.0921  0.1605
 2018SOL    HW117687   1.227   3.135   7.924  0.1692 -1.6361 -0.3281
 2018SOL    HW217688   1.375   3.133   7.883 -1.2014 -0.6445 -0.5989
 2019SOL     OW17689   1.041   2.926   0.283 -0.1125 -0.1867  0.4211
 2019SOL    HW117690   1.090   3.009   0.282 -0.3051 -0.0542  2.2748
 2019SOL    HW217691   1.101   2.862   0.246  0.4105  0.8627 -0.5543
 2020SOL     OW17692   2.460   4.705  12.472  0.1204 -0.1467 -0.1634
 2020SOL    HW117693   2.443   0.059  12.468  0.7406 -0.1437 -2.3569
 2020SOL    HW217694   2.542   4.723  12.520 -1.4093  3.1394  1.2690
 2021SOL     OW17695   2.804   1.468  11.616  0.6974  0.1864 -0.4757
 2021SOL    HW117696   2.876   1.484  11.677 -0.3261 -1.6240  1.2329
 2021SOL    HW217697   2.833   1.514  11.538 -2.5111  0.7221 -1.3509
 2022SOL     OW17698   0.575   0.439  12.815 -0.5981  0.1160  0.1421
 2022SOL    HW117699   0.499   0.400  12.858 -1.5812  1.2407 -0.5933
 2022SOL    HW217700   0.648   0.394  12.857 -0.3582  0.5685  0.2095
 2023SOL     OW17701   2.095   3.756   7.926 -0.1523  0.1063  0.0641
 2023SOL    HW117702   2.025   3.800   7.879  0.3215 -1.6062 -2.2319
 2023SOL    HW217703   2.056   3.752   8.014  0.0651  0.0856  0.1595
 2024SOL     OW17704   0.712   3.246   2.149  0.2840  0.2581 -0.1374
 2024SOL    HW117705   0.771   3.182   2.189 -0.2223  0.3121  0.6917
 2024SOL    HW217706   0.757   3.327   2.170 -1.6568  0.6472  2.4708
 2025SOL     OW17707   0.987   4.106   5.126 -0.2902  0.1498 -0.2202
 2025SOL    HW117708   1.005   4.177   5.188 -2.2455  0.5562 -0.1225
 2025SOL    HW217709   0.999   4.152   5.043  0.6698  0.1819 -0.0643
 2026SOL     OW17710   3.468   2.614   2.782 -0.2196 -0.4929 -0.1980
 2026SOL    HW117711   3.422   2.634   2.864 -0.2038  1.9506 -0.7799
 2026SOL    HW217712   3.519   2.538   2.811  1.1641  0.4286 -0.1883
 2027SOL     OW17713   1.305   2.321   2.433 -1.1150  0.2104 -0.3721
 2027SOL    HW117714   1.353   2.326   2.516  1.0963  0.2151 -1.6601
 2027SOL    HW217715   1.359   2.285   2.364 -1.3943  2.2016 -1.6482
 2028SOL     OW17716   4.576   0.199  10.656 -0.3076  0.0494 -0.1611
 2028SOL    HW117717   4.606   0.267  10.715 -0.9912 -0.0645  0.3248
 2028SOL    HW217718   4.658   0.149  10.663  0.1905  1.0968  1.3446
 2029SOL     OW17719   1.027   3.952   8.426 -0.8932  0.5977  0.2757
 2029SOL    HW117720   1.062   3.998   8.503  2.2888  0.0872 -0.8750
 2029SOL    HW217721   1.110   3.917   8.392 -1.5580 -0.4906 -0.2002
 2030SOL     OW17722   1.724   1.607   4.658 -0.1672  0.5166 -0.1429
 2030SOL    HW117723   1.722   1.559   4.741  0.6753 -1.0468 -1.0281
 2030SOL    HW217724   1.816   1.596   4.635 -0.3995 -0.0115 -0.8350
 2031SOL     OW17725   0.524   1.620   7.557 -0.2964  0.0877 -0.1239
 2031SOL    HW117726   0.458   1.660   7.613  1.1990 -0.0620  1.7295
 2031SOL    HW217727   0.463   1.571   7.502  0.4233 -0.3932 -0.4863
 2032SOL     OW17728   0.901   3.431   6.007  0.1691  0.0706 -0.0024
 2032SOL    HW117729   0.865   3.348   6.040 -1.0187 -0.4995 -2.7391
 2032SOL    HW217730   0.827   3.470   5.960  1.6906  1.2428 -1.4283
 2033SOL     OW17731   0.643   4.401  14.779 -0.4003 -0.0346  0.5793
 2033SOL    HW117732   0.578   4.355  14.727  1.3380 -0.7838 -0.9339
 2033SOL    HW217733   0.698   4.330  14.812  1.2691  0.8226 -0.3299
 2034SOL     OW17734   3.517   2.536   3.373  0.0937 -0.3958  0.1810
 2034SOL    HW117735   3.564   2.459   3.406 -0.6808 -1.9948 -2.4314
 2034SOL    HW217736   3.590   2.598   3.373  1.1164 -1.5974 -0.2773
 2035SOL     OW17737   2.743   1.379   6.059  0.7243 -0.3799 -0.3475
 2035SOL    HW117738   2.745   1.307   5.995 -1.4043 -1.9437  1.3490
 2035SOL    HW217739   2.814   1.428   6.016  0.2599  1.9705  1.5780
 2036SOL     OW17740   3.477   1.332   6.637 -0.1698 -0.0479 -0.7295
 2036SOL    HW117741   3.419   1.283   6.695  1.7430 -1.3557  0.1036
 2036SOL    HW217742   3.473   1.280   6.557 -1.5544  0.0003 -0.6891
 2037SOL     OW17743   0.260   2.618  15.028  0.4532  0.1960  0.3545
 2037SOL    HW117744   0.227   2.683  15.090  2.0386  0.9382  0.4077
 2037SOL    HW217745   0.242   2.534  15.069 -0.3449 -0.4620 -1.3365
 2038SOL     OW17746   0.395   3.527   6.027  0.3008  0.2867  0.5456
 2038SOL    HW117747   0.455   3.468   5.982 -1.2267 -0.6568 -0.2679
 2038SOL    HW217748   0.406   3.514   6.121 -2.3492  1.2984  0.9845
 2039SOL     OW17749   3.352   0.593  14.708 -0.4384 -0.4618  0.4422
 2039SOL    HW117750   3.344   0.626  14.618 -0.7355 -2.2051 -0.1808
 2039SOL    HW217751   3.367   0.674  14.756  3.9894  0.1999 -2.0477
 2040SOL     OW17752   0.748   4.562   3.243  0.5424 -0.1208 -0.4129
 2040SOL    HW117753   0.728   4.654   3.230  0.7870  0.1261  0.9543
 2040SOL    HW217754   0.674   4.540   3.300 -0.2089  2.4689 -0.3902
 2041SOL     OW17755   3.088   3.254  10.355  0.0200 -0.2930 -0.3207
 2041SOL    HW117756   3.023   3.251  10.424  1.6204  0.2769  1.2171
 2041SOL    HW217757   3.037   3.257  10.274 -2.2286  3.1014  1.2645
 2042SOL     OW17758   3.384   2.978   0.396 -0.0392  0.4864 -0.3878
 2042SOL    HW117759   3.306   2.989   0.450 -1.5049  0.5402 -2.5198
 2042SOL    HW217760   3.336   2.959   0.315 -1.6149  1.0675  0.4344
 2043SOL     OW17761   4.265   1.343  12.667 -0.3721 -0.6457  0.1974
 2043SOL    HW117762   4.352   1.381  12.675 -1.2049  1.2082  0.2562
 2043SOL    HW217763   4.269   1.287  12.745 -0.8170  0.2694  0.8716
 2044SOL     OW17764   2.107   2.593   2.561  0.3064 -0.1536 -0.4656
 2044SOL    HW117765   2.052   2.517   2.545  0.5498 -0.6022  0.8132
 2044SOL    HW217766   2.174   2.583   2.492  1.1908 -1.7407  0.6050
 2045SOL     OW17767   0.852   4.091   2.805  0.2349 -0.2860 -0.3438
 2045SOL    HW117768   0.864   4.186   2.816 -0.7498 -0.2465  0.4354
 2045SOL    HW217769   0.760   4.086   2.778  0.5529  1.1647 -1.6774
 2046SOL     OW17770   1.278   3.297   7.254  0.6986  0.1410 -0.3452
 2046SOL    HW117771   1.288   3.369   7.316  0.3581 -0.4624  0.4078
 2046SOL    HW217772   1.246   3.348   7.180 -3.7928 -0.8095  0.9819
 2047SOL     OW17773   2.432   3.809   1.395 -0.2073 -0.3944 -0.2735
 2047SOL    HW117774   2.436   3.894   1.351 -0.9392 -0.0206  0.3575
 2047SOL    HW217775   2.339   3.804   1.420 -0.2618 -0.7740 -0.5528
 2048SOL     OW17776   4.565   4.089  16.304  0.4633 -0.3132  0.4252
 2048SOL    HW117777   4.612   4.107  16.385  1.7617  2.1607 -0.8832
 2048SOL    HW217778   4.476   4.107  16.334  2.1389  2.2885  3.8038
 2049SOL     OW17779   1.504   3.166   4.968 -0.5367  0.5881 -0.4341
 2049SOL    HW117780   1.536   3.080   4.939 -0.4789  0.7836 -0.9499
 2049SOL    HW217781   1.434   3.144   5.029 -0.8115  2.6918  0.0039
 2050SOL     OW17782   0.129   2.814  16.469 -0.1194 -0.3128 -0.2127
 2050SOL    HW117783   0.169   2.732  16.438 -1.5962 -2.1478  2.7395
 2050SOL    HW217784   0.047   2.780  16.505  1.1148  0.2413  3.0923
 2051SOL     OW17785   4.001   4.266  17.497  0.0119  0.2631 -0.3425
 2051SOL    HW117786   3.920   4.280  17.545  0.1966  2.0780 -0.5907
 2051SOL    HW217787   3.970   4.190  17.447  2.2842 -0.3852 -0.7654
 2052SOL     OW17788   3.831   4.458   8.608  0.0151 -0.1264  0.5825
 2052SOL    HW117789   3.769   4.524   8.639  0.2156 -0.2994  1.3444
 2052SOL    HW217790   3.907   4.515   8.593  0.0610 -0.1137  0.8708
 2053SOL     OW17791   4.542   3.782  17.409  0.1334  0.3220  0.2546
 2053SOL    HW117792   4.529   3.831  17.491 -0.7722  1.3041 -0.4678
 2053SOL    HW217793   4.488   3.837  17.352 -1.1970  0.3821  1.5665
 2054SOL     OW17794   2.911   0.098   6.147 -0.4405  0.5047 -0.6243
 2054SOL    HW117795   2.985   0.055   6.105 -1.0515 -1.6546  0.5546
 2054SOL    HW217796   2.906   0.040   6.223  0.1363  0.3367 -0.7180
 2055SOL     OW17797   1.969   0.404   3.415 -0.1740 -0.0415 -0.1814
 2055SOL    HW117798   1.981   0.379   3.507  0.2821 -1.6882 -0.6862
 2055SOL    HW217799   1.914   0.335   3.380 -0.5840 -0.1303  0.6315
 2056SOL     OW17800   3.097   0.121   4.973  0.3779  0.9373  0.2027
 2056SOL    HW117801   3.165   0.189   4.977  2.4679 -1.1627  0.0100
 2056SOL    HW217802   3.025   0.158   5.024  0.2953 -0.4072  1.0495
 2057SOL     OW17803   3.790   1.977  17.007 -0.5188  0.1641 -0.1475
 2057SOL    HW117804   3.805   1.996  16.915  0.6949 -1.2266 -0.2217
 2057SOL    HW217805   3.777   2.064  17.045 -1.5880  0.0764 -0.3047
 2058SOL     OW17806   4.671   2.590   6.250  0.3795  0.0458 -0.3291
 2058SOL    HW117807   4.734   2.658   6.270  1.3509 -0.1985 -2.5269
 2058SOL    HW217808   4.711   2.530   6.187 -0.7333 -0.8646 -0.1848
 2059SOL     OW17809   2.117   1.961  12.657  0.0458  0.0184  1.3666
 2059SOL    HW117810   2.025   1.984  12.676  0.1526  2.2315 -0.7708
 2059SOL    HW217811   2.155   2.013  12.728  1.0574  0.7479  0.2817
 2060SOL     OW17812   1.674   1.727   5.939 -0.3690  0.7622  0.0067
 2060SOL    HW117813   1.761   1.741   5.976 -1.5294 -0.3449  3.2168
 2060SOL    HW217814   1.702   1.661   5.876 -0.8024 -0.5210  1.1454
 2061SOL     OW17815   4.474   2.457   3.420  0.2928  0.5306  0.1986
 2061SOL    HW117816   4.536   2.530   3.419  0.0916  0.6810 -2.4424
 2061SOL    HW217817   4.454   2.428   3.331  3.1900 -1.0014  0.0575
 2062SOL     OW17818   3.071   0.639   6.136 -0.3204 -0.0787  0.2245
 2062SOL    HW117819   3.134   0.693   6.088 -0.8364 -1.9925 -2.5832
 2062SOL    HW217820   3.077   0.680   6.223 -0.4878  2.6393 -1.0269
 2063SOL     OW17821   4.503   0.478   8.090  0.4055 -0.1175 -0.1406
 2063SOL    HW117822   4.479   0.417   8.020  0.1653  1.4199 -1.3798
 2063SOL    HW217823   4.476   0.563   8.055  1.9435 -0.8171 -3.0805
 2064SOL     OW17824   2.009   4.424   6.346  0.0559  1.0028 -0.0856
 2064SOL    HW117825   1.937   4.460   6.397 -2.8747 -2.4252 -1.7780
 2064SOL    HW217826   2.044   4.362   6.410 -0.0878  1.4838  0.4506
 2065SOL     OW17827   3.576   2.476   0.782 -0.1216  0.0113 -0.1824
 2065SOL    HW117828   3.581   2.412   0.710 -0.3724  0.9856 -1.0621
 2065SOL    HW217829   3.486   2.499   0.763  0.1092 -0.0915 -1.4131
 2066SOL     OW17830   0.176   0.144  11.266 -0.0685  0.1472 -0.1175
 2066SOL    HW117831   0.226   0.221  11.295 -1.1042 -0.1009  2.3400
 2066SOL    HW217832   0.203   0.137  11.174  1.5513  0.2181  0.3515
 2067SOL     OW17833   0.378   1.202   4.062 -0.0831 -0.1700 -0.2571
 2067SOL    HW117834   0.457   1.214   4.116  0.8609  0.6269 -1.8379
 2067SOL    HW217835   0.389   1.283   4.012  0.0760  0.9554  1.5932
 2068SOL     OW17836   1.234   4.043   2.572 -0.4903  0.1180 -0.1533
 2068SOL    HW117837   1.160   4.060   2.513 -0.1733  0.1845 -0.5281
 2068SOL    HW217838   1.198   4.004   2.652 -1.0908  0.3229 -0.3241
 2069SOL     OW17839   3.810   0.470   2.145  0.0800  0.1948 -0.5722
 2069SOL    HW117840   3.771   0.523   2.076  0.9339 -1.6271 -2.4616
 2069SOL    HW217841   3.783   0.519   2.223 -1.4197 -2.1154  0.3270
 2070SOL     OW17842   2.518   1.153  17.456 -0.3142  0.1443 -0.4870
 2070SOL    HW117843   2.508   1.095  17.532 -2.1688  2.2493  0.8670
 2070SOL    HW217844   2.450   1.133  17.391  1.1966  1.1980 -2.3932
 2071SOL     OW17845   3.226   3.355   2.709 -0.0464  0.3804 -0.6667
 2071SOL    HW117846   3.321   3.352   2.700 -0.0049  1.7494 -0.6983
 2071SOL    HW217847   3.225   3.271   2.754  1.6858  0.4614 -0.4738
 2072SOL     OW17848   4.396   0.940  15.115  0.4299  0.0554  0.2035
 2072SOL    HW117849   4.427   0.955  15.204  0.8179 -0.7509  0.2050
 2072SOL    HW217850   4.482   0.937  15.073  0.8529  2.7592  0.9009
 2073SOL     OW17851   3.218   0.286   6.347  0.5160  0.2384  0.8073
 2073SOL    HW117852   3.238   0.379   6.347  0.5694  0.2229 -2.5835
 2073SOL    HW217853   3.197   0.283   6.254  0.8980  2.2844  0.6674
 2074SOL     OW17854   2.369   2.362   8.302  0.7211 -0.0074  0.9572
 2074SOL    HW117855   2.364   2.455   8.284  2.8358 -0.3284 -1.3566
 2074SOL    HW217856   2.308   2.323   8.239  0.5296 -1.1626  1.8631
 2075SOL     OW17857   4.205   3.443   3.284 -0.1320  0.1362 -0.0861
 2075SOL    HW117858   4.268   3.406   3.222 -0.1111  0.8072 -0.4753
 2075SOL    HW217859   4.265   3.438   3.359 -0.1117 -0.8001 -0.1631
 2076SOL     OW17860   0.569   2.933   6.089 -0.2191 -0.2441  0.5908
 2076SOL    HW117861   0.595   2.897   6.174 -0.8833 -0.9989  0.4716
 2076SOL    HW217862   0.647   2.982   6.065 -2.1288  3.0132  0.9980
 2077SOL     OW17863   0.204   3.953  12.743 -0.5968 -0.5095  0.4721
 2077SOL    HW117864   0.129   3.953  12.684 -0.6202 -0.4624  0.5014
 2077SOL    HW217865   0.164   3.906  12.817 -3.6341 -1.2985 -1.7119
 2078SOL     OW17866   0.761   1.318   7.016 -0.6834 -0.2084 -0.3849
 2078SOL    HW117867   0.707   1.397   7.008  0.2639  0.7702  3.1903
 2078SOL    HW217868   0.702   1.247   6.990 -0.6800  0.3160 -1.8733
 2079SOL     OW17869   4.431   3.573  12.774  0.8174 -0.3856  0.3765
 2079SOL    HW117870   4.499   3.629  12.738  0.0247  1.4659  1.7640
 2079SOL    HW217871   4.360   3.580  12.709  2.0364  2.9975 -0.5892
 2080SOL     OW17872   0.751   3.409   8.846  0.4656  0.2373  0.1366
 2080SOL    HW117873   0.751   3.485   8.788  0.6102  1.0303  1.1803
 2080SOL    HW217874   0.694   3.443   8.915 -0.3330 -0.8121 -0.0054
 2081SOL     OW17875   0.251   4.050   7.131 -0.2091 -0.0745  0.3957
 2081SOL    HW117876   0.334   4.093   7.108 -1.2480  1.0809 -1.1863
 2081SOL    HW217877   0.197   4.126   7.111  1.1278  0.3623 -1.5949
 2082SOL     OW17878   0.135   4.580   7.585  0.0688 -0.4240  0.0117
 2082SOL    HW117879   0.146   4.621   7.499 -2.4888 -1.9831 -1.0543
 2082SOL    HW217880   0.209   4.630   7.620 -0.4954 -0.0093  0.6281
 2083SOL     OW17881   2.911   0.097   7.821 -0.5346  0.8634 -0.1913
 2083SOL    HW117882   2.825   0.072   7.854 -0.6054  1.7751  0.2925
 2083SOL    HW217883   2.949   0.112   7.907 -0.3974  1.1748 -0.3051
 2084SOL     OW17884   0.253   4.448  13.232 -0.0049  0.3998 -0.3608
 2084SOL    HW117885   0.299   4.380  13.184 -0.1057  0.8104 -1.0336
 2084SOL    HW217886   0.167   4.406  13.239 -0.5390  1.7695  1.1803
 2085SOL     OW17887   3.958   2.389   5.821  0.4625 -0.2468 -0.1875
 2085SOL    HW117888   4.041   2.390   5.773 -1.1964 -0.8107 -3.0795
 2085SOL    HW217889   3.961   2.471   5.869 -0.1788 -0.5524  0.3854
 2086SOL     OW17890   3.228   1.386   5.370 -0.1402 -0.2993 -0.0159
 2086SOL    HW117891   3.316   1.366   5.338  0.6583  1.1266  1.2618
 2086SOL    HW217892   3.226   1.480   5.353  2.0566 -0.7559 -2.9126
 2087SOL     OW17893   2.922   0.525   9.622  0.0430 -0.0042 -0.0528
 2087SOL    HW117894   2.942   0.461   9.690  1.5145  0.5980  0.0675
 2087SOL    HW217895   2.881   0.590   9.680 -1.3236 -2.1893  1.4234
 2088SOL     OW17896   2.248   1.779   1.267  0.0171 -0.4572 -0.5025
 2088SOL    HW117897   2.246   1.859   1.320  1.2265  0.7545 -2.2970
 2088SOL    HW217898   2.313   1.731   1.319 -0.6744 -1.7708 -0.8575
 2089SOL     OW17899   4.166   2.336   2.392 -0.4188 -0.1766 -0.3327
 2089SOL    HW117900   4.093   2.335   2.330  0.1599 -0.6886 -1.0097
 2089SOL    HW217901   4.117   2.292   2.462  1.6002 -0.8063  0.6770
 2090SOL     OW17902   4.656   2.683   8.675 -0.1347  0.2551  0.0001
 2090SOL    HW117903   4.610   2.600   8.688  0.2940  0.4285  2.7208
 2090SOL    HW217904   4.605   2.735   8.738 -0.6720 -0.2055 -0.0478
 2091SOL     OW17905   4.218   2.629   1.477 -0.1965  0.0870 -0.2280
 2091SOL    HW117906   4.177   2.715   1.480 -0.0987  0.1638 -1.0720
 2091SOL    HW217907   4.207   2.599   1.567  2.4470 -3.0641 -0.9534
 2092SOL     OW17908   0.286   0.561   0.237 -0.3025 -0.1506  0.4073
 2092SOL    HW117909   0.270   0.651   0.211 -0.8952 -0.2988  0.2523
 2092SOL    HW217910   0.223   0.511   0.184 -1.0072 -0.5886  1.6509
 2093SOL     OW17911   4.123   1.251  12.362  0.1663  0.5452 -0.0696
 2093SOL    HW117912   4.032   1.265  12.389  0.9643  2.0838  1.8418
 2093SOL    HW217913   4.135   1.168  12.408  0.4842  0.0453 -1.0573
 2094SOL     OW17914   2.356   0.981  17.009 -0.0871 -0.5959 -0.1276
 2094SOL    HW117915   2.300   0.952  16.937 -0.3036 -1.8468  0.5428
 2094SOL    HW217916   2.320   1.069  17.022 -1.2616 -1.2524  1.1273
 2095SOL     OW17917   1.517   4.658   2.027  0.3505 -0.5823  0.1948
 2095SOL    HW117918   1.526   0.007   2.060 -1.8456 -0.6805  1.0110
 2095SOL    HW217919   1.567   4.611   2.094  0.3961  0.6421  1.0133
 2096SOL     OW17920   2.495   2.989   4.669 -0.0946 -0.1359  0.1224
 2096SOL    HW117921   2.457   2.930   4.734  0.9833 -0.5955  0.3295
 2096SOL    HW217922   2.543   3.053   4.721  0.1692  0.5247 -0.9225
 2097SOL     OW17923   1.090   1.111   2.599 -0.5752  0.6322  0.4174
 2097SOL    HW117924   1.129   1.138   2.516  1.5674  0.9213  1.5383
 2097SOL    HW217925   1.022   1.046   2.579 -0.1977 -0.0151  1.2168
 2098SOL     OW17926   4.666   1.697   5.978  0.0031  0.4928 -0.6327
 2098SOL    HW117927   4.651   1.614   6.023  1.9256  0.8948  0.7746
 2098SOL    HW217928   4.632   1.675   5.891  0.3688 -1.0693 -0.3856
 2099SOL     OW17929   1.993   0.857   7.390 -0.2324 -0.0568  0.0599
 2099SOL    HW117930   1.906   0.824   7.412  0.0910 -0.0321  1.3786
 2099SOL    HW217931   2.029   0.796   7.326  3.3210  0.6315  1.3961
 2100SOL     OW17932   0.518   3.316  13.059 -0.8064  0.1951 -0.2764
 2100SOL    HW117933   0.467   3.236  13.055  0.1783 -0.4460  0.1183
 2100SOL    HW217934   0.539   3.308  13.152 -0.1811  1.3695 -0.3087
 2101SOL     OW17935   3.086   0.140   3.958 -0.2713 -0.2611 -0.2901
 2101SOL    HW117936   3.047   0.202   3.896  0.2284  0.3685  0.0269
 2101SOL    HW217937   3.176   0.132   3.928 -0.4327  1.1329 -1.1542
 2102SOL     OW17938   2.451   4.665  11.352 -0.3151 -0.0901  0.3779
 2102SOL    HW117939   2.523   4.650  11.290 -1.7914 -0.1518 -1.3107
 2102SOL    HW217940   2.493   4.730  11.408 -0.8332  1.4028 -0.9849
 2103SOL     OW17941   3.270   0.218  12.082  0.7699  0.0112  0.6148
 2103SOL    HW117942   3.212   0.216  12.158 -1.7002 -2.5675 -1.3394
 2103SOL    HW217943   3.271   0.311  12.059  0.4782 -1.4561 -5.3924
 2104SOL     OW17944   0.821   4.058  11.344 -0.1604 -0.8159 -0.1499
 2104SOL    HW117945   0.832   4.142  11.299  1.3457  0.5295  2.7579
 2104SOL    HW217946   0.907   4.021  11.323  0.4654 -0.3931  1.6475
 2105SOL     OW17947   0.777   3.817  10.198 -0.3413 -0.1881 -0.6973
 2105SOL    HW117948   0.711   3.819  10.128 -0.2024 -1.2221 -0.8624
 2105SOL    HW217949   0.784   3.909  10.222 -0.9433  0.0681 -1.4794
 2106SOL     OW17950   4.083   4.273   6.792 -0.0526 -0.1379  0.8188
 2106SOL    HW117951   4.078   4.201   6.855  0.7327  2.9487  4.3789
 2106SOL    HW217952   4.062   4.349   6.846 -0.0678  2.5172 -2.9649
 2107SOL     OW17953   1.738   1.306  17.400  0.0429 -0.5116  0.2699
 2107SOL    HW117954   1.783   1.390  17.387  0.4905 -0.6897  0.6615
 2107SOL    HW217955   1.761   1.280  17.489  3.9977 -0.3987 -0.7010
 2108SOL     OW17956   2.994   0.701   4.517 -0.2834 -0.2725 -0.4943
 2108SOL    HW117957   3.011   0.684   4.609  3.1089  0.8405 -0.9140
 2108SOL    HW217958   3.085   0.689   4.490 -0.3974 -1.2791 -0.4339
 2109SOL     OW17959   0.632   1.235   3.336 -0.3180 -0.5156 -0.7046
 2109SOL    HW117960   0.565   1.279   3.282  0.2840  3.4153  1.7734
 2109SOL    HW217961   0.680   1.186   3.269 -0.3102  2.4722 -2.9261
 2110SOL     OW17962   2.176   1.690   3.825 -0.2741  0.3029  0.2078
 2110SOL    HW117963   2.087   1.661   3.806  0.3776 -1.1820 -0.5752
 2110SOL    HW217964   2.165   1.785   3.828  0.0265  0.3265  0.5650
 2111SOL     OW17965   1.879   2.072   2.659 -0.6734 -0.1471  0.8165
 2111SOL    HW117966   1.820   2.005   2.692  0.3828 -1.0375  0.9032
 2111SOL    HW217967   1.855   2.145   2.716 -2.4718 -0.0343 -0.0945
 2112SOL     OW17968   1.287   1.454   4.906 -0.3898  0.2172  0.4071
 2112SOL    HW117969   1.342   1.380   4.882 -0.0934  0.3127  0.8009
 2112SOL    HW217970   1.336   1.489   4.981  1.6511 -0.5932 -0.5642
 2113SOL     OW17971   3.950   1.935   8.998 -0.3577 -0.0020  0.3065
 2113SOL    HW117972   3.925   2.025   9.018  0.3410  0.7453 -2.1778
 2113SOL    HW217973   3.893   1.889   9.059  1.2733 -0.0442  1.8188
 2114SOL     OW17974   4.088   0.095   3.994  0.1657 -0.7504 -0.3275
 2114SOL    HW117975   4.154   0.164   4.000 -0.8744  0.1884  0.3605
 2114SOL    HW217976   4.100   0.063   3.904  1.1931 -0.3556 -0.3337
 2115SOL     OW17977   3.952   2.560   9.997 -0.3321  0.3745  0.2003
 2115SOL    HW117978   3.867   2.515  10.000  0.0078 -0.1872  1.2445
 2115SOL    HW217979   3.940   2.595   9.908 -0.3130 -0.9029 -0.3112
 2116SOL     OW17980   3.958   4.049   0.455  0.4492 -0.4133  0.4447
 2116SOL    HW117981   4.019   4.121   0.437 -0.4589 -0.1378 -1.4496
 2116SOL    HW217982   4.024   3.981   0.470  1.6058  0.8846  1.3649
 2117SOL     OW17983   3.699   0.717  16.230 -0.0898 -0.1607  0.0238
 2117SOL    HW117984   3.728   0.631  16.263  0.9303  1.6503  3.8069
 2117SOL    HW217985   3.627   0.734  16.291  1.3460  2.7148  0.8966
 2118SOL     OW17986   4.334   0.570   7.538  0.3920 -0.3117 -0.3393
 2118SOL    HW117987   4.273   0.638   7.567 -0.9903 -0.3135 -3.2049
 2118SOL    HW217988   4.281   0.490   7.538 -1.0363  0.6411  0.8808
 2119SOL     OW17989   4.287   3.573  15.008  0.3299  0.6571  0.7798
 2119SOL    HW117990   4.287   3.486  14.967  0.8761  2.1429 -2.4463
 2119SOL    HW217991   4.352   3.548  15.073  1.7829  1.1549 -0.4901
 2120SOL     OW17992   1.228   2.578  17.545 -0.5160  0.3393  0.2810
 2120SOL    HW117993   1.322   2.586  17.558 -0.7847  0.4960  2.1155
 2120SOL    HW217994   1.202   2.503  17.598  1.1820  0.4007  1.1781
 2121SOL     OW17995   1.311   2.187   0.643 -0.0593 -0.2331 -0.1393
 2121SOL    HW117996   1.403   2.163   0.651  0.0191  0.6839  1.6207
 2121SOL    HW217997   1.271   2.100   0.646 -0.8178  0.1788  1.4320
 2122SOL     OW17998   2.394   4.396   4.096 -0.2180 -0.3866  0.5263
 2122SOL    HW117999   2.327   4.416   4.161 -1.4514  0.4858 -1.0297
 2122SOL    HW218000   2.472   4.443   4.125 -0.2155 -0.5919  0.8551
 2123SOL     OW18001   3.780   1.731   6.119  0.0141  0.0166 -0.2861
 2123SOL    HW118002   3.775   1.816   6.162  2.7227 -1.1886  2.3220
 2123SOL    HW218003   3.721   1.740   6.044  0.0920 -1.1994 -0.4949
 2124SOL     OW18004   2.067   0.316   9.799  0.8457 -0.1226  0.0967
 2124SOL    HW118005   1.972   0.312   9.814  1.0700 -1.7791  1.1513
 2124SOL    HW218006   2.078   0.334   9.706 -1.2856  1.3207  0.1262
 2125SOL     OW18007   4.466   3.199   4.074  0.3733 -0.5781  0.1583
 2125SOL    HW118008   4.486   3.107   4.055  0.3142 -0.8385  1.3130
 2125SOL    HW218009   4.553   3.225   4.103  0.0257  0.7720 -0.0263
 2126SOL     OW18010   3.841   1.481   7.203  0.0066  0.4300  0.2521
 2126SOL    HW118011   3.923   1.478   7.252 -0.3045  0.6855  0.7929
 2126SOL    HW218012   3.877   1.536   7.134  1.5323  2.3330  2.5524
 2127SOL     OW18013   1.009   1.215   6.953 -0.1822  0.3536  0.1972
 2127SOL    HW118014   0.930   1.268   6.962  0.5136  1.2044  1.1897
 2127SOL    HW218015   1.070   1.262   6.895  1.1451 -1.2657  0.2842
 2128SOL     OW18016   3.280   3.313  16.660 -0.3792  0.7768  0.2219
 2128SOL    HW118017   3.342   3.287  16.593 -2.1014 -1.8608 -0.3470
 2128SOL    HW218018   3.206   3.265  16.624  0.8645 -1.7200  0.9718
 2129SOL     OW18019   2.822   2.262   5.306 -0.0311 -0.2767  0.4074
 2129SOL    HW118020   2.781   2.177   5.324 -0.7348 -0.5625 -2.5033
 2129SOL    HW218021   2.915   2.246   5.321  0.3397  1.5887  0.0877
 2130SOL     OW18022   0.849   1.010   1.398 -0.2414 -0.3057  0.4334
 2130SOL    HW118023   0.834   1.090   1.347 -0.6328  0.9608  2.5558
 2130SOL    HW218024   0.822   0.953   1.326 -1.1340 -0.5128  0.9396
 2131SOL     OW18025   3.124   2.356   9.081  0.2403 -0.5908  0.3240
 2131SOL    HW118026   3.135   2.264   9.101  0.8387 -1.0494 -2.1547
 2131SOL    HW218027   3.054   2.383   9.141  0.0864 -3.3207  1.3514
 2132SOL     OW18028   0.868   1.903   9.966  0.4608 -0.6102 -0.1372
 2132SOL    HW118029   0.803   1.856  10.017 -0.6759 -0.7888 -1.7506
 2132SOL    HW218030   0.951   1.859   9.984 -0.0120 -1.9625 -1.2484
 2133SOL     OW18031   4.359   4.698   0.485  0.1806  0.6571  0.5792
 2133SOL    HW118032   4.264   4.685   0.483  0.1316  1.1643 -0.4206
 2133SOL    HW218033   4.379   4.651   0.566  0.6885  0.4081  0.3102
 2134SOL     OW18034   3.846   2.515   1.383 -0.2575 -0.5021  0.0692
 2134SOL    HW118035   3.789   2.499   1.308  0.3709 -1.3800 -0.2191
 2134SOL    HW218036   3.779   2.516   1.451  1.0415  2.5618  1.3397
 2135SOL     OW18037   4.298   0.771   7.301  0.4700 -0.6935 -0.2669
 2135SOL    HW118038   4.337   0.700   7.352  1.7693  0.3035  0.1073
 2135SOL    HW218039   4.212   0.739   7.273  1.4322 -0.7986 -3.0192
 2136SOL     OW18040   0.432   1.011   8.907 -0.4824 -0.0652 -0.4904
 2136SOL    HW118041   0.400   0.924   8.932 -0.8825 -0.0228 -0.8530
 2136SOL    HW218042   0.360   1.044   8.854 -1.5674  0.0751  1.0809
 2137SOL     OW18043   2.131   1.364   6.276 -0.3539  0.2236 -0.5127
 2137SOL    HW118044   2.159   1.400   6.360 -3.6647  1.1206  0.2265
 2137SOL    HW218045   2.207   1.362   6.218 -1.6503 -1.5909 -2.1413
 2138SOL     OW18046   2.459   0.213   2.935  0.0690  0.0780  0.1227
 2138SOL    HW118047   2.468   0.283   2.870 -0.0212  1.6865  1.8492
 2138SOL    HW218048   2.366   0.222   2.959 -0.2814 -0.1528 -1.1105
 2139SOL     OW18049   1.571   1.124  15.702 -0.1651  0.1669  0.0070
 2139SOL    HW118050   1.590   1.165  15.618 -0.1673  1.0450  0.4344
 2139SOL    HW218051   1.492   1.173  15.727 -1.1021  1.0354 -4.7400
 2140SOL     OW18052   3.075   2.137   6.861 -0.1103 -0.2505 -0.0453
 2140SOL    HW118053   3.150   2.184   6.898  0.8773 -0.6430 -1.5767
 2140SOL    HW218054   3.106   2.051   6.889 -3.2761 -1.2730  0.3455
 2141SOL     OW18055   4.226   1.214   1.650  0.2814  0.3535 -0.8778
 2141SOL    HW118056   4.219   1.167   1.566 -2.4902 -1.2874  0.2640
 2141SOL    HW218057   4.313   1.253   1.642  1.2715 -1.4834  0.9524
 2142SOL     OW18058   0.819   1.969   1.925  0.1858  0.2287 -0.0091
 2142SOL    HW118059   0.896   2.024   1.908 -0.0700  0.6509  0.1903
 2142SOL    HW218060   0.844   1.927   2.008  0.2579  1.2666  0.4965
 2143SOL     OW18061   3.215   4.567   8.393  0.1607 -0.4368 -0.2789
 2143SOL    HW118062   3.294   4.517   8.375 -0.2448 -1.8831  1.9714
 2143SOL    HW218063   3.154   4.501   8.426  1.6777 -1.5044  0.3763
 2144SOL     OW18064   0.017   0.305   7.166  0.7678  0.2430  0.0841
 2144SOL    HW118065   0.097   0.255   7.181  0.0913 -1.1353 -0.9885
 2144SOL    HW218066   4.715   0.249   7.101 -0.9078  1.8512 -0.2088
 2145SOL     OW18067   3.734   0.348   5.081 -0.8554 -0.2957 -0.2006
 2145SOL    HW118068   3.818   0.324   5.041  0.1381  2.8123 -0.0206
 2145SOL    HW218069   3.687   0.265   5.080  0.3269 -0.9594 -0.3600
 2146SOL     OW18070   0.989   3.208   2.994  0.7923 -0.0726 -0.4580
 2146SOL    HW118071   0.914   3.149   3.001  1.8943 -1.3323  0.6601
 2146SOL    HW218072   0.967   3.285   3.046 -0.4848  1.1070 -2.7393
 2147SOL     OW18073   1.051   4.649   9.089 -0.6519  0.1355 -0.6320
 2147SOL    HW118074   1.058   4.560   9.122  0.7335  0.2665 -0.5840
 2147SOL    HW218075   0.985   4.632   9.021  0.2094  0.2592 -1.4997
 2148SOL     OW18076   3.900   2.048   5.154  0.2127 -0.5374 -0.2026
 2148SOL    HW118077   3.971   2.047   5.090  0.4611  0.5227  0.0623
 2148SOL    HW218078   3.832   2.020   5.092 -0.7210  0.7157  0.2633
 2149SOL     OW18079   0.437   3.154   8.364 -0.2285  0.1542 -0.3021
 2149SOL    HW118080   0.456   3.102   8.286  2.0829 -1.5313  1.3849
 2149SOL    HW218081   0.470   3.103   8.438 -0.9328  0.1774  0.0260
 2150SOL     OW18082   1.859   0.812   9.346  0.1686  0.3107  0.1234
 2150SOL    HW118083   1.945   0.785   9.315  0.4685  2.2229 -0.7389
 2150SOL    HW218084   1.857   0.766   9.430 -0.7030 -1.4946 -0.8891
 2151SOL     OW18085   2.354   0.631   2.229 -0.2524  0.2566  0.7735
 2151SOL    HW118086   2.341   0.695   2.160  2.2154  1.0540  1.0336
 2151SOL    HW218087   2.303   0.557   2.198  0.1344  1.1339 -1.9539
 2152SOL     OW18088   2.949   2.354   7.072  0.4797 -0.1229  0.2459
 2152SOL    HW118089   2.963   2.290   7.003  0.5170  1.0580 -0.8412
 2152SOL    HW218090   2.870   2.323   7.116  1.4701  0.7169  2.6689
 2153SOL     OW18091   0.442   2.658   7.456 -0.0517 -0.0514  0.2503
 2153SOL    HW118092   0.476   2.570   7.441  1.4696  0.6203 -0.3336
 2153SOL    HW218093   0.518   2.706   7.422  0.4964 -1.0106  0.1062
 2154SOL     OW18094   3.342   2.321   2.408 -0.3346  0.0148  0.3078
 2154SOL    HW118095   3.296   2.242   2.438  1.7909 -1.0799  0.6946
 2154SOL    HW218096   3.273   2.359   2.354 -0.4303 -0.1145  0.3387
 2155SOL     OW18097   1.761   3.547  14.365 -0.2822 -0.1093 -0.4918
 2155SOL    HW118098   1.721   3.484  14.425  1.0786 -0.2495  0.2642
 2155SOL    HW218099   1.775   3.617  14.430  1.2170 -0.2578 -0.6583
 2156SOL     OW18100   1.446   3.689   3.576  0.0293  0.2621 -0.1276
 2156SOL    HW118101   1.391   3.754   3.619 -1.4761  0.2071 -2.0247
 2156SOL    HW218102   1.535   3.707   3.607  0.8695  0.6271 -2.7406
 2157SOL     OW18103   0.244   2.123   1.874  0.2618  0.2387 -0.1524
 2157SOL    HW118104   0.168   2.153   1.923  0.6887  0.1993  0.5353
 2157SOL    HW218105   0.308   2.110   1.944 -1.2268 -1.4732  0.8999
 2158SOL     OW18106   0.679   2.904   5.672 -0.0275  0.0520 -0.1434
 2158SOL    HW118107   0.752   2.860   5.716 -1.1848  0.8935  2.6219
 2158SOL    HW218108   0.716   2.992   5.681 -3.8285  1.7903 -1.4927
 2159SOL     OW18109   2.196   0.043   6.894  0.1531 -0.1159 -0.3815
 2159SOL    HW118110   2.140   0.062   6.819  0.2525 -0.5372 -0.5598
 2159SOL    HW218111   2.153   4.709   6.935  1.0520 -0.0688  0.6406
 2160SOL     OW18112   0.430   2.855   8.490  0.2097  0.6124  0.0328
 2160SOL    HW118113   0.426   2.764   8.519 -0.5929  0.7348  0.3118
 2160SOL    HW218114   0.355   2.874   8.434 -0.0779  0.1852  0.2688
 2161SOL     OW18115   0.032   0.012   0.229 -0.1141 -0.0513 -0.9148
 2161SOL    HW118116   0.117   0.049   0.202 -0.5069  1.4687 -0.0519
 2161SOL    HW218117   0.019   4.684   0.162  1.5567 -0.1562 -1.1387
 2162SOL     OW18118   4.440   0.203  17.179  0.1433 -0.5851 -0.0310
 2162SOL    HW118119   4.351   0.171  17.160 -0.9818  2.9700 -0.7137
 2162SOL    HW218120   4.434   0.298  17.177 -1.8298 -0.6915  0.1654
 2163SOL     OW18121   1.445   2.344  14.481  0.3774  0.4018  0.0517
 2163SOL    HW118122   1.484   2.301  14.557 -1.2429 -1.0119  0.0684
 2163SOL    HW218123   1.414   2.270  14.428 -1.9351  0.3346  1.4905
 2164SOL     OW18124   1.432   0.520   5.686  0.6828 -0.0880  0.4426
 2164SOL    HW118125   1.523   0.542   5.666  0.5669  1.5825  1.8045
 2164SOL    HW218126   1.391   0.586   5.630 -1.2723 -0.0921  1.8776
 2165SOL     OW18127   0.622   0.856  13.704  0.8765  0.5811 -0.2117
 2165SOL    HW118128   0.535   0.856  13.663  1.2384 -0.4793 -0.9905
 2165SOL    HW218129   0.628   0.948  13.730 -1.2761  0.7544 -0.2608
 2166SOL     OW18130   4.392   3.730   9.400 -0.0375 -0.5814  0.6195
 2166SOL    HW118131   4.375   3.643   9.363  0.7195 -0.5851  0.2681
 2166SOL    HW218132   4.446   3.756   9.325 -2.1767  0.1878 -0.6630
 2167SOL     OW18133   2.715   2.434  11.956  0.1077 -0.0271  0.6002
 2167SOL    HW118134   2.661   2.452  11.879 -0.2110 -2.8096  0.1762
 2167SOL    HW218135   2.659   2.494  12.006 -0.6195 -0.1917 -0.0163
 2168SOL     OW18136   1.174   3.457   6.905 -0.1670 -0.2144  0.1708
 2168SOL    HW118137   1.215   3.381   6.946 -1.5537 -1.2663 -0.4039
 2168SOL    HW218138   1.142   3.505   6.982 -2.1614  2.3694 -2.2389
 2169SOL     OW18139   2.539   3.750  12.436 -0.6480 -0.5204 -0.5226
 2169SOL    HW118140   2.513   3.698  12.512  4.3906 -1.8259  0.3159
 2169SOL    HW218141   2.594   3.820  12.473 -0.1300 -0.9190 -0.5391
 2170SOL     OW18142   0.782   0.967  14.389 -0.0886  0.0922 -0.5030
 2170SOL    HW118143   0.784   1.033  14.320  0.0611  2.0707  1.4077
 2170SOL    HW218144   0.851   0.999  14.447  0.2839 -1.3868 -0.1296
 2171SOL     OW18145   4.409   3.727   3.461  0.1319 -0.5844 -0.1400
 2171SOL    HW118146   4.441   3.799   3.407 -1.0422  0.2529  0.2779
 2171SOL    HW218147   4.425   3.772   3.544 -1.9076  1.9941 -1.1503
 2172SOL     OW18148   4.587   2.446   1.338 -0.0001 -0.3573 -0.7725
 2172SOL    HW118149   4.561   2.504   1.410  0.0696 -0.4651 -0.6605
 2172SOL    HW218150   4.674   2.481   1.322  0.0979 -1.3454 -2.3599
 2173SOL     OW18151   2.732   3.130   8.470 -0.4501  0.6352 -0.3404
 2173SOL    HW118152   2.685   3.049   8.492  0.1932  0.6743  1.1684
 2173SOL    HW218153   2.766   3.099   8.386  1.2990  0.0432  0.5925
 2174SOL     OW18154   2.057   0.674   9.227  0.1877  0.1714 -0.3754
 2174SOL    HW118155   2.060   0.589   9.272  0.5731  0.5892  0.3938
 2174SOL    HW218156   2.141   0.717   9.241 -0.8838  1.9043  0.8484
 2175SOL     OW18157   2.547   4.179   9.207  0.3052  0.0998  0.1925
 2175SOL    HW118158   2.634   4.155   9.178 -0.2668  0.1983 -1.6178
 2175SOL    HW218159   2.519   4.092   9.233 -0.6259  0.4965  0.5158
 2176SOL     OW18160   2.838   4.375   9.386 -0.0769  0.0031  0.0587
 2176SOL    HW118161   2.859   4.352   9.295 -0.7487 -0.3860  0.0059
 2176SOL    HW218162   2.821   4.467   9.364  0.7956  0.0830 -0.2889
 2177SOL     OW18163   4.041   2.102   7.456 -0.0250 -0.4223  0.3347
 2177SOL    HW118164   4.084   2.024   7.493 -1.6716 -2.8941 -2.8956
 2177SOL    HW218165   4.055   2.161   7.530 -1.0337  0.3961 -0.1316
 2178SOL     OW18166   3.530   1.599   6.251 -0.2267  0.5335  0.4232
 2178SOL    HW118167   3.562   1.644   6.329  2.2369 -1.0493  0.3083
 2178SOL    HW218168   3.572   1.653   6.184  0.2533  2.1904  2.0676
 2179SOL     OW18169   2.264   3.308   7.445  0.6111  1.1471 -0.2519
 2179SOL    HW118170   2.221   3.346   7.368 -0.6608 -2.8827 -1.4936
 2179SOL    HW218171   2.226   3.372   7.506  1.5220  1.0833  0.3936
 2180SOL     OW18172   1.315   1.868   8.149  0.2369 -0.4755 -0.6876
 2180SOL    HW118173   1.307   1.824   8.065 -2.4729  0.3572 -0.8585
 2180SOL    HW218174   1.410   1.876   8.153 -0.1233  4.3056 -1.2379
 2181SOL     OW18175   0.871   0.872  12.311 -0.1606  0.2406  0.3101
 2181SOL    HW118176   0.785   0.866  12.270 -0.4348  0.8682  0.7984
 2181SOL    HW218177   0.872   0.960  12.349  0.5329  0.7893 -0.9770
 2182SOL     OW18178   3.012   3.008   7.798  0.3415 -0.2138  0.6918
 2182SOL    HW118179   2.973   2.922   7.785  3.5994 -1.7031  0.7314
 2182SOL    HW218180   2.956   3.048   7.865 -1.9569 -0.7517 -0.8958
 2183SOL     OW18181   2.680   1.074   3.028  0.8698  0.7303 -0.3541
 2183SOL    HW118182   2.624   1.012   2.981  1.2570 -1.7585  2.5202
 2183SOL    HW218183   2.621   1.095   3.099  0.7613  1.6006 -0.6952
 2184SOL     OW18184   2.870   2.794   5.926 -0.6818 -0.1757 -0.0829
 2184SOL    HW118185   2.890   2.880   5.888  1.9371  0.2739  2.2166
 2184SOL    HW218186   2.823   2.754   5.854 -0.3148 -2.8114  1.1314
 2185SOL     OW18187   3.699   4.229   4.887  0.5454 -0.2632  0.0746
 2185SOL    HW118188   3.653   4.231   4.802  0.3979 -0.8494  0.1444
 2185SOL    HW218189   3.720   4.136   4.888 -2.2042 -0.8452  3.1690
 2186SOL     OW18190   0.173   1.734   1.837 -0.1603  0.2881 -0.0827
 2186SOL    HW118191   0.206   1.724   1.748  0.7189  0.2115  0.2495
 2186SOL    HW218192   0.251   1.695   1.877 -0.9385  0.4698  1.6296
 2187SOL     OW18193   2.882   3.930   9.213  0.1068 -0.5020  1.0895
 2187SOL    HW118194   2.843   3.842   9.217 -2.9741  0.8981  1.3323
 2187SOL    HW218195   2.905   3.945   9.305  1.2243  1.0344  0.5589
 2188SOL     OW18196   4.113   3.799   2.049 -0.4700  0.2712  0.4350
 2188SOL    HW118197   4.145   3.739   1.983 -1.6783 -1.4892  1.4580
 2188SOL    HW218198   4.191   3.854   2.062 -1.5957  1.7260  1.1363
 2189SOL     OW18199   0.277   2.784   4.400 -0.0938 -0.2745  0.2944
 2189SOL    HW118200   0.343   2.718   4.419  0.6610  0.3277 -0.2540
 2189SOL    HW218201   0.201   2.727   4.389  0.3274 -0.5102 -1.3979
 2190SOL     OW18202   0.214   2.214   7.722 -0.3107 -0.5769 -0.0256
 2190SOL    HW118203   0.302   2.216   7.760 -0.2565 -1.4349 -0.1189
 2190SOL    HW218204   0.225   2.287   7.661 -1.3402 -0.5247 -0.1481
 2191SOL     OW18205   2.940   1.791   7.951 -0.3423 -0.1560 -0.2132
 2191SOL    HW118206   2.855   1.770   7.913 -1.1732  1.7110  0.6582
 2191SOL    HW218207   2.913   1.814   8.039  1.1055 -1.8963  0.6878
 2192SOL     OW18208   1.824   3.891   8.287 -0.5923 -0.0279  0.0533
 2192SOL    HW118209   1.838   3.981   8.259  0.6679 -0.2435 -0.0207
 2192SOL    HW218210   1.883   3.845   8.228  0.6085 -0.4494  1.5861
 2193SOL     OW18211   0.519   0.983  15.728  0.3058  0.2710  0.0940
 2193SOL    HW118212   0.538   0.918  15.795 -1.4034 -0.4950 -0.1517
 2193SOL    HW218213   0.490   1.058  15.779  1.8894  0.8692  0.1161
 2194SOL     OW18214   1.316   0.124  12.487  0.2631  0.0725 -0.4404
 2194SOL    HW118215   1.227   0.134  12.452  0.6141 -0.4341 -1.4899
 2194SOL    HW218216   1.336   0.215  12.508 -0.6296 -0.2460  1.7397
 2195SOL     OW18217   0.027   0.566   0.647 -0.0848 -0.1392  1.0766
 2195SOL    HW118218   4.732   0.574   0.559  1.9375 -3.7927 -0.0734
 2195SOL    HW218219   4.698   0.516   0.691  0.9555 -2.1330  0.4351
 2196SOL     OW18220   4.376   1.338   6.236 -0.0006 -0.3891 -0.1378
 2196SOL    HW118221   4.314   1.301   6.298  0.8313 -1.6919 -0.0790
 2196SOL    HW218222   4.319   1.342   6.160  1.5557  1.2429 -1.2221
 2197SOL     OW18223   0.848   3.880  13.681 -0.1585  0.1041 -0.0247
 2197SOL    HW118224   0.846   3.905  13.774  3.1664  2.1167 -0.5016
 2197SOL    HW218225   0.866   3.788  13.696 -1.1978  0.0312  0.7571
 2198SOL     OW18226   4.112   4.280   5.330 -0.0881 -0.3163 -0.3342
 2198SOL    HW118227   4.147   4.191   5.320  1.3044  0.2071 -0.1464
 2198SOL    HW218228   4.041   4.264   5.391 -1.5327 -1.7556 -2.3938
 2199SOL     OW18229   3.429   4.330   5.316 -0.3971 -0.2989  0.5869
 2199SOL    HW118230   3.428   4.299   5.225 -0.8499 -1.7210  1.0760
 2199SOL    HW218231   3.514   4.373   5.320 -1.1786  1.3852 -0.5165
 2200SOL     OW18232   1.030   4.161  17.490  0.3872 -0.8142 -0.1162
 2200SOL    HW118233   1.067   4.115  17.415 -0.7432 -1.4567 -0.2759
 2200SOL    HW218234   0.943   4.175  17.452  0.2272 -3.5018 -0.6974
 2201SOL     OW18235   4.000   3.927  16.282 -0.2362  0.4728  0.0446
 2201SOL    HW118236   4.089   3.913  16.314 -0.1992 -0.8103 -0.6656
 2201SOL    HW218237   3.968   3.837  16.285 -0.6095  0.5670 -1.4309
 2202SOL     OW18238   0.149   0.448   2.918  0.0744 -0.4692 -0.2241
 2202SOL    HW118239   0.095   0.386   2.968 -0.2199 -0.7885 -0.9376
 2202SOL    HW218240   0.133   0.533   2.959 -1.3882 -1.5283  1.3869
 2203SOL     OW18241   3.574   2.926   0.856 -0.0206 -0.2439 -0.0678
 2203SOL    HW118242   3.526   2.996   0.901  2.9610  2.5750 -1.3098
 2203SOL    HW218243   3.656   2.971   0.838 -0.5541  0.6527 -0.2676
 2204SOL     OW18244   3.951   3.162   7.722  0.1695 -0.1357  0.3869
 2204SOL    HW118245   3.996   3.246   7.723  0.4687 -0.2993  1.8088
 2204SOL    HW218246   3.880   3.186   7.663 -0.4887 -1.6298  0.5475
 2205SOL     OW18247   3.706   3.310   5.918  0.3148 -0.1603  0.2148
 2205SOL    HW118248   3.699   3.396   5.959  1.9095 -0.4541  1.1256
 2205SOL    HW218249   3.622   3.272   5.944  0.5010 -0.4645  0.3732
 2206SOL     OW18250   3.394   0.685   9.229 -0.1273  0.4501 -0.2032
 2206SOL    HW118251   3.405   0.714   9.138 -1.9246 -0.1256 -0.6089
 2206SOL    HW218252   3.487   0.691   9.253  0.0287 -1.7094 -0.1985
 2207SOL     OW18253   2.491   3.467   2.167  0.0601 -0.6849  0.4402
 2207SOL    HW118254   2.452   3.475   2.254  0.3549  1.4224  0.3656
 2207SOL    HW218255   2.503   3.372   2.163  1.2854 -0.4126 -1.8073
 2208SOL     OW18256   4.170   2.347   9.852 -0.0158  0.1076 -0.2641
 2208SOL    HW118257   4.079   2.347   9.823  0.3379  0.3019 -1.3690
 2208SOL    HW218258   4.150   2.344   9.946 -0.2781 -1.6364 -0.3590
 2209SOL     OW18259   1.970   1.920  16.396 -0.1050  0.1919 -0.4957
 2209SOL    HW118260   2.054   1.953  16.363 -1.1088 -1.2345 -4.4635
 2209SOL    HW218261   1.989   1.826  16.399  0.5824  0.4276  2.2807
 2210SOL     OW18262   3.355   1.207   5.585  0.0177  0.1295  0.4392
 2210SOL    HW118263   3.365   1.288   5.535  0.3878 -1.2665 -1.7500
 2210SOL    HW218264   3.442   1.172   5.567  0.2788  1.5880 -1.1378
 2211SOL     OW18265   4.548   4.420   5.837  0.8081 -0.0649 -0.4166
 2211SOL    HW118266   4.495   4.476   5.779  0.1911 -0.1993  0.0221
 2211SOL    HW218267   4.537   4.477   5.913  0.7427 -1.5064  0.6367
 2212SOL     OW18268   1.275   4.611   2.443  0.1145  0.1179  0.9776
 2212SOL    HW118269   1.273   4.566   2.528 -0.7371 -0.0639  0.8614
 2212SOL    HW218270   1.182   4.631   2.438  0.2359  0.1201 -1.2720
 2213SOL     OW18271   3.341   4.143   0.931  0.4458  0.3299  0.3951
 2213SOL    HW118272   3.272   4.145   0.864  0.8486 -0.9971 -0.0587
 2213SOL    HW218273   3.299   4.144   1.017 -1.4983 -1.8186 -0.4989
 2214SOL     OW18274   3.979   0.876   8.779  0.0996  0.3496  0.4011
 2214SOL    HW118275   3.925   0.797   8.778  0.4021  0.1448  0.3410
 2214SOL    HW218276   3.912   0.935   8.743 -1.5522 -0.9347  1.3708
 2215SOL     OW18277   4.164   0.361  17.272  0.1147  0.0655 -0.0028
 2215SOL    HW118278   4.196   0.452  17.265  0.3014  0.1656  2.1304
 2215SOL    HW218279   4.111   0.364  17.351 -0.4573  0.1194 -0.3908
 2216SOL     OW18280   3.430   0.568  13.380 -0.8317 -0.2441 -0.6517
 2216SOL    HW118281   3.413   0.633  13.449  1.8828 -1.6287  1.3571
 2216SOL    HW218282   3.503   0.602  13.328 -1.0584  1.0523 -0.1266
 2217SOL     OW18283   3.933   2.273   4.880 -0.1522  0.1608 -0.1451
 2217SOL    HW118284   4.014   2.317   4.855 -0.3964  0.8455  0.2563
 2217SOL    HW218285   3.943   2.192   4.830  0.5933  0.7322 -0.9254
 2218SOL     OW18286   4.265   2.960   5.381  0.7579  0.0522  0.0773
 2218SOL    HW118287   4.239   3.051   5.372  0.6144  0.3877  3.9828
 2218SOL    HW218288   4.321   2.965   5.458  0.6908 -1.5373  0.2312
 2219SOL     OW18289   4.716   1.016   4.635 -0.4967 -0.0956 -0.7237
 2219SOL    HW118290   4.646   0.953   4.655  0.7736 -0.8373  1.3611
 2219SOL    HW218291   0.003   0.983   4.549 -0.6638  0.0855 -0.8472
 2220SOL     OW18292   1.439   3.215  11.202  0.1068  0.1460  0.2684
 2220SOL    HW118293   1.497   3.151  11.244  0.8570  0.1890 -0.7024
 2220SOL    HW218294   1.481   3.298  11.225 -0.8132  0.4041  0.9588
 2221SOL     OW18295   1.058   4.006   5.589  0.0663  0.0544 -0.0010
 2221SOL    HW118296   1.094   3.918   5.578  1.0395  0.6121 -1.3696
 2221SOL    HW218297   1.018   4.014   5.503  0.8214 -1.0783 -0.4693
 2222SOL     OW18298   4.359   4.023   8.477  0.1700 -0.3343  0.3505
 2222SOL    HW118299   4.339   3.969   8.554 -0.6248 -0.8565 -0.2188
 2222SOL    HW218300   4.344   4.105   8.524 -0.4341  0.7193 -1.6881
 2223SOL     OW18301   1.112   4.080   8.199 -0.1060  0.3830  0.7659
 2223SOL    HW118302   1.065   4.048   8.276  1.5917 -0.6686  1.3629
 2223SOL    HW218303   1.044   4.120   8.145 -2.5688 -3.7441  0.7948
 2224SOL     OW18304   0.246   1.467   3.027  0.5445 -0.0401  0.1286
 2224SOL    HW118305   0.271   1.558   3.017 -0.6778  0.3391  0.4996
 2224SOL    HW218306   0.152   1.476   3.044  0.2731 -1.3859 -0.6236
 2225SOL     OW18307   0.446   2.052  17.271 -0.2959 -0.1240  0.0085
 2225SOL    HW118308   0.437   2.147  17.267 -2.2137 -0.2903  0.1391
 2225SOL    HW218309   0.487   2.037  17.186 -2.8746 -1.5762 -0.9591
 2226SOL     OW18310   2.770   0.834   4.476 -0.5397  0.0270  0.0279
 2226SOL    HW118311   2.853   0.784   4.473 -0.5157  0.0707 -0.0409
 2226SOL    HW218312   2.753   0.827   4.382  2.7409 -3.3517 -0.3499
 2227SOL     OW18313   4.272   0.932   3.323  0.8031 -0.2996  0.5668
 2227SOL    HW118314   4.278   0.854   3.379  0.4154 -0.2410  0.6934
 2227SOL    HW218315   4.253   0.993   3.394  0.4418  0.1398  0.0894
 2228SOL     OW18316   2.232   2.706   5.992  0.0947  0.2386 -0.0505
 2228SOL    HW118317   2.248   2.685   6.084 -0.6000  1.3499  0.3261
 2228SOL    HW218318   2.147   2.664   5.985 -0.9503  2.1149  1.4238
 2229SOL     OW18319   1.448   4.515   7.068 -0.3690  0.2237  0.1458
 2229SOL    HW118320   1.504   4.577   7.115 -0.0855 -0.4909  0.7577
 2229SOL    HW218321   1.494   4.432   7.082  1.1406  1.1023  0.3828
 2230SOL     OW18322   4.192   0.093  17.304 -0.0264 -0.2583  0.2225
 2230SOL    HW118323   4.114   0.037  17.309 -0.0940 -0.0414  1.5832
 2230SOL    HW218324   4.159   0.182  17.308  0.1416 -0.2716  2.2478
 2231SOL     OW18325   4.097   3.203  16.937  0.1983 -0.6985  0.2660
 2231SOL    HW118326   4.004   3.198  16.914  0.3303 -0.2760 -0.3360
 2231SOL    HW218327   4.149   3.200  16.857 -1.7462  1.1123 -1.0546
 2232SOL     OW18328   2.231   1.027   4.375 -0.0179  0.3819  0.0458
 2232SOL    HW118329   2.171   0.993   4.442 -0.5998 -1.0560 -1.1961
 2232SOL    HW218330   2.307   1.047   4.429 -0.0071  0.1049  0.1313
 2233SOL     OW18331   0.126   4.055   6.501  0.0518  0.0939 -0.3235
 2233SOL    HW118332   0.094   4.135   6.458  0.4648 -0.7099 -2.1333
 2233SOL    HW218333   0.145   4.090   6.588  2.0127 -0.6407 -0.4638
 2234SOL     OW18334   3.962   1.602   5.447  0.5962 -0.1334  0.0253
 2234SOL    HW118335   3.884   1.546   5.452  1.4494 -1.3692 -0.3725
 2234SOL    HW218336   3.926   1.691   5.447 -0.4144 -0.5328  0.7908
 2235SOL     OW18337   0.535   3.630   9.434  0.7158  0.4847 -0.1907
 2235SOL    HW118338   0.465   3.664   9.379  1.1586 -0.7427 -1.5082
 2235SOL    HW218339   0.584   3.711   9.449  3.3547 -1.0859 -0.1250
 2236SOL     OW18340   4.586   0.477   3.409  0.9171 -0.6670  0.2250
 2236SOL    HW118341   4.561   0.391   3.377  3.0668 -0.6988 -1.3592
 2236SOL    HW218342   4.681   0.469   3.420  1.0288 -2.1946 -2.0646
 2237SOL     OW18343   3.981   1.758   4.908  0.2227 -0.1096  0.3291
 2237SOL    HW118344   3.945   1.748   4.820  1.2836 -0.4519 -0.0559
 2237SOL    HW218345   3.977   1.854   4.909  1.0900 -0.0816  0.7656
 2238SOL     OW18346   0.453   4.379   3.867 -0.0024 -0.8108 -0.6604
 2238SOL    HW118347   0.490   4.322   3.934  0.0154 -0.9165 -0.7613
 2238SOL    HW218348   0.360   4.382   3.891 -0.1957 -0.8943 -1.3989
 2239SOL     OW18349   0.454   0.545   3.032  0.9319  0.4357  0.4519
 2239SOL    HW118350   0.380   0.580   2.983  2.3542 -0.0313 -2.0576
 2239SOL    HW218351   0.522   0.610   3.017  1.4348  0.0212  0.9273
 2240SOL     OW18352   1.136   3.650  10.097  0.1828  0.3621 -0.0582
 2240SOL    HW118353   1.073   3.666  10.026 -0.8316  0.8794  0.9618
 2240SOL    HW218354   1.076   3.635  10.170 -0.3609  1.5281 -0.2504
 2241SOL     OW18355   1.286   2.303   5.171 -0.5084  0.7863  0.0344
 2241SOL    HW118356   1.270   2.386   5.216 -1.8015  0.6964 -0.2831
 2241SOL    HW218357   1.308   2.250   5.248  0.0394  1.3026  0.2403
 2242SOL     OW18358   2.710   2.077  17.377 -1.0479 -0.9845  0.1921
 2242SOL    HW118359   2.645   2.091  17.308  1.0770  1.3314 -1.3600
 2242SOL    HW218360   2.669   2.071  17.463  2.1316 -0.5965  1.7296
 2243SOL     OW18361   2.751   0.456   2.170  0.1025 -0.3063  0.0956
 2243SOL    HW118362   2.730   0.474   2.078 -0.2995 -1.6146 -0.0760
 2243SOL    HW218363   2.846   0.460   2.158  0.2056  1.1911  1.5074
 2244SOL     OW18364   0.171   2.239   0.845 -0.0672  0.1233  0.1639
 2244SOL    HW118365   0.110   2.308   0.820 -2.1178 -2.1671 -1.2055
 2244SOL    HW218366   0.169   2.235   0.941  0.3682  1.4448  0.2177
 2245SOL     OW18367   1.306   3.591  14.829 -0.0070 -0.2299 -0.3041
 2245SOL    HW118368   1.276   3.658  14.768  0.8166  0.3050 -0.1249
 2245SOL    HW218369   1.372   3.559  14.767 -0.5915 -1.1684 -0.4496
 2246SOL     OW18370   4.395   4.612   8.630  0.2199  0.1080  0.6975
 2246SOL    HW118371   4.350   4.695   8.619 -1.5889 -1.4566 -3.6739
 2246SOL    HW218372   4.485   4.643   8.639  0.4888  0.0967 -2.0541
 2247SOL     OW18373   2.627   1.505   3.208  0.3254 -0.4767 -0.0952
 2247SOL    HW118374   2.558   1.571   3.199  1.6232  0.5865 -2.4094
 2247SOL    HW218375   2.682   1.545   3.275 -0.6385  0.5206  0.1056
 2248SOL     OW18376   3.409   1.039   5.305  0.0604  0.5024 -0.1776
 2248SOL    HW118377   3.498   1.007   5.293  0.2732  0.8372  0.4780
 2248SOL    HW218378   3.365   1.023   5.222 -0.3303  1.3104 -0.1371
 2249SOL     OW18379   2.122   2.263  11.312  0.8573 -0.1019 -0.3631
 2249SOL    HW118380   2.191   2.252  11.247  1.3161 -0.9482  0.2723
 2249SOL    HW218381   2.044   2.229  11.269 -0.8316  2.0075  0.9967
 2250SOL     OW18382   3.253   2.716  17.746 -0.2447 -0.0612  0.1382
 2250SOL    HW118383   3.230   2.633  17.705 -2.0484  0.0471  0.9667
 2250SOL    HW218384   3.296   2.761  17.673  1.8075 -1.1395  0.6844
 2251SOL     OW18385   1.051   1.377   6.581  0.6832 -0.1454  0.1145
 2251SOL    HW118386   1.091   1.384   6.667  1.4390 -1.1755 -0.1469
 2251SOL    HW218387   1.101   1.299   6.556  1.7884  0.7601 -0.4840
 2252SOL     OW18388   3.257   1.061   7.711 -0.6306 -0.1739 -0.4956
 2252SOL    HW118389   3.231   1.012   7.633 -0.8484 -0.0297 -0.5130
 2252SOL    HW218390   3.198   1.038   7.783 -2.2711  1.5417 -1.3147
 2253SOL     OW18391   2.252   0.740  10.406  0.0498 -0.5272  0.4557
 2253SOL    HW118392   2.246   0.833  10.426  0.8984 -0.4866  0.5104
 2253SOL    HW218393   2.191   0.707  10.472 -1.3305  0.7725 -0.1717
 2254SOL     OW18394   2.336   2.713  16.757 -0.2699 -0.2031  0.5463
 2254SOL    HW118395   2.280   2.706  16.834  0.4264 -0.5439  1.0199
 2254SOL    HW218396   2.328   2.629  16.712  1.9724  0.2977 -0.8165
 2255SOL     OW18397   4.029   2.967   7.529  0.2079 -0.4637  0.2701
 2255SOL    HW118398   4.041   3.039   7.467 -0.5199 -0.7981 -0.2629
 2255SOL    HW218399   4.023   3.015   7.611  0.9207 -4.4256  2.6142
 2256SOL     OW18400   4.731   0.552   7.288 -0.0171 -0.0387  0.5615
 2256SOL    HW118401   4.729   0.467   7.244  0.1115 -0.3155  1.0863
 2256SOL    HW218402   4.665   0.532   7.355  1.4803  1.3185  2.4407
 2257SOL     OW18403   1.726   0.907  17.090  0.1420  0.3282 -0.1847
 2257SOL    HW118404   1.708   0.995  17.122 -1.0477  1.1677 -3.1558
 2257SOL    HW218405   1.659   0.853  17.134  0.0443  3.0802  3.0189
 2258SOL     OW18406   2.426   3.489   4.245  0.1333  0.2248  0.3373
 2258SOL    HW118407   2.440   3.583   4.234 -0.9604  0.4581  0.9822
 2258SOL    HW218408   2.393   3.468   4.158 -1.1824  3.0007  0.1650
 2259SOL     OW18409   4.389   0.261  12.431 -0.5942  0.0029 -0.7092
 2259SOL    HW118410   4.396   0.192  12.364 -2.4712  1.3721 -2.3079
 2259SOL    HW218411   4.311   0.225  12.473  0.4058 -0.1480  1.0103
 2260SOL     OW18412   2.246   3.619   5.292 -0.4506 -0.2155  0.4499
 2260SOL    HW118413   2.338   3.629   5.267 -1.3269 -0.4496 -2.9305
 2260SOL    HW218414   2.256   3.617   5.387 -0.4891 -0.0790  0.4579
 2261SOL     OW18415   4.555   1.448   6.573 -0.4959 -0.1497 -0.0242
 2261SOL    HW118416   4.493   1.503   6.620  0.5710  0.7942  0.2905
 2261SOL    HW218417   4.526   1.357   6.586  2.8178 -0.8641  2.4515
 2262SOL     OW18418   4.424   0.263   8.680 -0.5578 -0.2474 -0.4696
 2262SOL    HW118419   4.499   0.203   8.670 -0.0006  0.0140  2.3240
 2262SOL    HW218420   4.462   0.349   8.662 -1.0567  0.0390 -0.1285
 2263SOL     OW18421   3.842   2.991   2.178 -0.5038 -0.0017 -0.3176
 2263SOL    HW118422   3.841   3.083   2.154  0.1856  0.6530  2.1977
 2263SOL    HW218423   3.844   2.961   2.087 -0.7897 -0.7361 -0.0838
 2264SOL     OW18424   1.406   1.028  12.462  0.3726 -0.2431  0.1952
 2264SOL    HW118425   1.360   1.086  12.523 -1.3109 -0.9073 -0.4308
 2264SOL    HW218426   1.327   0.977  12.443 -0.1012  0.6565 -0.2484
 2265SOL     OW18427   3.931   4.195   1.965 -0.0477  0.3064 -0.0186
 2265SOL    HW118428   3.836   4.184   1.962 -0.1297  0.4492  2.1055
 2265SOL    HW218429   3.948   4.228   1.877  0.8618 -0.8485 -0.2636
 2266SOL     OW18430   0.849   0.505   7.356  0.1941 -0.0501  0.3098
 2266SOL    HW118431   0.875   0.413   7.346 -3.5137 -1.2105  1.2945
 2266SOL    HW218432   0.762   0.516   7.316  0.1334  2.6428  1.2049
 2267SOL     OW18433   2.494   2.810   9.915  0.4542  0.0121 -0.3364
 2267SOL    HW118434   2.540   2.726   9.908 -0.4035 -0.3539 -1.7573
 2267SOL    HW218435   2.427   2.788   9.979 -1.5218  1.4395 -1.9122
 2268SOL     OW18436   1.869   2.712  14.412 -0.0690  0.2647  0.3418
 2268SOL    HW118437   1.888   2.632  14.461  0.5230 -0.4995 -1.1501
 2268SOL    HW218438   1.949   2.711  14.359  0.2328  1.9392  0.7726
 2269SOL     OW18439   1.060   2.600  10.358 -0.1973 -0.0097  0.3674
 2269SOL    HW118440   1.068   2.529  10.295 -0.0020 -0.1473  0.5477
 2269SOL    HW218441   1.151   2.624  10.372  0.1757 -2.0449  1.4478
 2270SOL     OW18442   1.458   4.612   7.754  0.1286 -0.2982 -0.2128
 2270SOL    HW118443   1.375   4.577   7.723  0.2367 -0.0647 -0.7838
 2270SOL    HW218444   1.447   4.643   7.844  1.5985  0.0659 -0.1569
 2271SOL     OW18445   4.439   1.172  12.873  0.5494  0.2116 -0.5208
 2271SOL    HW118446   4.356   1.200  12.913  2.1084  1.1479  2.0330
 2271SOL    HW218447   4.418   1.078  12.870  1.3092  0.0330 -0.1766
 2272SOL     OW18448   4.355   0.787   5.485  0.3958  0.3398 -1.0645
 2272SOL    HW118449   4.352   0.880   5.510  0.1032  0.5453 -1.8686
 2272SOL    HW218450   4.270   0.777   5.441 -1.1669  3.1006  1.2744
 2273SOL     OW18451   2.595   3.428   3.841 -0.0410  0.5840  0.2986
 2273SOL    HW118452   2.679   3.455   3.878  0.2959  1.3688 -1.0263
 2273SOL    HW218453   2.549   3.436   3.924  0.0798  2.1685  0.2111
 2274SOL     OW18454   3.902   2.337   3.518  0.1219  0.0632 -0.3804
 2274SOL    HW118455   3.929   2.361   3.607 -1.7621  0.2411  0.1419
 2274SOL    HW218456   3.814   2.302   3.531  0.2188 -0.2705 -0.6445
 2275SOL     OW18457   3.164   3.227   7.728  0.3805 -0.2871  0.3052
 2275SOL    HW118458   3.124   3.145   7.756 -1.2414 -0.1372 -1.5444
 2275SOL    HW218459   3.231   3.200   7.665  2.0887  0.8514  1.6297
 2276SOL     OW18460   3.547   2.182   6.589 -0.1252 -0.3930  0.5508
 2276SOL    HW118461   3.474   2.165   6.529  0.8988  0.2273 -0.8506
 2276SOL    HW218462   3.555   2.100   6.636 -1.1465  0.4384  2.1890
 2277SOL     OW18463   0.041   1.221   6.489  0.1897  0.1500  0.5420
 2277SOL    HW118464   4.734   1.199   6.408 -1.5692 -0.7007  1.7946
 2277SOL    HW218465   0.049   1.315   6.473  0.3408  0.6578  3.6284
 2278SOL     OW18466   1.986   0.796  16.979  0.5019 -0.1552 -0.2954
 2278SOL    HW118467   1.917   0.849  17.019  0.2678 -0.5888 -0.1396
 2278SOL    HW218468   1.939   0.714  16.968  1.3811 -0.5049 -1.5528
 2279SOL     OW18469   0.442   2.585   5.829 -0.0686 -0.2835  0.0964
 2279SOL    HW118470   0.369   2.573   5.768  0.7121  2.2576 -1.3278
 2279SOL    HW218471   0.426   2.675   5.858  0.7953 -0.4071  0.9341
 2280SOL     OW18472   2.633   3.971  12.116 -0.0356  0.0545  0.0009
 2280SOL    HW118473   2.688   3.928  12.050  2.5347  1.0794  1.5000
 2280SOL    HW218474   2.702   4.004  12.174 -0.4169  0.2552  0.3367
 2281SOL     OW18475   2.039   3.628   4.461  0.1844 -0.0185 -0.5584
 2281SOL    HW118476   2.091   3.553   4.491 -0.8830 -0.1900  0.9363
 2281SOL    HW218477   2.098   3.701   4.478  1.7465 -1.0684 -1.5534
 2282SOL     OW18478   1.368   1.154   7.998 -0.4397  0.1022 -0.0179
 2282SOL    HW118479   1.389   1.066   8.028 -1.2275 -0.2682 -0.5551
 2282SOL    HW218480   1.312   1.191   8.066 -1.4443  0.4395 -1.0243
 2283SOL     OW18481   3.092   4.099   2.750 -0.3322 -0.0844  0.4279
 2283SOL    HW118482   3.187   4.097   2.744 -0.3980  0.6354 -0.9381
 2283SOL    HW218483   3.072   4.154   2.675 -4.2379 -1.8868  0.1728
 2284SOL     OW18484   2.900   3.519   8.272  0.1719  0.4210  0.1481
 2284SOL    HW118485   2.837   3.465   8.320  0.9781 -0.0108  0.7442
 2284SOL    HW218486   2.959   3.542   8.344  0.5827  0.8121 -0.3168
 2285SOL     OW18487   2.452   3.589   8.614  0.3925  1.0645  0.0479
 2285SOL    HW118488   2.453   3.500   8.579  3.4568  0.7487  0.9971
 2285SOL    HW218489   2.402   3.562   8.691  1.0104  0.8080  0.3537
 2286SOL     OW18490   2.648   0.900   9.189  0.2080  0.6059  0.0919
 2286SOL    HW118491   2.670   0.884   9.281 -1.5809  0.1513  0.4535
 2286SOL    HW218492   2.647   0.811   9.153  2.3269 -0.2250  2.0656
 2287SOL     OW18493   2.598   3.091   4.426 -0.0335  0.2548  0.1968
 2287SOL    HW118494   2.571   3.053   4.510 -1.1272 -0.6086 -0.5616
 2287SOL    HW218495   2.685   3.127   4.445  0.8087 -1.0851 -1.2105
 2288SOL     OW18496   0.814   3.015   5.226  0.1628 -0.3475  0.6115
 2288SOL    HW118497   0.746   3.082   5.224  0.6698  0.1546  0.3205
 2288SOL    HW218498   0.865   3.036   5.304 -0.9251 -3.1568  2.0871
 2289SOL     OW18499   3.092   0.876   6.667 -0.1355 -0.2426 -0.0915
 2289SOL    HW118500   3.086   0.789   6.706 -2.2139 -0.5041 -1.0217
 2289SOL    HW218501   3.056   0.928   6.738  1.3698  0.9958 -0.2228
 2290SOL     OW18502   2.068   1.680   9.109  0.0889 -0.0501  0.2641
 2290SOL    HW118503   2.052   1.701   9.017 -1.3602  0.2058  0.5672
 2290SOL    HW218504   1.988   1.712   9.151  0.5470 -1.3388  2.1099
 2291SOL     OW18505   1.990   2.963  16.540  0.9011 -0.0324 -0.5489
 2291SOL    HW118506   1.957   2.885  16.584  0.6577  0.6619  0.4928
 2291SOL    HW218507   2.085   2.954  16.545  0.9681 -0.9838 -3.4685
 2292SOL     OW18508   3.669   4.369   7.929 -0.4143 -0.0063 -0.6030
 2292SOL    HW118509   3.749   4.316   7.932 -1.1685 -1.0304  1.2699
 2292SOL    HW218510   3.646   4.373   7.836 -1.4094 -0.9968 -0.3853
 2293SOL     OW18511   1.924   3.845   4.694  0.5677  0.0178 -0.0004
 2293SOL    HW118512   1.934   3.901   4.617  1.2868  0.1548  0.1911
 2293SOL    HW218513   1.896   3.905   4.762  0.3939  0.1721 -0.2076
 2294SOL     OW18514   3.694   1.977   3.895  0.4075  0.0348  0.5244
 2294SOL    HW118515   3.607   1.989   3.857  0.7251  0.1758 -0.1699
 2294SOL    HW218516   3.705   2.061   3.939 -2.5850  0.9123 -0.4189
 2295SOL     OW18517   1.043   4.075   4.080  1.0869  0.4446 -0.0567
 2295SOL    HW118518   1.076   4.000   4.129  2.8691  2.8334  2.4422
 2295SOL    HW218519   1.130   4.115   4.086  1.1506  0.4230 -0.8263
 2296SOL     OW18520   2.348   0.257   5.129 -0.0768  0.5175  0.6691
 2296SOL    HW118521   2.328   0.233   5.038  0.0655 -3.7417  1.7798
 2296SOL    HW218522   2.408   0.331   5.115  1.5305 -1.0424 -0.8127
 2297SOL     OW18523   2.031   2.400  16.134  0.1348  0.1147 -0.3397
 2297SOL    HW118524   2.030   2.459  16.059 -2.7386  1.2066  0.5629
 2297SOL    HW218525   1.939   2.374  16.137  0.1688  0.1331  1.1221
 2298SOL     OW18526   2.577   4.396  15.216 -0.9663 -0.1716  0.4903
 2298SOL    HW118527   2.485   4.380  15.200 -0.2579 -1.9135 -1.7754
 2298SOL    HW218528   2.593   4.429  15.128  0.6404  0.0861  0.8733
 2299SOL     OW18529   0.387   2.370   0.229  0.5746 -0.4895  0.3628
 2299SOL    HW118530   0.450   2.318   0.279  1.6287  2.1662  1.8279
 2299SOL    HW218531   0.431   2.455   0.226 -0.4894 -0.0016 -1.0032
 2300SOL     OW18532   3.106   3.500   2.280  0.0136 -0.2621  0.3652
 2300SOL    HW118533   3.191   3.543   2.284  1.1717 -2.6218  1.3858
 2300SOL    HW218534   3.121   3.419   2.329 -0.1000 -1.4900 -1.6188
 2301SOL     OW18535   0.007   2.829   5.672 -0.7172 -0.0413 -0.1581
 2301SOL    HW118536   0.093   2.850   5.635 -1.5588 -1.3290 -2.8196
 2301SOL    HW218537   4.698   2.826   5.590  0.9370  0.6223 -1.1734
 2302SOL     OW18538   3.921   2.863   3.957 -0.4286  0.0866 -0.1714
 2302SOL    HW118539   3.884   2.776   3.970  0.2715 -0.8649 -4.4667
 2302SOL    HW218540   3.850   2.926   3.973 -0.6449 -0.3517  0.5681
 2303SOL     OW18541   3.611   4.000   4.378  0.4244 -0.0280 -0.0372
 2303SOL    HW118542   3.602   3.914   4.336  0.0557  0.6435 -1.3397
 2303SOL    HW218543   3.517   4.012   4.392  1.2311  3.1587  2.4512
 2304SOL     OW18544   3.285   1.726   1.140  0.5710 -0.3025 -0.0669
 2304SOL    HW118545   3.367   1.677   1.132  0.7439  0.5124 -3.4832
 2304SOL    HW218546   3.325   1.812   1.145  1.2651 -0.5768 -0.7641
 2305SOL     OW18547   4.579   0.235  13.409  0.1786 -0.2052  0.6126
 2305SOL    HW118548   4.672   0.223  13.390 -0.6033 -2.1800 -1.9504
 2305SOL    HW218549   4.547   0.145  13.413  1.8061 -0.7438  1.2323
 2306SOL     OW18550   4.651   0.847  16.229 -0.2452 -0.2478 -0.1094
 2306SOL    HW118551   4.685   0.837  16.318 -1.9865 -2.3009  0.3460
 2306SOL    HW218552   4.704   0.912  16.184 -0.2500 -0.2305 -0.0898
 2307SOL     OW18553   3.589   3.456   8.926 -0.1195  0.4489  0.1251
 2307SOL    HW118554   3.602   3.420   8.839  1.3744  0.8385  0.1956
 2307SOL    HW218555   3.647   3.532   8.927  0.5810 -0.0862 -0.0028
 2308SOL     OW18556   1.050   1.864  12.040  0.4894  0.3323  0.4960
 2308SOL    HW118557   1.055   1.769  12.023  0.7834  0.7542 -1.8340
 2308SOL    HW218558   0.980   1.879  11.976  0.5790 -0.7628  0.1248
 2309SOL     OW18559   2.891   4.136  15.531  0.2233  0.2890 -0.1932
 2309SOL    HW118560   2.975   4.178  15.550  1.8404 -2.9424 -0.0910
 2309SOL    HW218561   2.847   4.180  15.459  0.4090  0.4499 -0.2082
 2310SOL     OW18562   3.827   3.187   1.106 -0.0226  0.3277  0.0863
 2310SOL    HW118563   3.905   3.154   1.061 -0.4346  0.3205 -0.6282
 2310SOL    HW218564   3.775   3.107   1.105 -0.0697  0.3601 -0.1092
 2311SOL     OW18565   1.619   0.989   6.580  0.1084 -0.4061 -0.4125
 2311SOL    HW118566   1.581   0.933   6.648  0.0899 -2.1521 -1.8641
 2311SOL    HW218567   1.694   0.937   6.552  0.6402 -0.6107  1.3989
 2312SOL     OW18568   2.225   2.592   3.063 -0.4496 -0.0725  0.1628
 2312SOL    HW118569   2.241   2.615   2.971  0.1897 -0.6657  0.1232
 2312SOL    HW218570   2.220   2.681   3.097 -0.1032 -0.4270  1.1408
 2313SOL     OW18571   0.874   2.622   7.811  0.0131 -0.2854 -0.1769
 2313SOL    HW118572   0.783   2.595   7.803 -0.0217 -0.1103 -0.3871
 2313SOL    HW218573   0.919   2.544   7.778  0.1198 -1.2748  2.3020
 2314SOL     OW18574   1.403   0.391   7.519  0.0785 -0.2526  0.0029
 2314SOL    HW118575   1.408   0.422   7.610  1.3497 -0.5078  0.0163
 2314SOL    HW218576   1.385   0.297   7.530 -0.7587 -0.0313  0.5840
 2315SOL     OW18577   2.584   3.986   5.363 -0.1196  0.2958 -0.4131
 2315SOL    HW118578   2.653   3.969   5.428  1.3335  0.4449 -1.9353
 2315SOL    HW218579   2.567   4.078   5.382  0.6863  0.0696  1.4213
 2316SOL     OW18580   0.521   3.035   8.141  0.2599  0.6065 -0.5195
 2316SOL    HW118581   0.614   3.023   8.118  0.1133 -1.5799  0.0576
 2316SOL    HW218582   0.484   3.084   8.068  0.2941 -0.6413 -1.3737
 2317SOL     OW18583   1.334   1.588   3.759 -0.0445 -0.2236  0.0351
 2317SOL    HW118584   1.337   1.604   3.665  1.0117  1.1994  0.3035
 2317SOL    HW218585   1.384   1.509   3.775 -0.2920 -0.4651 -0.3929
 2318SOL     OW18586   2.513   0.303   2.371  0.4758  0.2572  0.4185
 2318SOL    HW118587   2.558   0.362   2.311 -0.0332 -0.4819 -0.7011
 2318SOL    HW218588   2.576   0.233   2.353  0.8148  0.3451  1.2624
 2319SOL     OW18589   3.999   0.600  12.630 -0.0715  0.0230  0.1998
 2319SOL    HW118590   4.019   0.541  12.703 -3.5850  0.5719  1.6156
 2319SOL    HW218591   3.962   0.538  12.569  0.8696 -0.0118 -0.3289
 2320SOL     OW18592   0.038   2.072   7.882 -0.9162 -0.0703 -0.0496
 2320SOL    HW118593   0.067   2.143   7.824 -1.1624  0.0951  0.0310
 2320SOL    HW218594   0.083   2.099   7.962 -1.5861  2.3096 -0.4508
 2321SOL     OW18595   0.476   3.164   6.658  0.1021 -0.2895 -0.2291
 2321SOL    HW118596   0.462   3.076   6.694  0.5167 -0.6769 -1.0018
 2321SOL    HW218597   0.464   3.160   6.563 -1.6480  1.9286 -0.0857
 2322SOL     OW18598   3.123   0.276   4.309 -0.0277 -0.0621  0.2787
 2322SOL    HW118599   3.126   0.365   4.275 -0.3189 -0.5256 -0.9395
 2322SOL    HW218600   3.201   0.264   4.364  0.8797  1.4353 -0.6836
 2323SOL     OW18601   4.353   2.686  15.106 -0.6664  0.0577 -0.1510
 2323SOL    HW118602   4.264   2.719  15.092 -0.0636  2.0375  0.6828
 2323SOL    HW218603   4.336   2.592  15.111 -3.1962  0.5163  0.0590
 2324SOL     OW18604   0.399   4.120   2.888  0.0872 -0.1909 -0.2302
 2324SOL    HW118605   0.447   4.140   2.968 -1.2583  0.9230  0.2953
 2324SOL    HW218606   0.408   4.205   2.845  1.0760 -0.5530 -0.7332
 2325SOL     OW18607   0.727   0.307  12.284  0.4992  0.0097  0.2285
 2325SOL    HW118608   0.743   0.214  12.297 -0.4721  0.0407  1.6452
 2325SOL    HW218609   0.635   0.311  12.258  0.0869  0.3072  1.7746
 2326SOL     OW18610   3.504   0.146   5.083 -0.1742 -0.0335 -0.2319
 2326SOL    HW118611   3.463   0.059   5.079  1.5037 -0.7985 -1.0710
 2326SOL    HW218612   3.467   0.178   5.165  1.3659 -2.0231  1.2768
 2327SOL     OW18613   4.519   0.866   4.717  0.5685 -0.2777 -0.0205
 2327SOL    HW118614   4.439   0.915   4.701  0.1880 -0.7651  0.3726
 2327SOL    HW218615   4.519   0.863   4.813  1.6268  2.4280  0.0716
 2328SOL     OW18616   2.208   4.173  15.022  0.3266  0.3045 -0.1079
 2328SOL    HW118617   2.134   4.125  15.059  0.7537 -0.8098 -0.7201
 2328SOL    HW218618   2.201   4.261  15.060 -0.8218 -0.5285  1.5996
 2329SOL     OW18619   2.782   1.331   4.320  0.8541 -0.1491 -0.0486
 2329SOL    HW118620   2.742   1.293   4.398  0.3655 -0.1249 -0.2887
 2329SOL    HW218621   2.783   1.425   4.339  2.3076 -0.0540 -0.5655
 2330SOL     OW18622   1.638   2.184   5.229 -0.0316 -0.3738 -0.3629
 2330SOL    HW118623   1.706   2.155   5.289  0.2443 -1.4795 -1.1897
 2330SOL    HW218624   1.557   2.194   5.279 -0.2965 -1.1119 -0.6386
 2331SOL     OW18625   0.620   0.412   8.601 -0.0731 -0.0201  0.0186
 2331SOL    HW118626   0.599   0.466   8.677  0.1651  0.3405 -0.1698
 2331SOL    HW218627   0.544   0.433   8.546 -1.4052  1.1400  2.2979
 2332SOL     OW18628   3.975   0.731   8.391 -0.0211 -0.0653  0.4939
 2332SOL    HW118629   3.896   0.681   8.410  1.0172 -2.6186 -1.8086
 2332SOL    HW218630   4.012   0.664   8.333  1.0345 -1.2449  2.5060
 2333SOL     OW18631   0.661   4.442  10.994 -0.1096  0.2748 -0.3105
 2333SOL    HW118632   0.660   4.450  11.089 -0.3585  1.2368 -0.3932
 2333SOL    HW218633   0.712   4.519  10.972 -0.0785 -0.0867 -1.5106
 2334SOL     OW18634   2.791   1.506   5.186  0.0655  0.2514 -0.3883
 2334SOL    HW118635   2.826   1.432   5.135  0.4728  0.7929 -0.9041
 2334SOL    HW218636   2.775   1.468   5.272 -0.6875  0.9175 -0.2361
 2335SOL     OW18637   4.368   0.346   8.979 -0.4573 -0.3360  1.0180
 2335SOL    HW118638   4.413   0.261   8.982 -0.0217 -0.1709 -0.6504
 2335SOL    HW218639   4.322   0.338   8.895 -0.2514  0.3541  0.8397
 2336SOL     OW18640   3.125   3.839   8.721  0.0865 -0.1627  0.4216
 2336SOL    HW118641   3.183   3.799   8.656 -0.6551  0.1398 -0.4319
 2336SOL    HW218642   3.083   3.762   8.759 -1.5221  0.6869  0.3970
 2337SOL     OW18643   3.304   4.413   8.701  0.6966  0.0714  0.2026
 2337SOL    HW118644   3.393   4.377   8.703  0.5381 -0.3680 -0.7554
 2337SOL    HW218645   3.263   4.380   8.621  2.7384 -1.1475 -0.3401
 2338SOL     OW18646   3.479   4.451   3.355  0.0242  0.0520 -0.0418
 2338SOL    HW118647   3.562   4.490   3.383 -0.4224 -0.1696  1.6082
 2338SOL    HW218648   3.415   4.471   3.423 -1.2362 -0.8474 -0.9548
 2339SOL     OW18649   3.358   2.679   6.099  0.4098  0.3466  0.1701
 2339SOL    HW118650   3.411   2.737   6.154  0.1960 -1.0690  1.8851
 2339SOL    HW218651   3.274   2.705   6.137  0.6968  0.2628  0.8613
 2340SOL     OW18652   3.598   4.077   7.246  0.3836  0.4548  0.7952
 2340SOL    HW118653   3.551   4.033   7.317  2.3175 -1.5571  0.8036
 2340SOL    HW218654   3.598   4.008   7.180 -1.4471 -0.3862  1.6824
 2341SOL     OW18655   1.448   4.543  13.968 -0.4399  0.2640 -0.8430
 2341SOL    HW118656   1.405   4.458  13.959  2.6102 -1.3164 -0.4401
 2341SOL    HW218657   1.501   4.549  13.889  0.6657  2.3374  0.0318
 2342SOL     OW18658   1.789   3.115   2.394  0.0963  0.2853 -0.0056
 2342SOL    HW118659   1.820   3.025   2.411  0.8997  0.0729 -2.6242
 2342SOL    HW218660   1.831   3.134   2.310 -4.2017  1.1309 -1.9492
 2343SOL     OW18661   4.270   0.631   4.343 -0.4743  0.3700 -0.2763
 2343SOL    HW118662   4.211   0.575   4.293  2.2065 -2.1212 -0.6726
 2343SOL    HW218663   4.340   0.568   4.361  0.7409  2.1940  1.4546
 2344SOL     OW18664   3.538   0.124   3.690  0.1951 -0.6067  0.5085
 2344SOL    HW118665   3.496   0.040   3.709 -1.0200  0.4709  2.5829
 2344SOL    HW218666   3.631   0.114   3.707  0.4086  0.5716  0.0402
 2345SOL     OW18667   1.873   2.884  10.134 -0.9557  0.1338 -0.4161
 2345SOL    HW118668   1.850   2.835  10.213  1.3023  0.9860  0.7689
 2345SOL    HW218669   1.843   2.972  10.155 -1.4845 -0.8475  2.8898
 2346SOL     OW18670   1.116   1.379  15.964 -0.3110  0.0418 -0.4467
 2346SOL    HW118671   1.153   1.415  15.883  1.7873  0.5623  0.7538
 2346SOL    HW218672   1.116   1.289  15.932  1.1836 -0.5292  1.2119
 2347SOL     OW18673   2.850   0.480   3.952 -0.1351 -0.2284 -0.8177
 2347SOL    HW118674   2.816   0.565   3.926  0.6160  0.3060 -0.0519
 2347SOL    HW218675   2.770   0.435   3.977  0.3081 -0.3723  0.3448
 2348SOL     OW18676   1.488   0.473   4.679 -0.1778 -0.0807 -0.6728
 2348SOL    HW118677   1.480   0.527   4.600 -0.5154 -2.1662 -2.0631
 2348SOL    HW218678   1.475   0.548   4.737 -1.2820 -0.9392  0.1520
 2349SOL     OW18679   3.012   1.157   4.245 -0.0657  0.3856 -0.1198
 2349SOL    HW118680   2.932   1.201   4.274 -0.3746 -0.2747  0.0248
 2349SOL    HW218681   3.079   1.211   4.287  2.1530 -0.4261 -2.6403
 2350SOL     OW18682   3.806   3.993   8.376  0.2085  0.1152  0.6844
 2350SOL    HW118683   3.897   3.978   8.402  0.3721 -2.5016 -1.3575
 2350SOL    HW218684   3.807   4.087   8.357 -0.6567 -0.5091 -2.4592
 2351SOL     OW18685   3.941   0.394   7.777  0.4310  0.1133  0.0184
 2351SOL    HW118686   3.942   0.442   7.860 -0.8966  0.5113 -0.1858
 2351SOL    HW218687   3.847   0.401   7.762  0.3795  0.3499  0.4361
 2352SOL     OW18688   3.331   2.250   7.744 -0.3024 -0.3621 -0.3593
 2352SOL    HW118689   3.333   2.323   7.806  0.1224 -0.1537 -0.6173
 2352SOL    HW218690   3.306   2.282   7.658 -0.1708 -0.8903 -0.5878
 2353SOL     OW18691   2.492   1.340   4.409  0.3560  0.3776  0.3770
 2353SOL    HW118692   2.449   1.313   4.328  1.5477  0.4312 -0.2715
 2353SOL    HW218693   2.491   1.257   4.457 -0.3087  1.0432  1.4857
 2354SOL     OW18694   1.571   2.302   6.888  0.3532  0.7653 -0.2138
 2354SOL    HW118695   1.618   2.222   6.865 -1.7225 -0.3544 -0.6062
 2354SOL    HW218696   1.642   2.366   6.893  1.5800 -0.5096 -1.4528
 2355SOL     OW18697   1.698   1.127   1.667 -0.4661 -0.2266  0.0922
 2355SOL    HW118698   1.693   1.051   1.610  0.8702 -0.8225  0.7624
 2355SOL    HW218699   1.613   1.168   1.652 -0.9217 -0.5587  1.7362
 2356SOL     OW18700   1.659   2.779   7.808  0.4882 -0.2816 -0.8245
 2356SOL    HW118701   1.718   2.705   7.818  2.5010  1.3141 -1.0468
 2356SOL    HW218702   1.599   2.764   7.882  2.7586 -0.0044  1.0508
 2357SOL     OW18703   1.479   3.766  17.484  0.1167 -0.0975 -0.0943
 2357SOL    HW118704   1.521   3.682  17.463  1.1497  0.5784 -0.7433
 2357SOL    HW218705   1.559   3.818  17.480  0.1509 -0.1780 -0.4439
 2358SOL     OW18706   2.141   4.559   8.433  0.8654 -0.2631 -0.1326
 2358SOL    HW118707   2.097   4.518   8.508  0.6041  0.0286 -0.1285
 2358SOL    HW218708   2.072   4.609   8.391  0.7247 -0.4161 -0.0844
 2359SOL     OW18709   2.204   2.586   6.254  0.5319 -0.4963  0.2325
 2359SOL    HW118710   2.211   2.510   6.311  0.7481 -0.1488  0.6701
 2359SOL    HW218711   2.264   2.643   6.302  0.8936 -1.2227  0.6434
 2360SOL     OW18712   3.167   4.231  15.832  0.3119 -0.1156 -0.4274
 2360SOL    HW118713   3.217   4.303  15.870  0.0175 -0.8889  1.4019
 2360SOL    HW218714   3.146   4.262  15.744  1.7763 -1.2374 -1.1761
 2361SOL     OW18715   0.588   3.491   9.693 -0.1711 -0.2058 -0.3717
 2361SOL    HW118716   0.529   3.546   9.641  0.3350 -1.6281 -2.4543
 2361SOL    HW218717   0.670   3.488   9.644 -0.3985 -1.1146 -0.6918
 2362SOL     OW18718   3.365   1.918   7.644 -0.0092 -0.1199 -0.5169
 2362SOL    HW118719   3.288   1.868   7.671 -0.8137 -0.2191 -3.0131
 2362SOL    HW218720   3.336   2.005   7.618  3.1322  0.5789 -1.6165
 2363SOL     OW18721   2.892   4.724   7.237  0.1890  0.1889  0.3327
 2363SOL    HW118722   2.856   0.027   7.160 -3.2316 -0.1743  1.6888
 2363SOL    HW218723   2.971   4.697   7.191 -0.7087 -2.4410  0.3149
 2364SOL     OW18724   4.378   2.284   8.370 -0.4113 -0.6095 -0.0810
 2364SOL    HW118725   4.348   2.208   8.421 -1.1418  0.1286  0.5814
 2364SOL    HW218726   4.312   2.348   8.396  0.6101  0.1956  0.4946
 2365SOL     OW18727   3.842   2.954   4.506  0.8546 -0.0569 -0.0841
 2365SOL    HW118728   3.809   2.866   4.525 -2.4028  1.3002  0.6266
 2365SOL    HW218729   3.847   2.953   4.410 -0.3602  1.5041 -0.1706
 2366SOL     OW18730   0.603   1.256   5.164  0.5285  0.3711 -0.0624
 2366SOL    HW118731   0.682   1.207   5.142 -0.8733 -1.0640 -1.9720
 2366SOL    HW218732   0.642   1.338   5.191 -0.0781  1.0114 -1.1376
 2367SOL     OW18733   1.766   0.261  17.378  0.3879 -0.3771 -0.2345
 2367SOL    HW118734   1.750   0.309  17.460  0.7368  1.4600 -1.2292
 2367SOL    HW218735   1.723   0.320  17.316  0.3184  2.1340  2.1673
 2368SOL     OW18736   0.775   2.558   8.439 -0.9007  0.3311 -0.1758
 2368SOL    HW118737   0.852   2.505   8.419  0.0523  2.6266 -2.5504
 2368SOL    HW218738   0.734   2.557   8.352  0.1827  1.4775 -0.7034
 2369SOL     OW18739   1.311   0.379  16.022  0.0994 -0.3016 -0.4162
 2369SOL    HW118740   1.335   0.354  15.932 -0.6007 -1.9891 -0.1422
 2369SOL    HW218741   1.232   0.327  16.038  1.1571 -1.9454 -0.5019
 2370SOL     OW18742   1.545   3.822  14.538  0.4014 -1.1347 -0.1611
 2370SOL    HW118743   1.485   3.871  14.595  2.4619 -0.5484  1.4945
 2370SOL    HW218744   1.630   3.827  14.581 -0.3604  2.6658  0.8728
 2371SOL     OW18745   3.783   4.397   6.736 -0.3857 -0.2520 -0.0214
 2371SOL    HW118746   3.769   4.342   6.813 -2.8217  1.2383  0.5927
 2371SOL    HW218747   3.849   4.459   6.768 -1.4754  2.7990 -3.6484
 2372SOL     OW18748   2.507   3.727   4.406  0.0904 -0.4130 -0.1621
 2372SOL    HW118749   2.498   3.802   4.347 -1.8250 -0.8957 -0.4994
 2372SOL    HW218750   2.493   3.756   4.496  2.0931  1.0566 -0.3482
 2373SOL     OW18751   3.233   0.921   0.690 -0.4865  0.3569 -0.1161
 2373SOL    HW118752   3.228   0.846   0.750  1.7309 -0.0894 -0.4951
 2373SOL    HW218753   3.279   0.983   0.747 -0.1277  0.3308 -0.3764
 2374SOL     OW18754   2.044   0.064  16.802  0.1622 -0.1864 -0.3706
 2374SOL    HW118755   2.023   4.733  16.863 -0.1655  0.6330  0.4876
 2374SOL    HW218756   1.954   0.087  16.779  0.1682  0.2868  0.0826
 2375SOL     OW18757   2.565   1.893   8.033 -0.3025 -0.0046  0.2916
 2375SOL    HW118758   2.491   1.838   8.058 -0.7854 -0.2654 -1.6809
 2375SOL    HW218759   2.522   1.976   8.052 -0.7080 -0.2360  0.3676
 2376SOL     OW18760   4.128   1.431   7.240 -0.0393  0.1544 -0.2211
 2376SOL    HW118761   4.105   1.339   7.231  2.0728 -0.2331 -1.6392
 2376SOL    HW218762   4.223   1.425   7.232  0.0444  0.1879  0.6695
 2377SOL     OW18763   2.158   2.049   9.165 -0.8009 -0.0289  0.3913
 2377SOL    HW118764   2.139   2.015   9.252 -0.0016  0.5015  0.7672
 2377SOL    HW218765   2.160   2.142   9.184  1.3751 -0.0351  0.2126
 2378SOL     OW18766   0.380   4.230   6.899 -0.2973 -0.1303 -0.9450
 2378SOL    HW118767   0.404   4.320   6.874 -2.1170  0.7344  0.4268
 2378SOL    HW218768   0.452   4.220   6.962  0.6023 -0.9776 -2.1173
 2379SOL     OW18769   2.660   1.895   3.272  0.0692  0.5404 -0.2461
 2379SOL    HW118770   2.599   1.849   3.215  1.1661  0.9442 -1.7512
 2379SOL    HW218771   2.688   1.820   3.325  0.6246  0.6514 -0.3775
 2380SOL     OW18772   2.980   4.558   4.353 -0.3358 -0.2911 -0.7611
 2380SOL    HW118773   3.003   4.631   4.295  0.4023  1.5188  1.8023
 2380SOL    HW218774   2.902   4.522   4.311  0.1491 -0.2710 -1.6875
 2381SOL     OW18775   1.987   4.224   3.149  0.2012  0.6088  0.4880
 2381SOL    HW118776   2.067   4.215   3.097  0.0071 -1.7544  0.5597
 2381SOL    HW218777   1.992   4.315   3.175  2.3222  1.2511 -2.1562
 2382SOL     OW18778   1.002   4.218   5.379  0.1134  0.2800  0.2430
 2382SOL    HW118779   0.960   4.302   5.396 -0.8779 -0.2319  0.3484
 2382SOL    HW218780   0.927   4.158   5.386 -0.6003  1.0907 -0.4357
 2383SOL     OW18781   1.760   4.395   0.842 -0.5718 -0.2187 -0.3073
 2383SOL    HW118782   1.841   4.442   0.861  1.5639 -2.8691 -2.6754
 2383SOL    HW218783   1.781   4.305   0.868  0.3239  0.0962  0.0485
 2384SOL     OW18784   2.664   2.815   7.555  0.3023  0.1687  0.3774
 2384SOL    HW118785   2.612   2.735   7.570 -1.8507  1.5003 -0.0349
 2384SOL    HW218786   2.605   2.876   7.599 -2.5047 -1.3905 -1.1478
 2385SOL     OW18787   2.589   2.407  17.336 -0.5828  0.1092 -0.6587
 2385SOL    HW118788   2.563   2.321  17.302 -2.9769  0.6664 -0.2449
 2385SOL    HW218789   2.507   2.423  17.382  0.2987 -1.6586  1.5456
 2386SOL     OW18790   2.317   0.009   5.835  0.0763  0.2377 -0.4072
 2386SOL    HW118791   2.347   4.672   5.883 -2.6333  1.0062  2.5305
 2386SOL    HW218792   2.295   0.061   5.912 -0.9448 -3.0708  1.5131
 2387SOL     OW18793   2.725   0.986   4.102 -0.3780 -0.0077 -0.5248
 2387SOL    HW118794   2.652   1.040   4.070  0.1200  1.6035  1.0397
 2387SOL    HW218795   2.761   1.042   4.171 -3.5962  0.9594  0.3858
 2388SOL     OW18796   2.650   2.246   7.867  0.0288  0.1417 -0.0887
 2388SOL    HW118797   2.598   2.169   7.892 -0.1361  0.3714  0.2679
 2388SOL    HW218798   2.595   2.321   7.887  1.2991  0.8677  0.6792
 2389SOL     OW18799   4.100   3.973   6.904  0.2700  0.0502 -0.3933
 2389SOL    HW118800   4.106   3.918   6.826 -0.6075 -0.2965 -0.2170
 2389SOL    HW218801   4.050   3.911   6.957 -2.5685  2.4869 -0.1853
 2390SOL     OW18802   2.869   3.098   8.908 -0.0195 -0.0645 -0.6176
 2390SOL    HW118803   2.857   3.101   9.002 -1.6912  0.8877 -0.8522
 2390SOL    HW218804   2.885   3.191   8.893  1.7324 -0.5544 -1.7443
 2391SOL     OW18805   2.858   1.108   5.578 -0.3944 -0.3451 -0.5526
 2391SOL    HW118806   2.798   1.080   5.509  0.2568 -2.7139 -0.1568
 2391SOL    HW218807   2.939   1.115   5.528 -0.2558  1.2014 -0.1285
 2392SOL     OW18808   0.937   1.672   4.661  0.8806  0.1932  0.1803
 2392SOL    HW118809   0.860   1.722   4.688  0.6383  1.0640 -2.1377
 2392SOL    HW218810   0.949   1.611   4.734  0.8722  0.4441  0.3921
 2393SOL     OW18811   4.676   0.880   6.632  0.3004  0.2393 -0.0083
 2393SOL    HW118812   4.645   0.905   6.720  2.4472 -2.0619  1.3988
 2393SOL    HW218813   0.012   0.935   6.619  0.7183 -0.7232 -1.6856
 2394SOL     OW18814   1.652   0.190  14.516  0.2456  0.1214 -0.2445
 2394SOL    HW118815   1.630   0.103  14.549 -0.1391  0.2982 -0.0418
 2394SOL    HW218816   1.722   0.209  14.579 -0.5244 -0.5015  0.7896
 2395SOL     OW18817   3.046   1.593   1.782  0.2997 -0.0113 -0.3040
 2395SOL    HW118818   2.962   1.639   1.788  0.4783  0.4608 -1.4419
 2395SOL    HW218819   3.110   1.655   1.817 -0.0888 -0.1718  0.6942
 2396SOL     OW18820   3.959   0.398   3.705 -0.4876  0.0171  0.2793
 2396SOL    HW118821   3.935   0.464   3.640 -1.3592  0.3828  0.9632
 2396SOL    HW218822   3.918   0.319   3.669 -0.3884 -0.9557  2.2818
 2397SOL     OW18823   4.205   0.738   4.595  0.1917 -0.6849  0.5782
 2397SOL    HW118824   4.207   0.648   4.628 -0.9861 -0.8497  0.1949
 2397SOL    HW218825   4.192   0.715   4.503  2.5302  3.1061 -0.7353
 2398SOL     OW18826   1.754   0.191   1.887 -0.0659  0.4596 -0.0672
 2398SOL    HW118827   1.665   0.165   1.862 -0.4079  1.3517  0.2442
 2398SOL    HW218828   1.744   0.236   1.970 -0.1249  2.0980 -0.9687
 2399SOL     OW18829   4.427   2.793   6.462  0.3679 -0.4337 -0.1108
 2399SOL    HW118830   4.394   2.747   6.384 -1.3330 -2.0145  1.5217
 2399SOL    HW218831   4.516   2.813   6.434 -0.1828  0.2979 -1.3427
 2400SOL     OW18832   0.880   0.072   9.598 -0.3929  0.1472 -0.3192
 2400SOL    HW118833   0.951   0.021   9.637 -0.4288 -0.0600 -0.5246
 2400SOL    HW218834   0.931   0.090   9.519  0.5969 -1.2340  0.0051
 2401SOL     OW18835   1.631   3.515   5.176 -0.0571  0.2110 -0.0830
 2401SOL    HW118836   1.677   3.525   5.093 -0.8849  2.2915 -0.3142
 2401SOL    HW218837   1.658   3.593   5.225 -2.6356  1.6550 -0.9010
 2402SOL     OW18838   2.596   3.221   9.032 -0.3315 -0.4937  0.4902
 2402SOL    HW118839   2.651   3.167   9.088  0.2556 -0.1788  0.2074
 2402SOL    HW218840   2.531   3.256   9.093  0.1591  0.6450  0.3563
 2403SOL     OW18841   4.151   3.260   1.163  0.2981  0.7020 -0.3446
 2403SOL    HW118842   4.187   3.223   1.244  0.2244  0.0809 -0.5939
 2403SOL    HW218843   4.217   3.219   1.107  1.1539  1.1164  0.3418
 2404SOL     OW18844   3.568   0.785   6.053 -0.0370 -0.5972  0.2217
 2404SOL    HW118845   3.653   0.760   6.089  0.1159 -0.8381 -0.3126
 2404SOL    HW218846   3.591   0.800   5.961 -0.2890  1.8819  0.5507
 2405SOL     OW18847   0.740   0.222   8.788  0.1111 -0.4447  0.0885
 2405SOL    HW118848   0.707   0.307   8.758 -1.6611 -0.5726  1.6511
 2405SOL    HW218849   0.736   0.174   8.706  0.2296  0.2073 -0.2943
 2406SOL     OW18850   4.463   2.113   4.174 -0.6840 -0.5436  0.0411
 2406SOL    HW118851   4.426   2.031   4.208 -0.0808 -0.1032  1.7516
 2406SOL    HW218852   4.439   2.108   4.081  1.2647 -0.4698 -0.4529
 2407SOL     OW18853   0.875   2.067   8.564  0.0744 -0.4191 -0.2817
 2407SOL    HW118854   0.892   1.981   8.524  0.7911  0.1763 -1.2586
 2407SOL    HW218855   0.932   2.132   8.523  0.2567  0.1032  0.8176
 2408SOL     OW18856   1.164   1.117   6.553 -0.0831 -0.6235  0.0365
 2408SOL    HW118857   1.167   1.059   6.629  3.9933  0.8404  1.0234
 2408SOL    HW218858   1.238   1.173   6.576 -0.8938  0.1955  0.6546
 2409SOL     OW18859   1.805   0.090   5.487 -0.0522 -0.1081  0.4559
 2409SOL    HW118860   1.720   0.132   5.473  0.1312 -0.0799 -0.5578
 2409SOL    HW218861   1.851   0.161   5.533 -1.2178  1.8342 -1.3900
 2410SOL     OW18862   0.532   0.246   9.410  0.1491 -0.1097  0.2272
 2410SOL    HW118863   0.473   0.307   9.455  1.7316 -0.8324  3.2866
 2410SOL    HW218864   0.553   0.295   9.330  1.6865  1.2738  1.4686
 2411SOL     OW18865   1.160   4.159  16.201 -0.2094  0.2986 -0.1537
 2411SOL    HW118866   1.098   4.227  16.175 -0.3757  1.3007  2.8535
 2411SOL    HW218867   1.230   4.202  16.250  0.8484  1.2179 -2.4447
 2412SOL     OW18868   1.752   0.182   8.376 -0.3922 -0.8747  0.1215
 2412SOL    HW118869   1.782   0.108   8.324 -0.5475 -1.2989  0.6289
 2412SOL    HW218870   1.840   0.189   8.413  0.8138 -3.6134 -2.2452
 2413SOL     OW18871   4.690   4.690   5.558  0.3822  0.7611  0.8290
 2413SOL    HW118872   4.680   4.722   5.468 -0.5829 -1.0641  0.2846
 2413SOL    HW218873   4.708   4.598   5.535 -0.6969  0.7689 -0.0425
 2414SOL     OW18874   2.924   1.444  13.668 -0.5834 -0.4199  0.0280
 2414SOL    HW118875   2.862   1.374  13.689 -2.1741  0.9600 -0.0943
 2414SOL    HW218876   2.960   1.401  13.591 -0.5967  1.0017 -0.7782
 2415SOL     OW18877   1.824   4.216   0.334 -0.0237  0.1189 -0.1189
 2415SOL    HW118878   1.825   4.232   0.428  1.3096 -0.3885 -0.0491
 2415SOL    HW218879   1.837   4.302   0.292  0.0445  0.2179  0.1067
 2416SOL     OW18880   0.137   0.957   6.008 -0.1059 -0.2628 -0.2023
 2416SOL    HW118881   0.185   0.949   6.091 -0.4732  2.6702  0.3025
 2416SOL    HW218882   0.048   0.946   6.041 -0.0339  0.8347  0.3673
 2417SOL     OW18883   3.856   1.723   9.122 -0.1500 -0.2785 -0.3305
 2417SOL    HW118884   3.940   1.700   9.162 -0.4302 -1.8589 -0.6521
 2417SOL    HW218885   3.866   1.665   9.047  2.5153 -0.8024  0.4281
 2418SOL     OW18886   3.033   2.809  11.258 -0.7247 -0.3351  0.0923
 2418SOL    HW118887   3.095   2.750  11.301 -0.6327 -0.5259 -0.3021
 2418SOL    HW218888   3.100   2.862  11.214 -1.4936 -0.6556 -1.4660
 2419SOL     OW18889   0.081   0.207  16.295 -0.9263 -0.6030 -0.2406
 2419SOL    HW118890   0.089   0.229  16.203 -0.6517  2.4837  0.5435
 2419SOL    HW218891   0.005   0.263  16.311  0.6388  1.4429 -0.0575
 2420SOL     OW18892   3.106   1.907  10.391 -0.4766  0.0893  0.1911
 2420SOL    HW118893   3.192   1.947  10.381  0.0162 -1.2870 -1.1125
 2420SOL    HW218894   3.069   1.993  10.370 -0.8275  0.7014  3.2835
 2421SOL     OW18895   0.637   3.254   5.223  0.1422  0.3087 -0.0604
 2421SOL    HW118896   0.679   3.305   5.153  0.7223 -0.4373 -0.2554
 2421SOL    HW218897   0.547   3.267   5.194  0.2019  1.5893  0.3205
 2422SOL     OW18898   0.736   3.197   7.790 -0.2100  0.6537  0.0358
 2422SOL    HW118899   0.759   3.248   7.713  1.6726 -2.1676 -1.2404
 2422SOL    HW218900   0.754   3.256   7.864 -1.5998  0.4570  0.5371
 2423SOL     OW18901   4.100   2.452   4.655  0.5992 -0.1403  0.0424
 2423SOL    HW118902   4.054   2.516   4.709 -1.4665 -1.3851 -0.2367
 2423SOL    HW218903   4.171   2.432   4.717 -0.0496  0.1878  0.8886
 2424SOL     OW18904   1.342   2.445   8.211 -0.0450  0.7907 -0.1145
 2424SOL    HW118905   1.294   2.364   8.227 -0.9551  1.3376 -0.0622
 2424SOL    HW218906   1.367   2.470   8.300  0.9248  1.2478 -0.5090
 2425SOL     OW18907   1.100   1.947   0.719 -0.1762  0.0835 -0.1727
 2425SOL    HW118908   1.043   1.872   0.703 -0.6104 -0.1362  2.4596
 2425SOL    HW218909   1.170   1.902   0.766 -1.2327  0.7751  2.0625
 2426SOL     OW18910   2.068   0.777  11.703  0.0862  0.1739  0.3450
 2426SOL    HW118911   2.025   0.806  11.784  1.9000 -1.7994  2.0318
 2426SOL    HW218912   2.021   0.695  11.685 -1.7601  1.1597  0.6322
 2427SOL     OW18913   0.660   3.754  14.935 -0.4548  0.6801  0.5936
 2427SOL    HW118914   0.631   3.842  14.961 -1.1183  0.7414 -0.3544
 2427SOL    HW218915   0.576   3.708  14.926 -0.4446  0.9663 -0.9117
 2428SOL     OW18916   2.891   4.366   8.251 -0.2302 -0.1972  0.2264
 2428SOL    HW118917   2.912   4.281   8.290  3.9372  1.6295  1.9024
 2428SOL    HW218918   2.970   4.379   8.199 -2.4846 -0.1948 -3.2406
 2429SOL     OW18919   4.688   0.440  10.753 -0.3949  0.9124  0.2118
 2429SOL    HW118920   4.621   0.456  10.687 -1.3203  0.6807  1.0851
 2429SOL    HW218921   4.651   0.494  10.822 -2.6710 -2.1940  1.4482
 2430SOL     OW18922   2.379   0.852  14.738  0.8965  0.0756  0.1407
 2430SOL    HW118923   2.461   0.842  14.785 -0.6361  0.1381  2.8104
 2430SOL    HW218924   2.336   0.927  14.779  1.1712  0.9686 -1.2128
 2431SOL     OW18925   3.230   0.823   4.441 -0.0700  0.6978 -0.0898
 2431SOL    HW118926   3.241   0.853   4.351  2.2328  0.2724  0.0522
 2431SOL    HW218927   3.320   0.831   4.473  0.1326  0.9061 -0.7157
 2432SOL     OW18928   0.751   2.904   4.477 -0.3415  0.2530  0.1735
 2432SOL    HW118929   0.843   2.916   4.501 -0.2892  0.1933  0.0037
 2432SOL    HW218930   0.743   2.809   4.467  0.1977 -0.0733  2.6668
 2433SOL     OW18931   1.144   2.769   8.467 -0.2206 -0.5610  0.3478
 2433SOL    HW118932   1.136   2.686   8.419 -0.9650  0.0036 -0.4888
 2433SOL    HW218933   1.056   2.780   8.503 -0.4080  0.7923 -0.5585
 2434SOL     OW18934   0.793   0.880   7.525  0.4676 -0.3202 -0.1907
 2434SOL    HW118935   0.850   0.831   7.583 -0.7380  0.5822  1.7453
 2434SOL    HW218936   0.867   0.921   7.481 -0.5216  0.6824 -0.9165
 2435SOL     OW18937   2.000   0.776  13.023 -0.2852  0.7432  0.3996
 2435SOL    HW118938   2.041   0.708  13.077  1.4405  1.6775  0.2641
 2435SOL    HW218939   1.971   0.722  12.949  1.6971  0.6402 -0.2977
 2436SOL     OW18940   1.637   1.280  15.473  0.0830  0.1386  0.5401
 2436SOL    HW118941   1.714   1.330  15.501  0.0789 -0.3443  1.3854
 2436SOL    HW218942   1.632   1.301  15.379 -1.9839  0.9633  0.8376
 2437SOL     OW18943   1.274   1.540  12.599 -0.1907  0.2204  0.3914
 2437SOL    HW118944   1.197   1.591  12.625 -0.9973  0.1398 -1.8112
 2437SOL    HW218945   1.338   1.558  12.668 -1.7122  2.8653  1.1512
 2438SOL     OW18946   3.877   3.357   8.435  0.2882 -0.1623  0.2650
 2438SOL    HW118947   3.788   3.379   8.408  0.7820  1.5543  0.0465
 2438SOL    HW218948   3.868   3.360   8.530 -0.5525 -2.2218  0.2432
 2439SOL     OW18949   1.992   2.355   3.527 -0.1265 -0.2633  0.1812
 2439SOL    HW118950   2.000   2.431   3.585 -1.0741 -1.3027  1.7057
 2439SOL    HW218951   1.999   2.286   3.594 -0.6500 -0.8797 -0.4050
 2440SOL     OW18952   3.426   4.442   2.042 -0.2347 -0.3796 -0.4908
 2440SOL    HW118953   3.505   4.474   1.999 -0.8821  2.3942  0.3225
 2440SOL    HW218954   3.417   4.508   2.111  2.4301  1.2071 -1.6606
 2441SOL     OW18955   0.233   0.107  10.991 -0.3302  0.4607 -0.2592
 2441SOL    HW118956   0.251   0.124  10.898 -0.8096 -1.9154 -0.7788
 2441SOL    HW218957   0.231   0.012  10.997 -3.1561  0.5187 -0.4569
 2442SOL     OW18958   2.790   1.978   8.817 -0.3800  0.6346 -0.0408
 2442SOL    HW118959   2.849   2.034   8.766 -0.4201 -0.8076 -1.6917
 2442SOL    HW218960   2.761   1.906   8.760  0.3904 -0.3124  0.7654
 2443SOL     OW18961   2.368   1.536   4.975  0.2588  1.0111  0.4040
 2443SOL    HW118962   2.401   1.620   5.007  1.2971  0.0654  1.8293
 2443SOL    HW218963   2.326   1.509   5.057 -0.1115  1.5819  0.4062
 2444SOL     OW18964   4.711   2.179   5.946 -0.4036  0.1488 -0.3459
 2444SOL    HW118965   0.006   2.091   5.930 -1.7875 -0.6109  0.8144
 2444SOL    HW218966   0.042   2.234   5.912  0.4832  1.6561  3.9837
 2445SOL     OW18967   4.505   2.657  10.244  0.3568  0.4179 -0.0647
 2445SOL    HW118968   4.509   2.692  10.155 -0.1557  1.0058  0.1410
 2445SOL    HW218969   4.499   2.743  10.286 -2.0624 -0.3652  1.2217
 2446SOL     OW18970   4.359   3.911   2.103  0.3905  0.9240 -0.2800
 2446SOL    HW118971   4.393   3.998   2.124 -0.4530  0.0864  4.4897
 2446SOL    HW218972   4.370   3.865   2.186 -0.6856 -0.0969 -0.7099
 2447SOL     OW18973   0.651   2.967   3.672  0.6254  0.3601 -0.0351
 2447SOL    HW118974   0.664   2.935   3.583 -1.2056  0.9015 -0.4852
 2447SOL    HW218975   0.628   2.886   3.719 -0.9874  0.2959 -0.9424
 2448SOL     OW18976   1.760   2.536   1.607 -0.1128  0.0897  0.1451
 2448SOL    HW118977   1.777   2.468   1.542 -2.3846  0.3194 -0.7195
 2448SOL    HW218978   1.769   2.615   1.553  0.6837  1.6905  2.6549
 2449SOL     OW18979   0.966   0.406   3.582 -0.5515  0.0625 -0.4716
 2449SOL    HW118980   0.962   0.312   3.601 -0.5649 -0.2147 -1.8377
 2449SOL    HW218981   0.882   0.444   3.609 -1.3419 -1.8501 -0.2155
 2450SOL     OW18982   1.986   1.287   0.498 -0.4963  0.3597  0.3638
 2450SOL    HW118983   1.982   1.319   0.588  1.8860  2.4530 -0.2796
 2450SOL    HW218984   1.896   1.284   0.466 -0.5344 -0.5274  0.5332
 2451SOL     OW18985   2.477   2.675   2.219 -0.3777  0.0580 -0.0456
 2451SOL    HW118986   2.561   2.637   2.195 -0.0040 -0.1745  1.6242
 2451SOL    HW218987   2.509   2.763   2.241  2.2980 -0.9964  0.2653
 2452SOL     OW18988   4.563   1.537   1.799  0.4916 -0.6972 -0.1903
 2452SOL    HW118989   4.488   1.550   1.856  0.0994 -0.7833 -0.6908
 2452SOL    HW218990   4.555   1.604   1.731  2.5555  0.7545  0.9845
 2453SOL     OW18991   4.041   3.931  12.354  0.7687  0.0114  0.1691
 2453SOL    HW118992   4.033   4.022  12.382  1.6844  0.0533  0.3026
 2453SOL    HW218993   4.091   3.894  12.427  0.4240  0.4010  0.5983
 2454SOL     OW18994   4.563   2.269   8.183 -0.0179  0.3549 -0.0556
 2454SOL    HW118995   4.492   2.284   8.245 -0.6700 -1.7651 -0.2667
 2454SOL    HW218996   4.589   2.187   8.227  0.3321  0.5072  0.0210
 2455SOL     OW18997   0.394   1.064   3.688 -0.3405 -0.1633 -0.4992
 2455SOL    HW118998   0.375   1.020   3.770 -3.0340 -0.5681 -1.3247
 2455SOL    HW218999   0.324   1.039   3.627 -1.0573  0.9946 -0.1499
 2456SOL     OW19000   3.797   1.268   6.396  0.0998 -0.2774 -0.1083
 2456SOL    HW119001   3.740   1.282   6.320  0.9886  0.9350 -0.5428
 2456SOL    HW219002   3.842   1.352   6.398 -0.4562  0.0536 -1.3941
 2457SOL     OW19003   0.507   1.465   4.037  0.0788 -0.2123  0.6005
 2457SOL    HW119004   0.507   1.527   4.110 -1.5062  1.8821 -1.1622
 2457SOL    HW219005   0.499   1.506   3.950 -1.5978 -0.7190  0.5062
 2458SOL     OW19006   1.277   0.761   5.577  0.4302 -0.3909  0.0278
 2458SOL    HW119007   1.319   0.735   5.495  1.2624 -2.2129  1.0136
 2458SOL    HW219008   1.186   0.774   5.550  1.3556  1.7391 -2.0264
 2459SOL     OW19009   2.080   3.378   6.278 -0.2621 -0.5589 -0.0051
 2459SOL    HW119010   2.091   3.379   6.183 -2.2642 -0.3072 -0.2323
 2459SOL    HW219011   2.061   3.470   6.298 -1.4060 -0.4653 -1.5835
 2460SOL     OW19012   3.846   3.799   4.131  0.0109  0.1418  0.0104
 2460SOL    HW119013   3.772   3.860   4.136 -1.4390 -1.7280  1.5884
 2460SOL    HW219014   3.798   3.716   4.142  0.7866 -0.2393  0.4990
 2461SOL     OW19015   0.155   3.262   1.499  0.2052 -0.7116 -0.0063
 2461SOL    HW119016   0.236   3.253   1.549 -0.5258  0.3756  1.3477
 2461SOL    HW219017   0.161   3.346   1.455  1.8476 -2.0712 -2.3905
 2462SOL     OW19018   1.168   2.236   1.528 -0.0547 -0.5709  0.6146
 2462SOL    HW119019   1.102   2.302   1.507  0.1434 -0.8306 -0.8521
 2462SOL    HW219020   1.118   2.155   1.530 -0.7074 -0.1889  0.0206
 2463SOL     OW19021   0.935   2.267   8.800  0.2803 -0.6938 -0.1251
 2463SOL    HW119022   0.879   2.206   8.752  0.1266  0.1229 -0.9917
 2463SOL    HW219023   0.866   2.329   8.824 -2.3208 -3.4371 -0.5963
 2464SOL     OW19024   2.629   4.133   3.665  0.1734  0.4577  0.2684
 2464SOL    HW119025   2.563   4.185   3.620 -0.6540 -0.7251  0.1370
 2464SOL    HW219026   2.695   4.136   3.596 -0.1305 -1.2318 -0.1002
 2465SOL     OW19027   4.023   1.860   7.838 -0.4910  0.3008  0.1104
 2465SOL    HW119028   3.965   1.928   7.802 -1.1405  0.5076  1.5493
 2465SOL    HW219029   4.023   1.794   7.769 -1.0652  1.1547 -0.7106
 2466SOL     OW19030   0.434   2.097   4.450  0.0009 -0.1382 -0.0744
 2466SOL    HW119031   0.503   2.153   4.486  0.2097 -0.3214 -0.1947
 2466SOL    HW219032   0.461   2.103   4.359 -0.1404  1.3427 -0.0230
 2467SOL     OW19033   4.698   4.207   3.943  0.1197 -0.1532  0.0166
 2467SOL    HW119034   4.631   4.138   3.946  0.1195 -0.1431  0.2556
 2467SOL    HW219035   4.662   4.264   4.011 -0.6607  0.3271 -0.8010
 2468SOL     OW19036   4.538   2.228   1.627  0.1020  0.2512  0.0498
 2468SOL    HW119037   4.455   2.222   1.579 -0.7260  1.0853  1.3484
 2468SOL    HW219038   4.516   2.185   1.710  1.1137 -1.3176 -0.4944
 2469SOL     OW19039   3.971   4.104   6.427  0.0001 -0.2461 -0.1119
 2469SOL    HW119040   3.949   4.104   6.334  2.4351  0.8845 -0.6927
 2469SOL    HW219041   3.972   4.012   6.452 -2.4777  0.0877  1.2603
 2470SOL     OW19042   1.631   2.785   2.269  0.9436 -0.7742  0.2294
 2470SOL    HW119043   1.599   2.802   2.358  0.6511 -2.8026  0.5097
 2470SOL    HW219044   1.711   2.734   2.283  1.2358 -0.7204 -1.2831
 2471SOL     OW19045   3.903   0.765   0.963  0.0177 -0.0927  0.6608
 2471SOL    HW119046   3.868   0.850   0.989 -0.4587 -0.6198  1.7300
 2471SOL    HW219047   3.949   0.791   0.883  1.2269 -0.5460  1.1981
 2472SOL     OW19048   3.632   4.473   6.176 -0.3362 -0.0888  0.3930
 2472SOL    HW119049   3.553   4.423   6.199  0.6999 -0.8292  2.3216
 2472SOL    HW219050   3.602   4.560   6.201 -2.4860  0.1561 -3.1007
 2473SOL     OW19051   1.090   2.356   5.416  0.7050  0.1113 -0.0010
 2473SOL    HW119052   1.035   2.388   5.488  1.7775 -0.4324  1.0552
 2473SOL    HW219053   1.171   2.326   5.457  1.5484 -0.5682 -2.1405
 2474SOL     OW19054   3.964   3.089   8.447 -0.1598 -0.5037  0.1322
 2474SOL    HW119055   3.943   3.183   8.448 -0.3054 -0.5065 -1.9481
 2474SOL    HW219056   4.057   3.090   8.424 -0.1618  0.4980  0.1778
 2475SOL     OW19057   1.108   2.054   4.770  0.4469  0.4042 -1.0548
 2475SOL    HW119058   1.046   2.064   4.697 -1.3563 -2.7414  0.0339
 2475SOL    HW219059   1.157   1.974   4.751  1.6848  0.5045  1.8567
 2476SOL     OW19060   3.208   4.209  17.071  0.5628 -0.2093  0.0524
 2476SOL    HW119061   3.170   4.168  17.148  0.3111 -0.2750 -0.1076
 2476SOL    HW219062   3.208   4.300  17.101 -0.6679 -1.0569  2.5847
 2477SOL     OW19063   3.009   1.857   2.322 -0.3208 -0.0478 -0.0870
 2477SOL    HW119064   3.051   1.802   2.387  0.6060 -0.2755 -0.8734
 2477SOL    HW219065   2.999   1.938   2.372 -0.3084 -0.1618  0.0997
 2478SOL     OW19066   2.316   0.280  12.008 -0.0234 -0.0020  0.0472
 2478SOL    HW119067   2.412   0.275  12.008 -0.0496 -0.4805  0.3592
 2478SOL    HW219068   2.312   0.365  11.964 -0.0585  0.1218  0.2929
 2479SOL     OW19069   3.252   2.481   1.076 -0.7119  0.0733 -0.6023
 2479SOL    HW119070   3.218   2.565   1.106 -2.4861 -1.2151  1.0253
 2479SOL    HW219071   3.250   2.489   0.981 -2.8994 -0.2280 -0.5860
 2480SOL     OW19072   3.562   2.105  11.115  0.3276  0.6411 -0.0596
 2480SOL    HW119073   3.541   2.133  11.026  0.7179 -0.5872 -0.5374
 2480SOL    HW219074   3.483   2.118  11.166  0.4792  1.6570 -0.0877
 2481SOL     OW19075   4.528   4.184   5.698  0.1320  0.2805 -0.0966
 2481SOL    HW119076   4.595   4.139   5.750 -1.3700 -2.7180 -0.7708
 2481SOL    HW219077   4.533   4.267   5.745 -3.4542  0.7978 -0.6341
 2482SOL     OW19078   4.161   0.727   4.974  0.0887 -0.2968  0.0393
 2482SOL    HW119079   4.158   0.803   4.916 -0.7557 -1.3105 -1.2709
 2482SOL    HW219080   4.147   0.657   4.910  2.5928 -0.8932  0.1261
 2483SOL     OW19081   1.831   0.487   8.746  0.4115  0.0812  0.4050
 2483SOL    HW119082   1.837   0.518   8.655  0.2193  1.0649  0.7308
 2483SOL    HW219083   1.754   0.430   8.748  0.2106  0.3081 -1.0293
 2484SOL     OW19084   0.589   4.510   8.048  0.0918  0.3382 -0.0916
 2484SOL    HW119085   0.497   4.496   8.026  0.3414  1.5051 -1.8898
 2484SOL    HW219086   0.589   4.606   8.051 -1.0403  0.2984  1.1519
 2485SOL     OW19087   4.454   1.069   9.400  0.1282  0.1291 -0.6727
 2485SOL    HW119088   4.407   1.042   9.321  1.9719 -2.5691 -0.8467
 2485SOL    HW219089   4.536   1.020   9.403 -0.8188 -1.4690 -0.9450
 2486SOL     OW19090   3.015   2.157  13.481 -0.0640 -0.0199  0.3088
 2486SOL    HW119091   2.921   2.158  13.495 -0.1584 -2.6046 -0.2594
 2486SOL    HW219092   3.040   2.084  13.537  1.9740  0.6546  0.2771
 2487SOL     OW19093   2.263   2.766   8.460 -0.7917 -0.3045 -0.0916
 2487SOL    HW119094   2.189   2.740   8.515 -1.9308  1.3763 -0.8339
 2487SOL    HW219095   2.234   2.851   8.426  0.3483 -0.4878 -1.5155
 2488SOL     OW19096   0.565   1.646   5.995  0.1511 -0.0731 -0.0061
 2488SOL    HW119097   0.551   1.653   6.090  2.1384  0.8476  0.2211
 2488SOL    HW219098   0.544   1.738   5.987  1.5748  0.1807 -0.7799
 2489SOL     OW19099   3.553   2.104   0.209 -0.0586  0.3054  0.0308
 2489SOL    HW119100   3.587   2.038   0.269  0.2387  0.8453  0.4636
 2489SOL    HW219101   3.497   2.059   0.147 -1.1739  0.3297  1.0193
 2490SOL     OW19102   3.854   4.524   8.106  0.0749 -0.1474  0.2413
 2490SOL    HW119103   3.805   4.524   8.024  0.5630  2.7264 -0.0533
 2490SOL    HW219104   3.860   4.619   8.120  0.6522 -0.2599  0.7630
 2491SOL     OW19105   4.483   3.582   4.220  0.2342 -0.3980 -0.3835
 2491SOL    HW119106   4.547   3.562   4.152  0.1185 -0.1240 -0.5774
 2491SOL    HW219107   4.450   3.496   4.245  1.9293 -1.0574 -0.4072
 2492SOL     OW19108   4.023   0.681   2.332 -0.0485 -0.4260  0.3085
 2492SOL    HW119109   4.101   0.643   2.291 -0.4560  1.0546 -1.8778
 2492SOL    HW219110   4.011   0.759   2.277 -3.5116  1.0357  3.0915
 2493SOL     OW19111   1.560   4.311   7.175  0.1278 -0.4791 -0.3756
 2493SOL    HW119112   1.593   4.398   7.199  0.1527 -0.2863 -1.0914
 2493SOL    HW219113   1.632   4.257   7.207 -0.3415  0.3007  1.9716
 2494SOL     OW19114   2.323   4.709   9.600 -0.0181  0.2024  0.2140
 2494SOL    HW119115   2.290   0.014   9.678  0.8346  1.6939 -0.2949
 2494SOL    HW219116   2.241   4.692   9.553 -0.0692 -1.9755  1.0570
 2495SOL     OW19117   0.964   1.377   7.680  0.0721  0.1821  0.3703
 2495SOL    HW119118   0.878   1.369   7.638 -0.2887  0.0273  1.1357
 2495SOL    HW219119   0.974   1.471   7.694 -2.3428  0.3219  1.2069
 2496SOL     OW19120   1.999   0.674  14.086  0.4601 -0.3355  0.0505
 2496SOL    HW119121   2.000   0.600  14.025 -2.0954 -0.6156  0.3599
 2496SOL    HW219122   2.024   0.631  14.167  0.2794  2.0920  1.3976
 2497SOL     OW19123   3.282   0.503   5.073  0.1333  0.4204 -0.4480
 2497SOL    HW119124   3.192   0.482   5.049 -0.9528  1.1989  2.8159
 2497SOL    HW219125   3.277   0.596   5.093  1.7629  0.6781 -1.2848
 2498SOL     OW19126   1.215   4.070   8.870  0.1667 -0.1187  0.1205
 2498SOL    HW119127   1.264   4.124   8.932 -0.0506 -0.4716  0.6105
 2498SOL    HW219128   1.124   4.069   8.902  0.0381  1.9885 -0.2085
 2499SOL     OW19129   3.821   3.427   2.564 -0.0014  0.2452 -0.2131
 2499SOL    HW119130   3.853   3.338   2.553  2.2245  1.0968 -0.7423
 2499SOL    HW219131   3.885   3.469   2.507  1.4648 -1.4575  0.1895
 2500SOL     OW19132   0.854   2.575   4.387  0.4320  0.4612 -0.1151
 2500SOL    HW119133   0.853   2.507   4.319  1.5574 -1.3138  1.6451
 2500SOL    HW219134   0.839   2.656   4.338 -3.1768 -0.5869 -0.7527
 2501SOL     OW19135   4.328   2.246  10.966 -0.3786  0.0928  0.2403
 2501SOL    HW119136   4.419   2.230  10.990  0.0775  0.8756 -0.9907
 2501SOL    HW219137   4.331   2.341  10.961  1.3545  0.0026 -0.1062
 2502SOL     OW19138   4.253   4.663   2.947  0.0695 -0.0820  0.5051
 2502SOL    HW119139   4.300   4.600   3.001  0.7903  0.8693  0.9686
 2502SOL    HW219140   4.285   0.008   2.975  0.0368  0.7763 -2.0654
 2503SOL     OW19141   0.490   1.925   3.924  0.4081 -0.6439 -0.6294
 2503SOL    HW119142   0.397   1.903   3.923  0.2014  0.1345  1.1593
 2503SOL    HW219143   0.499   1.994   3.857 -0.8297 -0.2221 -0.3648
 2504SOL     OW19144   2.867   0.461   4.837 -0.4988  0.3454 -0.0623
 2504SOL    HW119145   2.861   0.439   4.744  1.5948  1.8040 -0.5285
 2504SOL    HW219146   2.811   0.539   4.842  0.5947  1.1048  0.2313
 2505SOL     OW19147   2.369   2.594  12.326  0.0630  0.3206  0.1356
 2505SOL    HW119148   2.409   2.578  12.412  0.5581  0.0054 -0.1498
 2505SOL    HW219149   2.275   2.604  12.341  0.3625  2.1384  0.7623
 2506SOL     OW19150   2.066   4.194  12.946  0.7938  0.4883 -0.2018
 2506SOL    HW119151   1.989   4.204  12.890  0.8004 -1.6823 -0.5753
 2506SOL    HW219152   2.106   4.115  12.910  0.1491 -0.1737  0.5424
 2507SOL     OW19153   3.196   0.683   2.924  1.0683 -0.2178 -0.3050
 2507SOL    HW119154   3.192   0.678   2.829 -2.4695 -2.1565 -0.0685
 2507SOL    HW219155   3.185   0.776   2.941 -0.3460 -0.6573  1.2219
 2508SOL     OW19156   1.280   3.885  16.820  1.2418  0.1300  0.3282
 2508SOL    HW119157   1.373   3.897  16.806  1.3275  0.9261  1.5845
 2508SOL    HW219158   1.269   3.813  16.882  2.7465  0.3595  0.8506
 2509SOL     OW19159   2.249   3.620  14.905 -0.3309 -0.4879  0.0947
 2509SOL    HW119160   2.198   3.555  14.954 -2.3202  1.2817  0.3743
 2509SOL    HW219161   2.334   3.577  14.916 -0.4335 -0.3829  1.2882
 2510SOL     OW19162   0.125   1.978  15.916 -0.2152  0.2219 -0.2381
 2510SOL    HW119163   0.119   1.884  15.937  1.1986 -0.0625 -1.1119
 2510SOL    HW219164   0.143   1.980  15.822 -2.0538  0.5912 -0.5748
 2511SOL     OW19165   1.379   2.729   4.538  0.1714  0.1649  0.0912
 2511SOL    HW119166   1.454   2.694   4.490 -0.2303 -0.9442  0.2891
 2511SOL    HW219167   1.347   2.647   4.574 -1.5093  1.4001  1.4230
 2512SOL     OW19168   0.789   1.488  15.261  0.5649 -0.4034  0.3763
 2512SOL    HW119169   0.806   1.485  15.167  0.1005 -0.2153  0.2871
 2512SOL    HW219170   0.726   1.415  15.262  1.6271 -1.3130  1.6726
 2513SOL     OW19171   1.894   1.855   6.790 -0.0870  0.2228  0.2478
 2513SOL    HW119172   1.879   1.916   6.863  2.4401  2.1482 -0.8486
 2513SOL    HW219173   1.920   1.774   6.834 -1.4840  0.1218  0.9018
 2514SOL     OW19174   1.788   0.772   5.887 -0.0504 -1.0689 -0.9160
 2514SOL    HW119175   1.759   0.783   5.796 -3.4492 -1.1620  0.1506
 2514SOL    HW219176   1.870   0.725   5.870  0.5471 -0.9765  1.8103
 2515SOL     OW19177   2.717   4.168   9.513 -0.2398  0.6649  0.4210
 2515SOL    HW119178   2.726   4.197   9.604 -1.9857  3.1338 -0.1826
 2515SOL    HW219179   2.772   4.233   9.470  0.5966  0.7021  1.5574
 2516SOL     OW19180   4.293   1.318   5.584 -0.2224 -0.4490 -0.0389
 2516SOL    HW119181   4.341   1.341   5.664 -0.0053 -0.5341 -0.1470
 2516SOL    HW219182   4.203   1.339   5.611  0.1290 -0.3066  1.0220
 2517SOL     OW19183   4.088   0.735   5.688  0.8177 -0.1917 -0.4133
 2517SOL    HW119184   4.105   0.657   5.635 -0.4392  0.8765 -2.3761
 2517SOL    HW219185   4.033   0.690   5.752 -0.0055 -0.1353 -1.0833
 2518SOL     OW19186   4.628   1.992   3.806  0.2548 -0.3845 -0.1600
 2518SOL    HW119187   4.692   2.027   3.869 -1.6026  0.9015  1.0214
 2518SOL    HW219188   4.620   1.902   3.836  0.5815  0.5086  2.6194
 2519SOL     OW19189   2.719   2.450   8.420  0.2090 -0.4429  0.1879
 2519SOL    HW119190   2.742   2.392   8.347 -1.4566  0.0960 -0.7761
 2519SOL    HW219191   2.624   2.456   8.409 -0.0898 -2.8039  1.3423
 2520SOL     OW19192   2.464   0.356   5.513 -0.4375  0.1744  0.6740
 2520SOL    HW119193   2.502   0.291   5.573  2.9655  0.4138 -1.2696
 2520SOL    HW219194   2.375   0.330   5.537  0.2967 -0.8595  2.3503
 2521SOL     OW19195   1.512   1.819   8.959  0.1466  0.0005 -0.0394
 2521SOL    HW119196   1.481   1.763   8.888 -0.9424 -1.4305  1.5789
 2521SOL    HW219197   1.429   1.822   9.006 -0.2495  0.4997 -0.7744
 2522SOL     OW19198   2.957   0.860   5.814 -0.3724  0.5288 -0.4102
 2522SOL    HW119199   2.971   0.953   5.830  1.8110 -0.3109  2.5330
 2522SOL    HW219200   3.024   0.838   5.749  0.3737  0.5569  0.3546
 2523SOL     OW19201   3.306   4.500   6.571 -0.2719 -0.6116  0.9046
 2523SOL    HW119202   3.374   4.433   6.569  1.7024  1.4509 -0.8682
 2523SOL    HW219203   3.330   4.546   6.491 -1.5144 -0.8442  0.3984
 2524SOL     OW19204   0.240   4.181   3.545 -0.1450  0.4410  0.4508
 2524SOL    HW119205   0.274   4.155   3.631 -1.2725  1.6028  1.2653
 2524SOL    HW219206   0.147   4.179   3.566 -0.3947 -1.7926 -0.8687
 2525SOL     OW19207   0.843   0.630  12.440 -0.1339  0.2294  0.0850
 2525SOL    HW119208   0.883   0.706  12.397  1.6125 -0.9262 -0.3196
 2525SOL    HW219209   0.755   0.667  12.446 -0.8305 -1.4231  0.1112
 2526SOL     OW19210   1.544   0.726   9.088  0.0209  0.0463  0.3163
 2526SOL    HW119211   1.498   0.749   9.007  0.4775  0.4176  0.1622
 2526SOL    HW219212   1.548   0.630   9.084 -1.6818  0.0227 -0.9099
 2527SOL     OW19213   3.703   2.508   0.209  0.0468 -0.3557  0.8047
 2527SOL    HW119214   3.790   2.467   0.215  0.7715  0.7587 -1.8054
 2527SOL    HW219215   3.689   2.500   0.115  1.0194 -1.4779  0.7492
 2528SOL     OW19216   0.997   4.608   2.468  0.1732 -0.2615 -0.8667
 2528SOL    HW119217   0.949   4.588   2.387 -0.7101 -2.5459  0.2207
 2528SOL    HW219218   0.934   4.608   2.539  1.5524  1.1776  0.3448
 2529SOL     OW19219   1.703   0.887   3.927 -0.0334  0.1203  0.2959
 2529SOL    HW119220   1.751   0.820   3.977  1.2293 -0.3491 -1.5424
 2529SOL    HW219221   1.767   0.953   3.900 -1.2384  1.0066 -0.3991
 2530SOL     OW19222   0.170   4.436  12.603 -0.0123 -0.1859  0.2528
 2530SOL    HW119223   0.094   4.470  12.555  0.4331 -0.7199 -0.8386
 2530SOL    HW219224   0.180   4.349  12.565  2.1916  0.1692  0.0493
 2531SOL     OW19225   0.686   3.427   8.049 -0.0391  0.2161 -0.2577
 2531SOL    HW119226   0.712   3.376   8.126  0.0706 -0.3288 -0.6653
 2531SOL    HW219227   0.755   3.493   8.044 -1.8103  2.3187  2.6810
 2532SOL     OW19228   1.215   0.881   7.465 -0.7742 -0.2243  0.0842
 2532SOL    HW119229   1.167   0.805   7.431  0.7949 -1.2145  0.0488
 2532SOL    HW219230   1.150   0.952   7.460 -0.1999  0.2589 -0.6561
 2533SOL     OW19231   0.342   4.345  10.737  0.2514  0.2182  0.1831
 2533SOL    HW119232   0.338   4.428  10.784  1.9610  0.0889  0.5241
 2533SOL    HW219233   0.425   4.350  10.691 -0.3146  0.3382 -0.8349
 2534SOL     OW19234   2.363   2.997  10.353  0.2535 -0.2002  0.4483
 2534SOL    HW119235   2.284   3.040  10.388  0.5611 -1.3868  2.6078
 2534SOL    HW219236   2.423   3.059  10.313  2.0735 -0.7228  2.3225
 2535SOL     OW19237   1.562   3.260   5.244 -0.2998  0.6208  0.1376
 2535SOL    HW119238   1.470   3.274   5.223 -1.1903 -1.0490  2.9068
 2535SOL    HW219239   1.605   3.343   5.220 -0.8282  0.5189 -1.1305
 2536SOL     OW19240   0.584   1.405   6.369  0.0636  0.1159 -0.0285
 2536SOL    HW119241   0.593   1.499   6.385 -0.3967 -0.3108  2.7598
 2536SOL    HW219242   0.641   1.381   6.296  1.9469 -0.6749  1.6955
 2537SOL     OW19243   1.020   1.251   5.711  0.2137 -0.3678  0.5619
 2537SOL    HW119244   1.051   1.330   5.667 -0.1116 -1.3084 -1.3463
 2537SOL    HW219245   0.945   1.273   5.766 -0.1054  1.8723 -0.7719
 2538SOL     OW19246   0.151   2.698   5.176 -0.5366  0.7278  0.0847
 2538SOL    HW119247   0.060   2.707   5.148 -0.5547 -1.2021 -0.4618
 2538SOL    HW219248   0.199   2.741   5.106 -0.0094  1.6709  1.0289
 2539SOL     OW19249   1.489   0.121   4.713 -0.5653  0.6280  0.1038
 2539SOL    HW119250   1.527   0.123   4.625 -0.3198 -0.6666  0.1869
 2539SOL    HW219251   1.409   0.070   4.707  0.8316 -1.5556  0.0083
 2540SOL     OW19252   3.831   1.743   1.727  0.4137 -0.5315  0.6914
 2540SOL    HW119253   3.848   1.710   1.815 -1.7312 -2.4935  0.3468
 2540SOL    HW219254   3.921   1.741   1.694 -0.0110  0.0421 -0.4966
 2541SOL     OW19255   2.049   3.408   5.024  0.0682 -0.2312 -0.0434
 2541SOL    HW119256   2.027   3.333   4.970 -1.8448  1.1627 -1.1861
 2541SOL    HW219257   2.041   3.485   4.968 -0.7257  0.0512  0.4564
 2542SOL     OW19258   4.489   2.016  16.987  0.3690  0.1285 -0.1856
 2542SOL    HW119259   4.455   2.035  16.899 -0.2556  0.6828  0.1757
 2542SOL    HW219260   4.550   2.090  16.997  0.9776 -0.6847  2.1033
 2543SOL     OW19261   1.017   2.700  13.307  1.2181 -0.1123 -0.1509
 2543SOL    HW119262   1.083   2.636  13.279  1.8161 -0.0577  1.1423
 2543SOL    HW219263   1.065   2.741  13.379  0.5933 -1.7006  1.1720
 2544SOL     OW19264   2.120   1.558   1.523  0.1775 -0.6629 -0.2233
 2544SOL    HW119265   2.111   1.638   1.574  0.0178 -1.1379  0.4875
 2544SOL    HW219266   2.118   1.486   1.585  0.1923  0.0758  0.6357
 2545SOL     OW19267   0.452   2.741   3.382 -0.5609  0.1077  0.1239
 2545SOL    HW119268   0.454   2.835   3.365  0.2908 -0.5142 -3.0544
 2545SOL    HW219269   0.480   2.716   3.294 -2.3061 -0.5785 -0.2247
 2546SOL     OW19270   3.085   2.970   1.062 -0.2665  0.5046  0.4604
 2546SOL    HW119271   2.998   3.004   1.083  0.5827  1.7751  1.9653
 2546SOL    HW219272   3.134   3.038   1.016 -0.5745  1.3214  1.3262
 2547SOL     OW19273   2.943   3.485   3.694 -0.5448 -0.2873  0.4201
 2547SOL    HW119274   2.902   3.520   3.773  0.3560 -0.2202  0.8551
 2547SOL    HW219275   2.878   3.495   3.624 -0.1204 -0.0574  0.0566
 2548SOL     OW19276   1.265   0.044   3.887  0.0842  0.4207 -0.7916
 2548SOL    HW119277   1.350   0.085   3.902 -1.4496  3.5573 -0.7051
 2548SOL    HW219278   1.222   0.115   3.839  3.0813  1.9656 -1.2208
 2549SOL     OW19279   0.846   2.000  13.059  0.5588 -0.1162  0.3483
 2549SOL    HW119280   0.940   2.014  13.044  0.9393 -2.9069  0.1093
 2549SOL    HW219281   0.832   2.004  13.153  1.2533 -0.5126  0.4720
 2550SOL     OW19282   0.055   2.505  10.007  0.0107 -0.3002 -0.7875
 2550SOL    HW119283   0.093   2.590  10.030 -1.2310  0.0915 -0.2283
 2550SOL    HW219284   0.018   2.519   9.920  0.3948 -0.2350 -0.9429
 2551SOL     OW19285   2.235   2.726  10.411 -0.0588  0.4779 -0.9533
 2551SOL    HW119286   2.216   2.759  10.499  0.8896 -1.5316 -0.0008
 2551SOL    HW219287   2.146   2.732  10.375  0.0033  2.7488 -0.7191
 2552SOL     OW19288   0.014   1.524  12.001  0.6670 -0.2746  0.0322
 2552SOL    HW119289   4.666   1.560  12.002  1.5913  1.9741  2.0339
 2552SOL    HW219290   4.734   1.466  11.927  2.5973  1.7480 -2.0835
 2553SOL     OW19291   1.332   3.983   4.482  0.0989  0.0769  0.7487
 2553SOL    HW119292   1.380   4.063   4.459 -2.2392  1.6906  1.5655
 2553SOL    HW219293   1.349   3.938   4.399 -0.2186  0.1070  0.6698
 2554SOL     OW19294   0.688   3.386   7.525 -0.0337  0.5274  0.0874
 2554SOL    HW119295   0.647   3.397   7.439  1.8941  1.5004 -0.7139
 2554SOL    HW219296   0.616   3.349   7.576  0.4153  0.2339  0.5137
 2555SOL     OW19297   1.679   0.384   3.866  0.5286  0.0542 -0.1626
 2555SOL    HW119298   1.636   0.468   3.882  1.2322 -0.0204  2.1666
 2555SOL    HW219299   1.720   0.402   3.782  0.8040 -0.4946 -0.1430
 2556SOL     OW19300   0.959   1.178   0.716  0.3110 -0.1808 -0.1839
 2556SOL    HW119301   1.051   1.197   0.700  0.0464  3.1477  2.3388
 2556SOL    HW219302   0.943   1.107   0.653 -1.1951  0.5457 -0.6208
 2557SOL     OW19303   0.674   0.075   9.956  0.1716 -0.5727 -0.1868
 2557SOL    HW119304   0.757   0.033   9.976  1.0036  1.9213  1.6152
 2557SOL    HW219305   0.709   0.128   9.885  2.2414 -1.6364  0.0612
 2558SOL     OW19306   1.566   4.051   6.087  0.2673  0.3005  0.2874
 2558SOL    HW119307   1.628   3.991   6.045 -1.1423 -1.4325  0.6499
 2558SOL    HW219308   1.546   3.998   6.164  0.0209 -0.5284 -0.3376
 2559SOL     OW19309   3.901   2.058   4.625  0.3194 -0.8078  0.6823
 2559SOL    HW119310   3.902   2.037   4.532  0.4131  1.1868  0.2234
 2559SOL    HW219311   3.887   2.152   4.615  0.2887 -1.1661 -2.6503
 2560SOL     OW19312   2.610   2.945   1.876 -0.0145  0.3889  0.2182
 2560SOL    HW119313   2.546   3.016   1.880 -2.3560 -1.7603  1.4214
 2560SOL    HW219314   2.686   2.999   1.853  0.0797 -0.0129 -0.3997
 2561SOL     OW19315   1.241   0.724   5.289  0.1092  0.2320  0.2508
 2561SOL    HW119316   1.170   0.784   5.312 -0.8710 -0.8885  0.1439
 2561SOL    HW219317   1.300   0.784   5.244  0.7280 -0.9231 -0.4844
 2562SOL     OW19318   1.514   3.966   2.447 -0.0536 -0.0917 -0.5332
 2562SOL    HW119319   1.528   3.897   2.512 -1.4320  0.3213  0.2079
 2562SOL    HW219320   1.448   4.022   2.488 -0.5420 -1.4579  0.5497
 2563SOL     OW19321   1.460   1.401   1.916 -0.1340 -0.1594  0.1560
 2563SOL    HW119322   1.364   1.394   1.922 -0.2633  1.4295 -0.1277
 2563SOL    HW219323   1.486   1.316   1.950  1.7691 -0.0665 -1.0664
 2564SOL     OW19324   3.633   4.152   6.412  0.3295  0.2122  0.4014
 2564SOL    HW119325   3.677   4.172   6.494  1.7769 -1.4049  0.0285
 2564SOL    HW219326   3.643   4.057   6.403 -0.3924  0.3271 -1.7156
 2565SOL     OW19327   3.332   2.972   7.914  0.0749 -0.0052  0.3986
 2565SOL    HW119328   3.420   2.940   7.932 -0.7452 -2.7966 -0.4611
 2565SOL    HW219329   3.311   2.937   7.827  0.3717  0.0985  0.2870
 2566SOL     OW19330   1.126   4.512   3.045 -0.2964 -0.8213  0.0250
 2566SOL    HW119331   1.056   4.453   3.074 -1.6856 -0.5134 -2.6534
 2566SOL    HW219332   1.076   4.571   2.989  0.8327 -2.6098 -2.8218
 2567SOL     OW19333   3.431   3.891  11.468 -0.1809 -0.5330  0.3861
 2567SOL    HW119334   3.354   3.907  11.522 -1.4992  0.5457 -1.8210
 2567SOL    HW219335   3.440   3.979  11.432 -0.3211 -0.3156  0.8884
 2568SOL     OW19336   2.887   0.636  16.080  0.1003 -0.4284 -0.4183
 2568SOL    HW119337   2.940   0.679  16.012 -2.1624 -0.4897 -2.2241
 2568SOL    HW219338   2.831   0.579  16.028 -0.8389  1.5222 -1.5486
 2569SOL     OW19339   3.968   3.418   2.005 -0.0848 -0.0001 -0.3469
 2569SOL    HW119340   4.020   3.377   1.936  1.5388 -0.2232  1.0386
 2569SOL    HW219341   3.997   3.366   2.080 -1.1595  1.5326  1.1406
 2570SOL     OW19342   1.283   3.822   8.315  0.1924  0.0107 -0.0462
 2570SOL    HW119343   1.371   3.825   8.276  0.1104  0.3071 -0.2130
 2570SOL    HW219344   1.318   3.809   8.403  0.5256 -0.8939 -0.3072
 2571SOL     OW19345   2.080   3.983   2.481 -0.5863  0.0491  0.9481
 2571SOL    HW119346   2.156   4.011   2.430 -0.7575  1.7590  1.6474
 2571SOL    HW219347   2.031   3.920   2.428 -2.4732  2.1854  0.1469
 2572SOL     OW19348   1.613   1.656   9.311 -0.4085 -0.0886  0.0831
 2572SOL    HW119349   1.566   1.572   9.303 -0.0540 -0.0994 -1.8296
 2572SOL    HW219350   1.686   1.640   9.252  0.6832 -0.9282  1.6459
 2573SOL     OW19351   3.321   3.798   4.923 -0.5980 -0.0231 -0.8140
 2573SOL    HW119352   3.235   3.838   4.934 -0.2858  0.9266 -1.8029
 2573SOL    HW219353   3.311   3.707   4.892 -2.2962  0.7130 -2.4461
 2574SOL     OW19354   1.192   3.112   7.436 -0.0947  0.1093  0.8277
 2574SOL    HW119355   1.223   3.173   7.369  1.8144 -3.3114 -1.3898
 2574SOL    HW219356   1.238   3.146   7.514 -0.5332  3.4938 -0.3940
 2575SOL     OW19357   0.983   1.647   7.683 -0.1823 -0.1127  0.0876
 2575SOL    HW119358   0.904   1.672   7.730 -1.1374 -2.4211 -0.2929
 2575SOL    HW219359   0.974   1.710   7.611 -1.7789 -0.0615  0.3315
 2576SOL     OW19360   0.869   4.280   4.026  0.2782  0.0321 -0.1497
 2576SOL    HW119361   0.779   4.248   4.036  0.1150 -0.1407 -2.1720
 2576SOL    HW219362   0.920   4.203   4.053 -1.2144 -0.6089  0.8391
 2577SOL     OW19363   1.209   4.009   5.281 -1.0448 -0.1652  0.5834
 2577SOL    HW119364   1.239   4.090   5.322 -0.8599  0.2476 -0.3706
 2577SOL    HW219365   1.121   4.028   5.249 -0.8829  0.2747  0.4118
 2578SOL     OW19366   3.512   0.884  12.310  0.6260 -0.2389 -0.3285
 2578SOL    HW119367   3.441   0.947  12.316  0.5310 -0.4985  1.1605
 2578SOL    HW219368   3.587   0.928  12.348  0.3833 -0.0848 -0.0267
 2579SOL     OW19369   0.512   4.664   2.344  0.0094  0.3316 -0.2561
 2579SOL    HW119370   0.456   4.648   2.420 -1.6420  0.7265 -1.3960
 2579SOL    HW219371   0.495   4.582   2.299  0.4159  0.0071  0.1760
 2580SOL     OW19372   3.486   3.927   5.080 -0.2129 -0.0188  0.3682
 2580SOL    HW119373   3.422   3.865   5.044 -0.2517  0.2325  0.0110
 2580SOL    HW219374   3.487   3.894   5.170 -0.0463  0.2895  0.4797
 2581SOL     OW19375   1.355   2.149  17.055  0.0284  0.0610 -0.1044
 2581SOL    HW119376   1.289   2.122  17.120  0.9086 -1.5358  0.1319
 2581SOL    HW219377   1.314   2.201  16.987 -0.7758 -0.6222 -0.1368
 2582SOL     OW19378   2.260   0.137  11.360 -0.1263  0.2581 -0.2198
 2582SOL    HW119379   2.295   0.049  11.349  0.6302  0.5154  0.1284
 2582SOL    HW219380   2.310   0.182  11.292 -4.7436  1.6118 -2.7527
 2583SOL     OW19381   1.804   1.706  16.231  0.8551  0.6364  0.3138
 2583SOL    HW119382   1.866   1.668  16.168 -0.7134 -1.1475 -0.1160
 2583SOL    HW219383   1.853   1.680  16.309 -0.9930  1.6615  1.7889
 2584SOL     OW19384   1.999   1.473   8.582  0.0060 -0.3247  0.1005
 2584SOL    HW119385   1.953   1.556   8.595  1.8550  0.8092 -0.6033
 2584SOL    HW219386   2.090   1.502   8.579 -0.5961  1.7313  2.4620
 2585SOL     OW19387   2.284   4.565  12.856 -0.3090  0.2865 -0.2995
 2585SOL    HW119388   2.299   4.490  12.913 -1.1266  0.8907  0.7029
 2585SOL    HW219389   2.224   4.617  12.909  0.9598  0.4670  0.9570
 2586SOL     OW19390   3.254   0.770   5.113 -0.5023  0.1724  0.1754
 2586SOL    HW119391   3.164   0.784   5.144 -0.2758  2.1716 -0.0594
 2586SOL    HW219392   3.260   0.828   5.037 -0.1644  0.8834  0.7473
 2587SOL     OW19393   3.685   3.841   6.735  0.1492  0.5507  0.5335
 2587SOL    HW119394   3.731   3.919   6.704 -0.4367  0.7396  0.1434
 2587SOL    HW219395   3.728   3.778   6.677 -0.3669 -1.3305  2.1828
 2588SOL     OW19396   2.025   1.525  11.982  0.2166 -0.5180 -0.0527
 2588SOL    HW119397   1.974   1.596  11.944 -0.4239 -1.0837 -0.2451
 2588SOL    HW219398   2.025   1.549  12.075  2.9318 -0.5489 -0.0514
 2589SOL     OW19399   4.650   2.242  17.032  0.4791  0.2350  0.1942
 2589SOL    HW119400   4.728   2.275  16.988  0.5296  1.3834  1.1587
 2589SOL    HW219401   4.668   2.269  17.122 -0.0930 -0.8887  0.6436
 2590SOL     OW19402   2.374   2.928   8.940  0.1952  0.2564 -0.1282
 2590SOL    HW119403   2.283   2.917   8.911  0.8600  0.1014 -2.1498
 2590SOL    HW219404   2.377   3.023   8.934  2.3794  0.3610  2.3122
 2591SOL     OW19405   3.140   2.998   6.097 -0.0273 -0.6977  0.4578
 2591SOL    HW119406   3.181   3.050   6.028  2.5699 -1.8954  1.1221
 2591SOL    HW219407   3.056   3.043   6.109  0.7103  0.0945  2.7996
 2592SOL     OW19408   4.588   2.850   3.247  0.1813  0.6132 -0.3363
 2592SOL    HW119409   4.651   2.873   3.178  1.3541 -0.8009  0.2621
 2592SOL    HW219410   4.586   2.935   3.291 -1.3536  0.4022  0.0008
 2593SOL     OW19411   1.770   3.168   5.564 -0.2839 -0.1854  0.2399
 2593SOL    HW119412   1.806   3.175   5.653 -0.5195 -1.4708  0.4252
 2593SOL    HW219413   1.711   3.242   5.578  2.0503  1.7528 -0.0332
 2594SOL     OW19414   2.829   0.589   6.799 -0.2013 -0.1837  0.0285
 2594SOL    HW119415   2.813   0.613   6.890 -1.1522  0.1447 -0.2277
 2594SOL    HW219416   2.922   0.610   6.803 -0.1151 -0.4642 -0.4351
 2595SOL     OW19417   3.054   3.086   2.277  0.0140 -0.1397 -0.3316
 2595SOL    HW119418   3.063   3.007   2.223  1.1930 -0.5536  0.4746
 2595SOL    HW219419   3.122   3.143   2.242  1.2212 -1.5339 -0.2634
 2596SOL     OW19420   0.872   0.391   2.193 -0.3312 -0.5204 -0.2871
 2596SOL    HW119421   0.873   0.347   2.277  3.4095  1.7940  0.8576
 2596SOL    HW219422   0.790   0.438   2.206  0.7712  0.6629  2.2712
 2597SOL     OW19423   3.244   3.229  14.887  0.1107  0.2450  0.1528
 2597SOL    HW119424   3.283   3.210  14.972  2.2461 -0.4692 -0.9982
 2597SOL    HW219425   3.257   3.143  14.846 -1.9816 -0.7037  1.4951
 2598SOL     OW19426   3.318   2.495  14.716  0.1192  0.1131 -0.3694
 2598SOL    HW119427   3.317   2.401  14.696 -0.1004  0.1855 -0.6984
 2598SOL    HW219428   3.243   2.534  14.671 -0.0974  0.6276  0.4244
 2599SOL     OW19429   2.666   1.410  17.028 -0.2604  0.0388 -0.0681
 2599SOL    HW119430   2.708   1.414  16.942  1.3316  0.2175  0.7252
 2599SOL    HW219431   2.744   1.400  17.083 -1.1439 -0.9672  1.0089
 2600SOL     OW19432   1.676   0.847   1.870  0.4441 -0.4710 -0.2376
 2600SOL    HW119433   1.728   0.923   1.895 -0.0679  0.1941 -1.1876
 2600SOL    HW219434   1.695   0.795   1.947  0.8904 -0.7208 -0.5200
 2601SOL     OW19435   1.403   3.378   7.677 -0.8104  0.1655 -0.3165
 2601SOL    HW119436   1.319   3.380   7.632 -0.3912 -1.2715 -1.1921
 2601SOL    HW219437   1.442   3.457   7.639  3.3557 -0.9387  1.6491
 2602SOL     OW19438   1.358   0.526   5.111  0.2169  0.1742 -0.0812
 2602SOL    HW119439   1.354   0.594   5.178  1.8771  1.1638 -0.9856
 2602SOL    HW219440   1.330   0.455   5.168 -0.9563  0.8606  0.2193
 2603SOL     OW19441   4.137   4.520  17.454 -0.4504  0.1015 -0.3818
 2603SOL    HW119442   4.107   4.436  17.487  0.4898  0.9619  2.6522
 2603SOL    HW219443   4.065   4.552  17.399 -0.7650 -1.1845 -0.7188
 2604SOL     OW19444   2.355   1.294  10.213 -0.3974 -0.1808 -0.3187
 2604SOL    HW119445   2.441   1.327  10.235 -0.5413  0.1352 -0.2358
 2604SOL    HW219446   2.310   1.373  10.243  0.0747  0.4486 -1.2865
 2605SOL     OW19447   2.284   0.457  15.602 -0.1091  0.4811  0.0390
 2605SOL    HW119448   2.228   0.384  15.628 -1.2531  1.5579  0.5671
 2605SOL    HW219449   2.226   0.533  15.611  1.4208  1.6669 -0.0423
 2606SOL     OW19450   2.585   1.712   3.659  0.3368 -0.2486  0.2235
 2606SOL    HW119451   2.539   1.796   3.663 -1.3275 -1.2291  1.5095
 2606SOL    HW219452   2.660   1.721   3.717  1.2497  1.4312 -1.1965
 2607SOL     OW19453   0.623   3.855   6.415  0.5766  0.1884 -0.0675
 2607SOL    HW119454   0.536   3.861   6.453  1.1237  2.1351  0.9071
 2607SOL    HW219455   0.617   3.773   6.366  0.5125 -0.0456  0.3329
 2608SOL     OW19456   4.618   3.872   2.359  0.5019  0.2071 -0.1273
 2608SOL    HW119457   4.675   3.934   2.404 -0.3767  1.9301 -1.4144
 2608SOL    HW219458   4.676   3.839   2.290 -2.0009 -1.3771 -1.4394
 2609SOL     OW19459   2.595   3.916   6.341 -0.4175 -0.5955  0.4920
 2609SOL    HW119460   2.552   3.894   6.424 -2.0670  1.6147  0.2157
 2609SOL    HW219461   2.521   3.947   6.289 -0.9717  0.0148  1.6656
 2610SOL     OW19462   1.809   1.899   4.487  0.4541 -0.2451 -0.0312
 2610SOL    HW119463   1.763   1.863   4.563 -0.3126  0.8396  0.0073
 2610SOL    HW219464   1.757   1.975   4.461  0.1477 -1.0622 -1.7522
 2611SOL     OW19465   2.529   2.496  11.744 -0.4062 -0.1483  0.1261
 2611SOL    HW119466   2.467   2.538  11.684  0.0429 -0.6476 -0.6925
 2611SOL    HW219467   2.476   2.485  11.822 -1.7897 -1.3607 -1.0025
 2612SOL     OW19468   4.194   0.002   1.674 -0.2736  0.0305  0.4713
 2612SOL    HW119469   4.136   0.068   1.714 -1.1618 -0.7643  0.5035
 2612SOL    HW219470   4.205   4.682   1.748  1.2574 -1.6159 -1.0845
 2613SOL     OW19471   2.035   0.991   4.188 -0.2903 -0.1404 -0.0655
 2613SOL    HW119472   1.945   0.991   4.221 -0.1960 -0.0712  0.1919
 2613SOL    HW219473   2.095   1.002   4.261 -1.6794 -2.0350  1.3514
 2614SOL     OW19474   2.416   1.170   8.386 -0.6501  0.0850 -0.3970
 2614SOL    HW119475   2.495   1.115   8.386 -0.1534  0.7876  1.4683
 2614SOL    HW219476   2.455   1.253   8.414  1.2123 -0.1446 -2.2455
 2615SOL     OW19477   0.539   0.178   8.058  0.4176 -0.0385 -0.2282
 2615SOL    HW119478   0.620   0.163   8.107  0.4662 -1.1549 -0.6473
 2615SOL    HW219479   0.491   0.097   8.040  1.0130 -0.5855  0.6920
 2616SOL     OW19480   3.011   4.400   5.773  0.3685 -0.0110  0.0802
 2616SOL    HW119481   2.970   4.458   5.838  2.0565  0.8129  0.4142
 2616SOL    HW219482   3.098   4.439   5.779 -0.4443  2.0320 -1.2462
 2617SOL     OW19483   4.032   1.373   8.658 -0.1084 -0.0454  0.2058
 2617SOL    HW119484   3.946   1.372   8.617  0.1232 -0.8073 -0.2493
 2617SOL    HW219485   4.060   1.448   8.604  0.8891 -0.7205 -0.2127
 2618SOL     OW19486   1.486   1.048   8.257 -0.2439 -0.0275  0.0117
 2618SOL    HW119487   1.566   1.051   8.311  1.1816  1.9772 -2.2543
 2618SOL    HW219488   1.531   1.014   8.180  2.6585 -3.4143  3.1543
 2619SOL     OW19489   1.564   2.208   4.117 -0.0218  0.2180 -0.3343
 2619SOL    HW119490   1.617   2.220   4.038  0.3424  0.5933 -0.0339
 2619SOL    HW219491   1.492   2.175   4.064 -0.7684  1.4993 -0.0870
 2620SOL     OW19492   0.254   0.727  12.223 -0.1563 -0.3592 -0.2457
 2620SOL    HW119493   0.347   0.730  12.200 -0.8523 -0.8509 -3.0688
 2620SOL    HW219494   0.234   0.814  12.258  0.3991  0.6830 -2.5302
 2621SOL     OW19495   4.647   4.619   2.602 -0.3840 -0.6188  0.0752
 2621SOL    HW119496   4.624   4.540   2.552  0.9790 -0.2978 -1.0688
 2621SOL    HW219497   4.573   4.675   2.582  1.9616  2.2576 -0.5092
 2622SOL     OW19498   3.002   2.062   2.881 -0.2196  0.2811  0.1140
 2622SOL    HW119499   3.016   2.126   2.950  1.4000 -0.5132  0.5256
 2622SOL    HW219500   3.093   2.037   2.868 -0.1599  1.6684 -2.1755
 2623SOL     OW19501   4.659   4.390  12.428  0.1845  0.1142 -0.4651
 2623SOL    HW119502   4.631   4.363  12.340 -3.1411  0.9172  0.3579
 2623SOL    HW219503   4.735   4.333  12.441 -1.7185 -2.1169  0.9290
 2624SOL     OW19504   1.144   0.284   3.792  0.4749  0.1811 -0.1376
 2624SOL    HW119505   1.058   0.292   3.835  0.9005 -0.8988  0.9094
 2624SOL    HW219506   1.166   0.367   3.749  0.9515  1.0297  1.7131
 2625SOL     OW19507   0.863   1.420   5.513  0.1783 -0.2272 -0.2051
 2625SOL    HW119508   0.839   1.506   5.547 -0.8622 -0.9588  0.8848
 2625SOL    HW219509   0.955   1.432   5.537  0.1989  0.3226 -0.5488
 2626SOL     OW19510   4.530   4.252   2.178  0.2394  0.6279  0.2472
 2626SOL    HW119511   4.489   4.236   2.093  2.7270 -0.1736 -0.7967
 2626SOL    HW219512   4.489   4.337   2.190 -3.7315 -1.3166  0.3383
 2627SOL     OW19513   2.009   3.303  11.180  0.5026  0.2226  0.3988
 2627SOL    HW119514   2.055   3.351  11.250  0.8986 -1.4688  1.3131
 2627SOL    HW219515   1.987   3.225  11.231 -2.4422  2.0317  1.9013
 2628SOL     OW19516   3.609   0.449   5.393  0.4483  0.9091  0.0063
 2628SOL    HW119517   3.523   0.409   5.378  0.8557  0.6349 -1.5269
 2628SOL    HW219518   3.666   0.391   5.343 -2.3600 -1.7837 -0.0791
 2629SOL     OW19519   0.406   4.527   9.962  0.5012 -0.0636 -0.6838
 2629SOL    HW119520   0.407   4.554   9.870 -3.2748  0.7275 -0.4744
 2629SOL    HW219521   0.394   4.610  10.008 -1.6753 -0.6242 -0.2721
 2630SOL     OW19522   0.753   4.381   9.025  0.4663  0.3417 -0.0319
 2630SOL    HW119523   0.674   4.330   9.005  0.9035  0.1395 -1.2145
 2630SOL    HW219524   0.736   4.447   8.958  0.5703 -0.0859 -0.4818
 2631SOL     OW19525   4.034   1.999  14.349  0.8289 -0.2895  0.3680
 2631SOL    HW119526   4.054   2.090  14.373 -1.1436 -0.6130  3.2474
 2631SOL    HW219527   3.941   2.008  14.330  0.4386  1.2173  2.9279
 2632SOL     OW19528   3.433   1.415   1.745 -0.1583  0.3521 -0.5542
 2632SOL    HW119529   3.378   1.427   1.822  4.0824  1.6452  2.2919
 2632SOL    HW219530   3.478   1.332   1.759 -0.4692 -0.0193 -1.7310
 2633SOL     OW19531   1.224   2.283  16.868 -0.2944 -0.3852  0.0932
 2633SOL    HW119532   1.241   2.211  16.807  0.5221  0.9914 -1.2933
 2633SOL    HW219533   1.256   2.353  16.812  1.6389 -0.6026  0.9295
 2634SOL     OW19534   1.147   1.369   8.140  0.3402  0.6518 -0.0421
 2634SOL    HW119535   1.194   1.307   8.196 -0.3900 -0.7392 -0.9793
 2634SOL    HW219536   1.097   1.307   8.087  1.9665  0.0635 -0.9140
 2635SOL     OW19537   4.160   1.696   1.226 -0.0689 -0.5900  0.6760
 2635SOL    HW119538   4.083   1.746   1.252  0.5170  0.3603  0.5716
 2635SOL    HW219539   4.218   1.718   1.299  0.7613 -5.2850  1.4305
 2636SOL     OW19540   3.110   1.158   5.457 -0.0884  0.8835  0.0128
 2636SOL    HW119541   3.155   1.234   5.419 -0.7733  1.0754 -0.4097
 2636SOL    HW219542   3.168   1.142   5.531 -0.2804  1.4010  0.2724
 2637SOL     OW19543   4.398   0.225   5.236 -0.5491  0.3939 -0.8448
 2637SOL    HW119544   4.488   0.200   5.257 -0.3737 -1.1322 -3.3808
 2637SOL    HW219545   4.407   0.313   5.198 -1.0076  0.8207  0.0287
 2638SOL     OW19546   4.674   0.756   9.648  0.5187  0.7156 -0.4906
 2638SOL    HW119547   4.731   0.701   9.702 -0.8424  0.1398  0.3529
 2638SOL    HW219548   4.615   0.688   9.618  1.6805 -0.4716 -0.1167
 2639SOL     OW19549   3.713   0.612   5.137  0.6862  0.2147  0.2706
 2639SOL    HW119550   3.692   0.630   5.045 -2.3070  3.2419  1.5412
 2639SOL    HW219551   3.740   0.520   5.134  1.5450  0.4583  0.6869
 2640SOL     OW19552   2.430   1.653   9.699 -0.4695  0.2008 -1.0170
 2640SOL    HW119553   2.497   1.597   9.660  0.4682 -1.8309  3.5785
 2640SOL    HW219554   2.490   1.707   9.751 -0.8545  0.9872 -1.3877
 2641SOL     OW19555   2.058   3.276   2.400 -0.5395 -0.4917  0.0322
 2641SOL    HW119556   1.972   3.310   2.378 -0.7559 -0.8990  0.2434
 2641SOL    HW219557   2.065   3.296   2.493  0.1338  1.4289 -0.4316
 2642SOL     OW19558   3.961   2.921  15.300 -0.2120  0.0841  0.1420
 2642SOL    HW119559   3.887   2.956  15.350 -0.3004  1.3559 -0.8678
 2642SOL    HW219560   3.918   2.855  15.247 -0.4587  0.3075  0.0619
 2643SOL     OW19561   1.569   1.827   2.530 -0.3255  0.6375 -0.0774
 2643SOL    HW119562   1.500   1.760   2.536 -3.0861  3.4338 -0.5167
 2643SOL    HW219563   1.534   1.886   2.598  0.9445  0.0693  1.0686
 2644SOL     OW19564   3.022   1.748   8.745  0.0625  0.4125  0.3469
 2644SOL    HW119565   3.002   1.696   8.823 -0.8797 -0.2875 -0.3646
 2644SOL    HW219566   3.061   1.828   8.781  0.5262 -0.1065  0.9997
 2645SOL     OW19567   2.877   0.153   5.700 -0.2600  0.3305 -0.4008
 2645SOL    HW119568   2.827   0.078   5.666  0.1555 -0.6878  1.2365
 2645SOL    HW219569   2.810   0.220   5.685 -0.2743  0.4059 -0.0088
 2646SOL     OW19570   2.109   3.590   2.392 -0.3524  0.5222  0.5712
 2646SOL    HW119571   2.020   3.553   2.393 -0.6486  1.2837  1.7760
 2646SOL    HW219572   2.090   3.679   2.364 -0.2953  0.4803  0.3966
 2647SOL     OW19573   0.226   2.433   9.084  0.4165 -0.1010 -0.0218
 2647SOL    HW119574   0.295   2.420   9.150  0.6191 -0.2271 -0.2563
 2647SOL    HW219575   0.267   2.476   9.009  2.1456 -0.6247  0.6148
 2648SOL     OW19576   1.520   1.096  10.127 -0.0182 -0.2712 -0.3186
 2648SOL    HW119577   1.584   1.139  10.071 -1.3959  4.4974  1.7804
 2648SOL    HW219578   1.472   1.038  10.069 -1.3703  0.7610 -0.2304
 2649SOL     OW19579   4.087   3.647   3.446  0.5781 -0.5290  0.0849
 2649SOL    HW119580   4.173   3.690   3.450  0.8954 -1.2063  0.8276
 2649SOL    HW219581   4.102   3.569   3.392 -1.8264  0.8282 -2.5020
 2650SOL     OW19582   3.288   1.125   2.829  0.0320  0.0720 -0.5913
 2650SOL    HW119583   3.247   1.193   2.775  2.2026  0.6503 -1.5132
 2650SOL    HW219584   3.287   1.060   2.759 -1.6628  0.2227 -0.7094
 2651SOL     OW19585   2.257   4.228  10.938  0.2129 -0.4356  0.1013
 2651SOL    HW119586   2.249   4.324  10.935  3.7550 -0.2290 -1.5328
 2651SOL    HW219587   2.261   4.215  11.033  0.8463  0.9707  0.2609
 2652SOL     OW19588   0.862   4.505  12.810  0.1035 -0.5576  0.0521
 2652SOL    HW119589   0.812   4.568  12.757  0.8945  0.2978  0.3313
 2652SOL    HW219590   0.940   4.493  12.757  0.9309  3.7166  0.3110
 2653SOL     OW19591   0.317   2.321  11.225 -0.2488  0.0898 -0.0916
 2653SOL    HW119592   0.335   2.398  11.280  1.9985  0.0194 -0.7255
 2653SOL    HW219593   0.381   2.261  11.263  0.8304 -0.0611 -2.1715
 2654SOL     OW19594   0.020   4.196   2.846  0.2505  0.4173 -0.2725
 2654SOL    HW119595   0.090   4.239   2.894 -0.0954  2.7484 -1.8515
 2654SOL    HW219596   0.063   4.212   2.762  2.9217  0.8594  1.1749
 2655SOL     OW19597   1.604   0.274   5.483  0.1116 -0.0556  0.1990
 2655SOL    HW119598   1.640   0.362   5.471 -0.6485 -0.0489 -1.9773
 2655SOL    HW219599   1.521   0.293   5.438 -0.4168 -3.8783 -0.4537
 2656SOL     OW19600   1.076   0.157   5.825  0.1374 -0.0658  0.0052
 2656SOL    HW119601   1.086   0.252   5.816  0.1254  0.1738  2.6031
 2656SOL    HW219602   0.980   0.148   5.819  0.3374 -2.0101 -0.1507
 2657SOL     OW19603   2.691   2.160  14.484 -0.1989 -0.1034  0.1098
 2657SOL    HW119604   2.763   2.104  14.456  0.4204  0.6486  0.1979
 2657SOL    HW219605   2.715   2.180  14.575 -2.5196 -0.0155  0.6888
 2658SOL     OW19606   4.231   1.935   6.360  0.1696 -0.4093  0.1360
 2658SOL    HW119607   4.243   1.844   6.386  0.5503 -0.5241 -0.4554
 2658SOL    HW219608   4.305   1.955   6.417  0.2559  1.1413 -0.5191
 2659SOL     OW19609   3.795   2.934   0.457  0.1323  0.1817  0.5545
 2659SOL    HW119610   3.784   2.972   0.369  1.7518 -1.7571 -0.4980
 2659SOL    HW219611   3.815   3.013   0.509 -0.4266  0.3569  0.5004
 2660SOL     OW19612   0.877   2.655  10.552 -0.4249  0.1415  0.1792
 2660SOL    HW119613   0.919   2.585  10.502 -1.7087  0.7183 -1.6886
 2660SOL    HW219614   0.941   2.724  10.535 -0.1508  0.5359  2.8073
 2661SOL     OW19615   4.477   4.493   5.012 -0.0396  0.0094 -0.0076
 2661SOL    HW119616   4.554   4.446   5.045 -1.0673 -2.6257 -1.2873
 2661SOL    HW219617   4.407   4.472   5.072 -2.4086  1.4980 -2.2609
 2662SOL     OW19618   3.978   2.945   7.155 -0.1587 -0.3406 -0.4140
 2662SOL    HW119619   3.940   2.975   7.073 -2.4806  0.3857  0.9084
 2662SOL    HW219620   4.017   3.024   7.192  0.3592 -0.7075 -0.1837
 2663SOL     OW19621   0.929   2.498   2.418 -0.0704  0.5881  0.2882
 2663SOL    HW119622   0.970   2.569   2.368  2.6422 -0.8019  0.5178
 2663SOL    HW219623   0.921   2.543   2.502  0.9985  2.8752 -0.8079
 2664SOL     OW19624   0.106   1.590  10.986 -0.5895 -0.2083  0.1994
 2664SOL    HW119625   0.146   1.503  10.990 -1.7196 -0.8404 -2.0666
 2664SOL    HW219626   0.164   1.633  10.924  0.1218 -0.1127  0.9238
 2665SOL     OW19627   3.049   1.413   7.060 -0.2993 -0.1278  0.0400
 2665SOL    HW119628   2.992   1.478   7.019  0.7504  0.7722  0.0175
 2665SOL    HW219629   3.090   1.456   7.135 -1.4756 -0.5758  0.9306
 2666SOL     OW19630   1.259   0.073   5.201 -0.1141  0.3403  0.1277
 2666SOL    HW119631   1.203   0.042   5.272 -2.3487  2.1504 -0.8180
 2666SOL    HW219632   1.305   4.731   5.187  0.0436  0.3891  0.3519
 2667SOL     OW19633   3.217   0.452   6.638  0.0482 -0.2173 -0.3960
 2667SOL    HW119634   3.223   0.414   6.550 -1.7270 -0.3389 -0.4736
 2667SOL    HW219635   3.306   0.487   6.636  0.0112 -0.0968  0.0280
 2668SOL     OW19636   4.532   4.661   6.373 -0.5380 -0.3489 -0.6582
 2668SOL    HW119637   4.518   4.567   6.384  1.6608 -0.5600  0.3835
 2668SOL    HW219638   4.450   4.694   6.337 -1.3979 -2.1349 -0.2875
 2669SOL     OW19639   0.466   4.156   9.687  0.1664 -0.1808  0.1895
 2669SOL    HW119640   0.555   4.163   9.721  0.2787 -1.5681  0.1548
 2669SOL    HW219641   0.407   4.147   9.762  1.9312  1.3682  1.7327
 2670SOL     OW19642   4.246   2.804   1.240  0.2075 -0.3771  0.0199
 2670SOL    HW119643   4.170   2.747   1.242 -1.2481  1.5081 -1.3790
 2670SOL    HW219644   4.324   2.748   1.242  0.2832 -0.3259 -2.2564
 2671SOL     OW19645   0.320   2.174   6.371  0.0947 -0.3475  0.0851
 2671SOL    HW119646   0.386   2.149   6.436 -0.5805 -2.0330  0.1126
 2671SOL    HW219647   0.290   2.261   6.398 -0.8289 -0.8940  0.8103
 2672SOL     OW19648   2.361   0.464  14.453 -0.2281 -0.2990 -0.1495
 2672SOL    HW119649   2.373   0.559  14.447 -2.1799 -0.1523 -1.8154
 2672SOL    HW219650   2.307   0.457  14.532  0.8388  0.0042  0.6130
 2673SOL     OW19651   1.098   4.399   9.174  0.3503 -0.2540  0.4958
 2673SOL    HW119652   1.061   4.323   9.218  0.3561  0.6078  1.9636
 2673SOL    HW219653   1.145   4.428   9.252  0.6451 -0.4669  0.3996
 2674SOL     OW19654   2.467   2.891   5.203  0.1390 -0.2778 -0.0391
 2674SOL    HW119655   2.411   2.903   5.280 -0.7014 -2.1170 -0.3681
 2674SOL    HW219656   2.555   2.890   5.242  0.0094  1.1396  0.2655
 2675SOL     OW19657   3.676   3.207   1.656  0.2718  0.0506 -0.2937
 2675SOL    HW119658   3.708   3.280   1.710 -1.9932 -0.0159  1.1458
 2675SOL    HW219659   3.583   3.199   1.676  0.1686  1.0162 -0.3894
 2676SOL     OW19660   0.403   3.358   7.320  0.4701  0.7499  0.6179
 2676SOL    HW119661   0.323   3.381   7.272  0.3698 -2.2795 -0.6491
 2676SOL    HW219662   0.456   3.438   7.312  1.1548  0.2377 -0.0277
 2677SOL     OW19663   4.703   1.903  16.184  0.2261 -0.0478 -0.0373
 2677SOL    HW119664   4.675   1.960  16.113 -0.8983 -0.3976  0.1189
 2677SOL    HW219665   4.619   1.867  16.214 -0.0781 -0.8292 -1.7892
 2678SOL     OW19666   4.409   1.008   6.319 -0.1483  0.1610  0.5284
 2678SOL    HW119667   4.379   0.944   6.384  0.0831 -0.4226  0.0543
 2678SOL    HW219668   4.329   1.057   6.301  1.1729  1.8278 -0.7706
 2679SOL     OW19669   4.319   4.723   5.337 -0.1439 -0.0212 -0.1907
 2679SOL    HW119670   4.238   0.006   5.292  0.0562 -0.4420 -0.7792
 2679SOL    HW219671   4.379   0.048   5.300 -1.4239  0.6877 -1.0298
 2680SOL     OW19672   1.543   4.416   2.441  0.4518  0.0448  0.1314
 2680SOL    HW119673   1.540   4.344   2.504  2.0955 -0.8723 -0.8280
 2680SOL    HW219674   1.480   4.482   2.472 -1.2948 -0.9266 -1.3763
 2681SOL     OW19675   3.266   1.722   1.597  0.5103 -0.2680  0.2541
 2681SOL    HW119676   3.206   1.763   1.659 -1.8770 -1.1645 -1.4603
 2681SOL    HW219677   3.337   1.718   1.661  2.0283  2.6797 -1.2438
 2682SOL     OW19678   0.357   4.207  12.833 -0.7350  0.1559 -0.1938
 2682SOL    HW119679   0.336   4.218  12.926 -0.6785  2.7986 -0.4974
 2682SOL    HW219680   0.306   4.130  12.807  0.1105 -0.5859  0.3629
 2683SOL     OW19681   0.873   2.381  16.430  0.0174 -0.4037  0.4320
 2683SOL    HW119682   0.808   2.311  16.424  1.9113 -1.9858 -1.7598
 2683SOL    HW219683   0.890   2.387  16.336  1.2762 -2.0044  0.5616
 2684SOL     OW19684   3.752   2.765  14.855 -0.0844  0.5035 -0.1801
 2684SOL    HW119685   3.801   2.690  14.821  0.0452  0.8929 -0.8622
 2684SOL    HW219686   3.660   2.748  14.837  0.0044 -0.0078 -0.1722
 2685SOL     OW19687   0.398   1.917   5.412  0.3670 -0.5104  0.0385
 2685SOL    HW119688   0.478   1.969   5.403 -0.0947 -0.3147 -2.8640
 2685SOL    HW219689   0.358   1.969   5.482 -0.8013  0.4591 -1.3562
 2686SOL     OW19690   1.292   2.587   0.239 -0.5320 -0.4406  0.4007
 2686SOL    HW119691   1.253   2.646   0.175  0.3840 -2.0931 -1.6677
 2686SOL    HW219692   1.300   2.647   0.314 -0.3903 -1.0957  0.9098
 2687SOL     OW19693   4.454   2.415  11.271  0.4059 -0.0390 -0.4196
 2687SOL    HW119694   4.455   2.480  11.201 -1.6944  1.1366  0.6428
 2687SOL    HW219695   4.363   2.386  11.274  0.1045  0.7440 -2.2772
 2688SOL     OW19696   1.416   3.723   2.668  0.5497 -0.2785  0.2843
 2688SOL    HW119697   1.351   3.694   2.604 -0.1409 -1.2806  1.4470
 2688SOL    HW219698   1.366   3.705   2.748  1.9118  0.7692  1.3679
 2689SOL     OW19699   0.792   3.213   6.810 -0.1760  0.6179  0.4104
 2689SOL    HW119700   0.748   3.294   6.837 -0.1038  1.1479 -1.0429
 2689SOL    HW219701   0.717   3.170   6.770  0.3608  1.6578 -1.7563
 2690SOL     OW19702   4.110   0.423  11.379  0.1798  0.9948 -0.2979
 2690SOL    HW119703   4.155   0.417  11.295 -1.0982 -0.6506 -0.8570
 2690SOL    HW219704   4.117   0.336  11.417  0.4552  1.1125 -0.0721
 2691SOL     OW19705   1.058   1.997   3.601  0.3982  0.0399 -0.1710
 2691SOL    HW119706   0.975   2.040   3.623 -0.0354 -1.0713  0.3801
 2691SOL    HW219707   1.055   1.994   3.505 -0.6451 -1.7853 -0.0735
 2692SOL     OW19708   1.475   0.177   2.667  0.5717  0.3087  0.2730
 2692SOL    HW119709   1.382   0.180   2.689  0.6249  0.1554  0.5125
 2692SOL    HW219710   1.504   0.227   2.743 -1.4008 -1.3527  2.1018
 2693SOL     OW19711   4.556   1.038  12.593 -0.0256 -0.3748  0.1102
 2693SOL    HW119712   4.484   1.035  12.656 -0.7682  0.8757 -0.6788
 2693SOL    HW219713   4.632   1.010  12.645  0.3242  0.7948  0.2326
 2694SOL     OW19714   4.704   2.642  14.650  0.2852 -0.1855 -0.2984
 2694SOL    HW119715   4.650   2.584  14.704 -0.3905  2.3113  1.7044
 2694SOL    HW219716   4.643   2.696  14.599 -0.1547 -0.3757  0.0220
 2695SOL     OW19717   0.228   0.002   5.447 -0.1466  0.5541 -0.0854
 2695SOL    HW119718   0.260   4.670   5.393  0.8860  2.2243 -1.7152
 2695SOL    HW219719   0.140   4.735   5.410 -0.4152  0.2746  0.6257
 2696SOL     OW19720   4.703   0.932   4.356 -0.8262 -0.2169 -0.0461
 2696SOL    HW119721   4.678   1.017   4.318 -2.9665 -0.1610  1.4609
 2696SOL    HW219722   4.646   0.876   4.303 -0.4485 -1.4286  0.8438
 2697SOL     OW19723   3.416   3.464   4.385  0.6560 -0.1515 -0.2872
 2697SOL    HW119724   3.388   3.413   4.309  0.9512  0.6860 -0.9718
 2697SOL    HW219725   3.447   3.540   4.334  3.0650  0.7297  2.4750
 2698SOL     OW19726   1.213   4.217   3.246  0.1104  0.3375  0.1065
 2698SOL    HW119727   1.169   4.174   3.173 -0.4358  1.3854 -0.1926
 2698SOL    HW219728   1.174   4.305   3.246 -0.8007 -0.0688 -0.1680
 2699SOL     OW19729   1.329   3.270  17.410 -0.4434 -0.0411 -0.9197
 2699SOL    HW119730   1.330   3.359  17.374 -0.8097  0.1489 -0.4444
 2699SOL    HW219731   1.291   3.219  17.338 -1.0372 -1.3792  0.3462
 2700SOL     OW19732   1.285   1.234   6.014 -0.0095  0.6233  0.4178
 2700SOL    HW119733   1.203   1.262   6.055 -0.0010  1.0447  0.1449
 2700SOL    HW219734   1.308   1.158   6.068 -0.6164  0.9477  1.1341
 2701SOL     OW19735   0.302   1.972   3.063  0.1380  0.0167 -0.3371
 2701SOL    HW119736   0.218   2.009   3.034  0.3648 -0.4982 -1.6344
 2701SOL    HW219737   0.368   2.039   3.044  0.3021  0.0095  0.2058
 2702SOL     OW19738   0.952   2.459   4.842 -0.2246 -0.1637  0.0881
 2702SOL    HW119739   1.042   2.442   4.868  0.0002  1.6452  0.4665
 2702SOL    HW219740   0.949   2.411   4.759  2.1985 -0.8426  0.3943
 2703SOL     OW19741   1.008   0.192   3.081 -0.0991  0.2988  0.2791
 2703SOL    HW119742   1.069   0.173   3.010 -1.8801 -0.0500 -1.1638
 2703SOL    HW219743   0.928   0.227   3.042  0.0142 -1.0051 -1.1132
 2704SOL     OW19744   1.164   0.307   0.729 -0.3156 -0.3500  0.2546
 2704SOL    HW119745   1.106   0.377   0.760 -0.0128  0.3361 -0.6986
 2704SOL    HW219746   1.128   0.228   0.769 -4.0423  1.4283  0.4355
 2705SOL     OW19747   0.239   4.063   4.509 -0.4514  0.2782  0.2843
 2705SOL    HW119748   0.242   4.004   4.584 -4.3329  1.6171  1.5145
 2705SOL    HW219749   0.311   4.027   4.457 -1.4162  0.2062 -0.9932
 2706SOL     OW19750   2.191   4.459  12.325 -0.0465 -0.1612  0.0573
 2706SOL    HW119751   2.221   4.476  12.414 -1.4599 -1.6814  0.7905
 2706SOL    HW219752   2.152   4.544  12.305  0.6331 -0.0844 -0.9795
 2707SOL     OW19753   3.414   2.999   7.428  0.6901  0.0217 -0.0934
 2707SOL    HW119754   3.366   2.919   7.407  1.1819  0.2413 -2.0129
 2707SOL    HW219755   3.469   2.993   7.350  0.0922 -3.8140 -0.2300
 2708SOL     OW19756   1.546   3.959   4.245 -0.4770  0.2488  0.2483
 2708SOL    HW119757   1.576   3.872   4.272 -1.3865  0.4893  2.0534
 2708SOL    HW219758   1.622   4.005   4.211 -0.3459  0.2189  0.5043
 2709SOL     OW19759   4.374   2.573  14.808 -0.6935 -0.0923  0.4108
 2709SOL    HW119760   4.423   2.517  14.749  0.8910  2.2858 -0.5390
 2709SOL    HW219761   4.370   2.515  14.884  0.0219 -0.9652 -0.2188
 2710SOL     OW19762   0.852   2.731   9.133  0.9019  0.2669  0.5753
 2710SOL    HW119763   0.928   2.689   9.172 -0.7466 -3.4527 -0.2529
 2710SOL    HW219764   0.887   2.820   9.125 -0.1039  0.6825  0.6772
 2711SOL     OW19765   2.255   4.366   9.413  0.4861  0.1762 -0.0691
 2711SOL    HW119766   2.287   4.394   9.327 -0.8093  0.2808 -0.5247
 2711SOL    HW219767   2.332   4.327   9.453  1.5082  0.4519 -1.7602
 2712SOL     OW19768   3.671   4.444   5.302 -0.3958  0.3544  0.4755
 2712SOL    HW119769   3.695   4.537   5.295 -1.2716  0.6021  0.7589
 2712SOL    HW219770   3.751   4.393   5.286 -1.0986  0.5978 -3.8019
 2713SOL     OW19771   2.162   0.480  10.029 -0.2966  0.4567  0.4307
 2713SOL    HW119772   2.129   0.432   9.953  1.4008 -0.2179  0.1241
 2713SOL    HW219773   2.254   0.468  10.007 -0.7323  0.9700 -1.6785
 2714SOL     OW19774   2.375   3.374  13.369 -0.3101 -0.1650  0.3395
 2714SOL    HW119775   2.355   3.442  13.304  1.1243 -1.7145 -1.6833
 2714SOL    HW219776   2.287   3.341  13.385 -1.5324  2.3386 -1.0714
 2715SOL     OW19777   2.424   4.316   7.320 -0.0001 -0.2724  0.2181
 2715SOL    HW119778   2.372   4.276   7.389 -1.3328  2.5584  0.8470
 2715SOL    HW219779   2.399   4.409   7.324  1.4955  0.1611 -0.3187
 2716SOL     OW19780   4.268   2.549   4.005 -0.2976 -0.3290 -0.1105
 2716SOL    HW119781   4.229   2.542   3.918  0.7286  1.2243 -0.6827
 2716SOL    HW219782   4.214   2.625   4.028 -0.2611 -0.9055  1.8634
 2717SOL     OW19783   3.579   1.045   7.974  0.0207 -0.0181  0.1019
 2717SOL    HW119784   3.666   1.012   7.995  0.2522 -0.2164 -1.1857
 2717SOL    HW219785   3.593   1.117   7.913 -0.3956 -0.7953 -0.8968
 2718SOL     OW19786   3.649   2.509   8.611 -0.7093  0.3420 -0.0375
 2718SOL    HW119787   3.559   2.530   8.635 -0.8478  0.6290 -0.8186
 2718SOL    HW219788   3.687   2.596   8.623 -2.1211  0.6656  2.1930
 2719SOL     OW19789   1.118   1.717   2.127  0.4807  0.3132  0.0476
 2719SOL    HW119790   1.116   1.637   2.179  0.2805 -0.1156 -0.6266
 2719SOL    HW219791   1.205   1.754   2.143 -0.3907  2.1977  0.3962
 2720SOL     OW19792   3.708   2.159   8.197 -0.2798  0.6372  0.4059
 2720SOL    HW119793   3.724   2.239   8.248 -1.8479  0.2561  1.5223
 2720SOL    HW219794   3.798   2.127   8.198 -0.6777 -0.4754 -0.1802
 2721SOL     OW19795   0.644   2.009   9.037  0.5002  0.6903  0.4589
 2721SOL    HW119796   0.576   1.971   9.093  1.2560 -1.2783  0.0396
 2721SOL    HW219797   0.656   2.099   9.065  2.0499  1.2577 -2.0431
 2722SOL     OW19798   2.849   3.566   7.990 -0.0039 -0.1189 -0.1571
 2722SOL    HW119799   2.791   3.642   7.997  1.1771  0.7655  0.2127
 2722SOL    HW219800   2.877   3.556   8.081 -0.1912 -0.4846 -0.1416
 2723SOL     OW19801   4.650   0.371  15.580  0.0243  0.0993  0.0125
 2723SOL    HW119802   4.724   0.369  15.519  0.3189  0.3721  0.3674
 2723SOL    HW219803   4.614   0.284  15.562 -0.6351  0.4251 -0.2505
 2724SOL     OW19804   1.462   3.065   3.215  0.0448 -0.1307 -0.5606
 2724SOL    HW119805   1.371   3.078   3.241 -1.4119 -3.1640 -4.0721
 2724SOL    HW219806   1.505   3.129   3.271 -0.2336  0.7742 -1.3749
 2725SOL     OW19807   0.498   2.981   4.834 -0.2787  0.4949 -0.1160
 2725SOL    HW119808   0.550   2.911   4.873  1.4602  1.6032 -0.4626
 2725SOL    HW219809   0.477   2.938   4.751  2.6768 -1.2930  0.0680
 2726SOL     OW19810   4.277   1.067   4.470  0.1424 -0.4526 -0.0341
 2726SOL    HW119811   4.303   0.994   4.414 -3.7341 -1.8465  0.0045
 2726SOL    HW219812   4.346   1.129   4.447 -0.6274  0.1727 -0.6697
 2727SOL     OW19813   1.584   3.975  14.268 -0.3875  0.6552 -0.2810
 2727SOL    HW119814   1.644   3.913  14.226 -1.7950 -0.8397 -0.1177
 2727SOL    HW219815   1.549   3.918  14.337  2.2642 -0.3010  0.2555
 2728SOL     OW19816   3.371   2.397   9.203 -0.8946  0.0368 -0.2154
 2728SOL    HW119817   3.416   2.345   9.136  1.6767 -1.9197  3.0343
 2728SOL    HW219818   3.283   2.359   9.198 -0.1501 -1.9520  1.7369
 2729SOL     OW19819   2.897   0.606  15.307 -0.3928  0.0249  0.2117
 2729SOL    HW119820   2.969   0.659  15.341 -1.4565  0.4978  1.7374
 2729SOL    HW219821   2.946   0.550  15.246 -1.1672 -0.0318 -0.3596
 2730SOL     OW19822   0.775   1.644   3.397 -0.6946  0.4978 -0.0627
 2730SOL    HW119823   0.786   1.722   3.451  1.9720  0.5513 -0.7177
 2730SOL    HW219824   0.844   1.668   3.335  0.7170 -1.1693  0.8735
 2731SOL     OW19825   2.341   1.846   4.175 -0.0567 -0.2829 -0.0301
 2731SOL    HW119826   2.248   1.866   4.186  0.1355  0.5923  0.0358
 2731SOL    HW219827   2.364   1.915   4.113  1.7342  0.3250  1.3140
 2732SOL     OW19828   4.486   3.836   6.922  0.3648 -0.2559 -0.7583
 2732SOL    HW119829   4.558   3.859   6.864  1.2877  0.2475  0.6064
 2732SOL    HW219830   4.435   3.917   6.919  0.0219 -0.4296  0.1144
 2733SOL     OW19831   3.226   4.501   5.433  0.4043  0.3185 -0.4461
 2733SOL    HW119832   3.310   4.534   5.464  0.9764 -1.4765 -0.0884
 2733SOL    HW219833   3.244   4.407   5.432 -1.8533 -0.0858 -2.6893
 2734SOL     OW19834   0.228   0.893  17.247 -0.1104  0.4141 -0.1764
 2734SOL    HW119835   0.169   0.874  17.174 -2.2762 -1.8743  2.1526
 2734SOL    HW219836   0.172   0.920  17.320  0.0362  0.4869 -0.0926
 2735SOL     OW19837   3.315   1.844  11.247  0.3173 -0.9192 -0.5596
 2735SOL    HW119838   3.344   1.918  11.194  0.5578 -0.8672 -0.3583
 2735SOL    HW219839   3.264   1.795  11.183  1.0083  1.3933 -2.8645
 2736SOL     OW19840   1.496   3.928  11.566 -0.3629 -1.0276 -0.6647
 2736SOL    HW119841   1.503   3.838  11.597  1.1730 -0.2295  1.3497
 2736SOL    HW219842   1.432   3.971  11.623  1.3882  1.5014 -0.5962
 2737SOL     OW19843   3.119   3.464   9.211  0.0646 -0.3325 -0.4242
 2737SOL    HW119844   3.183   3.491   9.145 -0.2920 -0.7170 -0.9277
 2737SOL    HW219845   3.098   3.548   9.252 -2.8334 -2.0346  1.6075
 2738SOL     OW19846   0.872   3.262  12.586 -0.7432 -0.2312  0.1407
 2738SOL    HW119847   0.856   3.319  12.661 -0.1821  0.7638 -0.5042
 2738SOL    HW219848   0.947   3.305  12.546 -0.7560 -0.9141 -0.6146
 2739SOL     OW19849   2.792   4.613   8.279  0.3738 -0.1439  0.0179
 2739SOL    HW119850   2.852   4.671   8.233  0.3280  0.2388  0.4483
 2739SOL    HW219851   2.834   4.528   8.266  0.0471 -0.4844  1.1457
 2740SOL     OW19852   1.050   2.953   0.573  0.2666  0.1356  0.1706
 2740SOL    HW119853   1.051   2.943   0.478 -0.7739 -0.0604  0.1739
 2740SOL    HW219854   1.124   2.898   0.596  0.3260 -0.2878 -1.0384
 2741SOL     OW19855   3.189   3.037   1.762 -1.0304  0.4299 -0.4848
 2741SOL    HW119856   3.165   3.117   1.808  0.2055 -0.7308  2.1463
 2741SOL    HW219857   3.284   3.033   1.767 -1.0949  2.2411  1.9388
 2742SOL     OW19858   3.967   0.339   6.966  0.2653  0.2798  0.0893
 2742SOL    HW119859   3.978   0.319   7.059 -0.5100 -0.0163  0.1136
 2742SOL    HW219860   3.968   0.435   6.971  2.1071  0.3233 -1.2681
 2743SOL     OW19861   2.146   2.399   4.662  0.8640  0.3700 -0.6174
 2743SOL    HW119862   2.064   2.354   4.641  0.4620 -0.8485  3.4959
 2743SOL    HW219863   2.135   2.418   4.755  2.2926  0.2960 -0.4330
 2744SOL     OW19864   0.274   0.130   0.155  0.3526  0.0108  0.5772
 2744SOL    HW119865   0.313   0.129   0.067 -1.7292 -1.0033 -0.3231
 2744SOL    HW219866   0.252   0.223   0.160 -1.0770 -0.3414  0.8091
 2745SOL     OW19867   3.490   0.394  15.350 -0.3313  0.7639  0.6431
 2745SOL    HW119868   3.548   0.435  15.414  2.5915 -1.1389 -0.8183
 2745SOL    HW219869   3.452   0.329  15.410 -2.3139  0.7252 -0.6407
 2746SOL     OW19870   0.916   0.445   7.933 -0.5161 -0.5239  0.4864
 2746SOL    HW119871   0.839   0.498   7.910  0.8261  1.6763  1.0466
 2746SOL    HW219872   0.938   0.388   7.859  0.8328 -0.4516  0.8383
 2747SOL     OW19873   0.058   0.686   2.158  0.0007  0.1641  0.2185
 2747SOL    HW119874   4.737   0.621   2.124 -0.5847  1.3401 -0.9536
 2747SOL    HW219875   0.013   0.771   2.156 -0.9850 -0.4526 -2.6156
 2748SOL     OW19876   2.149   1.917   7.131 -0.4757 -0.2689  0.5786
 2748SOL    HW119877   2.176   2.009   7.127 -1.1364 -0.0851  0.3639
 2748SOL    HW219878   2.058   1.926   7.106  0.3731  0.6211 -2.1533
 2749SOL     OW19879   0.311   4.127   9.947  0.1195  0.0464  0.1159
 2749SOL    HW119880   0.298   4.035   9.969 -2.2613 -0.0387 -1.6890
 2749SOL    HW219881   0.224   4.166   9.955  0.2986  0.4766 -0.0270
 2750SOL     OW19882   2.940   1.179  15.288 -0.3954  0.3104  0.1466
 2750SOL    HW119883   2.862   1.126  15.307 -0.4786 -0.9438 -3.6782
 2750SOL    HW219884   2.946   1.232  15.367  4.1179  1.6537 -1.1010
 2751SOL     OW19885   0.209   2.873   9.039 -0.2334  0.8806  0.6468
 2751SOL    HW119886   0.264   2.913   8.972  1.5233  0.3933  1.8265
 2751SOL    HW219887   0.122   2.863   8.999 -0.2493  1.4758  0.5229
 2752SOL     OW19888   1.935   2.830   6.526 -0.0761  0.7777 -0.3784
 2752SOL    HW119889   1.956   2.835   6.620 -0.5141  0.6146 -0.2727
 2752SOL    HW219890   1.866   2.764   6.519  0.5432  0.1799 -0.8239
 2753SOL     OW19891   1.252   1.836   0.457  0.2451  0.0410  0.1178
 2753SOL    HW119892   1.285   1.834   0.547 -0.4323  0.8475  0.3825
 2753SOL    HW219893   1.164   1.801   0.464 -0.2761  1.2480 -0.4443
 2754SOL     OW19894   2.308   0.097   2.552  0.1275  0.7373 -0.0453
 2754SOL    HW119895   2.384   0.055   2.513  0.2754  1.4520 -0.5289
 2754SOL    HW219896   2.270   0.026   2.604 -0.0265  0.4847 -0.5028
 2755SOL     OW19897   1.738   4.431   3.517  0.3266 -0.3805  0.1627
 2755SOL    HW119898   1.651   4.470   3.511  1.9461  3.1799 -0.2182
 2755SOL    HW219899   1.756   4.447   3.609  0.2046 -0.0630  0.1326
 2756SOL     OW19900   0.619   0.452   5.436  0.4812 -0.0880 -0.5495
 2756SOL    HW119901   0.587   0.491   5.518  0.0237 -2.1892  0.2492
 2756SOL    HW219902   0.685   0.394   5.473  0.8786  1.4053  1.1150
 2757SOL     OW19903   0.552   4.407   5.526  0.0201  0.0819 -0.1568
 2757SOL    HW119904   0.576   4.327   5.573  0.1192  1.2441  1.7807
 2757SOL    HW219905   0.464   4.419   5.560 -0.2164  0.5613 -0.9369
 2758SOL     OW19906   1.844   4.023   8.769 -0.1339  0.3349 -0.0049
 2758SOL    HW119907   1.853   3.965   8.693 -0.0800 -0.0911  0.3242
 2758SOL    HW219908   1.766   3.994   8.816 -1.0228 -0.2313 -1.8493
 2759SOL     OW19909   1.899   2.674   2.991 -0.1613 -0.3008 -0.2209
 2759SOL    HW119910   1.986   2.696   3.026 -0.9723 -0.7177  2.0433
 2759SOL    HW219911   1.857   2.760   2.998  0.1898 -0.4246  3.5635
 2760SOL     OW19912   3.386   2.922   8.287 -0.1112 -0.5050  0.6106
 2760SOL    HW119913   3.448   2.862   8.246 -0.8989 -0.0786 -1.1890
 2760SOL    HW219914   3.420   2.925   8.377 -0.1910  2.0869  0.5545
 2761SOL     OW19915   2.445   3.961   5.123  0.3205  0.3588  0.0149
 2761SOL    HW119916   2.490   4.016   5.187 -0.3457  1.9444 -0.8739
 2761SOL    HW219917   2.505   3.888   5.110 -2.0940 -1.5791 -0.1549
 2762SOL     OW19918   4.018   4.350   8.442 -0.0109 -0.0221  0.1207
 2762SOL    HW119919   3.933   4.384   8.470 -0.4728 -0.4402 -0.7654
 2762SOL    HW219920   4.009   4.257   8.465 -0.4287  0.1892  0.8128
 2763SOL     OW19921   1.152   3.984   7.486 -0.3186  0.9062 -0.4291
 2763SOL    HW119922   1.179   4.075   7.501 -2.7668  1.1257  2.8594
 2763SOL    HW219923   1.058   3.994   7.470 -0.0416 -0.4643 -2.8321
 2764SOL     OW19924   1.272   0.382   8.160 -0.4787  0.3706 -0.0846
 2764SOL    HW119925   1.194   0.344   8.200 -0.8669  1.0201 -0.2267
 2764SOL    HW219926   1.281   0.471   8.193  1.3248  0.1586  0.0020
 2765SOL     OW19927   3.967   2.218  11.897  0.1201 -0.3517  0.1474
 2765SOL    HW119928   3.918   2.239  11.976 -0.2089 -4.5650  1.0457
 2765SOL    HW219929   4.028   2.149  11.924  2.4399  0.9884 -1.6298
 2766SOL     OW19930   0.794   3.266  14.118  0.2721  0.1564  0.1724
 2766SOL    HW119931   0.724   3.224  14.067  0.9942  0.4516 -1.0444
 2766SOL    HW219932   0.771   3.357  14.097  3.3704  0.3442 -2.3900
 2767SOL     OW19933   0.740   2.147   2.310 -0.2117 -0.0410  0.1049
 2767SOL    HW119934   0.739   2.067   2.258 -0.4205 -1.2444  1.9247
 2767SOL    HW219935   0.836   2.149   2.315 -0.4147  2.6122  2.7105
 2768SOL     OW19936   1.046   0.794   7.642 -0.1051  0.0584 -0.0911
 2768SOL    HW119937   1.062   0.824   7.731 -1.6351  1.8023 -0.3976
 2768SOL    HW219938   1.127   0.827   7.602  0.6106  0.4473  1.6972
 2769SOL     OW19939   3.740   2.460  17.279 -0.5721  0.3140  0.4003
 2769SOL    HW119940   3.779   2.479  17.194  1.6109  3.6406  2.1391
 2769SOL    HW219941   3.664   2.411  17.249 -1.0494  0.2855  1.6571
 2770SOL     OW19942   2.241   2.862  16.311  0.1537  0.2077 -0.1427
 2770SOL    HW119943   2.255   2.770  16.333  1.0840  0.2382 -0.6192
 2770SOL    HW219944   2.290   2.890  16.389  0.1633  1.0567 -0.4591
 2771SOL     OW19945   2.791   0.077   9.561 -0.0782  0.1925 -0.2655
 2771SOL    HW119946   2.743   0.093   9.643  0.2948 -0.6186  0.1098
 2771SOL    HW219947   2.879   0.074   9.599 -1.0762  2.3469  2.2963
 2772SOL     OW19948   1.827   1.401  15.071  0.3039 -0.3375 -0.5146
 2772SOL    HW119949   1.921   1.421  15.066 -0.1909  3.3019  4.3300
 2772SOL    HW219950   1.803   1.459  14.998 -1.4431 -0.3471  0.0498
 2773SOL     OW19951   3.472   2.779   1.113 -0.3165  0.3057  0.0018
 2773SOL    HW119952   3.467   2.692   1.073 -3.7816 -0.3866  1.8875
 2773SOL    HW219953   3.541   2.819   1.061 -0.0940 -1.3154 -0.9485
 2774SOL     OW19954   4.693   3.246  14.713  0.2625 -0.6888 -0.0144
 2774SOL    HW119955   4.668   3.304  14.785 -0.1048  0.0498 -0.7404
 2774SOL    HW219956   4.696   3.309  14.641  1.9928 -0.5769  0.1532
 2775SOL     OW19957   1.279   0.461   6.863 -0.3030  0.3832  0.1404
 2775SOL    HW119958   1.343   0.461   6.792 -1.6475  0.5709 -1.0919
 2775SOL    HW219959   1.199   0.442   6.814 -1.0002 -0.1704  1.4952
 2776SOL     OW19960   2.324   4.395   7.569 -0.2843 -0.4319 -0.4105
 2776SOL    HW119961   2.397   4.451   7.594 -0.5066 -1.7555  3.2387
 2776SOL    HW219962   2.342   4.320   7.626 -2.6864  0.1141  1.0629
 2777SOL     OW19963   4.354   3.150   8.759  0.0045  0.4374  0.0357
 2777SOL    HW119964   4.383   3.062   8.732  3.1549  1.6434 -0.5542
 2777SOL    HW219965   4.396   3.154   8.845  0.8762  1.4943 -0.4358
 2778SOL     OW19966   3.867   3.844  17.708 -0.6246 -0.1017  0.3937
 2778SOL    HW119967   3.947   3.896  17.694 -2.8249  3.6171  1.6642
 2778SOL    HW219968   3.849   3.858   0.043  1.3841 -0.5277  0.8509
 2779SOL     OW19969   3.079   2.951   3.374  0.6356 -0.6317  0.1939
 2779SOL    HW119970   3.153   3.001   3.408 -1.7262  2.5839  0.6336
 2779SOL    HW219971   3.038   2.920   3.455 -1.4321 -0.7537 -0.8939
 2780SOL     OW19972   1.745   3.092   7.860 -0.1906 -0.3156 -0.4576
 2780SOL    HW119973   1.776   3.138   7.782 -0.2641 -0.7339 -0.7338
 2780SOL    HW219974   1.812   3.116   7.923  0.1286 -3.0892  0.2577
 2781SOL     OW19975   0.378   3.655  11.159  0.3439  0.1695  0.3661
 2781SOL    HW119976   0.407   3.581  11.212  1.3505  0.7185  0.5750
 2781SOL    HW219977   0.420   3.629  11.077 -0.2573  0.3497 -0.0002
 2782SOL     OW19978   2.932   1.917   6.995  0.3096  0.2350  0.0599
 2782SOL    HW119979   2.839   1.906   7.014 -0.1254  0.8131 -1.6636
 2782SOL    HW219980   2.950   1.826   6.972  1.3544  0.8884 -1.7270
 2783SOL     OW19981   4.551   1.709   2.576 -0.4194  0.1304  0.0352
 2783SOL    HW119982   4.579   1.624   2.541 -0.1068  0.0208  0.5312
 2783SOL    HW219983   4.619   1.764   2.537  1.8425 -1.8068  1.1640
 2784SOL     OW19984   3.170   0.873   3.685  0.0089 -0.1467  0.2682
 2784SOL    HW119985   3.199   0.943   3.626 -0.2627  0.7367  1.1971
 2784SOL    HW219986   3.221   0.801   3.648  1.2634  1.0784 -0.3934
 2785SOL     OW19987   1.594   0.830   6.823  0.2933 -1.0293  0.6053
 2785SOL    HW119988   1.568   0.867   6.907 -3.3443 -1.0754 -0.5204
 2785SOL    HW219989   1.686   0.857   6.813  0.8785 -2.3386  2.5008
 2786SOL     OW19990   3.498   0.156  13.862 -0.1733 -0.0560  0.2245
 2786SOL    HW119991   3.524   0.244  13.890 -0.1201 -0.5769  1.7899
 2786SOL    HW219992   3.434   0.125  13.926 -2.2996  0.2799 -1.7619
 2787SOL     OW19993   0.467   3.382   5.047 -0.5898 -0.1079 -0.2319
 2787SOL    HW119994   0.481   3.473   5.023 -1.4152 -0.4510 -2.0160
 2787SOL    HW219995   0.386   3.396   5.096  0.4317  1.1537  1.0521
 2788SOL     OW19996   3.278   4.311   3.984  0.7089 -0.1456  0.1031
 2788SOL    HW119997   3.370   4.331   4.000  0.0087  2.4289  0.9386
 2788SOL    HW219998   3.244   4.387   4.030  0.5084 -0.9840  1.3442
 2789SOL     OW19999   1.222   1.379   7.604  0.4563  0.6227 -0.4420
 2789SOL    HW120000   1.127   1.377   7.617  0.7588  1.5168  1.8825
 2789SOL    HW220001   1.237   1.470   7.630 -0.9186  0.6131  0.4050
 2790SOL     OW20002   1.764   3.773  17.220  0.2196  0.1871 -0.6279
 2790SOL    HW120003   1.826   3.832  17.178 -1.8360  2.1746 -0.8280
 2790SOL    HW220004   1.801   3.688  17.193  0.9026  0.6195 -1.0635
 2791SOL     OW20005   4.595   2.247   3.023 -0.7251 -0.3575  0.1884
 2791SOL    HW120006   4.672   2.194   3.045  0.0874  0.0251 -1.7264
 2791SOL    HW220007   4.591   2.224   2.930  2.2948  1.3381 -0.3410
 2792SOL     OW20008   0.563   4.727  12.791  0.2543 -0.4789 -0.1925
 2792SOL    HW120009   0.546   4.647  12.842 -2.1882 -0.9189 -1.7128
 2792SOL    HW220010   0.632   4.704  12.729  1.8939  0.1180  1.4183
 2793SOL     OW20011   0.955   3.405   3.231  0.2725 -0.2587 -0.4480
 2793SOL    HW120012   1.006   3.398   3.312  3.5110 -2.7282 -2.6968
 2793SOL    HW220013   0.870   3.429   3.269  0.2745 -0.9465 -0.0201
 2794SOL     OW20014   0.334   0.628   2.319  0.1416 -0.3207  0.3088
 2794SOL    HW120015   0.266   0.623   2.386  0.0373 -2.0940  0.0725
 2794SOL    HW220016   0.307   0.552   2.268 -0.5395 -0.1451  0.3987
 2795SOL     OW20017   3.829   2.496  17.029 -0.1332 -0.5935  0.1691
 2795SOL    HW120018   3.860   2.437  16.960  1.1205 -0.2674  0.4482
 2795SOL    HW220019   3.910   2.545  17.043  0.3962 -1.3945 -0.0411
 2796SOL     OW20020   2.852   0.933   4.703  0.1633  0.3568 -0.4969
 2796SOL    HW120021   2.835   0.864   4.639  3.6488  1.6401 -2.8230
 2796SOL    HW220022   2.785   0.922   4.770 -0.0376 -0.1806 -0.7800
 2797SOL     OW20023   0.486   1.207   5.701 -0.2094 -0.2769 -0.1415
 2797SOL    HW120024   0.475   1.213   5.796 -3.0249 -0.7922 -0.4456
 2797SOL    HW220025   0.433   1.282   5.675 -0.6972 -0.8739 -0.8506
 2798SOL     OW20026   2.417   3.747   6.122  0.0107  0.1622 -0.0183
 2798SOL    HW120027   2.431   3.689   6.197  2.7917  1.3943  0.4322
 2798SOL    HW220028   2.345   3.705   6.075 -1.3174  0.4074  1.8280
 2799SOL     OW20029   0.207   1.664   2.162  0.1691  0.6186  0.5934
 2799SOL    HW120030   0.123   1.622   2.143  0.6941  0.6931 -1.9443
 2799SOL    HW220031   0.268   1.592   2.178  0.4704  0.9110  0.7664
 2800SOL     OW20032   2.134   2.249   3.277 -0.1262 -0.1284  0.0100
 2800SOL    HW120033   2.083   2.170   3.294 -0.6511  0.1591 -0.2444
 2800SOL    HW220034   2.094   2.319   3.329  1.3052  1.0384 -0.4662
 2801SOL     OW20035   1.854   1.389  13.017  0.2042  0.0012 -0.1183
 2801SOL    HW120036   1.887   1.457  12.959 -2.3070  1.1358 -0.2255
 2801SOL    HW220037   1.896   1.424  13.095 -0.3727 -1.6504  0.9338
 2802SOL     OW20038   1.011   4.293   8.915 -0.1819 -0.2206  0.2341
 2802SOL    HW120039   1.044   4.312   9.003  0.8234  1.5971 -0.5309
 2802SOL    HW220040   0.918   4.312   8.923  0.1741  1.7392 -0.4008
 2803SOL     OW20041   0.263   0.521   8.773  0.3048  0.6763 -0.2045
 2803SOL    HW120042   0.182   0.571   8.764  0.0611  0.1342 -0.9893
 2803SOL    HW220043   0.262   0.496   8.866  2.9783 -0.9549 -0.6182
 2804SOL     OW20044   4.304   2.989   7.184  0.4173 -0.5747  0.2291
 2804SOL    HW120045   4.260   3.015   7.102  1.7707  1.6770  0.2119
 2804SOL    HW220046   4.316   3.075   7.224  2.1307 -1.6841  2.0166
 2805SOL     OW20047   1.510   4.421  16.630  0.5591  0.2169 -0.4708
 2805SOL    HW120048   1.436   4.449  16.683  0.2647 -0.5396 -0.4854
 2805SOL    HW220049   1.498   4.326  16.641  0.2062  0.3731  0.4772
 2806SOL     OW20050   1.838   2.460   6.027  0.7780  0.3273 -0.1008
 2806SOL    HW120051   1.801   2.395   5.967  0.1825  0.2537  0.3393
 2806SOL    HW220052   1.880   2.412   6.098 -1.2889 -1.6809 -0.2195
 2807SOL     OW20053   1.682   4.124   7.347 -0.0542 -0.5830  0.3860
 2807SOL    HW120054   1.684   4.132   7.442  1.3173 -3.0652  0.5680
 2807SOL    HW220055   1.756   4.069   7.320 -0.1817 -1.5462  1.9987
 2808SOL     OW20056   0.945   1.072  14.576  0.5350 -0.0137  0.6667
 2808SOL    HW120057   0.859   1.071  14.617 -0.2333  0.3994 -0.9659
 2808SOL    HW220058   0.991   1.079  14.660  1.7653  2.4667 -0.2203
 2809SOL     OW20059   3.722   4.433  13.233  0.6199 -0.0525 -0.3718
 2809SOL    HW120060   3.642   4.382  13.243  0.4793  0.1130 -0.6573
 2809SOL    HW220061   3.686   4.512  13.193  0.4797 -0.9520 -1.9898
 2810SOL     OW20062   2.215   1.017   7.145  0.7458 -0.0997 -0.2711
 2810SOL    HW120063   2.249   1.009   7.234 -3.7359 -0.9026  1.3671
 2810SOL    HW220064   2.149   0.947   7.147 -0.0299  0.6143 -0.5802
 2811SOL     OW20065   3.085   2.735   2.401  1.0891 -0.3415  0.4378
 2811SOL    HW120066   3.126   2.804   2.348  2.0047 -1.2217 -0.0067
 2811SOL    HW220067   3.042   2.785   2.471  1.4098  0.7912 -0.1654
 2812SOL     OW20068   1.020   1.287  11.823 -0.3736 -0.4904  0.3370
 2812SOL    HW120069   1.012   1.283  11.728 -2.2569  0.2517  0.4558
 2812SOL    HW220070   1.112   1.303  11.842 -0.4564 -0.5498  0.7980
 2813SOL     OW20071   2.715   0.550  16.263 -0.1450  0.5538 -0.5644
 2813SOL    HW120072   2.775   0.589  16.199  0.2820 -0.1037 -0.5563
 2813SOL    HW220073   2.759   0.470  16.290  0.1433  0.7809 -0.3566
 2814SOL     OW20074   4.100   0.044   6.972  0.0275  0.4622 -0.2950
 2814SOL    HW120075   4.118   0.109   6.904 -0.9459  0.8151 -0.2143
 2814SOL    HW220076   4.025   0.082   7.019 -0.5801 -2.0743  0.8122
 2815SOL     OW20077   1.888   1.926   8.092 -0.1154 -0.4879 -0.4482
 2815SOL    HW120078   1.918   1.875   8.017  1.1521  0.6333 -0.7006
 2815SOL    HW220079   1.966   1.939   8.146  0.1110  1.8149 -1.3227
 2816SOL     OW20080   1.155   3.558   2.180 -0.2400  0.0508  0.0258
 2816SOL    HW120081   1.240   3.520   2.201 -0.3244 -1.5566 -2.4681
 2816SOL    HW220082   1.182   3.626   2.117 -1.1819  1.6283  1.3364
 2817SOL     OW20083   1.074   4.364   3.862 -0.2802 -1.2313  0.7031
 2817SOL    HW120084   1.027   4.444   3.839 -0.2756 -1.9946 -1.9577
 2817SOL    HW220085   1.006   4.325   3.916 -0.3612 -1.8070  0.1933
 2818SOL     OW20086   2.689   2.360   4.548  0.0823 -0.6180 -0.0118
 2818SOL    HW120087   2.651   2.280   4.584 -0.0960  0.6905  2.6815
 2818SOL    HW220088   2.664   2.430   4.608  1.6747  0.7007 -0.8638
 2819SOL     OW20089   2.706   3.608   0.994 -0.2836  0.0532  0.4265
 2819SOL    HW120090   2.778   3.671   0.999 -1.2091  1.1557  0.0627
 2819SOL    HW220091   2.714   3.556   1.074  0.1018 -0.2094  0.2108
 2820SOL     OW20092   0.081   1.845   7.714 -0.2903 -0.3644  0.5840
 2820SOL    HW120093   4.727   1.833   7.731 -0.6500  0.3780 -0.8912
 2820SOL    HW220094   0.095   1.920   7.772 -2.7694  0.5028  0.0783
 2821SOL     OW20095   2.800   2.587   2.823 -0.2917 -0.1415 -0.3794
 2821SOL    HW120096   2.749   2.560   2.899 -0.3251  2.1267  0.3826
 2821SOL    HW220097   2.859   2.647   2.868  1.3810 -1.4057 -0.8610
 2822SOL     OW20098   2.405   4.460   0.662 -0.0182  0.2275 -0.3756
 2822SOL    HW120099   2.415   4.400   0.588  1.2424  1.9432 -1.5875
 2822SOL    HW220100   2.322   4.436   0.703 -0.1248  0.0053 -0.7269
 2823SOL     OW20101   0.358   1.069   1.906  0.5142  0.1758  0.5826
 2823SOL    HW120102   0.331   1.153   1.943 -1.3440 -1.0845  2.1177
 2823SOL    HW220103   0.403   1.096   1.826  0.2078  0.9592  0.6698
 2824SOL     OW20104   3.884   2.354   3.257 -0.1158  0.1483 -0.0102
 2824SOL    HW120105   3.896   2.346   3.352 -0.0279  1.3697  0.0743
 2824SOL    HW220106   3.957   2.414   3.243 -1.5976  2.0600  0.4195
 2825SOL     OW20107   1.768   0.018   6.601  0.7683  0.5823  0.0274
 2825SOL    HW120108   1.704   0.054   6.539  0.3033  3.1879  2.0358
 2825SOL    HW220109   1.707   4.735   6.671  1.8836  2.7586  1.7127
 2826SOL     OW20110   0.486   2.851   4.175 -0.3045 -0.1347 -0.1217
 2826SOL    HW120111   0.419   2.886   4.235  0.6556  1.0845  0.2586
 2826SOL    HW220112   0.473   2.757   4.169  0.6258 -0.1749 -1.4329
 2827SOL     OW20113   4.325   4.192  16.167 -0.5349  0.0164 -0.1797
 2827SOL    HW120114   4.305   4.144  16.087 -0.6328 -0.0574 -0.1117
 2827SOL    HW220115   4.255   4.258  16.168  2.1151  2.8097  2.3586
 2828SOL     OW20116   0.361   2.295   2.188  0.4116  0.3241  0.2198
 2828SOL    HW120117   0.372   2.232   2.259 -0.2730  0.3458  0.3409
 2828SOL    HW220118   0.405   2.247   2.119  0.3884 -2.4209  2.1411
 2829SOL     OW20119   2.833   1.202   4.724 -0.0232 -0.3565 -0.6205
 2829SOL    HW120120   2.928   1.194   4.717  0.0937  0.4902 -0.0215
 2829SOL    HW220121   2.819   1.108   4.731  1.5029 -0.6436 -1.3176
 2830SOL     OW20122   4.620   4.462   9.129 -0.3178  0.4141 -0.2018
 2830SOL    HW120123   4.622   4.515   9.050 -2.9867  0.9501  0.0887
 2830SOL    HW220124   4.642   4.532   9.191  0.9686  0.3892 -0.6326
 2831SOL     OW20125   1.451   4.432   6.039 -0.1384 -1.0156  0.0854
 2831SOL    HW120126   1.379   4.379   6.005 -1.4080  0.2960  0.7256
 2831SOL    HW220127   1.526   4.396   5.990  0.6464  0.6266  0.0967
 2832SOL     OW20128   0.517   3.727   8.065  0.1394  1.0364  0.2838
 2832SOL    HW120129   0.448   3.662   8.049 -0.4536  1.5509  0.7322
 2832SOL    HW220130   0.556   3.693   8.145 -1.3828 -1.1854  0.1040
 2833SOL     OW20131   3.033   1.670   1.195 -0.7346  0.1284 -0.3649
 2833SOL    HW120132   3.121   1.681   1.159 -1.4713 -0.3671 -2.2835
 2833SOL    HW220133   3.033   1.577   1.174 -0.6564 -0.1312  0.7653
 2834SOL     OW20134   1.984   2.148   8.617  0.1675 -0.0458 -0.0401
 2834SOL    HW120135   1.912   2.211   8.608  1.7692  1.6624 -0.7402
 2834SOL    HW220136   1.944   2.094   8.686 -0.8240  0.4181 -0.2445
 2835SOL     OW20137   1.176   0.791   9.122  0.4455  0.9128  0.6633
 2835SOL    HW120138   1.247   0.839   9.080  1.8033 -0.7053  1.0879
 2835SOL    HW220139   1.228   0.711   9.132  0.6117  0.9059 -0.3207
 2836SOL     OW20140   3.383   3.171   3.802  0.6349 -0.8070  0.4085
 2836SOL    HW120141   3.354   3.257   3.833 -1.1909 -0.6404 -1.7944
 2836SOL    HW220142   3.467   3.194   3.763 -0.0816  2.4492  0.7767
 2837SOL     OW20143   4.426   1.835   2.004 -0.0471 -0.6205 -0.1040
 2837SOL    HW120144   4.380   1.756   1.976 -0.1192 -0.7320  0.3343
 2837SOL    HW220145   4.355   1.897   1.988 -0.5621 -1.3867 -0.8447
 2838SOL     OW20146   4.422   2.430   1.918  0.2976 -0.1108  0.0327
 2838SOL    HW120147   4.358   2.487   1.960 -0.4805 -0.8219 -0.1779
 2838SOL    HW220148   4.494   2.431   1.980 -0.9483  1.9900  1.4584
 2839SOL     OW20149   0.974   4.022   9.931 -0.2103  0.6140 -0.1604
 2839SOL    HW120150   0.975   3.927   9.939 -1.1724  0.4534 -1.9838
 2839SOL    HW220151   0.993   4.046   9.840  0.0698 -1.4664 -0.6283
 2840SOL     OW20152   3.589   4.696   8.346 -0.2612  0.1897 -0.3351
 2840SOL    HW120153   3.502   4.734   8.338 -0.7810 -0.8146  0.5373
 2840SOL    HW220154   3.567   4.617   8.297  0.3304 -0.3026  0.1782
 2841SOL     OW20155   3.209   4.228   3.388  0.3752 -0.1378  0.4405
 2841SOL    HW120156   3.220   4.300   3.450 -3.2633  1.6658 -0.9665
 2841SOL    HW220157   3.127   4.185   3.415  1.5526 -2.8834 -0.3082
 2842SOL     OW20158   1.758   3.832   7.910 -0.5420  0.2619  0.1364
 2842SOL    HW120159   1.667   3.863   7.910 -0.6460 -0.0223 -0.7980
 2842SOL    HW220160   1.746   3.747   7.867  0.4371  0.9906 -1.5962
 2843SOL     OW20161   1.971   1.645   6.956 -0.0791 -0.5026  0.6094
 2843SOL    HW120162   1.919   1.657   7.035  0.4721  1.1017  0.7416
 2843SOL    HW220163   1.981   1.550   6.958 -0.6439 -0.5367  1.7718
 2844SOL     OW20164   3.796   0.002   5.831  0.1058 -0.1408  0.3938
 2844SOL    HW120165   3.874   0.048   5.799  0.7438 -1.3879  0.1627
 2844SOL    HW220166   3.731   0.051   5.781  0.2760 -0.2407  0.0781
 2845SOL     OW20167   0.041   4.139   9.664  0.0499  0.5786  0.6804
 2845SOL    HW120168   0.087   4.144   9.748 -1.2237 -0.3862  1.4268
 2845SOL    HW220169   0.095   4.073   9.620  1.0161  1.4291  0.6013
 2846SOL     OW20170   1.520   0.357  16.405 -0.1428 -0.0211 -0.2297
 2846SOL    HW120171   1.571   0.278  16.391 -1.0809 -1.1920  2.9106
 2846SOL    HW220172   1.581   0.408  16.458 -0.2228  0.6776 -0.8059
 2847SOL     OW20173   3.604   2.623   6.361  0.2921 -0.2207  0.2585
 2847SOL    HW120174   3.553   2.602   6.439  0.5754 -0.1012  0.4779
 2847SOL    HW220175   3.640   2.538   6.337 -1.2551 -1.3070  1.7920
 2848SOL     OW20176   4.101   2.866   1.003  0.0730  0.1643 -0.1209
 2848SOL    HW120177   4.008   2.846   0.993  0.2928 -0.6689 -0.5332
 2848SOL    HW220178   4.129   2.795   1.061 -1.2089 -0.0445  0.2525
 2849SOL     OW20179   0.194   2.714   6.700 -0.0181 -0.6236 -0.4576
 2849SOL    HW120180   0.244   2.651   6.753  0.8463 -0.7225 -1.3977
 2849SOL    HW220181   0.110   2.725   6.744  0.1190  1.2732 -0.6664
 2850SOL     OW20182   1.893   0.892   7.763 -0.1186  0.1059 -0.4581
 2850SOL    HW120183   1.849   0.821   7.715 -1.5870  1.0602 -0.5168
 2850SOL    HW220184   1.859   0.973   7.726 -1.2418  0.0757  0.4894
 2851SOL     OW20185   4.124   2.588  11.708  0.1565  0.0683  0.6564
 2851SOL    HW120186   4.094   2.498  11.693 -0.9278  1.0779 -3.2804
 2851SOL    HW220187   4.190   2.570  11.775  0.3140 -2.0259 -0.0639
 2852SOL     OW20188   0.540   3.871   1.935  0.2647  0.7115 -0.1716
 2852SOL    HW120189   0.608   3.808   1.913  1.7486  2.0282  0.6878
 2852SOL    HW220190   0.475   3.817   1.980 -1.3538  0.6167 -2.6409
 2853SOL     OW20191   2.039   3.609   4.847 -0.1495  0.3209 -0.5366
 2853SOL    HW120192   2.013   3.676   4.783 -1.0617 -0.4820 -1.0031
 2853SOL    HW220193   2.111   3.655   4.890  0.5639 -2.1514  0.8753
 2854SOL     OW20194   2.615   2.346  14.265 -0.1511 -0.0108 -0.3514
 2854SOL    HW120195   2.645   2.300  14.343 -0.3045  0.3662 -0.0713
 2854SOL    HW220196   2.677   2.306  14.204  0.2099  1.4269 -0.9256
 2855SOL     OW20197   1.687   3.301   0.868 -0.7078  0.3740  0.2569
 2855SOL    HW120198   1.641   3.310   0.951 -1.6311  0.2366 -0.2394
 2855SOL    HW220199   1.762   3.247   0.896 -0.9355  0.2244  0.5728
 2856SOL     OW20200   2.748   2.398   2.373 -0.0235  0.3467  0.1215
 2856SOL    HW120201   2.759   2.452   2.294  2.9929  0.2356  0.4552
 2856SOL    HW220202   2.819   2.439   2.421 -0.8252  1.0909  0.6609
 2857SOL     OW20203   0.365   2.887   0.302  0.1213  0.0338 -0.1168
 2857SOL    HW120204   0.286   2.867   0.252 -1.0035 -0.8991  2.0045
 2857SOL    HW220205   0.346   2.841   0.384 -1.5821  0.7695 -0.1010
 2858SOL     OW20206   2.131   0.799  14.627  0.1782  0.1516  0.7010
 2858SOL    HW120207   2.140   0.715  14.673 -0.2458 -0.3984 -0.2334
 2858SOL    HW220208   2.217   0.836  14.647  1.7897 -2.8132 -0.7439
 2859SOL     OW20209   0.600   2.518   8.173 -0.2648  0.0495 -0.2338
 2859SOL    HW120210   0.616   2.611   8.154  0.9488  0.2434  1.7141
 2859SOL    HW220211   0.521   2.501   8.123  0.3179 -1.7720 -0.5127
 2860SOL     OW20212   0.860   3.810   6.014  0.7625 -0.0081 -0.1954
 2860SOL    HW120213   0.903   3.861   5.946  0.6445 -1.3718 -1.3065
 2860SOL    HW220214   0.892   3.842   6.098 -0.4297 -2.4645  1.2238
 2861SOL     OW20215   0.589   2.543   2.850 -0.4046  0.1377 -0.7817
 2861SOL    HW120216   0.635   2.626   2.832 -2.6470  1.2733 -1.3731
 2861SOL    HW220217   0.544   2.532   2.766 -0.4621 -3.7081 -0.2117
 2862SOL     OW20218   1.687   1.483  10.735 -0.1898  0.3116  0.0532
 2862SOL    HW120219   1.731   1.528  10.663  0.7963 -0.0928  0.3996
 2862SOL    HW220220   1.757   1.421  10.760 -0.8701 -1.2809 -1.9839
 2863SOL     OW20221   2.952   1.319   5.079 -0.0562 -0.0884 -0.1209
 2863SOL    HW120222   3.022   1.333   5.015 -0.5719 -2.7735 -1.2766
 2863SOL    HW220223   2.954   1.224   5.093  0.6033 -0.1575 -0.6854
 2864SOL     OW20224   1.762   0.325   4.163  0.2593 -0.8058 -0.0582
 2864SOL    HW120225   1.745   0.326   4.068  0.6796 -0.3474 -0.1270
 2864SOL    HW220226   1.687   0.269   4.182  0.3432 -0.6231  0.7823
 2865SOL     OW20227   4.648   3.443   3.126 -0.3764  0.5447  0.3197
 2865SOL    HW120228   4.687   3.410   3.046 -1.2130  1.5451 -0.4995
 2865SOL    HW220229   4.718   3.505   3.145  0.2994  0.3630 -1.6034
 2866SOL     OW20230   4.377   1.685   3.691 -0.2853  0.6694  0.1533
 2866SOL    HW120231   4.298   1.632   3.692 -0.9778  1.6994  0.5372
 2866SOL    HW220232   4.360   1.742   3.615 -1.9750  0.6152  0.4951
 2867SOL     OW20233   2.339   2.898   9.211  0.0088  0.2274 -0.4047
 2867SOL    HW120234   2.330   2.807   9.237  0.6308  0.9184  2.1863
 2867SOL    HW220235   2.356   2.898   9.116  1.3562 -0.6446 -0.1628
 2868SOL     OW20236   1.176   2.468  13.242  0.7103  0.1148 -0.4488
 2868SOL    HW120237   1.264   2.435  13.261 -0.6016 -3.1702 -0.0779
 2868SOL    HW220238   1.155   2.423  13.160  1.0872  0.8016 -0.9227
 2869SOL     OW20239   1.683   1.709   7.741  0.4552 -0.1934 -0.2924
 2869SOL    HW120240   1.717   1.692   7.829 -0.4144 -0.2961  0.0195
 2869SOL    HW220241   1.604   1.656   7.753  0.0857 -0.1909 -2.7580
 2870SOL     OW20242   4.159   2.961   2.756  0.7111  0.1412  0.2605
 2870SOL    HW120243   4.237   2.932   2.803  1.0657 -0.6986 -0.8393
 2870SOL    HW220244   4.191   3.009   2.679  0.2461 -1.0989 -0.7041
 2871SOL     OW20245   0.464   1.855  14.567  0.1470  0.0888 -0.0676
 2871SOL    HW120246   0.427   1.878  14.481 -0.0008 -1.7183 -0.4794
 2871SOL    HW220247   0.554   1.880  14.549  0.1178  0.5147  0.3676
 2872SOL     OW20248   4.339   4.668  16.469 -0.1562 -0.2279 -0.4820
 2872SOL    HW120249   4.366   4.585  16.431  1.2308  0.2831 -0.6238
 2872SOL    HW220250   4.423   4.713  16.484 -0.3725  0.1657 -0.4472
 2873SOL     OW20251   2.712   2.884   8.220  0.1202  0.2486 -0.3332
 2873SOL    HW120252   2.759   2.825   8.161  0.6565  1.0809 -0.7485
 2873SOL    HW220253   2.651   2.827   8.267 -2.3533  1.7656 -1.6944
 2874SOL     OW20254   1.019   3.727   2.670  0.1132 -0.4670 -0.1439
 2874SOL    HW120255   1.020   3.821   2.692  0.3236 -1.3141  3.3941
 2874SOL    HW220256   1.042   3.720   2.577  1.9408 -2.1177  0.4343
 2875SOL     OW20257   0.263   1.393  13.320  0.0487  0.1517 -0.4330
 2875SOL    HW120258   0.275   1.482  13.352  2.4089 -0.6374  0.9013
 2875SOL    HW220259   0.173   1.373  13.346  0.5647 -0.6989  0.6979
 2876SOL     OW20260   4.393   2.328  12.410  0.0623 -0.3268 -0.0042
 2876SOL    HW120261   4.390   2.424  12.414  0.6126 -0.3718  1.6822
 2876SOL    HW220262   4.390   2.318  12.315  0.0441  2.7750 -0.3358
 2877SOL     OW20263   3.197   2.334   8.606 -0.0164  0.5422  0.2721
 2877SOL    HW120264   3.155   2.411   8.569  0.2042  1.1636  1.3382
 2877SOL    HW220265   3.281   2.331   8.558 -0.6338 -1.5943 -0.6911
 2878SOL     OW20266   4.722   3.644   1.445 -0.2578 -0.3298 -1.2254
 2878SOL    HW120267   4.677   3.622   1.526 -0.2556 -1.1469 -1.4397
 2878SOL    HW220268   0.064   3.602   1.468  0.4985  1.2123 -1.1562
 2879SOL     OW20269   2.910   2.036   3.199  0.6178 -0.3065 -0.4154
 2879SOL    HW120270   2.857   2.079   3.130 -1.7765 -1.4288  0.7140
 2879SOL    HW220271   2.851   1.970   3.235 -0.1580  0.8948  0.5222
 2880SOL     OW20272   0.575   1.369   7.244  0.1949  0.8924 -0.7796
 2880SOL    HW120273   0.571   1.351   7.338  0.0748  2.1248 -0.5525
 2880SOL    HW220274   0.623   1.291   7.217 -0.7213  0.0126  0.1524
 2881SOL     OW20275   4.697   2.713  17.424 -0.0764 -0.2283 -0.0544
 2881SOL    HW120276   4.716   2.646  17.490  0.4068  0.7943  0.8510
 2881SOL    HW220277   4.628   2.760  17.471 -2.1111 -2.8469 -0.4458
 2882SOL     OW20278   1.236   2.775   1.226  0.1682 -0.0085 -0.5438
 2882SOL    HW120279   1.255   2.708   1.161  2.3303  0.8972 -0.8236
 2882SOL    HW220280   1.160   2.815   1.183  0.2087 -0.2447 -0.8317
 2883SOL     OW20281   0.888   2.554   8.900  0.1433  0.0295  0.0596
 2883SOL    HW120282   0.978   2.573   8.876  0.5188 -0.5334  1.0344
 2883SOL    HW220283   0.871   2.619   8.969 -0.5267  0.8090 -0.8338
 2884SOL     OW20284   3.127   0.701   6.410  0.2931 -0.4757  0.2059
 2884SOL    HW120285   3.035   0.673   6.409 -0.3544  1.7344 -3.4559
 2884SOL    HW220286   3.125   0.741   6.497  0.6922  1.1979 -0.5488
 2885SOL     OW20287   1.586   0.736   2.933 -0.0289 -0.2021  0.1143
 2885SOL    HW120288   1.539   0.717   2.851  1.5660 -1.4656 -0.5053
 2885SOL    HW220289   1.529   0.806   2.965 -0.7258 -0.5656 -0.3090
 2886SOL     OW20290   1.817   2.789   3.671 -0.3294  0.0000 -0.2739
 2886SOL    HW120291   1.892   2.801   3.730 -0.6477 -1.3804  0.4171
 2886SOL    HW220292   1.744   2.818   3.725 -2.4452 -2.0405 -2.0687
 2887SOL     OW20293   4.456   3.575   4.568 -0.4059 -0.7138  0.0698
 2887SOL    HW120294   4.411   3.498   4.534  2.2265 -1.8663 -0.7960
 2887SOL    HW220295   4.382   3.630   4.593 -1.0426 -1.4267 -0.2621
 2888SOL     OW20296   4.108   0.476   5.541 -0.3248 -0.3391  0.5350
 2888SOL    HW120297   4.021   0.441   5.563 -1.1825  0.3413 -1.7851
 2888SOL    HW220298   4.158   0.398   5.518  2.7540  1.5364  0.8942
 2889SOL     OW20299   4.121   0.495   4.185 -0.2676 -0.4331 -0.3107
 2889SOL    HW120300   4.078   0.454   4.260  2.3389  0.3657  1.6319
 2889SOL    HW220301   4.071   0.474   4.106  1.0169 -1.5089 -0.8359
 2890SOL     OW20302   4.476   4.051   6.529  0.5789 -0.2280  0.1435
 2890SOL    HW120303   4.496   4.092   6.614 -0.1034  0.6161 -0.1021
 2890SOL    HW220304   4.467   4.122   6.465 -0.6331 -0.3851  0.1382
 2891SOL     OW20305   1.502   1.160   2.042 -0.5356  0.3691 -0.1476
 2891SOL    HW120306   1.453   1.085   2.007  0.8526 -0.4992 -0.2073
 2891SOL    HW220307   1.491   1.152   2.137 -1.0487 -0.1233 -0.2498
 2892SOL     OW20308   4.328   3.993   4.247  0.4684 -0.0287 -0.0107
 2892SOL    HW120309   4.306   4.009   4.339 -2.0349 -3.0119 -0.0687
 2892SOL    HW220310   4.307   3.900   4.234 -1.0030  0.5242 -1.7438
 2893SOL     OW20311   1.909   2.802   9.174  0.3314 -0.0552  0.5918
 2893SOL    HW120312   1.926   2.716   9.138 -0.3374  0.0357  0.0693
 2893SOL    HW220313   1.816   2.822   9.165  0.1014 -1.5325 -0.1889
 2894SOL     OW20314   0.964   4.142   6.156 -0.1091  0.3616 -0.7580
 2894SOL    HW120315   0.955   4.131   6.061 -1.9967  0.7422 -0.6373
 2894SOL    HW220316   0.964   4.051   6.184 -0.8400  0.6003  0.0233
 2895SOL     OW20317   2.839   2.754   7.058  0.4743  0.5608  0.1126
 2895SOL    HW120318   2.876   2.771   7.145  0.2405 -1.8373  0.6841
 2895SOL    HW220319   2.751   2.790   7.062  0.7987  1.2576  1.1253
 2896SOL     OW20320   4.010   2.717   0.673 -0.1768 -1.1244  0.1334
 2896SOL    HW120321   3.921   2.684   0.665 -0.2552 -0.8549 -0.0930
 2896SOL    HW220322   4.061   2.639   0.649  3.3576  1.5748 -1.1465
 2897SOL     OW20323   3.131   1.061   6.441  0.5454 -0.5315  0.2773
 2897SOL    HW120324   3.101   1.012   6.517 -0.1682  0.7799  0.8382
 2897SOL    HW220325   3.121   1.152   6.468 -0.0901  0.3726 -2.9594
 2898SOL     OW20326   1.573   1.483  11.593  0.0692  0.2861 -0.0038
 2898SOL    HW120327   1.561   1.440  11.677 -0.6238  0.6787  0.0956
 2898SOL    HW220328   1.484   1.504  11.563 -0.0941 -1.2982 -0.6587
 2899SOL     OW20329   4.272   1.302   2.774 -0.2281 -0.3200  0.4930
 2899SOL    HW120330   4.354   1.308   2.726 -0.6897  2.2515  0.0112
 2899SOL    HW220331   4.309   1.324   2.860 -0.2171 -0.3108  0.4859
 2900SOL     OW20332   3.634   2.426   1.534  0.1018 -0.6412 -0.0694
 2900SOL    HW120333   3.549   2.388   1.514 -1.1282  1.2090  1.5968
 2900SOL    HW220334   3.635   2.424   1.629  0.1463 -0.8892 -0.0762
 2901SOL     OW20335   1.697   4.729   0.903  0.0178 -0.4151 -0.3432
 2901SOL    HW120336   1.642   4.671   0.955 -1.4845  0.5161 -0.8930
 2901SOL    HW220337   1.637   0.009   0.831 -0.4028 -0.9783 -0.1509
 2902SOL     OW20338   4.407   3.037   5.966 -0.3608  0.4547 -0.7831
 2902SOL    HW120339   4.468   3.062   5.896  1.1951  1.0780  0.7994
 2902SOL    HW220340   4.411   2.942   5.954  0.2265  0.6098 -1.8201
 2903SOL     OW20341   1.917   4.554   5.153 -0.3428  0.2216  0.1620
 2903SOL    HW120342   1.934   4.467   5.189 -2.2376 -0.2474 -0.0637
 2903SOL    HW220343   1.952   4.548   5.064 -0.8866  1.2018 -0.1196
 2904SOL     OW20344   1.038   1.798   2.606 -0.0183 -0.1131  0.5359
 2904SOL    HW120345   0.955   1.787   2.560  1.5766  1.1034 -2.6167
 2904SOL    HW220346   1.063   1.886   2.578 -1.4521  0.3925  0.8126
 2905SOL     OW20347   4.054   3.472  14.586 -0.4179  0.0147 -0.2904
 2905SOL    HW120348   3.983   3.537  14.590  0.9539  1.3665  2.2269
 2905SOL    HW220349   4.093   3.470  14.499  1.2612 -1.5686  0.5048
 2906SOL     OW20350   3.062   0.196   4.569 -0.2213  0.4193  0.0096
 2906SOL    HW120351   3.035   0.234   4.485 -0.8325  1.1490  0.5365
 2906SOL    HW220352   3.088   0.110   4.536 -2.4237 -0.3020  0.1781
 2907SOL     OW20353   1.526   0.842   4.223 -0.1073  0.7194 -0.2850
 2907SOL    HW120354   1.546   0.796   4.141 -1.8568  0.1429 -0.4000
 2907SOL    HW220355   1.566   0.927   4.207  0.4442  0.7234  1.1266
 2908SOL     OW20356   3.673   0.995   5.318  0.0799  0.1126 -0.0123
 2908SOL    HW120357   3.675   1.020   5.410  3.4833  1.8483 -0.5414
 2908SOL    HW220358   3.718   1.070   5.279 -2.7334  1.5465 -0.4940
 2909SOL     OW20359   2.453   0.194   4.354 -0.3096 -0.2293 -0.0964
 2909SOL    HW120360   2.416   0.269   4.401  0.8401 -0.2476  0.8164
 2909SOL    HW220361   2.393   0.198   4.279  2.4103  0.6394 -2.1897
 2910SOL     OW20362   1.865   2.447   5.350 -0.1225 -0.7285  0.1147
 2910SOL    HW120363   1.797   2.495   5.397  0.5735  0.2065  0.1528
 2910SOL    HW220364   1.856   2.478   5.259 -0.6055  0.6467  0.6336
 2911SOL     OW20365   2.594   2.185   2.474 -0.2988  0.0095 -0.0501
 2911SOL    HW120366   2.672   2.231   2.443 -0.4894  1.6380  1.9199
 2911SOL    HW220367   2.612   2.182   2.568  1.5575 -1.5231 -0.4394
 2912SOL     OW20368   2.761   1.574  12.383  0.5348  0.1073 -0.5193
 2912SOL    HW120369   2.826   1.621  12.435  1.5169  0.5988 -2.1585
 2912SOL    HW220370   2.752   1.495  12.436 -1.1390  0.1975 -0.6870
 2913SOL     OW20371   1.275   2.369   8.537  0.5763 -0.0314 -0.2678
 2913SOL    HW120372   1.343   2.437   8.534 -0.5750  1.0350 -2.0823
 2913SOL    HW220373   1.285   2.357   8.632 -0.3507 -0.0867 -0.1748
 2914SOL     OW20374   4.689   1.891   8.579 -0.0452  0.0848 -0.2839
 2914SOL    HW120375   4.663   1.978   8.610  0.0340 -0.3682  1.0730
 2914SOL    HW220376   4.605   1.858   8.547 -1.1796  1.4546  1.2066
 2915SOL     OW20377   2.178   2.257   8.129  0.6861  0.2860  0.3358
 2915SOL    HW120378   2.094   2.304   8.132  0.1278 -0.8911  2.9778
 2915SOL    HW220379   2.151   2.172   8.164  0.8837 -0.4695 -1.3444
 2916SOL     OW20380   1.204   2.685   5.978  0.1470 -0.0863 -0.0424
 2916SOL    HW120381   1.296   2.669   5.961 -0.3991 -3.4120  0.0162
 2916SOL    HW220382   1.183   2.594   5.999  0.4169 -0.3207 -0.8068
 2917SOL     OW20383   2.145   1.333   2.478 -0.6653 -0.3854  0.5362
 2917SOL    HW120384   2.143   1.285   2.395 -1.8196  0.2688  0.1929
 2917SOL    HW220385   2.161   1.424   2.453  1.7862 -0.2996  2.3615
 2918SOL     OW20386   1.773   3.574   3.368  0.4265 -0.0962  0.6173
 2918SOL    HW120387   1.754   3.626   3.290  1.5581  1.2651  1.2482
 2918SOL    HW220388   1.843   3.512   3.347 -0.3480 -0.6811 -0.1856
 2919SOL     OW20389   0.324   0.935   7.436  0.4944 -0.4564  0.3243
 2919SOL    HW120390   0.290   0.880   7.366  1.1611 -2.7257  1.8018
 2919SOL    HW220391   0.395   0.878   7.464  0.6739  0.6729  2.2054
 2920SOL     OW20392   3.448   2.973  11.390  0.1436  0.2700  0.0473
 2920SOL    HW120393   3.437   2.886  11.427  0.5979  0.6039  0.9898
 2920SOL    HW220394   3.527   2.949  11.342 -0.8011  2.3728 -2.5630
 2921SOL     OW20395   2.413   3.604   4.916  0.0718 -0.2018  0.4642
 2921SOL    HW120396   2.360   3.546   4.970  2.1977 -2.7883 -0.2140
 2921SOL    HW220397   2.486   3.552   4.880 -1.0595 -1.4765  0.0108
 2922SOL     OW20398   1.040   2.498  14.930  0.5810 -0.3985  0.3070
 2922SOL    HW120399   1.012   2.565  14.993 -1.4492 -1.4483  0.5248
 2922SOL    HW220400   1.001   2.420  14.970 -2.7093 -0.2014 -2.5027
 2923SOL     OW20401   1.280   3.380   5.860 -0.0600  0.1403  0.2510
 2923SOL    HW120402   1.263   3.381   5.954 -1.6811 -0.6956 -0.0421
 2923SOL    HW220403   1.267   3.293   5.822  1.2824  0.0445 -0.0039
 2924SOL     OW20404   2.534   0.400   9.201  0.4115  0.1868 -0.2291
 2924SOL    HW120405   2.543   0.311   9.166  3.6714  0.1994  0.5878
 2924SOL    HW220406   2.465   0.433   9.145  0.7340  0.7996 -0.2612
 2925SOL     OW20407   2.860   1.026   2.740 -0.0003 -0.2603  0.8311
 2925SOL    HW120408   2.815   0.944   2.719 -2.4623  1.3382 -0.2505
 2925SOL    HW220409   2.890   1.015   2.830 -2.8651 -1.7932  1.5878
 2926SOL     OW20410   2.472   3.364   3.441 -0.6823  0.1377  0.3984
 2926SOL    HW120411   2.475   3.369   3.345 -1.0897  3.3150  0.5528
 2926SOL    HW220412   2.484   3.269   3.450  3.3459  0.6603  0.4564
 2927SOL     OW20413   1.559   4.304   8.848  0.1181  0.2266  0.0670
 2927SOL    HW120414   1.620   4.288   8.919  2.4162  1.3335 -1.6488
 2927SOL    HW220415   1.480   4.336   8.892  0.0250 -0.2245  0.2289
 2928SOL     OW20416   3.115   1.435  17.218  0.3173 -0.8793  0.3595
 2928SOL    HW120417   3.089   1.466  17.305 -0.4476 -0.3194 -0.0677
 2928SOL    HW220418   3.042   1.382  17.187 -0.3633  0.8681 -1.0578
 2929SOL     OW20419   2.681   0.478  14.953  0.2923 -0.3053  0.0339
 2929SOL    HW120420   2.652   0.446  14.868  1.0066 -2.1637  0.4881
 2929SOL    HW220421   2.730   0.559  14.934  3.8396 -2.1170  1.4581
 2930SOL     OW20422   4.119   2.058   2.239  0.1501  0.2104  0.1147
 2930SOL    HW120423   4.028   2.077   2.260 -0.4809 -1.7093 -0.8961
 2930SOL    HW220424   4.112   2.069   2.144  0.2324 -1.0722 -0.0398
 2931SOL     OW20425   1.223   3.354  11.053  0.3271 -0.2491  0.2028
 2931SOL    HW120426   1.198   3.364  11.145  1.2007 -1.0258  0.5159
 2931SOL    HW220427   1.284   3.282  11.066  0.2020  0.0022  2.3054
 2932SOL     OW20428   0.832   4.570   4.686 -0.6640 -0.0010 -0.4368
 2932SOL    HW120429   0.884   4.647   4.662 -0.2352 -0.7230 -1.8694
 2932SOL    HW220430   0.798   4.602   4.769 -3.2265 -1.9637 -0.7208
 2933SOL     OW20431   4.251   0.775   8.899 -0.0551 -0.8329 -0.8073
 2933SOL    HW120432   4.277   0.722   8.974 -0.8693  1.8703  1.3783
 2933SOL    HW220433   4.157   0.792   8.904 -0.3456 -1.8166 -2.7501
 2934SOL     OW20434   1.118   1.320  10.732 -0.4010  0.8686 -0.1031
 2934SOL    HW120435   1.127   1.415  10.743  0.2815  0.7867  0.0839
 2934SOL    HW220436   1.025   1.311  10.748  0.2956 -1.9125  2.3235
 2935SOL     OW20437   2.144   1.005   7.743  0.1159 -0.4044  0.3388
 2935SOL    HW120438   2.199   0.927   7.742 -1.0398 -1.1905 -1.6754
 2935SOL    HW220439   2.063   0.970   7.781 -0.2740 -0.2873 -0.3703
 2936SOL     OW20440   2.002   1.281  16.588 -0.9322 -0.3146 -0.2790
 2936SOL    HW120441   1.981   1.197  16.629  3.2164 -1.0346  0.4087
 2936SOL    HW220442   1.931   1.287  16.525 -2.5816 -0.8896  1.5322
 2937SOL     OW20443   4.217   4.260   6.135  0.0543 -0.2499  0.2690
 2937SOL    HW120444   4.134   4.299   6.163  1.6954  2.6085  1.1753
 2937SOL    HW220445   4.241   4.319   6.064  1.4964 -0.7110  0.3863
 2938SOL     OW20446   3.922   0.788   9.261 -0.1428  0.3350  0.0968
 2938SOL    HW120447   3.917   0.843   9.184 -1.4259 -1.5845 -1.2118
 2938SOL    HW220448   3.999   0.823   9.304  2.1588 -2.4113 -1.7733
 2939SOL     OW20449   4.275   4.349   7.795  0.3271 -0.3318 -0.5287
 2939SOL    HW120450   4.251   4.378   7.883  0.1122 -2.7907  0.2417
 2939SOL    HW220451   4.317   4.418   7.744 -0.7480  1.2429  0.7324
 2940SOL     OW20452   1.004   2.845   3.195 -0.0012 -0.3276  0.0197
 2940SOL    HW120453   0.943   2.809   3.258 -1.5426 -1.0787 -1.8909
 2940SOL    HW220454   1.085   2.811   3.233  0.5996  0.1269 -0.8505
 2941SOL     OW20455   3.572   2.921   1.778  0.0644 -0.1993  0.7249
 2941SOL    HW120456   3.627   2.900   1.854 -0.1416 -1.1665  0.6145
 2941SOL    HW220457   3.535   3.004   1.808 -0.1263  0.1155 -0.3845
 2942SOL     OW20458   0.673   1.566   5.733 -0.2051  0.3024  0.0943
 2942SOL    HW120459   0.631   1.630   5.675  2.6297  1.9208 -0.1374
 2942SOL    HW220460   0.624   1.589   5.812 -1.5304  0.4680 -0.7721
 2943SOL     OW20461   1.461   1.783   8.471  0.2861  0.6016 -0.2976
 2943SOL    HW120462   1.382   1.819   8.511 -0.3715 -1.4184  0.2712
 2943SOL    HW220463   1.425   1.695   8.454 -0.4354  0.6067  1.2343
 2944SOL     OW20464   2.353   3.693   7.503  0.2608 -0.1411 -0.5592
 2944SOL    HW120465   2.413   3.649   7.563  1.4315  1.9668 -0.1827
 2944SOL    HW220466   2.282   3.628   7.505  0.9870 -0.8672  1.0113
 2945SOL     OW20467   3.698   0.862  17.223  0.3429 -0.2638 -0.1455
 2945SOL    HW120468   3.602   0.861  17.227  0.3661  1.3402  1.1755
 2945SOL    HW220469   3.717   0.941  17.274 -1.4017  0.0265  0.0855
 2946SOL     OW20470   0.435   2.557   2.106 -0.2481  0.2789  0.3600
 2946SOL    HW120471   0.416   2.500   2.181  0.2055  1.0090  1.0209
 2946SOL    HW220472   0.398   2.511   2.030 -1.1690  0.7075  0.5456
 2947SOL     OW20473   2.755   0.782   2.776  0.3681  0.4629  0.3290
 2947SOL    HW120474   2.695   0.746   2.841  1.1281 -1.5340 -0.1023
 2947SOL    HW220475   2.773   0.713   2.713  0.4230  1.7039 -1.0300
 2948SOL     OW20476   4.693   0.041   3.475 -0.0405  0.0366  0.0963
 2948SOL    HW120477   4.621   0.013   3.532 -0.1255 -0.9765 -0.4956
 2948SOL    HW220478   0.030   0.024   3.528 -0.7833  0.4216  1.2955
 2949SOL     OW20479   0.946   1.215   3.576  0.1190  0.2892  0.2592
 2949SOL    HW120480   0.868   1.263   3.603 -0.7353 -1.3402  0.7372
 2949SOL    HW220481   0.940   1.150   3.647  0.8432 -0.3114 -0.2338
 2950SOL     OW20482   2.156   0.360   7.355  0.0040  0.2288  0.6326
 2950SOL    HW120483   2.239   0.312   7.345 -0.7717 -0.7021 -1.3840
 2950SOL    HW220484   2.096   0.312   7.298 -0.6081  0.5466  1.0161
 2951SOL     OW20485   2.735   0.113   6.776 -0.3548  0.0064 -0.0873
 2951SOL    HW120486   2.751   0.141   6.686 -1.8297  1.6405  0.1728
 2951SOL    HW220487   2.661   0.162   6.811 -0.0565  0.8734 -0.6630
 2952SOL     OW20488   3.510   2.775   4.959 -0.2528  0.3289 -0.2529
 2952SOL    HW120489   3.575   2.810   4.898  1.6196  0.7326  1.9907
 2952SOL    HW220490   3.448   2.847   4.949 -0.4358  0.0187 -1.3874
 2953SOL     OW20491   2.999   3.332  14.366 -0.0746 -0.5513 -0.3734
 2953SOL    HW120492   2.930   3.296  14.311  0.1266 -1.3194 -0.1308
 2953SOL    HW220493   3.076   3.282  14.339 -0.7273 -2.1734  0.7039
 2954SOL     OW20494   3.472   2.761   1.570 -0.1077 -0.1013 -0.2852
 2954SOL    HW120495   3.508   2.830   1.625 -0.3991 -0.6112  0.5427
 2954SOL    HW220496   3.533   2.688   1.573 -0.2315 -0.2194 -0.6131
 2955SOL     OW20497   1.720   4.371   6.845 -0.5430 -0.4089  0.0060
 2955SOL    HW120498   1.766   4.423   6.912 -1.2264 -0.8259  0.7954
 2955SOL    HW220499   1.799   4.338   6.802 -0.6543 -0.2467 -0.3184
 2956SOL     OW20500   4.364   3.813   6.517  0.2096 -0.1905 -0.4161
 2956SOL    HW120501   4.402   3.900   6.527 -0.4098  0.0028  0.2646
 2956SOL    HW220502   4.438   3.771   6.563 -0.4912 -0.4009  0.5168
 2957SOL     OW20503   0.761   2.453   3.478  0.4987 -0.0988 -0.3489
 2957SOL    HW120504   0.683   2.480   3.430  0.1799 -3.0856 -1.4918
 2957SOL    HW220505   0.796   2.399   3.408 -2.0967 -0.0148 -1.6970
 2958SOL     OW20506   2.712   3.388  13.977  0.1937  0.1622 -0.2834
 2958SOL    HW120507   2.683   3.346  13.896  0.3313  0.4798 -0.4938
 2958SOL    HW220508   2.621   3.404  14.003 -0.0835  1.3775 -1.9809
 2959SOL     OW20509   3.078   1.546   6.677  0.2069 -0.1733 -0.4504
 2959SOL    HW120510   3.173   1.554   6.692  0.1573  0.8831 -0.7379
 2959SOL    HW220511   3.048   1.629   6.641  2.4952 -0.1444 -2.2758
 2960SOL     OW20512   2.808   1.858   4.745  0.0380  0.0087  0.0741
 2960SOL    HW120513   2.795   1.879   4.837  1.1361  1.3944 -0.0971
 2960SOL    HW220514   2.746   1.786   4.732  0.5801  0.0129 -2.4573
 2961SOL     OW20515   4.464   0.567   2.370 -0.3005  0.6832 -0.5888
 2961SOL    HW120516   4.399   0.564   2.441  0.7541 -3.6874  0.1725
 2961SOL    HW220517   4.526   0.624   2.415  3.4210 -1.8596 -2.5877
 2962SOL     OW20518   1.112   2.424   3.008 -0.4875  0.6057  0.0995
 2962SOL    HW120519   1.020   2.427   2.979  0.4094  0.3252 -2.8086
 2962SOL    HW220520   1.154   2.448   2.926 -0.7519  1.0579  0.0972
 2963SOL     OW20521   1.487   2.645   5.719 -0.1804  0.0876  0.0554
 2963SOL    HW120522   1.436   2.593   5.780  0.1349 -0.6093 -0.2702
 2963SOL    HW220523   1.545   2.694   5.777  0.7538  0.2522 -1.0132
 2964SOL     OW20524   2.366   2.865   4.922 -0.1934  0.1524 -0.4506
 2964SOL    HW120525   2.414   2.863   5.005 -0.4743  1.8554 -0.2546
 2964SOL    HW220526   2.326   2.951   4.923 -1.3314 -0.3962  0.5480
 2965SOL     OW20527   4.075   1.451   9.188  0.1336 -0.1310  0.9289
 2965SOL    HW120528   4.097   1.539   9.219  2.5453 -0.5531  0.4227
 2965SOL    HW220529   4.139   1.398   9.236  0.9775  1.2413  1.3152
 2966SOL     OW20530   4.300   0.900   8.456  0.3714 -0.1013 -0.3307
 2966SOL    HW120531   4.227   0.838   8.445 -0.1061  0.8173 -2.3146
 2966SOL    HW220532   4.288   0.935   8.545  2.1208 -0.6397  0.1129
 2967SOL     OW20533   3.562   0.378   4.527 -0.3644 -0.1862  0.3487
 2967SOL    HW120534   3.645   0.345   4.492 -0.7196 -1.9418  1.1723
 2967SOL    HW220535   3.583   0.397   4.619  2.3711  0.5996 -0.4174
 2968SOL     OW20536   2.062   0.628   7.270 -0.2141  0.6101  0.2778
 2968SOL    HW120537   2.072   0.549   7.216 -0.4862  1.7576 -1.4427
 2968SOL    HW220538   2.032   0.590   7.353 -1.2275  2.4709  0.7542
 2969SOL     OW20539   0.964   1.084   7.468  0.6250  0.3715 -0.3053
 2969SOL    HW120540   0.909   1.129   7.532 -1.4383  0.7561 -2.3706
 2969SOL    HW220541   0.979   1.152   7.403 -0.3334  1.4668  0.6270
 2970SOL     OW20542   1.768   1.288   5.965 -0.2981  0.5072 -0.3099
 2970SOL    HW120543   1.705   1.308   6.034 -1.1643 -0.1610 -0.9078
 2970SOL    HW220544   1.846   1.274   6.018 -0.6584  0.2680  0.1546
 2971SOL     OW20545   3.689   3.362  12.003  0.0492  0.4158 -0.0643
 2971SOL    HW120546   3.639   3.291  11.963  0.9155  0.2074 -0.7965
 2971SOL    HW220547   3.665   3.356  12.096  2.3877  0.7768  0.5626
 2972SOL     OW20548   0.237   3.876   9.953  0.3113  0.4376  0.5398
 2972SOL    HW120549   0.203   3.867  10.042 -1.5672 -1.4216 -0.3772
 2972SOL    HW220550   0.157   3.859   9.903  0.1113  0.0800  0.9729
 2973SOL     OW20551   2.855   2.491   7.442 -0.1166  0.4017  0.2045
 2973SOL    HW120552   2.922   2.499   7.509 -0.0893 -2.7503  0.5626
 2973SOL    HW220553   2.809   2.414   7.476 -1.0290  1.7214  1.9321
 2974SOL     OW20554   2.614   4.041   0.027 -0.0592 -0.5882  0.3856
 2974SOL    HW120555   2.668   4.100  17.732  2.2285 -3.8987 -1.0058
 2974SOL    HW220556   2.677   3.970   0.041  0.1259 -0.5517 -0.2505
 2975SOL     OW20557   4.186   1.578   7.500 -0.4353  0.6030 -0.6545
 2975SOL    HW120558   4.276   1.585   7.531 -0.3590 -0.3070 -0.6646
 2975SOL    HW220559   4.188   1.506   7.437  0.9191  0.1771 -0.1212
 2976SOL     OW20560   4.238   4.692   2.680 -0.0447 -0.3909  0.0126
 2976SOL    HW120561   4.316   4.712   2.731  0.4519 -2.5522  0.0706
 2976SOL    HW220562   4.174   4.701   2.750 -0.5563  1.0904 -0.6273
 2977SOL     OW20563   2.383   2.285  16.456  0.2201  0.0040 -0.0848
 2977SOL    HW120564   2.468   2.241  16.463 -0.6629 -1.2798  2.5572
 2977SOL    HW220565   2.354   2.274  16.365 -0.8843  1.5843  0.0922
 2978SOL     OW20566   2.826   1.580   1.585 -0.3259 -0.2353  0.2623
 2978SOL    HW120567   2.889   1.625   1.528 -1.7859  1.7346  0.2235
 2978SOL    HW220568   2.883   1.514   1.626  3.1712  0.6600 -3.0874
 2979SOL     OW20569   1.657   1.823  11.523  0.5098  0.5268  0.3053
 2979SOL    HW120570   1.705   1.744  11.551 -0.6265 -0.2628  0.0475
 2979SOL    HW220571   1.570   1.795  11.496  1.4504  1.3873 -3.5682
 2980SOL     OW20572   0.292   4.514   1.903 -0.4353 -0.3183 -0.0623
 2980SOL    HW120573   0.211   4.481   1.940 -0.7947  1.1176  0.4531
 2980SOL    HW220574   0.294   4.470   1.818  0.5007  0.3731 -0.3984
 2981SOL     OW20575   1.162   2.480  17.109  0.6463  0.0166 -0.7684
 2981SOL    HW120576   1.255   2.490  17.131  0.8216  0.1960 -1.6148
 2981SOL    HW220577   1.165   2.403  17.053  0.1477  0.9696 -2.1225
 2982SOL     OW20578   3.345   0.235   0.280  0.1486  0.2532 -0.3615
 2982SOL    HW120579   3.269   0.278   0.240 -1.6425 -2.9080 -0.2782
 2982SOL    HW220580   3.421   0.256   0.225  0.6129  0.6354  0.4174
 2983SOL     OW20581   2.280   0.830   2.047  0.1974  0.5316 -0.0793
 2983SOL    HW120582   2.250   0.900   2.105 -0.0342 -0.5326  1.0742
 2983SOL    HW220583   2.205   0.821   1.988  0.2542  0.5993 -0.1607
 2984SOL     OW20584   0.233   0.571   7.497 -0.1998 -0.1209 -0.1259
 2984SOL    HW120585   0.180   0.648   7.479  0.1435 -0.2483 -1.6911
 2984SOL    HW220586   0.174   0.506   7.459  0.8893 -1.0498 -0.2378
 2985SOL     OW20587   2.313   0.680   6.845  0.5685 -0.2780  0.3352
 2985SOL    HW120588   2.380   0.748   6.853 -0.1161  0.2470  1.6305
 2985SOL    HW220589   2.310   0.660   6.752 -2.1284 -0.6395  0.4928
 2986SOL     OW20590   0.417   2.755   8.135 -0.0534  0.0185  0.6577
 2986SOL    HW120591   0.414   2.837   8.186 -0.5708 -0.8787  2.0672
 2986SOL    HW220592   0.330   2.718   8.147 -0.4028 -0.1414 -2.3700
 2987SOL     OW20593   0.357   2.440   1.854 -0.3207  0.2030 -0.1978
 2987SOL    HW120594   0.273   2.410   1.821 -0.7273  1.5269 -0.3866
 2987SOL    HW220595   0.377   2.517   1.800  0.3510 -0.6829 -1.2004
 2988SOL     OW20596   4.290   0.717   6.853 -0.2131 -0.5101  0.0623
 2988SOL    HW120597   4.227   0.681   6.916 -2.4290 -0.1795 -1.9589
 2988SOL    HW220598   4.375   0.694   6.891  1.0554 -1.5051 -3.3873
 2989SOL     OW20599   2.721   0.101   2.367 -0.0032  0.3591 -0.3863
 2989SOL    HW120600   2.815   0.117   2.362  0.1049  0.3323  1.5259
 2989SOL    HW220601   2.705   0.014   2.330 -0.4629 -0.6976  2.3072
 2990SOL     OW20602   3.036   3.022  11.014 -0.4196  0.0962 -0.2268
 2990SOL    HW120603   2.970   3.059  11.073  1.3903  1.0115  1.2311
 2990SOL    HW220604   3.078   3.094  10.967  0.3763 -0.5636 -0.5240
 2991SOL     OW20605   3.166   0.746   5.697 -0.0326  0.1023 -0.3866
 2991SOL    HW120606   3.238   0.786   5.647  1.2252 -2.2344 -0.4308
 2991SOL    HW220607   3.200   0.685   5.762  2.1688  1.3387 -0.3606
 2992SOL     OW20608   3.876   3.375   3.287  0.6736  0.2436  0.0656
 2992SOL    HW120609   3.937   3.441   3.252 -0.3451  0.8216 -0.6251
 2992SOL    HW220610   3.932   3.298   3.293 -1.6347 -1.6246 -2.8582
 2993SOL     OW20611   4.282   4.573   3.663  0.3619  0.0885  0.1805
 2993SOL    HW120612   4.258   4.552   3.573 -1.4962 -0.7503  0.8726
 2993SOL    HW220613   4.216   4.523   3.711  0.8496  1.4117  2.2721
 2994SOL     OW20614   1.077   0.170   9.384  0.5788 -0.0199  0.3177
 2994SOL    HW120615   1.084   0.165   9.289  0.0314 -1.8477  0.3808
 2994SOL    HW220616   1.105   0.259   9.406  0.2431  0.4293 -1.1348
 2995SOL     OW20617   4.397   2.619   6.236 -0.0651 -0.0791  0.4547
 2995SOL    HW120618   4.491   2.603   6.248  0.1446 -0.2930 -1.5503
 2995SOL    HW220619   4.369   2.565   6.162  0.3748 -1.0154  0.9611
 2996SOL     OW20620   1.645   4.165   2.745  0.1757  0.7122 -0.6784
 2996SOL    HW120621   1.740   4.174   2.743  0.1513  1.1999  0.4674
 2996SOL    HW220622   1.629   4.073   2.727 -0.2115  0.4387  1.0652
 2997SOL     OW20623   1.815   2.319   1.456  0.2895 -0.0006 -0.0930
 2997SOL    HW120624   1.880   2.323   1.385  0.4887  2.8295  0.2308
 2997SOL    HW220625   1.870   2.258   1.504 -0.8695  0.0489  1.2932
 2998SOL     OW20626   3.091   2.326   2.167 -0.1213  0.5377 -0.4908
 2998SOL    HW120627   3.063   2.394   2.228  0.6955  0.6684 -0.2726
 2998SOL    HW220628   3.037   2.339   2.089  0.2103 -1.4743 -1.0590
 2999SOL     OW20629   2.139   2.946   5.135 -0.1867 -0.2800 -0.5662
 2999SOL    HW120630   2.151   3.006   5.208  0.0366 -1.0235  0.0107
 2999SOL    HW220631   2.168   2.997   5.059 -2.1240 -0.3789 -1.3732
 3000SOL     OW20632   0.541   3.211   7.024  0.3704 -0.3819 -0.1481
 3000SOL    HW120633   0.573   3.228   7.112  1.2918  1.4603 -0.8418
 3000SOL    HW220634   0.447   3.202   7.038  0.2119 -2.4770 -2.3833
 3001SOL     OW20635   0.508   1.800  12.799  0.2653  0.8504  0.2362
 3001SOL    HW120636   0.467   1.813  12.713  0.8899 -1.0425 -0.3699
 3001SOL    HW220637   0.574   1.868  12.791  0.6549  0.3580 -0.7088
 3002SOL     OW20638   1.801   3.168   2.082  0.2565  0.2142  0.5404
 3002SOL    HW120639   1.800   3.262   2.100  1.2640  0.6610 -1.7788
 3002SOL    HW220640   1.711   3.140   2.096  0.5587 -0.7440  0.5768
 3003SOL     OW20641   0.858   3.015   9.077  0.9829  1.0993  0.0621
 3003SOL    HW120642   0.802   3.030   9.001 -0.3862 -1.3686  0.6020
 3003SOL    HW220643   0.944   3.000   9.038  0.7667  1.6990 -0.6313
 3004SOL     OW20644   2.395   2.433   7.425 -0.5652  0.1323 -0.0867
 3004SOL    HW120645   2.453   2.385   7.366 -0.6946 -0.8458  0.5813
 3004SOL    HW220646   2.306   2.400   7.417 -0.9456  1.2297 -0.4521
 3005SOL     OW20647   1.184   3.852   4.767 -0.4361 -0.4731 -0.3772
 3005SOL    HW120648   1.220   3.886   4.849 -0.2919 -0.7893 -0.3074
 3005SOL    HW220649   1.247   3.878   4.700  3.4285  0.0391  3.4504
 3006SOL     OW20650   0.288   0.265   4.342  0.3843 -0.3355  0.1889
 3006SOL    HW120651   0.323   0.215   4.269  0.5043 -0.3768  0.2754
 3006SOL    HW220652   0.355   0.237   4.405  0.3212 -3.4349 -1.1325
 3007SOL     OW20653   2.396   0.079  13.123 -0.3523 -0.3373 -0.2514
 3007SOL    HW120654   2.456   0.084  13.049 -1.6093  0.6168 -1.2071
 3007SOL    HW220655   2.310   0.092  13.083 -0.3223 -0.1306 -0.2491
 3008SOL     OW20656   1.978   2.871   1.663  0.0048  0.0455 -0.4996
 3008SOL    HW120657   1.898   2.854   1.615  0.9033 -1.0959 -1.5930
 3008SOL    HW220658   1.939   2.918   1.737 -0.8452 -1.1919 -0.1638
 3009SOL     OW20659   1.341   1.259   8.729  0.3110  0.3211 -0.9276
 3009SOL    HW120660   1.423   1.216   8.754  1.1917  1.6867 -1.4932
 3009SOL    HW220661   1.311   1.307   8.807  1.1568  1.8099 -1.5247
 3010SOL     OW20662   2.897   1.435  10.583  0.2850 -0.0422 -0.6974
 3010SOL    HW120663   2.939   1.388  10.511  1.8985 -1.3938  1.1044
 3010SOL    HW220664   2.954   1.407  10.655 -0.3392  1.0471  0.2160
 3011SOL     OW20665   2.782   3.808   1.483 -0.0780  0.8786  0.2266
 3011SOL    HW120666   2.806   3.731   1.534 -1.0491  1.3066  1.3469
 3011SOL    HW220667   2.833   3.873   1.532 -0.0108  1.0795 -0.1082
 3012SOL     OW20668   0.619   2.462   5.643 -0.0669 -0.3357  0.0354
 3012SOL    HW120669   0.588   2.487   5.730  0.1564  0.4686 -0.1133
 3012SOL    HW220670   0.597   2.540   5.592 -0.1880 -1.0128 -0.9522
 3013SOL     OW20671   3.736   0.675   2.334 -0.4267 -0.2689 -0.3602
 3013SOL    HW120672   3.823   0.708   2.310 -1.0248 -0.1121 -2.2733
 3013SOL    HW220673   3.763   0.648   2.422  1.3331 -2.6933 -1.6581
 3014SOL     OW20674   2.944   0.899   1.444  0.0255  0.0775 -0.0205
 3014SOL    HW120675   2.951   0.944   1.529  0.0023 -3.1468  1.6688
 3014SOL    HW220676   2.854   0.866   1.446  0.2380 -0.4310  0.9498
 3015SOL     OW20677   3.322   1.757   2.892  0.0019 -0.5728 -0.2017
 3015SOL    HW120678   3.289   1.774   2.980  0.8580  0.1218 -0.0122
 3015SOL    HW220679   3.373   1.837   2.876  0.8333 -1.2462 -0.8983
 3016SOL     OW20680   2.231   4.416   3.390 -0.0416 -0.3352  0.1858
 3016SOL    HW120681   2.229   4.459   3.304 -1.6054  1.5429  1.1674
 3016SOL    HW220682   2.268   4.335   3.357 -0.5330  0.5690 -2.5892
 3017SOL     OW20683   2.259   2.245   8.592 -0.3126 -0.2137 -0.4779
 3017SOL    HW120684   2.284   2.337   8.607  0.1966 -0.0481 -2.2863
 3017SOL    HW220685   2.167   2.257   8.570 -0.2394 -0.2215 -0.7889
 3018SOL     OW20686   1.400   3.394   3.595  0.2873 -0.9142  0.3638
 3018SOL    HW120687   1.400   3.489   3.607 -0.1365 -0.7400 -0.9572
 3018SOL    HW220688   1.480   3.371   3.642 -0.0750 -0.9067  0.9818
 3019SOL     OW20689   4.117   1.716   1.622 -0.0057 -0.0412 -0.0967
 3019SOL    HW120690   4.152   1.657   1.689 -1.2507  0.0731  0.6573
 3019SOL    HW220691   4.160   1.691   1.540 -0.3859 -1.2995  0.0953
 3020SOL     OW20692   0.017   2.930   3.066  0.3837  0.5253  0.3934
 3020SOL    HW120693   0.020   3.017   3.105 -0.8495  1.4121 -1.5007
 3020SOL    HW220694   0.022   2.962   2.976  3.4986 -2.0820 -0.3464
 3021SOL     OW20695   2.762   2.648   3.382 -0.0910  0.4820 -0.5747
 3021SOL    HW120696   2.676   2.607   3.388  0.4418 -0.6710 -1.0126
 3021SOL    HW220697   2.816   2.589   3.330 -0.9740  0.1887 -1.1728
 3022SOL     OW20698   0.079   3.789  17.376  0.1927  0.1300 -0.3350
 3022SOL    HW120699   0.112   3.706  17.411 -0.3702 -0.4956 -1.2631
 3022SOL    HW220700   4.725   3.781  17.392  0.2223  0.9580  0.2237
 3023SOL     OW20701   2.675   0.326  11.686 -0.2634 -0.0469 -0.3218
 3023SOL    HW120702   2.596   0.345  11.635 -0.8137 -0.4006  0.3976
 3023SOL    HW220703   2.676   0.409  11.733 -2.0757 -1.1824  1.7245
 3024SOL     OW20704   4.492   1.274   2.002 -0.4041  0.2325 -0.3702
 3024SOL    HW120705   4.459   1.321   2.078 -0.1614  0.6034 -0.4907
 3024SOL    HW220706   4.563   1.326   1.963 -0.1167 -1.8198 -2.5854
 3025SOL     OW20707   3.551   1.481   4.100  0.3961 -0.1614  0.8669
 3025SOL    HW120708   3.551   1.450   4.010  1.6704 -0.2277  0.8894
 3025SOL    HW220709   3.544   1.576   4.096  0.3130 -0.1841  0.4467
 3026SOL     OW20710   4.218   0.900   2.458 -0.1024 -0.0152  0.4223
 3026SOL    HW120711   4.199   0.925   2.368 -0.3544  0.7752  0.7025
 3026SOL    HW220712   4.177   0.973   2.503 -0.8880 -0.9387  1.2138
 3027SOL     OW20713   2.264   2.728   5.663 -0.0888 -0.6195 -0.0926
 3027SOL    HW120714   2.317   2.774   5.727  2.3398 -1.3341 -1.5836
 3027SOL    HW220715   2.203   2.679   5.718 -2.7218  0.5438 -1.9480
 3028SOL     OW20716   0.853   2.756   5.825 -0.5437 -0.2486  0.6585
 3028SOL    HW120717   0.865   2.797   5.911  1.4732  2.2776 -0.8063
 3028SOL    HW220718   0.940   2.769   5.787 -1.7748  1.4964 -1.5612
 3029SOL     OW20719   4.520   3.161   5.086  0.5164 -0.3673  0.2947
 3029SOL    HW120720   4.586   3.121   5.142  0.5149  1.3148  1.5206
 3029SOL    HW220721   4.503   3.096   5.018 -0.4818 -2.2012  2.3147
 3030SOL     OW20722   1.886   0.461   4.991 -0.2558  0.8732  0.1283
 3030SOL    HW120723   1.796   0.435   5.010 -0.1419 -0.3768 -1.0325
 3030SOL    HW220724   1.914   0.470   5.082 -0.9220 -0.1945  0.4337
 3031SOL     OW20725   4.308   1.729   5.830  0.0687 -0.3171  0.2615
 3031SOL    HW120726   4.258   1.702   5.753 -0.8046 -2.9174  1.7406
 3031SOL    HW220727   4.390   1.681   5.819  0.0838 -0.4365  0.9219
 3032SOL     OW20728   2.113   4.596  16.579 -0.2148 -0.2478 -0.2586
 3032SOL    HW120729   2.105   4.668  16.642  0.4664 -1.0278  0.7151
 3032SOL    HW220730   2.188   4.550  16.616 -1.4985 -1.3872  0.9114
 3033SOL     OW20731   1.312   3.329   2.454 -0.6288  0.2886  0.4667
 3033SOL    HW120732   1.401   3.298   2.475 -0.8541 -1.2583 -0.8776
 3033SOL    HW220733   1.267   3.326   2.539 -2.2035 -1.1521 -0.4203
 3034SOL     OW20734   2.464   4.265   2.264  0.5519 -0.7412  0.3440
 3034SOL    HW120735   2.406   4.332   2.228 -0.2609 -0.7833  1.5883
 3034SOL    HW220736   2.520   4.246   2.188 -0.1249 -1.3148 -0.0074
 3035SOL     OW20737   3.558   4.318   8.613  0.2393 -0.1481 -0.2110
 3035SOL    HW120738   3.527   4.230   8.590 -0.6808 -0.0100  0.5267
 3035SOL    HW220739   3.631   4.294   8.669  1.6209  1.8286 -1.1641
 3036SOL     OW20740   2.929   3.468   5.546 -0.1214  0.3629 -0.1285
 3036SOL    HW120741   2.916   3.563   5.554 -0.0802  0.3361  0.3006
 3036SOL    HW220742   2.966   3.447   5.632  0.2425 -0.5954 -0.5310
 3037SOL     OW20743   3.800   3.744  14.476  0.2578 -0.1182 -0.2280
 3037SOL    HW120744   3.742   3.690  14.531 -2.1220  0.9595 -1.6905
 3037SOL    HW220745   3.819   3.809  14.544  0.8036 -0.6235  0.1058
 3038SOL     OW20746   1.350   2.125   7.876 -0.2456 -0.5286 -0.3323
 3038SOL    HW120747   1.381   2.158   7.792  0.4943  1.0776  0.5751
 3038SOL    HW220748   1.390   2.182   7.942  0.1805 -0.8763 -0.2863
 3039SOL     OW20749   3.469   3.617  14.916  0.1274 -0.7075  0.1070
 3039SOL    HW120750   3.536   3.557  14.948  0.1658 -1.0883 -0.6809
 3039SOL    HW220751   3.429   3.651  14.996  0.1907  1.9328 -0.9824
 3040SOL     OW20752   1.378   0.225   0.540  0.2623  0.2096  0.6021
 3040SOL    HW120753   1.359   0.299   0.483  2.4999  0.7977  0.5855
 3040SOL    HW220754   1.308   0.238   0.603  1.9331  0.6257  2.3787
 3041SOL     OW20755   2.433   1.138   5.996 -0.3240  0.0593 -0.0606
 3041SOL    HW120756   2.439   1.185   6.079 -0.4330 -2.7473  1.5423
 3041SOL    HW220757   2.360   1.187   5.959 -0.5499  0.5469  1.0425
 3042SOL     OW20758   3.273   2.159  12.424  0.0338  0.6787 -0.7158
 3042SOL    HW120759   3.306   2.122  12.342 -1.1554  0.3799 -1.0682
 3042SOL    HW220760   3.239   2.076  12.460  1.7072  0.8515  1.2598
 3043SOL     OW20761   3.172   3.956  13.037 -0.3031 -0.2948 -0.0115
 3043SOL    HW120762   3.111   3.931  13.106 -0.3593 -1.0352 -0.3285
 3043SOL    HW220763   3.235   3.998  13.096  0.3722 -1.8857  0.4257
 3044SOL     OW20764   2.044   2.461  17.359  0.5389 -0.0298  0.0248
 3044SOL    HW120765   1.999   2.443  17.277 -0.1882 -0.8090  0.5911
 3044SOL    HW220766   1.999   2.535  17.400  0.4471 -1.2466  2.1176
 3045SOL     OW20767   3.765   1.994   6.209 -0.9982 -0.7624  0.2178
 3045SOL    HW120768   3.815   2.063   6.166 -1.0662  0.9764  2.9087
 3045SOL    HW220769   3.676   2.028   6.216 -0.1675  1.1775  1.1722
 3046SOL     OW20770   0.170   1.512  17.436  0.1104  0.0203 -0.3743
 3046SOL    HW120771   0.256   1.551  17.426  0.2894 -0.0422  0.8977
 3046SOL    HW220772   0.124   1.573  17.379  2.1280 -0.1157 -2.1273
 3047SOL     OW20773   4.684   1.854   2.073 -0.8243  0.1660 -0.0720
 3047SOL    HW120774   4.737   1.786   2.032  0.1319 -0.0211  1.4782
 3047SOL    HW220775   4.593   1.827   2.062  0.0668 -2.4584 -1.0598
 3048SOL     OW20776   3.432   2.640   8.744  0.0265  0.1469 -0.0639
 3048SOL    HW120777   3.439   2.709   8.811  2.2392  0.4633 -0.6266
 3048SOL    HW220778   3.386   2.569   8.789 -0.4927 -0.4216 -1.4976
 3049SOL     OW20779   3.646   2.423   2.840 -0.1251  0.2072 -0.0586
 3049SOL    HW120780   3.640   2.381   2.926  1.8277  0.5655  0.2438
 3049SOL    HW220781   3.693   2.358   2.787  0.8204 -0.6631  1.8191
 3050SOL     OW20782   0.236   4.207   8.739  0.0680  0.4927  0.2347
 3050SOL    HW120783   0.216   4.297   8.764 -0.2118  0.5376 -0.1561
 3050SOL    HW220784   0.280   4.226   8.655 -1.1916  0.8128 -0.3447
 3051SOL     OW20785   4.078   2.149  11.098 -0.3288  0.1797  0.0629
 3051SOL    HW120786   4.139   2.190  11.037  0.3879  0.7861  1.1757
 3051SOL    HW220787   4.128   2.067  11.101 -0.3706  0.1667  0.3719
 3052SOL     OW20788   0.475   0.431   6.659 -0.1563  0.4878 -0.2827
 3052SOL    HW120789   0.525   0.390   6.588 -0.5522  2.3064 -1.6162
 3052SOL    HW220790   0.392   0.421   6.612  0.1686 -0.3995 -0.6716
 3053SOL     OW20791   0.543   2.723  13.368  0.6858 -0.0439 -0.2855
 3053SOL    HW120792   0.567   2.642  13.412 -0.5427 -0.5541 -0.5599
 3053SOL    HW220793   0.617   2.730  13.307 -0.4951 -1.2907 -1.8544
 3054SOL     OW20794   3.469   2.500   4.445 -0.2711 -0.5166  0.2183
 3054SOL    HW120795   3.540   2.553   4.480 -2.5770  3.8066 -1.6255
 3054SOL    HW220796   3.456   2.542   4.360  0.6173 -0.1435  0.2667
 3055SOL     OW20797   3.322   2.219   1.860  0.1943 -0.2607  0.0672
 3055SOL    HW120798   3.239   2.226   1.907  0.5411  0.7020  0.5342
 3055SOL    HW220799   3.364   2.303   1.881 -1.1819  0.1378  1.2743
 3056SOL     OW20800   0.132   1.865   6.055  0.3844 -0.0840 -0.5127
 3056SOL    HW120801   0.050   1.838   6.014 -0.7758 -0.7368  2.2175
 3056SOL    HW220802   0.191   1.796   6.026  0.3722 -0.0934 -0.5151
 3057SOL     OW20803   4.226   1.108   4.148 -0.2506 -0.4474 -0.8303
 3057SOL    HW120804   4.266   1.028   4.182 -1.6912 -0.5846  0.5491
 3057SOL    HW220805   4.177   1.077   4.071 -2.1597  1.1012 -0.2411
 3058SOL     OW20806   0.316   0.853  15.662 -0.2685  0.6059 -0.2697
 3058SOL    HW120807   0.378   0.911  15.706  3.1764 -2.4065 -1.1314
 3058SOL    HW220808   0.343   0.770  15.702 -1.6854  0.2169 -0.1107
 3059SOL     OW20809   3.441   0.947  17.338  0.7146  0.1507 -0.0227
 3059SOL    HW120810   3.375   1.016  17.342  0.4681 -0.0965  0.1871
 3059SOL    HW220811   3.400   0.870  17.378  3.7648 -1.6373 -0.2787
 3060SOL     OW20812   2.177   0.347  12.941  0.1349  0.1938  0.9183
 3060SOL    HW120813   2.194   0.333  12.848  0.7705  0.2741  1.0247
 3060SOL    HW220814   2.095   0.299  12.953  0.7395 -0.7250  1.2902
 3061SOL     OW20815   1.395   1.556   8.340  0.5820 -0.3683 -0.0399
 3061SOL    HW120816   1.490   1.565   8.329  0.4498  1.5891  0.4093
 3061SOL    HW220817   1.392   1.471   8.384 -0.2417 -1.0127 -1.3172
 3062SOL     OW20818   3.145   3.345  11.619 -0.1486  0.8491 -0.0798
 3062SOL    HW120819   3.144   3.254  11.589  1.0541  1.1125 -0.9278
 3062SOL    HW220820   3.116   3.391  11.540  0.8463 -0.6786 -1.3310
 3063SOL     OW20821   0.182   3.954   7.675 -0.0974 -0.1874 -0.6740
 3063SOL    HW120822   0.133   4.017   7.728 -0.5856 -2.6282  1.7673
 3063SOL    HW220823   0.221   3.997   7.598  1.1887  0.2048  0.1994
 3064SOL     OW20824   1.015   2.398   8.086 -0.1947  0.5882  0.3118
 3064SOL    HW120825   1.041   2.487   8.059  1.8009 -0.3348 -0.7767
 3064SOL    HW220826   0.924   2.396   8.056 -0.4174  0.9078  0.9758
 3065SOL     OW20827   3.047   4.273   2.548  0.4775  0.1880  0.1844
 3065SOL    HW120828   2.973   4.334   2.546  0.8401  0.6373  0.1828
 3065SOL    HW220829   3.127   4.323   2.528 -1.4126  2.8060 -0.9114
 3066SOL     OW20830   4.321   2.683  11.518  0.2268  0.2164 -0.7417
 3066SOL    HW120831   4.262   2.635  11.575 -1.2119  1.4572 -1.1785
 3066SOL    HW220832   4.270   2.689  11.437  1.6067 -1.8688 -1.7543
 3067SOL     OW20833   2.406   1.543   4.146  0.0626  0.5076  0.1943
 3067SOL    HW120834   2.355   1.617   4.177  0.3332  0.1748  1.4559
 3067SOL    HW220835   2.335   1.480   4.135 -1.1047  2.3210 -2.5312
 3068SOL     OW20836   0.976   2.866  13.079 -0.6124  0.3343 -0.0784
 3068SOL    HW120837   0.998   2.814  13.156 -0.2429  1.1245  0.3461
 3068SOL    HW220838   0.964   2.795  13.016 -1.9291  1.0277 -0.6159
 3069SOL     OW20839   1.935   1.508   9.426 -0.6432 -0.2992  0.5255
 3069SOL    HW120840   1.936   1.584   9.485  1.8428 -0.6083  0.8695
 3069SOL    HW220841   2.026   1.498   9.400 -0.2629  0.9181  1.3356
 3070SOL     OW20842   0.132   1.413   7.177  0.3911 -0.1685 -0.2908
 3070SOL    HW120843   0.186   1.344   7.216 -3.6745 -1.2173  3.4325
 3070SOL    HW220844   0.186   1.428   7.100  0.3280 -0.5892 -0.4155
 3071SOL     OW20845   2.962   3.872   4.600 -0.3518 -0.0835 -0.5347
 3071SOL    HW120846   2.914   3.810   4.655 -1.8056  0.4047 -1.2524
 3071SOL    HW220847   2.936   3.956   4.638 -0.6779 -1.6022  2.6247
 3072SOL     OW20848   1.683   0.933   1.505 -0.0527  0.2771 -0.3102
 3072SOL    HW120849   1.718   0.864   1.448  1.3641  0.1670  0.7012
 3072SOL    HW220850   1.597   0.893   1.513  0.9108 -1.8514 -0.5240
 3073SOL     OW20851   4.307   1.056   5.468  0.1711 -0.3386  0.1555
 3073SOL    HW120852   4.350   1.062   5.383  1.9528 -1.3045  0.9947
 3073SOL    HW220853   4.320   1.143   5.505 -2.1110 -0.1492  0.5442
 3074SOL     OW20854   3.683   4.214   9.030  0.5280  0.9028  0.2348
 3074SOL    HW120855   3.705   4.211   8.937 -1.1231  1.1380 -0.1699
 3074SOL    HW220856   3.637   4.298   9.028 -2.2023 -0.6308 -0.6431
 3075SOL     OW20857   3.348   1.653   8.736  0.8908  0.4609  0.1470
 3075SOL    HW120858   3.263   1.697   8.728  0.2510 -0.7483  0.3374
 3075SOL    HW220859   3.403   1.710   8.683  3.8856 -0.1410  2.5911
 3076SOL     OW20860   0.412   2.016   8.474  0.0566 -0.6245 -0.0149
 3076SOL    HW120861   0.473   2.089   8.460  1.2000 -1.5611  0.1035
 3076SOL    HW220862   0.448   1.942   8.427  0.3319  0.7662 -1.9911
 3077SOL     OW20863   0.108   0.952   4.869  0.2676 -0.0173 -0.0056
 3077SOL    HW120864   0.056   0.989   4.798  1.4666  3.2116  0.7863
 3077SOL    HW220865   0.083   0.860   4.862  0.7490 -0.1682  0.2378
 3078SOL     OW20866   1.530   4.594   3.311  0.0908  0.8323  0.1100
 3078SOL    HW120867   1.442   4.557   3.309 -0.0799  1.3984 -2.1892
 3078SOL    HW220868   1.551   4.590   3.218 -0.3839 -0.4913  0.0646
 3079SOL     OW20869   4.722   0.465   9.964 -0.2918 -0.4273 -0.1693
 3079SOL    HW120870   4.699   0.405   9.893  0.2681  1.3151 -1.8173
 3079SOL    HW220871   4.645   0.506  10.003 -0.3001  0.4131 -1.0690
 3080SOL     OW20872   2.297   1.808   8.060  0.4387 -0.0116  0.2153
 3080SOL    HW120873   2.234   1.737   8.070  0.1180  0.3174  0.5200
 3080SOL    HW220874   2.268   1.862   8.133  1.1253  3.4520 -2.0600
 3081SOL     OW20875   2.244   1.853   2.223  0.1853 -0.0223  0.3278
 3081SOL    HW120876   2.215   1.880   2.136 -2.4931  0.3780  1.3527
 3081SOL    HW220877   2.283   1.934   2.255  1.3515 -0.0332 -1.0428
 3082SOL     OW20878   3.685   3.278   7.893 -0.1185  0.5421  0.1858
 3082SOL    HW120879   3.747   3.257   7.963 -2.0592  0.4527  1.8724
 3082SOL    HW220880   3.604   3.272   7.943  0.7668  1.3508  1.7071
 3083SOL     OW20881   3.767   0.853  15.974  0.2494 -0.0305 -0.0024
 3083SOL    HW120882   3.841   0.895  15.932 -1.3468  0.3805 -2.3794
 3083SOL    HW220883   3.786   0.853  16.068  0.6972 -1.4679 -0.0885
 3084SOL     OW20884   3.315   2.978   4.371  0.0095 -0.3996  0.2104
 3084SOL    HW120885   3.379   3.048   4.385 -0.0351 -0.0313 -1.3577
 3084SOL    HW220886   3.326   2.953   4.279  0.1294 -2.5044  0.8011
 3085SOL     OW20887   0.827   4.630   8.301  0.5635  0.1207 -0.3562
 3085SOL    HW120888   0.819   4.570   8.227  0.5890  0.6565 -0.7865
 3085SOL    HW220889   0.837   4.575   8.379  1.5545 -1.6054 -1.6881
 3086SOL     OW20890   4.614   1.738   4.898 -0.1003 -0.2182 -0.1451
 3086SOL    HW120891   4.583   1.801   4.832  0.6949 -0.2270 -0.5186
 3086SOL    HW220892   4.701   1.777   4.909 -0.0142 -0.3291 -0.4370
 3087SOL     OW20893   3.517   0.855  12.915 -0.4114 -0.1954  0.2069
 3087SOL    HW120894   3.466   0.934  12.894 -0.7779 -0.0764  1.5787
 3087SOL    HW220895   3.497   0.797  12.841 -0.4050  1.2248 -0.9243
 3088SOL     OW20896   3.163   1.192   1.145 -0.6187 -0.3904  0.2463
 3088SOL    HW120897   3.160   1.203   1.240 -3.4922 -1.2207  0.2220
 3088SOL    HW220898   3.114   1.270   1.119  0.0876 -0.7674 -2.2394
 3089SOL     OW20899   2.176   3.707  11.266 -0.2329  0.2981  0.2694
 3089SOL    HW120900   2.257   3.746  11.297 -0.8194  2.1283 -0.4637
 3089SOL    HW220901   2.121   3.782  11.242 -0.6612 -0.2923 -0.6345
 3090SOL     OW20902   1.847   0.296   7.288 -0.0533  0.3061 -0.0038
 3090SOL    HW120903   1.782   0.337   7.231 -0.9908 -0.8388  0.2289
 3090SOL    HW220904   1.871   0.361   7.354  0.5415 -2.2106  2.2614
 3091SOL     OW20905   3.022   2.481   2.376  0.1108 -0.5017  0.2929
 3091SOL    HW120906   3.020   2.466   2.471  1.4568 -0.2126  0.3712
 3091SOL    HW220907   3.037   2.575   2.372 -1.8633 -0.1054  2.5598
 3092SOL     OW20908   1.406   4.614  12.574 -0.3751  0.0146 -0.2641
 3092SOL    HW120909   1.372   4.698  12.542 -2.5684  0.3815  3.0584
 3092SOL    HW220910   1.333   4.590  12.632 -0.7531 -0.3505 -0.8865
 3093SOL     OW20911   4.563   2.281   5.641  0.3508 -0.8951 -0.6351
 3093SOL    HW120912   4.484   2.227   5.642  0.0091 -0.4119 -1.2668
 3093SOL    HW220913   4.625   2.230   5.692  0.6591 -0.0600 -0.1789
 3094SOL     OW20914   4.433   4.409   6.423  0.3456  0.7209 -0.2305
 3094SOL    HW120915   4.417   4.336   6.363  1.1809  1.3857 -1.2597
 3094SOL    HW220916   4.356   4.403   6.480  0.0062 -0.3939 -0.8062
 3095SOL     OW20917   2.021   4.138   3.641  0.1101 -0.5558  0.1875
 3095SOL    HW120918   2.056   4.081   3.709  2.5263  1.8375  0.9742
 3095SOL    HW220919   2.022   4.218   3.694  3.5774  0.9821 -2.1826
 3096SOL     OW20920   4.310   1.241   2.243  0.3848 -0.2152 -0.0811
 3096SOL    HW120921   4.359   1.177   2.295  1.9187 -0.3926 -1.7542
 3096SOL    HW220922   4.292   1.193   2.162  1.5820 -0.8691  0.0378
 3097SOL     OW20923   2.128   3.378   6.012 -0.6465  0.0960 -0.6208
 3097SOL    HW120924   2.154   3.311   5.949 -1.3749 -0.5684 -0.2060
 3097SOL    HW220925   2.217   3.408   6.034 -1.0054  0.6206  0.1332
 3098SOL     OW20926   0.552   4.574  10.709 -0.6361  0.1475 -0.0993
 3098SOL    HW120927   0.640   4.541  10.727 -0.9947 -1.5751 -1.4865
 3098SOL    HW220928   0.505   4.553  10.790  0.5043  0.8198  0.7338
 3099SOL     OW20929   2.563   2.055   6.930 -0.0291 -0.3667  0.1955
 3099SOL    HW120930   2.506   2.115   6.980 -0.4246  0.4291 -1.2287
 3099SOL    HW220931   2.493   2.014   6.880  0.4081  1.3393 -1.7791
 3100SOL     OW20932   1.455   1.872   5.660  0.4713  0.3284 -0.0654
 3100SOL    HW120933   1.536   1.894   5.707 -0.1261  3.4432 -0.4829
 3100SOL    HW220934   1.415   1.959   5.664  0.6331  0.3095  2.3841
 3101SOL     OW20935   1.212   4.235   7.187  0.1298  0.0856 -0.2765
 3101SOL    HW120936   1.280   4.188   7.236 -1.4400  0.7166  2.4913
 3101SOL    HW220937   1.136   4.178   7.189 -0.1224  0.5129  2.1086
 3102SOL     OW20938   0.542   3.482   2.814  0.1448 -0.1557  0.5938
 3102SOL    HW120939   0.619   3.536   2.797  1.0791 -2.0154 -1.1044
 3102SOL    HW220940   0.510   3.517   2.897 -1.3156 -1.5285  0.6266
 3103SOL     OW20941   3.250   3.649   3.241  0.3930 -0.2353 -0.1537
 3103SOL    HW120942   3.201   3.677   3.164  0.8795 -0.7925 -0.6658
 3103SOL    HW220943   3.308   3.582   3.204  2.7111  1.1545  0.9485
 3104SOL     OW20944   2.774   2.578   6.400 -0.3041 -0.1108 -0.3762
 3104SOL    HW120945   2.830   2.617   6.333  0.6428 -0.7164  0.0508
 3104SOL    HW220946   2.821   2.578   6.484 -0.9146  1.5205 -0.0221
 3105SOL     OW20947   1.991   4.124   0.780 -0.3900 -0.5576 -0.5189
 3105SOL    HW120948   2.002   4.031   0.757 -0.8798 -0.4212 -1.3006
 3105SOL    HW220949   1.914   4.112   0.835 -0.1028 -2.5533 -0.5304
 3106SOL     OW20950   2.679   4.569   6.784  0.4397 -0.1493 -0.6235
 3106SOL    HW120951   2.623   4.593   6.859 -0.9616 -0.5590 -1.5290
 3106SOL    HW220952   2.670   4.654   6.741  0.7200 -0.1425 -0.6666
 3107SOL     OW20953   3.573   0.778   3.355  0.7489  0.5305 -0.2783
 3107SOL    HW120954   3.566   0.686   3.327  2.1024  0.7645 -1.4133
 3107SOL    HW220955   3.646   0.821   3.310  1.7004 -1.3932 -0.5795
 3108SOL     OW20956   0.435   1.323  12.829  0.3549 -0.2017  0.3159
 3108SOL    HW120957   0.369   1.324  12.898 -1.2482  0.5631 -1.2282
 3108SOL    HW220958   0.457   1.230  12.822 -3.0985 -0.9526 -0.5567
 3109SOL     OW20959   1.702   4.335  15.950 -0.2406 -0.2821  0.4521
 3109SOL    HW120960   1.731   4.254  15.908 -2.7466 -1.5136  1.0786
 3109SOL    HW220961   1.607   4.322  15.949 -0.2494 -0.1187 -0.3847
 3110SOL     OW20962   2.801   4.331   0.123 -0.2960 -0.2789 -0.2161
 3110SOL    HW120963   2.816   4.248   0.168 -0.6468 -0.5201 -0.5492
 3110SOL    HW220964   2.785   4.381   0.203 -0.3490  1.7273 -1.4749
 3111SOL     OW20965   0.893   3.718   0.798 -0.0659 -0.5483 -0.3747
 3111SOL    HW120966   0.865   3.631   0.769 -3.2389 -0.1608  1.5657
 3111SOL    HW220967   0.841   3.774   0.741 -0.8696 -0.1390  0.7525
 3112SOL     OW20968   2.141   0.002  11.613 -0.4454  0.3879  0.7201
 3112SOL    HW120969   2.197   0.070  11.576 -2.1280  1.1010 -0.5308
 3112SOL    HW220970   2.185   4.667  11.574  2.1652  2.1196  0.3326
 3113SOL     OW20971   3.334   1.075   2.554 -0.3266 -0.5621  0.4012
 3113SOL    HW120972   3.384   1.156   2.548 -2.1673  0.6947  1.8191
 3113SOL    HW220973   3.274   1.084   2.480 -1.5009 -2.3746  1.1278
 3114SOL     OW20974   4.694   2.969   2.778 -0.0418  0.0719  0.0384
 3114SOL    HW120975   4.681   3.055   2.739  0.3323  0.5875  1.0336
 3114SOL    HW220976   0.039   2.940   2.745  0.7224  2.1872  0.1252
 3115SOL     OW20977   4.378   1.322   3.034 -0.2037  0.5032 -0.0934
 3115SOL    HW120978   4.456   1.279   3.069  0.1123  1.9252  0.9358
 3115SOL    HW220979   4.312   1.254   3.044 -0.8890  0.6022 -3.8539
 3116SOL     OW20980   2.048   3.799   9.328  0.6209  0.0593  0.4348
 3116SOL    HW120981   2.018   3.879   9.286 -0.3298 -0.5487 -0.0310
 3116SOL    HW220982   2.138   3.823   9.351 -0.2800  1.1913  2.7863
 3117SOL     OW20983   3.856   3.904   0.226  0.4829 -0.2408 -0.0201
 3117SOL    HW120984   3.915   3.977   0.243 -0.9113  0.6366  1.0955
 3117SOL    HW220985   3.776   3.927   0.274  0.5951 -0.4138  0.2531
 3118SOL     OW20986   3.597   2.082  13.016  0.0531 -0.2758 -0.3339
 3118SOL    HW120987   3.600   1.987  13.027  3.3550 -0.2906 -1.3182
 3118SOL    HW220988   3.653   2.117  13.086 -1.4827 -0.2797  0.9176
 3119SOL     OW20989   1.880   3.702   2.594  0.0572  0.2602 -0.3343
 3119SOL    HW120990   1.966   3.700   2.637  0.0414  0.0299 -0.3122
 3119SOL    HW220991   1.858   3.609   2.588 -0.0849  0.1669  1.6383
 3120SOL     OW20992   0.411   4.646   5.652 -0.2093 -0.9068 -0.2245
 3120SOL    HW120993   0.331   4.681   5.613 -0.3002 -0.1682  0.6158
 3120SOL    HW220994   0.368   4.561   5.667 -1.7993 -0.2057 -0.8015
 3121SOL     OW20995   0.503   0.131   4.190  0.1552 -0.3019  0.6641
 3121SOL    HW120996   0.528   0.048   4.230 -0.5639 -0.9664 -0.2642
 3121SOL    HW220997   0.567   0.196   4.221 -1.4340  1.2377  0.7463
 3122SOL     OW20998   0.869   2.821   2.498  0.5385  0.1104 -0.8335
 3122SOL    HW120999   0.893   2.776   2.417 -1.4964  0.8373 -1.8249
 3122SOL    HW221000   0.910   2.905   2.479 -1.7532  1.1501 -1.1559
 3123SOL     OW21001   1.972   4.287   6.755  0.1269  0.4088 -0.0127
 3123SOL    HW121002   2.065   4.278   6.776  0.3876 -0.8967 -1.7272
 3123SOL    HW221003   1.976   4.240   6.672  0.3005  1.2195 -0.4596
 3124SOL     OW21004   2.185   0.452   5.623 -0.1728  0.5453  0.2340
 3124SOL    HW121005   2.173   0.547   5.621  1.5876  0.7719  0.4164
 3124SOL    HW221006   2.209   0.453   5.716  3.6940 -2.0161 -0.7586
 3125SOL     OW21007   2.996   3.974  15.733 -0.1970 -0.5838 -0.3047
 3125SOL    HW121008   2.965   3.892  15.694  1.4507 -1.2225 -0.3027
 3125SOL    HW221009   2.976   4.036  15.663  0.2075  1.3911  1.3697
 3126SOL     OW21010   0.578   2.581  15.194 -0.0232  0.2444 -0.0327
 3126SOL    HW121011   0.549   2.575  15.285 -2.0430  0.1104 -0.6985
 3126SOL    HW221012   0.509   2.633  15.153  0.9089  1.9648  0.5522
 3127SOL     OW21013   3.642   0.017   3.192  0.6383 -0.1057  0.1135
 3127SOL    HW121014   3.630   4.715   3.107  0.4778 -3.9638  2.0786
 3127SOL    HW221015   3.677   0.102   3.163  1.0188 -0.3418 -0.1194
 3128SOL     OW21016   1.286   4.448   9.417  0.5038 -0.0832  0.1456
 3128SOL    HW121017   1.205   4.404   9.443  0.1596 -0.2047 -1.1259
 3128SOL    HW221018   1.328   4.471   9.500 -2.1244 -0.9330  1.7376
 3129SOL     OW21019   4.051   1.368  10.633 -0.1105 -0.3550  0.7361
 3129SOL    HW121020   4.053   1.353  10.728  1.3779 -2.0122  0.4412
 3129SOL    HW221021   4.029   1.461  10.629 -0.1574 -0.4194 -0.5262
 3130SOL     OW21022   2.761   0.204   8.439 -0.6165 -0.1977  0.4653
 3130SOL    HW121023   2.684   0.260   8.446 -0.5353 -0.0833  0.4450
 3130SOL    HW221024   2.766   0.180   8.347  0.4451 -5.0465  1.7544
 3131SOL     OW21025   2.202   4.529   8.855  0.1654 -0.3697 -0.0360
 3131SOL    HW121026   2.265   4.585   8.901  0.5932 -1.7253  1.0408
 3131SOL    HW221027   2.188   4.579   8.775 -0.4328 -0.9388 -0.2895
 3132SOL     OW21028   1.911   2.878   5.707  0.3104  0.2280  0.3796
 3132SOL    HW121029   1.921   2.957   5.655 -0.5309  0.1784  0.1425
 3132SOL    HW221030   1.928   2.816   5.636  1.6215 -0.7839  1.5743
 3133SOL     OW21031   3.806   1.110   2.373 -0.6835  0.1291 -0.0127
 3133SOL    HW121032   3.772   1.050   2.438  2.6684 -0.5914  1.0896
 3133SOL    HW221033   3.870   1.159   2.426  1.1727 -0.3974 -1.7542
 3134SOL     OW21034   2.178   2.335   3.013  0.2246  0.4647  0.4172
 3134SOL    HW121035   2.206   2.426   3.017 -0.4069  0.7593 -1.8750
 3134SOL    HW221036   2.165   2.317   3.106 -0.9184 -0.0141  0.1666
 3135SOL     OW21037   2.490   4.408   5.247  0.0431  0.2938  0.1944
 3135SOL    HW121038   2.416   4.361   5.209  0.1296  1.2101 -1.0740
 3135SOL    HW221039   2.528   4.336   5.298  2.5190  0.7423 -1.0224
 3136SOL     OW21040   4.436   2.807   6.873  0.4504 -0.3095 -0.2585
 3136SOL    HW121041   4.397   2.736   6.924  0.0938  0.7995  1.0103
 3136SOL    HW221042   4.371   2.801   6.803  0.4879 -1.4374 -0.1973
 3137SOL     OW21043   4.382   0.891  11.978 -0.4411 -0.0150 -0.0535
 3137SOL    HW121044   4.422   0.906  11.892 -1.8564 -1.4127 -0.9517
 3137SOL    HW221045   4.422   0.808  12.001  1.5425  0.0287 -3.4086
 3138SOL     OW21046   3.819   1.614  13.443  0.0591  0.1207  0.2752
 3138SOL    HW121047   3.761   1.689  13.456 -1.0058 -0.7890  0.7392
 3138SOL    HW221048   3.773   1.540  13.483  2.1854 -1.4249 -0.1382
 3139SOL     OW21049   0.174   3.565  17.752 -0.1309 -0.4160  0.1925
 3139SOL    HW121050   0.220   3.500   0.047 -0.8293 -0.1082  1.1843
 3139SOL    HW221051   0.092   3.566   0.043 -0.3779  0.1702 -0.2343
 3140SOL     OW21052   2.364   1.412   5.791 -0.2285 -0.3983  0.6564
 3140SOL    HW121053   2.308   1.350   5.838 -1.4962 -1.0504 -1.7131
 3140SOL    HW221054   2.381   1.482   5.853 -2.9606  0.4454  0.4827
 3141SOL     OW21055   4.287   2.737  11.940 -0.5330 -0.3351  0.2639
 3141SOL    HW121056   4.314   2.645  11.935  0.1557  0.0133 -2.5135
 3141SOL    HW221057   4.372   2.779  11.928 -0.4797 -0.4666  0.1826
 3142SOL     OW21058   1.196   0.917   4.531 -0.0164 -0.2428  0.1048
 3142SOL    HW121059   1.138   0.921   4.455 -0.7706 -0.9009  0.6542
 3142SOL    HW221060   1.176   0.836   4.577 -0.9410  0.4418  0.9207
 3143SOL     OW21061   2.026   3.677   7.041  0.5516  0.1732 -0.1487
 3143SOL    HW121062   2.023   3.711   6.952  0.6763  0.0754 -0.1904
 3143SOL    HW221063   1.942   3.701   7.080  1.9255  1.6381  1.9535
 3144SOL     OW21064   2.905   1.898   5.016 -0.2155  0.2036  0.0044
 3144SOL    HW121065   2.831   1.864   5.065  0.2167  1.2174  1.3775
 3144SOL    HW221066   2.952   1.820   4.986  0.3415  0.3794  0.4155
 3145SOL     OW21067   2.258   2.842   4.000  0.1883 -0.5493  0.3719
 3145SOL    HW121068   2.250   2.880   4.088 -0.7633  0.7094 -0.2671
 3145SOL    HW221069   2.165   2.829   3.984  0.1212  1.0762 -0.5828
 3146SOL     OW21070   3.756   4.201   5.966  0.1412 -0.0688  0.1787
 3146SOL    HW121071   3.797   4.274   6.012  0.1042 -1.5458  2.5695
 3146SOL    HW221072   3.678   4.179   6.016 -0.8676  0.5165 -1.1430
 3147SOL     OW21073   4.078   0.413   2.547  0.1936  0.0124  0.0169
 3147SOL    HW121074   4.138   0.455   2.485 -1.5358  1.2272 -0.8824
 3147SOL    HW221075   4.063   0.486   2.607 -1.0171 -0.7575  0.6644
 3148SOL     OW21076   4.335   2.212  17.155 -0.0768  0.0635 -0.9532
 3148SOL    HW121077   4.393   2.169  17.092 -0.6029 -1.3451 -0.4726
 3148SOL    HW221078   4.250   2.197  17.113 -0.3937 -0.2125 -0.2086
 3149SOL     OW21079   3.467   2.464   5.496 -0.3541  0.1590  0.2209
 3149SOL    HW121080   3.391   2.408   5.514 -0.5548  1.3020  2.9519
 3149SOL    HW221081   3.475   2.425   5.410 -1.5667 -0.6234  0.4603
 3150SOL     OW21082   2.281   1.993   4.916  0.0709  0.7482  0.2841
 3150SOL    HW121083   2.333   2.073   4.927 -0.0812  0.7539  0.9251
 3150SOL    HW221084   2.333   1.935   4.860  0.7657 -0.1206  1.8190
 3151SOL     OW21085   4.495   2.191   2.114  0.4197  0.2277  0.2064
 3151SOL    HW121086   4.502   2.145   2.198 -0.6806 -1.2996 -0.5302
 3151SOL    HW221087   4.490   2.118   2.052 -3.6177 -0.8565  1.7739
 3152SOL     OW21088   0.020   2.638   4.378  0.2763 -0.0002  0.1194
 3152SOL    HW121089   4.670   2.608   4.372 -0.0883  1.1456 -0.1652
 3152SOL    HW221090   0.029   2.658   4.285  1.1855 -2.1488 -0.2503
 3153SOL     OW21091   2.249   0.941   5.479 -0.5018  0.2459 -0.0246
 3153SOL    HW121092   2.302   0.890   5.418  0.3596  0.0557  0.8677
 3153SOL    HW221093   2.254   0.886   5.557 -0.2081 -0.2088 -0.3632
 3154SOL     OW21094   2.254   2.914   6.329 -0.2121 -0.2201 -0.1358
 3154SOL    HW121095   2.162   2.899   6.306  0.4510  1.0983 -3.6120
 3154SOL    HW221096   2.242   2.994   6.380  0.2445 -0.4348  0.3178
 3155SOL     OW21097   1.628   2.065   4.336 -0.1531 -0.5683  0.2826
 3155SOL    HW121098   1.610   2.110   4.254  0.5360 -1.4257 -0.3279
 3155SOL    HW221099   1.559   1.999   4.333  0.2375 -0.9439 -0.3433
 3156SOL     OW21100   2.380   0.087  15.655 -0.1280  0.2450 -0.5325
 3156SOL    HW121101   2.425   0.105  15.572  1.4912 -1.4832 -0.0308
 3156SOL    HW221102   2.295   0.129  15.643 -0.4678 -0.3276 -0.1250
 3157SOL     OW21103   0.077   0.365   3.529  0.1467  0.1204  0.4232
 3157SOL    HW121104   0.011   0.362   3.598 -0.1287  1.7804  0.2290
 3157SOL    HW221105   0.090   0.273   3.503 -4.0792 -1.4015  3.6538
 3158SOL     OW21106   2.141   2.652  15.875  0.4383  0.1295  0.0546
 3158SOL    HW121107   2.140   2.748  15.872 -0.9516  0.1393  0.7888
 3158SOL    HW221108   2.048   2.634  15.857  0.0869  2.7716 -0.8291
 3159SOL     OW21109   0.319   2.868  10.988  0.1724 -0.1174 -0.5832
 3159SOL    HW121110   0.308   2.796  10.926 -0.9902  0.0487 -0.5660
 3159SOL    HW221111   0.257   2.934  10.958  1.0570  0.1263 -1.8589
 3160SOL     OW21112   1.440   2.354   4.326  0.3589  0.2219  0.0173
 3160SOL    HW121113   1.503   2.402   4.379 -1.2520  1.8702  0.4285
 3160SOL    HW221114   1.493   2.301   4.266 -0.1380 -0.9261  0.5844
 3161SOL     OW21115   2.056   1.739   2.583  0.0349 -0.1540  0.1211
 3161SOL    HW121116   1.975   1.742   2.532  1.0289 -2.0362 -1.5698
 3161SOL    HW221117   2.122   1.708   2.521  0.3446  0.7163  0.0061
 3162SOL     OW21118   1.087   2.547   7.437 -0.0209  0.0756 -0.2444
 3162SOL    HW121119   1.107   2.608   7.366  2.3335  0.3249  0.6254
 3162SOL    HW221120   1.034   2.599   7.497 -1.2989 -1.8255  0.2594
 3163SOL     OW21121   2.071   4.522   7.621 -0.3875  0.1305  0.0573
 3163SOL    HW121122   2.150   4.491   7.665 -0.6869 -1.3448 -0.4428
 3163SOL    HW221123   2.074   4.477   7.536 -0.3727 -0.0367  0.1474
 3164SOL     OW21124   0.888   0.967   0.553  0.1659  0.1073 -0.0945
 3164SOL    HW121125   0.812   0.915   0.579  2.4342 -2.6435  0.9859
 3164SOL    HW221126   0.865   1.019   0.476 -1.8771 -0.3819  0.1815
 3165SOL     OW21127   1.119   2.347   4.081 -0.2678  0.3392 -0.0820
 3165SOL    HW121128   1.198   2.386   4.043 -1.6018  2.8723 -0.2296
 3165SOL    HW221129   1.131   2.252   4.086  1.1471  0.4705 -0.8660
 3166SOL     OW21130   0.717   1.931   8.305 -0.0610  0.2843  0.0340
 3166SOL    HW121131   0.766   1.892   8.378  0.7348  1.0079 -0.1134
 3166SOL    HW221132   0.759   2.015   8.289 -0.6967  0.5509 -0.2313
 3167SOL     OW21133   1.041   4.141   2.189 -0.3121  0.1405  0.2285
 3167SOL    HW121134   1.015   4.055   2.156  0.7375 -0.8008  1.8154
 3167SOL    HW221135   1.134   4.140   2.166 -0.5530 -1.7750 -0.7158
 3168SOL     OW21136   2.527   1.079  14.963  0.2865  0.3481 -0.6126
 3168SOL    HW121137   2.476   1.158  14.978  0.1296  0.2544 -0.6474
 3168SOL    HW221138   2.539   1.081  14.868  1.6636  1.6593 -0.4008
 3169SOL     OW21139   2.978   3.758   7.277  0.0479  0.0390  0.0101
 3169SOL    HW121140   2.948   3.808   7.200 -3.8916  0.7010  1.9936
 3169SOL    HW221141   2.894   3.758   7.322  0.0982 -0.1126  0.1019
 3170SOL     OW21142   1.064   2.290   6.856  0.2174  0.3386  0.2897
 3170SOL    HW121143   1.069   2.216   6.916 -1.4087  0.4200  0.5386
 3170SOL    HW221144   1.137   2.346   6.881  1.5858 -0.9229 -0.9092
 3171SOL     OW21145   2.827   1.456  17.260 -0.0785  0.1201  0.5363
 3171SOL    HW121146   2.851   1.534  17.310  0.9120 -1.8996  3.2587
 3171SOL    HW221147   2.809   1.384  17.321 -1.1253 -0.4972 -0.5036
 3172SOL     OW21148   2.168   0.644  10.697  0.6560 -0.0624  0.6600
 3172SOL    HW121149   2.211   0.725  10.722  0.3593 -0.1426  1.4369
 3172SOL    HW221150   2.235   0.584  10.728  0.5492 -1.5386 -1.9565
 3173SOL     OW21151   1.131   2.571   8.737  0.6570  0.5778  0.0670
 3173SOL    HW121152   1.210   2.623   8.748  2.7050 -2.3521 -0.7380
 3173SOL    HW221153   1.158   2.488   8.698  2.6049  0.7449  1.0638
 3174SOL     OW21154   3.319   2.853   9.406  0.0779  0.1699 -0.0479
 3174SOL    HW121155   3.265   2.810   9.472 -1.0747  0.5978 -0.7311
 3174SOL    HW221156   3.320   2.788   9.336 -0.4888 -1.5666  1.5444
 3175SOL     OW21157   4.614   1.192   6.266 -0.2766  0.0991 -0.5320
 3175SOL    HW121158   4.568   1.275   6.256  0.6878  0.4965 -1.5573
 3175SOL    HW221159   4.542   1.128   6.270 -2.2280  2.2522 -1.7208
 3176SOL     OW21160   0.358   2.256   0.640  0.2102 -0.3194  0.0717
 3176SOL    HW121161   0.315   2.253   0.726 -3.8750  1.0680 -1.9616
 3176SOL    HW221162   0.281   2.237   0.588 -1.1399  1.2085  1.5156
 3177SOL     OW21163   1.961   2.851   7.703 -0.4466 -0.3490  0.0433
 3177SOL    HW121164   1.887   2.852   7.642  1.1371  0.8344 -1.8640
 3177SOL    HW221165   2.009   2.769   7.697 -1.1386 -0.6146 -2.1742
 3178SOL     OW21166   2.102   1.777   8.834 -0.1755  0.4322 -0.0735
 3178SOL    HW121167   2.018   1.813   8.803 -0.6575 -1.5916 -1.0801
 3178SOL    HW221168   2.161   1.852   8.844 -0.1425  0.0575  2.4181
 3179SOL     OW21169   2.488   0.820   4.889  0.2666  0.0108 -0.2114
 3179SOL    HW121170   2.400   0.858   4.879  0.9957  1.3973 -1.2004
 3179SOL    HW221171   2.462   0.741   4.938  0.6399 -0.2053 -0.3670
 3180SOL     OW21172   3.961   1.839   2.014 -0.3705 -0.5110  0.1766
 3180SOL    HW121173   3.891   1.845   2.078 -0.4260  0.4510  0.0283
 3180SOL    HW221174   4.020   1.778   2.059 -0.4537 -0.5497  0.2321
 3181SOL     OW21175   4.243   2.866   3.405  1.1136 -0.0258  0.0782
 3181SOL    HW121176   4.258   2.936   3.341  0.0063 -1.0848 -1.3635
 3181SOL    HW221177   4.193   2.906   3.476  2.2427  2.1881 -0.3851
 3182SOL     OW21178   4.614   3.156   1.693  0.3184 -0.0899  0.3782
 3182SOL    HW121179   4.534   3.200   1.664  1.0365 -0.8762 -2.7955
 3182SOL    HW221180   4.649   3.119   1.612 -3.0479  0.2137 -1.2151
 3183SOL     OW21181   0.713   0.533   0.685  0.1292 -0.4677  0.2573
 3183SOL    HW121182   0.783   0.548   0.621  0.8602  3.6794  2.0446
 3183SOL    HW221183   0.663   0.456   0.657 -0.4724 -0.2446  0.7226
 3184SOL     OW21184   3.502   2.234   4.674 -0.0640  0.4036 -0.0693
 3184SOL    HW121185   3.540   2.147   4.684  0.1403  0.5151  0.1202
 3184SOL    HW221186   3.472   2.227   4.583  0.4610  2.1042 -0.3733
 3185SOL     OW21187   0.619   3.538  12.235 -0.3030 -1.0764 -0.2243
 3185SOL    HW121188   0.690   3.545  12.171 -1.8811  0.7712 -1.7639
 3185SOL    HW221189   0.653   3.482  12.305 -1.1175 -1.1982  0.0754
 3186SOL     OW21190   2.049   2.992  11.749  0.3679  0.0030 -0.1831
 3186SOL    HW121191   2.096   3.018  11.669 -0.0865 -0.3652 -0.5656
 3186SOL    HW221192   1.961   3.027  11.737 -0.1255 -0.7367  1.3778
 3187SOL     OW21193   0.569   3.811   5.794  0.1731  0.2442 -0.1079
 3187SOL    HW121194   0.615   3.872   5.736 -1.4976  2.0033  0.3925
 3187SOL    HW221195   0.602   3.854   5.873 -2.3485  0.8744  0.6001
 3188SOL     OW21196   2.935   4.011   2.492  0.2843 -0.3706 -0.0358
 3188SOL    HW121197   2.935   4.085   2.552  1.3182 -1.2793  1.0964
 3188SOL    HW221198   2.962   3.948   2.559 -0.2541 -0.8360 -0.2522
 3189SOL     OW21199   3.778   4.249   8.755 -0.1556  0.0571  0.1375
 3189SOL    HW121200   3.860   4.216   8.792  0.5690  0.3041 -1.2215
 3189SOL    HW221201   3.811   4.329   8.713  0.4534 -0.2916 -0.0593
 3190SOL     OW21202   1.379   1.354   7.384 -0.3435 -0.5308  0.4315
 3190SOL    HW121203   1.361   1.261   7.399  0.8962 -1.1216 -1.6495
 3190SOL    HW221204   1.343   1.385   7.467  1.0065  2.6662 -0.1649
 3191SOL     OW21205   3.457   4.480  16.373  0.2766 -0.2156  0.4410
 3191SOL    HW121206   3.504   4.553  16.335  0.5825  0.4218  2.0645
 3191SOL    HW221207   3.506   4.405  16.340  1.6514  0.6691  0.4925
 3192SOL     OW21208   1.673   3.877   2.676 -0.3251 -0.2949  0.2336
 3192SOL    HW121209   1.611   3.815   2.713 -2.0678  1.6071  0.4744
 3192SOL    HW221210   1.748   3.820   2.657 -0.2062 -0.4439  1.1597
 3193SOL     OW21211   2.543   2.618   5.460  0.0008 -0.2322 -0.0311
 3193SOL    HW121212   2.494   2.536   5.466 -0.9980  0.4571  0.9043
 3193SOL    HW221213   2.612   2.602   5.395  1.6192 -3.2993  2.4447
 3194SOL     OW21214   1.810   1.549   9.173  0.1917  0.6774  0.1148
 3194SOL    HW121215   1.826   1.459   9.145 -3.2434 -0.0228  0.4351
 3194SOL    HW221216   1.836   1.529   9.263  1.0856 -0.2640 -0.3553
 3195SOL     OW21217   3.580   3.570   6.625 -0.3169 -0.0517  0.3941
 3195SOL    HW121218   3.562   3.652   6.579  2.7160  0.0295 -0.6727
 3195SOL    HW221219   3.510   3.563   6.690 -1.0361  1.9325 -0.1693
 3196SOL     OW21220   4.036   4.278   1.250  0.2130 -0.0108  0.2640
 3196SOL    HW121221   4.099   4.312   1.187 -1.2245 -0.4367 -1.4190
 3196SOL    HW221222   4.026   4.195   1.203 -2.6245  0.3961  0.1375
 3197SOL     OW21223   3.665   3.298   4.397 -0.4899 -0.4109 -0.5110
 3197SOL    HW121224   3.685   3.392   4.395 -2.2748 -0.0067  0.3437
 3197SOL    HW221225   3.744   3.259   4.362 -0.7562 -1.8189  0.4624
 3198SOL     OW21226   2.326   0.251   1.976  0.2695  0.0255 -0.2260
 3198SOL    HW121227   2.265   0.229   1.905  1.1162 -1.7628 -0.3987
 3198SOL    HW221228   2.322   0.173   2.030  1.4877 -0.4993 -0.9016
 3199SOL     OW21229   1.715   0.493  16.527  0.4107 -0.4508 -0.2273
 3199SOL    HW121230   1.720   0.537  16.611 -0.0229 -1.3016  0.2500
 3199SOL    HW221231   1.796   0.513  16.480 -1.1454  0.6355 -2.4603
 3200SOL     OW21232   2.578   1.835   0.241 -0.0020 -1.3347 -0.2257
 3200SOL    HW121233   2.514   1.819   0.310 -0.0436 -0.8300 -0.1499
 3200SOL    HW221234   2.541   1.773   0.179 -0.9717 -0.0021 -0.9594
 3201SOL     OW21235   1.860   4.434  16.303 -0.8261 -0.0664  0.6245
 3201SOL    HW121236   1.911   4.515  16.295 -1.3136  0.2516  0.7127
 3201SOL    HW221237   1.858   4.428  16.399  2.0730 -1.2920  0.6056
 3202SOL     OW21238   3.719   2.987   6.072  0.2288  0.5580 -0.0247
 3202SOL    HW121239   3.769   2.963   5.994  1.2855 -0.0845  0.8607
 3202SOL    HW221240   3.774   3.050   6.117 -0.1228  1.7114 -1.2131
 3203SOL     OW21241   0.399   3.110   5.773  0.0019  0.3454  0.3315
 3203SOL    HW121242   0.430   3.035   5.824 -1.2932 -0.6250 -0.3335
 3203SOL    HW221243   0.461   3.181   5.790 -1.1529  1.2024  0.9536
 3204SOL     OW21244   1.003   0.780   1.944  0.7964 -0.2193  0.6874
 3204SOL    HW121245   0.977   0.724   2.017  2.8775 -1.9951  0.0736
 3204SOL    HW221246   0.969   0.726   1.873  0.1140 -1.2673  1.8055
 3205SOL     OW21247   2.911   0.573   4.273 -0.7006  0.0088  0.3566
 3205SOL    HW121248   2.925   0.604   4.362 -1.2027 -0.2397  0.5241
 3205SOL    HW221249   2.833   0.621   4.246 -0.1729  0.7803  0.2097
 3206SOL     OW21250   2.640   2.500  10.268 -0.1556  0.4089 -0.0834
 3206SOL    HW121251   2.620   2.593  10.272  1.4990  0.7495  0.2357
 3206SOL    HW221252   2.650   2.489  10.362  0.3940  2.6476  0.1033
 3207SOL     OW21253   2.021   4.178   1.503  0.3336  0.5678  0.0029
 3207SOL    HW121254   2.015   4.092   1.462  1.7451 -1.2092  3.5102
 3207SOL    HW221255   1.933   4.179   1.540  0.3930 -2.4142  0.2850
 3208SOL     OW21256   2.928   0.461   5.318 -0.2755 -0.0521 -0.2055
 3208SOL    HW121257   2.844   0.499   5.344 -0.2958 -0.2516  0.0216
 3208SOL    HW221258   2.909   0.423   5.231 -1.0666  2.4264 -1.1052
 3209SOL     OW21259   4.250   0.079  16.285  0.0507  0.2174  0.6503
 3209SOL    HW121260   4.321   0.085  16.221 -2.5021  2.6522 -1.9692
 3209SOL    HW221261   4.277   0.017  16.352 -0.4180 -0.8073 -0.1049
 3210SOL     OW21262   3.783   3.719  14.044  0.1558  0.2564  0.2606
 3210SOL    HW121263   3.872   3.696  14.071 -0.4981 -0.3737  1.9072
 3210SOL    HW221264   3.729   3.670  14.106 -0.5996 -0.8818 -1.2934
 3211SOL     OW21265   4.168   0.292  17.007  0.2515 -1.0772  0.1614
 3211SOL    HW121266   4.094   0.232  17.007  0.1628 -1.0035  2.7664
 3211SOL    HW221267   4.168   0.316  17.100  0.3537 -1.2967  0.2201
 3212SOL     OW21268   2.722   2.240  16.111 -0.4753 -0.3211 -0.1730
 3212SOL    HW121269   2.783   2.169  16.131  0.2843  1.0247  2.2320
 3212SOL    HW221270   2.637   2.195  16.110 -0.4230 -0.5260  2.7237
 3213SOL     OW21271   3.704   1.557  11.034 -0.1627 -0.0715 -0.0016
 3213SOL    HW121272   3.727   1.563  10.941  3.0708  0.3226  0.8243
 3213SOL    HW221273   3.651   1.636  11.046 -1.3646 -0.6854 -1.2389
 3214SOL     OW21274   0.998   3.004   7.603  0.2360  0.3364  0.0729
 3214SOL    HW121275   1.062   3.066   7.570  1.0868 -0.9454 -0.6722
 3214SOL    HW221276   0.918   3.030   7.558 -0.3862 -0.1758  0.8808
 3215SOL     OW21277   1.547   1.807   5.100 -0.5446 -0.1411  0.4135
 3215SOL    HW121278   1.598   1.829   5.023  1.5051 -1.0235  1.4992
 3215SOL    HW221279   1.540   1.890   5.146 -3.1196 -1.1631  1.8819
 3216SOL     OW21280   3.766   4.231   6.956 -0.8069  0.2489 -0.0319
 3216SOL    HW121281   3.804   4.257   7.040 -2.7285  2.7304  0.0322
 3216SOL    HW221282   3.746   4.139   6.977 -2.5500  1.1215  2.0890
 3217SOL     OW21283   3.502   1.631  16.552  0.1335 -0.0586 -0.2032
 3217SOL    HW121284   3.560   1.611  16.478 -1.5386 -1.3289 -1.1525
 3217SOL    HW221285   3.563   1.611  16.623 -1.0343 -1.4018  0.4189
 3218SOL     OW21286   3.849   1.471   0.266  0.1556  0.5097  0.3050
 3218SOL    HW121287   3.841   1.415   0.344  0.8746  1.2558  0.9196
 3218SOL    HW221288   3.943   1.462   0.256  0.2709  0.4738  1.3513
 3219SOL     OW21289   4.188   1.245  10.423 -0.1095  0.6615  0.7964
 3219SOL    HW121290   4.164   1.309  10.489 -0.4616 -0.6604  1.9477
 3219SOL    HW221291   4.107   1.254  10.373 -1.2143  0.6305  2.5786
 3220SOL     OW21292   1.626   1.640   1.248 -0.0462 -0.2091  0.2315
 3220SOL    HW121293   1.633   1.558   1.200  2.9379  0.0934  0.1950
 3220SOL    HW221294   1.573   1.612   1.323 -1.4364  1.0459 -0.2794
 3221SOL     OW21295   4.181   1.160   6.350  0.7979  0.0114 -0.0992
 3221SOL    HW121296   4.132   1.117   6.421 -0.9931  0.0439 -1.3069
 3221SOL    HW221297   4.108   1.206   6.309  0.9721  1.4613  1.2530
 3222SOL     OW21298   0.602   2.132   6.894 -0.1722  0.1265 -0.4337
 3222SOL    HW121299   0.628   2.200   6.957 -0.0008 -0.4557  0.1232
 3222SOL    HW221300   0.515   2.172   6.890  0.3774  1.6793  2.8200
 3223SOL     OW21301   2.656   4.076   2.078 -0.0676  0.0017 -0.3199
 3223SOL    HW121302   2.732   4.037   2.122  2.7090  3.3020 -2.2865
 3223SOL    HW221303   2.610   4.006   2.031 -0.1330 -0.3178  0.2171
 3224SOL     OW21304   1.526   1.364   5.691  0.0479 -0.4302 -0.7398
 3224SOL    HW121305   1.469   1.414   5.749 -0.2583 -0.8919 -0.6374
 3224SOL    HW221306   1.531   1.431   5.623  0.5693 -1.5052 -1.7635
 3225SOL     OW21307   4.251   4.543   7.567  0.1655  0.6237 -0.0383
 3225SOL    HW121308   4.343   4.537   7.543 -0.1946  1.5376 -1.5894
 3225SOL    HW221309   4.216   4.606   7.505 -1.4857 -0.4280 -0.1861
 3226SOL     OW21310   0.897   3.872  12.655  0.4702 -0.1418  0.0200
 3226SOL    HW121311   0.893   3.895  12.748  1.2852  0.7090 -0.1562
 3226SOL    HW221312   0.817   3.909  12.618  0.1153 -1.4365 -0.4942
 3227SOL     OW21313   2.944   1.607   8.192  0.3432 -0.2075  0.3158
 3227SOL    HW121314   2.978   1.625   8.280 -1.0127  0.5459  0.6881
 3227SOL    HW221315   2.922   1.694   8.161  2.1970 -0.5441 -1.9822
 3228SOL     OW21316   1.141   0.942   5.012  0.0476 -0.0990 -0.0568
 3228SOL    HW121317   1.160   0.989   4.932  0.4131  0.2174  0.2164
 3228SOL    HW221318   1.058   0.975   5.047  1.0646 -0.9120  3.1242
 3229SOL     OW21319   3.037   0.030   4.203  0.2364  0.0675 -0.1926
 3229SOL    HW121320   3.044   0.048   4.110 -0.3716 -0.7921 -0.4049
 3229SOL    HW221321   3.067   0.117   4.230  2.4426 -0.7619  0.0339
 3230SOL     OW21322   3.956   0.424   3.983  0.8975  0.3762 -0.1496
 3230SOL    HW121323   3.866   0.458   3.985  0.9287  0.5600 -1.7414
 3230SOL    HW221324   3.964   0.399   3.891  0.2091  0.4730 -0.2387
 3231SOL     OW21325   4.142   0.046  17.609 -0.0950  0.4604  0.2544
 3231SOL    HW121326   4.221   0.034  17.660 -0.6279  1.2848  1.2829
 3231SOL    HW221327   4.154   4.728  17.534 -2.9290 -1.8073  1.5236
 3232SOL     OW21328   0.933   0.536   3.341  0.2520 -0.1430 -0.1469
 3232SOL    HW121329   0.959   0.469   3.403 -2.3150 -0.0841  0.9830
 3232SOL    HW221330   0.954   0.621   3.380 -0.1536  0.3206 -0.9265
 3233SOL     OW21331   3.284   0.785   6.056 -0.5367  0.1395 -0.2762
 3233SOL    HW121332   3.376   0.759   6.064  0.0398  2.1150 -0.3412
 3233SOL    HW221333   3.297   0.864   6.003  1.6621  1.1317  1.7374
 3234SOL     OW21334   3.960   1.246   3.428 -0.8957 -0.2634  0.2098
 3234SOL    HW121335   4.048   1.279   3.445 -0.7984 -1.7403  2.5716
 3234SOL    HW221336   3.920   1.324   3.389 -1.8969 -0.5155  0.7251
 3235SOL     OW21337   0.122   2.133   9.404 -0.3242 -0.3331 -0.1913
 3235SOL    HW121338   0.084   2.089   9.480 -0.8291  0.8547  0.2429
 3235SOL    HW221339   0.081   2.087   9.331  0.5659  0.1828 -1.0121
 3236SOL     OW21340   1.273   3.885  13.200 -0.2363  0.0556 -0.0236
 3236SOL    HW121341   1.237   3.915  13.284 -2.0268 -0.4568 -0.6254
 3236SOL    HW221342   1.301   3.970  13.164 -3.1563  2.2733  2.9228
 3237SOL     OW21343   0.958   4.352  16.694 -0.0257  0.0746  0.4449
 3237SOL    HW121344   0.906   4.419  16.648 -0.5868 -1.4409 -1.1480
 3237SOL    HW221345   1.012   4.309  16.628 -0.6819  0.2599 -0.2228
 3238SOL     OW21346   1.096   3.614   3.124 -0.6187 -0.2541  0.1968
 3238SOL    HW121347   1.019   3.561   3.143 -1.8132  1.2456 -0.4122
 3238SOL    HW221348   1.126   3.626   3.214 -0.2685  1.4013 -0.1300
 3239SOL     OW21349   1.422   2.596   2.844 -0.0431  0.3719  0.0442
 3239SOL    HW121350   1.380   2.640   2.918 -1.8147  0.3086 -0.9239
 3239SOL    HW221351   1.475   2.663   2.800  0.7519 -0.3340 -0.0781
 3240SOL     OW21352   0.586   3.202  17.290  0.0991  0.1094 -0.5608
 3240SOL    HW121353   0.642   3.125  17.279 -1.0690 -0.8812  0.3411
 3240SOL    HW221354   0.645   3.270  17.323 -0.4017  0.1871  0.1782
 3241SOL     OW21355   1.427   0.079   2.318  0.5104  0.2502 -0.5432
 3241SOL    HW121356   1.392   0.008   2.371 -2.2362  1.8040 -0.2530
 3241SOL    HW221357   1.517   0.066   2.290  1.1452  0.5604  1.3349
 3242SOL     OW21358   1.575   1.982  16.477  0.2964 -0.2191  0.7341
 3242SOL    HW121359   1.644   2.040  16.508 -1.5061  2.0511  0.5046
 3242SOL    HW221360   1.607   1.895  16.501 -0.9230 -1.0575 -0.6753
 3243SOL     OW21361   2.913   3.135   5.989 -0.4364  0.0953  0.7565
 3243SOL    HW121362   2.825   3.125   5.953 -0.3562  1.4070  0.2042
 3243SOL    HW221363   2.947   3.203   5.932 -1.5660 -1.0736 -1.3308
 3244SOL     OW21364   2.282   0.576   4.796  0.2132 -0.2933  0.0935
 3244SOL    HW121365   2.205   0.617   4.835  1.1851  2.5571 -0.9884
 3244SOL    HW221366   2.256   0.486   4.777 -3.4456  0.4999  1.3693
 3245SOL     OW21367   2.857   4.596   3.381 -0.3505  1.0515 -0.4662
 3245SOL    HW121368   2.850   4.692   3.384  0.7431  1.1562 -1.0381
 3245SOL    HW221369   2.795   4.590   3.453 -2.2671 -0.5728 -2.2914
 3246SOL     OW21370   2.750   4.576   2.275 -0.4420 -0.5767  0.3521
 3246SOL    HW121371   2.826   4.605   2.226  0.0033 -0.5488  1.0667
 3246SOL    HW221372   2.773   4.484   2.288 -1.3984 -1.1853 -2.1661
 3247SOL     OW21373   3.465   0.157  12.852 -0.4167  0.6037  0.2132
 3247SOL    HW121374   3.425   0.143  12.938  3.1643  0.7180  1.8886
 3247SOL    HW221375   3.417   0.085  12.813 -1.3368  0.2739  1.9836
 3248SOL     OW21376   2.443   1.396   7.492  0.5314 -0.1733  0.5522
 3248SOL    HW121377   2.407   1.307   7.494  1.0880 -0.3534  2.7657
 3248SOL    HW221378   2.411   1.432   7.574  1.0508  0.1790  0.5986
 3249SOL     OW21379   2.612   1.376   4.982  0.0599  0.3703  0.1894
 3249SOL    HW121380   2.524   1.412   4.982 -1.0183 -2.2173 -1.0252
 3249SOL    HW221381   2.643   1.382   5.072  0.0128 -0.5819  0.2724
 3250SOL     OW21382   0.945   3.073   6.984  0.0272  0.4833  0.2912
 3250SOL    HW121383   0.939   3.140   7.052  1.9910  0.1708  0.7893
 3250SOL    HW221384   0.918   3.130   6.912 -1.9276  0.7172  1.2319
 3251SOL     OW21385   3.327   0.868   6.326 -0.2607  0.5055 -0.3426
 3251SOL    HW121386   3.298   0.833   6.242 -0.2731  1.2306 -0.6395
 3251SOL    HW221387   3.249   0.866   6.381 -0.1231 -0.4131 -0.1875
 3252SOL     OW21388   1.538   2.713   5.097  0.0761 -0.0990  0.3440
 3252SOL    HW121389   1.631   2.711   5.076 -0.0072 -0.0975 -0.0219
 3252SOL    HW221390   1.538   2.767   5.177  0.5473 -2.0151  1.6388
 3253SOL     OW21391   0.190   3.444   4.321  0.0629 -0.5777  0.0971
 3253SOL    HW121392   0.197   3.531   4.282  1.8666 -0.1213  1.4521
 3253SOL    HW221393   0.206   3.467   4.413  0.5510  0.5798 -0.2755
 3254SOL     OW21394   3.284   3.302   1.408 -0.1021  0.2414  0.3769
 3254SOL    HW121395   3.241   3.288   1.492 -0.0908 -0.7315  0.2110
 3254SOL    HW221396   3.235   3.377   1.374  0.2457 -0.4450 -1.6278
 3255SOL     OW21397   0.037   3.039   6.783  0.4698  0.6349 -0.2875
 3255SOL    HW121398   0.077   3.126   6.774 -1.9815  1.5996 -1.8967
 3255SOL    HW221399   0.023   3.018   6.691  0.1665 -1.0218  0.1492
 3256SOL     OW21400   1.191   1.490  15.715 -0.3922  0.1223 -0.1311
 3256SOL    HW121401   1.274   1.443  15.727  0.0080  0.0136 -3.3693
 3256SOL    HW221402   1.222   1.564  15.664 -0.4368  1.0259  1.1579
 3257SOL     OW21403   1.077   4.375  13.140 -0.4081  0.4424 -0.4890
 3257SOL    HW121404   1.123   4.444  13.093 -1.0205  0.6958 -0.7271
 3257SOL    HW221405   1.036   4.409  13.220 -0.3980  1.1656 -0.7902
 3258SOL     OW21406   4.479   2.424  14.610 -0.1295 -0.7600  0.0118
 3258SOL    HW121407   4.464   2.333  14.635 -1.3517 -0.9403 -1.3952
 3258SOL    HW221408   4.508   2.427  14.519 -0.7269  2.4643 -0.0947
 3259SOL     OW21409   2.024   1.289   1.282 -0.1282 -0.0176  0.6626
 3259SOL    HW121410   2.038   1.383   1.299  1.0509  0.6658 -4.0513
 3259SOL    HW221411   1.976   1.291   1.199  1.5996  2.2271 -0.2856
 3260SOL     OW21412   2.378   2.289   8.993  0.0718  0.3509 -0.0341
 3260SOL    HW121413   2.421   2.235   8.927  0.0200 -2.4719  2.2370
 3260SOL    HW221414   2.406   2.253   9.078  2.4821  1.5511 -0.3096
 3261SOL     OW21415   1.473   0.133   6.607 -0.4511 -0.2560 -0.4299
 3261SOL    HW121416   1.455   0.186   6.530  0.5038  0.3531 -0.2304
 3261SOL    HW221417   1.395   0.078   6.613 -0.3257 -0.3601  0.2297
 3262SOL     OW21418   2.848   2.129   4.830  0.0234 -0.4745  0.4111
 3262SOL    HW121419   2.866   2.047   4.876 -2.4004 -1.2886 -0.0629
 3262SOL    HW221420   2.882   2.112   4.743 -0.1894  0.9807  0.0445
 3263SOL     OW21421   2.936   1.058   1.677  0.0240  0.2524 -0.0182
 3263SOL    HW121422   3.004   1.125   1.692 -1.9525  2.0374  0.9531
 3263SOL    HW221423   2.859   1.104   1.711 -1.7556 -2.6968 -0.1035
 3264SOL     OW21424   0.621   1.736  17.199  0.4217  0.1670 -0.3064
 3264SOL    HW121425   0.588   1.821  17.170 -1.4872 -0.5722 -0.2791
 3264SOL    HW221426   0.661   1.761  17.282 -2.2380  0.6140  0.8403
 3265SOL     OW21427   1.462   0.888   5.728 -0.3254 -0.4595 -0.1696
 3265SOL    HW121428   1.369   0.874   5.711 -0.9439  0.6653  2.3000
 3265SOL    HW221429   1.497   0.821   5.670  0.5078 -0.3960  0.2665
 3266SOL     OW21430   3.126   4.158   5.798 -0.0520  0.5425  0.1654
 3266SOL    HW121431   3.108   4.245   5.761 -0.5235  0.1309 -0.5697
 3266SOL    HW221432   3.042   4.125   5.829 -0.9004  1.0578 -1.5790
 3267SOL     OW21433   4.252   4.542   2.450  0.1271  0.2031 -0.1017
 3267SOL    HW121434   4.238   4.573   2.540  1.2360  0.4969 -0.0247
 3267SOL    HW221435   4.234   4.622   2.401 -1.3586 -1.2953 -1.9902
 3268SOL     OW21436   3.373   1.387   6.018 -0.0955 -0.0278 -0.4362
 3268SOL    HW121437   3.320   1.351   5.947  2.6090 -0.8280 -2.0593
 3268SOL    HW221438   3.459   1.408   5.981 -1.5660 -0.6203 -4.1442
 3269SOL     OW21439   2.688   0.823   5.492  0.8304 -0.0224 -0.2220
 3269SOL    HW121440   2.611   0.767   5.497  0.7077  0.1574 -0.1036
 3269SOL    HW221441   2.716   0.840   5.582 -1.5061  0.0764  0.4895
 3270SOL     OW21442   4.463   3.241   1.491  0.3112  0.1271 -0.7106
 3270SOL    HW121443   4.522   3.284   1.430 -0.6188  0.9000 -1.0616
 3270SOL    HW221444   4.407   3.189   1.433 -0.2458  0.4763 -0.4855
 3271SOL     OW21445   2.467   1.669   6.423 -0.1804  0.8626 -0.1502
 3271SOL    HW121446   2.554   1.702   6.448  0.1581 -1.1613  1.2403
 3271SOL    HW221447   2.483   1.665   6.328 -0.0298  0.6532 -0.1143
 3272SOL     OW21448   4.000   2.014   6.682 -0.3851  0.0756 -0.4041
 3272SOL    HW121449   4.000   2.007   6.586 -0.8176  2.5035 -0.5734
 3272SOL    HW221450   4.087   2.055   6.685 -0.4202  0.1580 -0.5147
 3273SOL     OW21451   0.242   3.661   4.536  0.1605 -0.7602  0.0465
 3273SOL    HW121452   0.267   3.619   4.618  1.1338 -0.7931 -0.2673
 3273SOL    HW221453   0.148   3.650   4.524  0.3756 -2.3630 -0.1719
 3274SOL     OW21454   0.907   4.387  10.181  0.4754  0.4097  0.3320
 3274SOL    HW121455   0.937   4.338  10.257  0.2566  1.1609  0.9109
 3274SOL    HW221456   0.983   4.441  10.160  0.8899 -0.2943  0.0174
 3275SOL     OW21457   1.808   4.521   7.067  0.1556  0.1426 -0.4162
 3275SOL    HW121458   1.841   4.610   7.081  0.1538  0.3007 -1.4571
 3275SOL    HW221459   1.750   4.522   7.143 -0.7628 -2.4191 -1.0940
 3276SOL     OW21460   0.286   2.451   2.644 -0.3031  0.0315 -0.4576
 3276SOL    HW121461   0.351   2.521   2.633  0.6088 -0.9004 -1.0091
 3276SOL    HW221462   0.211   2.490   2.598  0.4634 -2.0502 -3.4210
 3277SOL     OW21463   2.135   0.491  15.238  0.0936 -0.6672  0.7705
 3277SOL    HW121464   2.223   0.502  15.274 -0.7543  0.3360  2.5050
 3277SOL    HW221465   2.151   0.512  15.145 -0.2366 -0.5604  0.7365
 3278SOL     OW21466   3.477   0.848   4.552  0.0516 -0.3376  0.0960
 3278SOL    HW121467   3.518   0.809   4.475 -2.7279 -1.8119 -0.6444
 3278SOL    HW221468   3.537   0.920   4.572 -2.7375  1.9398  0.2587
 3279SOL     OW21469   4.329   1.249  16.003 -0.0623 -0.1043 -0.2401
 3279SOL    HW121470   4.236   1.235  16.020 -0.0586  0.7960  0.5473
 3279SOL    HW221471   4.358   1.230  16.092  0.2538  1.5709  0.0282
 3280SOL     OW21472   1.330   1.151   4.429 -0.1513  0.9689 -0.5736
 3280SOL    HW121473   1.395   1.111   4.371  1.6366  3.2806 -0.1404
 3280SOL    HW221474   1.302   1.071   4.475 -1.2128  0.6226 -1.8074
 3281SOL     OW21475   1.018   1.204   4.925 -0.7033  0.1309  0.0582
 3281SOL    HW121476   0.956   1.133   4.936 -0.3835 -0.2712 -0.7747
 3281SOL    HW221477   1.072   1.163   4.858 -1.4944 -0.0559 -0.4605
 3282SOL     OW21478   4.397   4.018   0.591 -0.3339 -0.2435 -0.3842
 3282SOL    HW121479   4.427   3.935   0.628  1.5108  0.1205 -1.0442
 3282SOL    HW221480   4.417   4.085   0.657  0.4756 -1.9104  1.0717
 3283SOL     OW21481   2.518   2.515  14.736 -0.2519 -0.7946 -0.5516
 3283SOL    HW121482   2.484   2.464  14.662 -1.8788  0.7357 -0.8851
 3283SOL    HW221483   2.484   2.467  14.811  0.0273  1.7817  1.2026
 3284SOL     OW21484   4.339   0.926   9.620  0.1018  0.2804 -0.1271
 3284SOL    HW121485   4.386   0.966   9.694 -2.8504  0.6392  1.5410
 3284SOL    HW221486   4.341   0.988   9.547  2.9671  0.3874  0.0338
 3285SOL     OW21487   4.395   4.018   7.884 -0.3976 -0.2132 -0.5110
 3285SOL    HW121488   4.453   3.994   7.956 -0.8863 -1.3261 -0.4775
 3285SOL    HW221489   4.456   4.045   7.815 -0.4193  1.9679  0.3266
 3286SOL     OW21490   4.691   0.612   0.039 -0.1073  0.3794 -0.1673
 3286SOL    HW121491   4.712   0.704   0.052  1.2573  0.0537 -0.0472
 3286SOL    HW221492   4.611   0.607  17.745 -0.2208 -2.1993  0.2690
 3287SOL     OW21493   2.194   3.156   5.841  0.0614 -0.6284  0.5864
 3287SOL    HW121494   2.287   3.155   5.821 -0.2977 -3.4370 -0.9825
 3287SOL    HW221495   2.180   3.065   5.867 -0.3655 -0.6864  0.1529
 3288SOL     OW21496   3.376   2.690   9.200 -0.5366 -0.8124  0.3474
 3288SOL    HW121497   3.459   2.681   9.248 -1.5369 -1.9067  1.8342
 3288SOL    HW221498   3.341   2.606   9.171  1.4798 -1.2317 -0.8927
 3289SOL     OW21499   1.362   1.092   3.992  0.3514  0.0277 -0.3917
 3289SOL    HW121500   1.318   1.176   4.008  0.6934  0.2961 -0.8317
 3289SOL    HW221501   1.437   1.104   4.049 -0.0334 -2.2939  0.5883
 3290SOL     OW21502   0.051   0.798   8.033 -0.3113  0.2887  0.0434
 3290SOL    HW121503   0.036   0.788   8.127  2.2655  0.1918  0.4648
 3290SOL    HW221504   0.128   0.856   8.030 -0.7206  0.9081  1.5013
 3291SOL     OW21505   3.714   3.542   4.814  0.5271  0.0961  0.4762
 3291SOL    HW121506   3.748   3.592   4.889  2.5058 -0.2908 -0.1745
 3291SOL    HW221507   3.640   3.507   4.864  0.0235 -0.3921 -0.6125
 3292SOL     OW21508   3.855   0.226   6.739 -0.5091  0.5425 -0.3845
 3292SOL    HW121509   3.875   0.259   6.827 -0.2294 -0.6164 -0.0113
 3292SOL    HW221510   3.821   0.139   6.760  0.6796 -0.3031 -2.0122
 3293SOL     OW21511   2.923   3.212  12.137  0.0522  0.4453  0.3808
 3293SOL    HW121512   2.841   3.204  12.087 -0.1687  0.6046  0.7167
 3293SOL    HW221513   2.952   3.121  12.145  2.5104  1.3471  1.6950
 3294SOL     OW21514   1.837   3.507   7.571 -0.0865  0.4422  0.7169
 3294SOL    HW121515   1.844   3.483   7.479 -1.5292  0.8454  0.4915
 3294SOL    HW221516   1.844   3.417   7.604  1.4747 -0.4079 -1.9935
 3295SOL     OW21517   3.717   0.254  12.309  0.2334  0.3408 -0.2364
 3295SOL    HW121518   3.663   0.205  12.371 -0.7716  0.3219 -1.1166
 3295SOL    HW221519   3.673   0.231  12.227  0.4252  0.9464 -0.5119
 3296SOL     OW21520   1.959   3.748   2.959 -0.3646  0.1762 -0.0387
 3296SOL    HW121521   2.046   3.780   2.983 -0.4032 -0.2253  0.6549
 3296SOL    HW221522   1.934   3.813   2.895 -0.1529  1.6266  1.3566
 3297SOL     OW21523   0.095   3.831   2.147 -0.0493 -0.1747  0.2409
 3297SOL    HW121524   0.166   3.783   2.104  0.3830  0.1247  0.6168
 3297SOL    HW221525   0.032   3.850   2.078 -0.9572  1.4441  1.5011
 3298SOL     OW21526   3.141   3.264   9.522 -0.3342 -0.0906  0.1435
 3298SOL    HW121527   3.196   3.203   9.472 -0.5571 -0.3800  0.2514
 3298SOL    HW221528   3.065   3.275   9.464  0.0111 -3.0522 -0.8672
 3299SOL     OW21529   3.213   1.854   3.127 -0.0878 -0.1710 -0.0895
 3299SOL    HW121530   3.135   1.909   3.132 -0.3374 -0.2934 -2.5777
 3299SOL    HW221531   3.273   1.890   3.192  1.1567 -4.5773  1.2705
 3300SOL     OW21532   1.801   3.059  11.670 -0.2957 -0.5814  0.2428
 3300SOL    HW121533   1.812   3.131  11.608  3.8188 -0.2251  1.3952
 3300SOL    HW221534   1.721   3.015  11.644 -1.5360  0.4816  2.2712
 3301SOL     OW21535   3.269   2.051   0.999 -1.2102  0.4563 -0.6883
 3301SOL    HW121536   3.230   1.977   0.952  0.4260 -1.6450  1.2503
 3301SOL    HW221537   3.263   2.122   0.935 -1.6971 -0.1285 -1.2865
 3302SOL     OW21538   2.581   4.087   6.046 -0.7995 -0.5442  0.2105
 3302SOL    HW121539   2.520   4.028   6.001 -1.3575  1.6431 -1.9214
 3302SOL    HW221540   2.646   4.025   6.079 -0.5951 -0.0844  0.6670
 3303SOL     OW21541   0.827   2.875   7.196  0.0595 -0.4389  0.1888
 3303SOL    HW121542   0.866   2.933   7.130 -1.1399 -2.0542 -1.9336
 3303SOL    HW221543   0.846   2.788   7.162 -0.0178 -0.8131  1.1129
 3304SOL     OW21544   0.390   0.545  13.584  0.0904  0.0647 -0.5888
 3304SOL    HW121545   0.333   0.565  13.658 -1.2632  0.1346 -1.6353
 3304SOL    HW221546   0.393   0.629  13.540 -1.4544  0.1685 -0.5050
 3305SOL     OW21547   2.505   1.378   8.819  0.3359 -0.2667  0.5168
 3305SOL    HW121548   2.421   1.418   8.842  1.2308  1.1885  1.2710
 3305SOL    HW221549   2.508   1.375   8.724 -3.4142  0.1756  0.4008
 3306SOL     OW21550   3.164   0.723  14.339 -0.1354  0.2755  0.3301
 3306SOL    HW121551   3.117   0.646  14.370 -1.0918 -0.1144 -2.0835
 3306SOL    HW221552   3.121   0.736  14.255  1.9517 -1.2594 -0.9651
 3307SOL     OW21553   4.015   0.420   4.418 -0.5539  0.1756  0.3715
 3307SOL    HW121554   3.979   0.466   4.494  1.3797 -0.0827  1.4497
 3307SOL    HW221555   4.003   0.327   4.436 -2.4915  0.0793 -1.4886
 3308SOL     OW21556   1.741   1.748   8.512  0.6196 -0.2437 -0.0532
 3308SOL    HW121557   1.647   1.765   8.513  0.3104 -1.8646 -0.3705
 3308SOL    HW221558   1.730   1.658   8.480  0.4660 -0.5604  0.8984
 3309SOL     OW21559   0.108   4.408   2.092  0.7212 -0.2133  0.0730
 3309SOL    HW121560   0.067   4.331   2.052  0.2198  1.8117 -3.3217
 3309SOL    HW221561   0.186   4.367   2.129  0.2417 -0.4430  0.8216
 3310SOL     OW21562   1.666   1.785   0.742  0.0345  0.4620 -0.1561
 3310SOL    HW121563   1.724   1.857   0.716  0.4120 -0.4787 -1.8576
 3310SOL    HW221564   1.730   1.720   0.771 -2.1217 -1.5055  0.1528
 3311SOL     OW21565   0.673   0.166   6.970 -0.1235 -0.0621 -0.2985
 3311SOL    HW121566   0.684   0.071   6.966  0.0041 -0.0025 -1.3616
 3311SOL    HW221567   0.623   0.182   6.890 -2.3594 -2.6752  0.6090
 3312SOL     OW21568   1.911   2.193   5.098 -0.6243  0.2559  0.5713
 3312SOL    HW121569   1.907   2.133   5.024  0.8234  0.3416  0.4196
 3312SOL    HW221570   1.825   2.177   5.138 -0.1631  0.0743  1.5071
 3313SOL     OW21571   3.892   3.997   9.738  0.3249 -0.1531 -0.4313
 3313SOL    HW121572   3.837   4.062   9.694  1.9567 -0.4740 -2.9458
 3313SOL    HW221573   3.974   4.026   9.699  1.7086 -0.4783  2.2227
 3314SOL     OW21574   2.619   4.259   4.310 -0.3390  0.2638 -0.1153
 3314SOL    HW121575   2.698   4.296   4.271  1.6407 -3.5783  0.3081
 3314SOL    HW221576   2.561   4.243   4.235  1.3242  0.1574 -1.3723
 3315SOL     OW21577   1.193   4.519  14.073 -0.3292  0.0743 -0.1951
 3315SOL    HW121578   1.131   4.585  14.041  0.2373  1.7140  2.1029
 3315SOL    HW221579   1.279   4.560  14.064 -2.1760  4.2605  1.2540
 3316SOL     OW21580   2.844   0.781   3.575 -0.0963 -0.3333  0.1580
 3316SOL    HW121581   2.910   0.796   3.642  0.6638  1.3698 -0.9690
 3316SOL    HW221582   2.795   0.863   3.568  1.0720 -0.0337 -4.4013
 3317SOL     OW21583   0.272   4.601   4.185  0.3607 -0.1129  0.0648
 3317SOL    HW121584   0.328   4.676   4.163  0.6108 -0.4671 -0.4974
 3317SOL    HW221585   0.333   4.528   4.186 -0.9858 -1.2094  2.6271
 3318SOL     OW21586   4.003   0.971   4.442  0.3110  0.1199  0.9553
 3318SOL    HW121587   4.094   0.973   4.471  1.2843  0.9353 -2.0983
 3318SOL    HW221588   4.015   0.973   4.347  3.3762 -0.9846  1.3038
 3319SOL     OW21589   0.287   0.673   9.328 -0.5630 -0.2122  0.2421
 3319SOL    HW121590   0.261   0.724   9.405 -0.5042 -1.4262  1.0560
 3319SOL    HW221591   0.235   0.594   9.343  0.6144 -1.2514 -1.2591
 3320SOL     OW21592   2.388   1.688  10.542 -0.1811 -0.0329  0.0328
 3320SOL    HW121593   2.313   1.639  10.509  0.0144 -2.2488  2.8284
 3320SOL    HW221594   2.415   1.640  10.621 -0.6367 -0.1881  0.0942
 3321SOL     OW21595   4.317   4.094  17.509  0.2739 -0.4314 -0.0992
 3321SOL    HW121596   4.381   4.073  17.578  1.1180  0.1194 -0.7079
 3321SOL    HW221597   4.357   4.177  17.483 -1.0244  0.3512  0.4483
 3322SOL     OW21598   0.369   1.211   8.312 -0.1897  0.1328 -0.3402
 3322SOL    HW121599   0.347   1.213   8.218  1.9539 -0.0416 -0.8469
 3322SOL    HW221600   0.366   1.305   8.327  0.9578  0.1457 -0.2201
 3323SOL     OW21601   1.185   4.678   1.293 -0.6023  0.1357  0.0895
 3323SOL    HW121602   1.127   4.655   1.366 -0.0219 -1.1832  0.1256
 3323SOL    HW221603   1.261   4.718   1.335 -2.4407  0.4154  3.2289
 3324SOL     OW21604   1.965   1.710   9.597  0.1522  0.2021 -0.5592
 3324SOL    HW121605   2.037   1.735   9.655 -0.1777 -1.5785  0.6165
 3324SOL    HW221606   1.915   1.791   9.610 -1.0462 -0.7928  0.9874
 3325SOL     OW21607   4.638   3.896  12.942 -0.1337 -0.2408 -0.0510
 3325SOL    HW121608   4.557   3.855  12.972 -0.5059 -1.2245 -2.3950
 3325SOL    HW221609   4.696   3.820  12.946  1.2034  0.7981  0.2693
 3326SOL     OW21610   2.636   2.273   2.164  0.6783 -0.6767 -0.4813
 3326SOL    HW121611   2.711   2.213   2.162  0.5529 -0.8637  0.2559
 3326SOL    HW221612   2.651   2.325   2.243 -4.6196 -0.2519  0.1817
 3327SOL     OW21613   0.347   4.298   2.188 -0.3969 -0.1166 -0.2399
 3327SOL    HW121614   0.403   4.222   2.205  0.8385  1.0947  1.2003
 3327SOL    HW221615   0.413   4.363   2.164  0.2357 -0.2596  1.0966
 3328SOL     OW21616   0.001   2.572   2.768  0.1577  0.2458  0.1087
 3328SOL    HW121617   4.735   2.502   2.703 -0.8469 -0.3194  0.7899
 3328SOL    HW221618   0.069   2.626   2.729 -0.7016  0.3065 -1.3228
 3329SOL     OW21619   1.043   3.180   7.834  0.1870  0.5834 -0.5832
 3329SOL    HW121620   0.970   3.230   7.796  1.3670  2.9921  0.2677
 3329SOL    HW221621   1.041   3.106   7.773 -4.1273  1.0553 -0.9871
 3330SOL     OW21622   2.650   3.597   1.312 -0.0687 -0.4857 -0.8508
 3330SOL    HW121623   2.556   3.611   1.324  0.0521  0.2529 -0.7700
 3330SOL    HW221624   2.691   3.674   1.351  0.9875 -0.6631 -1.6234
 3331SOL     OW21625   2.710   0.463  13.704 -0.1543 -0.0489 -0.1973
 3331SOL    HW121626   2.740   0.530  13.642  3.1949  0.0535  1.5108
 3331SOL    HW221627   2.615   0.472  13.696 -0.1060  0.6185 -0.0446
 3332SOL     OW21628   3.079   3.109   4.032  0.1184  0.3654 -0.1058
 3332SOL    HW121629   3.043   3.135   3.947  1.6322  1.1868 -0.4986
 3332SOL    HW221630   3.065   3.014   4.023 -0.4027  0.5069 -0.7952
 3333SOL     OW21631   0.378   3.492   1.407  0.1444  0.3283  0.2277
 3333SOL    HW121632   0.329   3.463   1.331 -1.3199 -0.4580  1.4615
 3333SOL    HW221633   0.321   3.555   1.451 -0.9588 -0.7351  0.3217
 3334SOL     OW21634   0.641   4.221   2.210  0.2516 -0.1635  0.4412
 3334SOL    HW121635   0.644   4.129   2.184 -2.0229 -0.0692 -0.1467
 3334SOL    HW221636   0.670   4.273   2.135 -0.5583 -0.9639 -0.4334
 3335SOL     OW21637   1.362   3.872   6.492 -0.9248  0.3278  0.0879
 3335SOL    HW121638   1.319   3.917   6.565 -0.2442 -0.1681  0.7892
 3335SOL    HW221639   1.424   3.833   6.553 -0.1230  0.1980 -0.8189
 3336SOL     OW21640   1.753   2.641   2.768  0.4153  0.2809 -0.2650
 3336SOL    HW121641   1.781   2.637   2.860  1.4804 -1.4728 -0.6636
 3336SOL    HW221642   1.702   2.722   2.767  1.7623  1.1404  1.3919
 3337SOL     OW21643   3.586   2.748  14.549 -0.1789 -0.2583  0.4338
 3337SOL    HW121644   3.555   2.708  14.629 -0.2621 -0.1599  0.4501
 3337SOL    HW221645   3.544   2.691  14.484  0.0022  0.1655 -0.0587
 3338SOL     OW21646   0.704   3.484   3.311  0.1378 -0.1569  0.3110
 3338SOL    HW121647   0.651   3.509   3.386  2.1813 -0.8955  1.9955
 3338SOL    HW221648   0.679   3.554   3.250 -0.1765 -1.2305 -0.8022
 3339SOL     OW21649   2.007   2.995   7.226 -0.5707 -0.0763  0.2949
 3339SOL    HW121650   2.079   2.933   7.235 -0.6938 -0.2082  0.3798
 3339SOL    HW221651   2.056   3.078   7.226 -0.8576  0.0960  0.1829
 3340SOL     OW21652   3.898   1.555  10.216 -0.3215 -0.3488 -0.4988
 3340SOL    HW121653   3.842   1.597  10.151 -1.4820 -1.8386 -0.4702
 3340SOL    HW221654   3.977   1.546  10.164  0.1039 -1.9512  0.4340
 3341SOL     OW21655   0.208   0.397   6.554 -0.1876 -0.3375  0.0757
 3341SOL    HW121656   0.192   0.367   6.465  0.1293  0.8954 -0.4040
 3341SOL    HW221657   0.161   0.481   6.551 -1.2554 -1.0208 -2.0354
 3342SOL     OW21658   3.113   3.199   5.286 -0.0458  0.2899  0.2176
 3342SOL    HW121659   3.201   3.219   5.255 -0.0378  2.4718  1.6523
 3342SOL    HW221660   3.132   3.154   5.368 -0.8986  0.2195  0.3778
 3343SOL     OW21661   1.444   0.668   2.688  0.4189  0.0729  0.0326
 3343SOL    HW121662   1.489   0.666   2.603  0.2537  1.0344 -0.0839
 3343SOL    HW221663   1.386   0.743   2.672 -0.4370 -0.7445 -0.7057
 3344SOL     OW21664   0.518   4.488  12.942  0.1268  1.0646 -0.1535
 3344SOL    HW121665   0.569   4.494  13.023  0.7342  1.7097 -0.5837
 3344SOL    HW221666   0.533   4.398  12.915  0.8085  1.0282  0.3562
 3345SOL     OW21667   3.492   0.612   6.921 -0.2845 -0.4594  0.3824
 3345SOL    HW121668   3.552   0.542   6.894 -0.0846 -0.1292 -0.0378
 3345SOL    HW221669   3.449   0.645   6.842  3.9118 -0.7835 -2.0261
 3346SOL     OW21670   0.319   1.741   2.911  0.2207  0.2802  0.4035
 3346SOL    HW121671   0.231   1.742   2.874  0.4946 -4.2294 -0.3804
 3346SOL    HW221672   0.338   1.834   2.918 -0.8427  0.5080  0.2795
 3347SOL     OW21673   3.498   3.647   4.575  0.3632 -0.4689 -0.1473
 3347SOL    HW121674   3.405   3.648   4.598 -0.0924  0.3807 -2.0492
 3347SOL    HW221675   3.531   3.729   4.613  0.7292 -1.2221  1.1885
 3348SOL     OW21676   2.278   3.391   5.520 -0.0203  0.1705 -0.2819
 3348SOL    HW121677   2.365   3.410   5.554 -0.0902 -1.6975  0.9329
 3348SOL    HW221678   2.253   3.478   5.490 -0.3182  0.3115  0.3667
 3349SOL     OW21679   4.123   1.581   7.998 -0.5084 -0.6093  0.0803
 3349SOL    HW121680   4.163   1.535   7.925 -1.7587  0.0544 -1.0154
 3349SOL    HW221681   4.122   1.502   8.052 -1.5773 -0.9203 -0.4029
 3350SOL     OW21682   1.859   3.914  11.656  0.5231  0.3307  0.1435
 3350SOL    HW121683   1.889   3.826  11.636  2.6934  1.0031  0.3221
 3350SOL    HW221684   1.794   3.889  11.722  0.7764 -0.4210  0.1063
 3351SOL     OW21685   1.135   1.833   6.581 -0.2487 -0.6220  0.5395
 3351SOL    HW121686   1.166   1.795   6.663  0.0972  0.5857  0.9761
 3351SOL    HW221687   1.125   1.751   6.533  0.8023 -0.1328 -0.5063
 3352SOL     OW21688   1.655   2.283  16.357  0.1827 -0.4186 -0.7667
 3352SOL    HW121689   1.683   2.371  16.383  1.0347 -1.6055  2.3528
 3352SOL    HW221690   1.726   2.236  16.402  0.4296  0.0435 -0.6768
 3353SOL     OW21691   4.328   0.021   6.247  0.0423 -0.5458  0.0334
 3353SOL    HW121692   4.329   0.116   6.258  0.1341 -0.6725  1.1069
 3353SOL    HW221693   4.270   0.023   6.171  0.2281  0.0856 -0.0995
 3354SOL     OW21694   0.073   3.830   1.687  0.0479  0.1152  0.1697
 3354SOL    HW121695   0.063   3.863   1.776  1.1469  1.5053 -0.2221
 3354SOL    HW221696   0.005   3.763   1.681  0.7253 -0.5309 -0.2800
 3355SOL     OW21697   4.540   0.863   4.119 -0.1183 -0.3504  0.3113
 3355SOL    HW121698   4.569   0.779   4.083 -0.5548 -1.5763  2.8349
 3355SOL    HW221699   4.532   0.911   4.037 -0.6648  0.0073  0.5761
 3356SOL     OW21700   0.742   1.008   1.863  0.5293  0.1008  0.1015
 3356SOL    HW121701   0.827   1.027   1.904 -0.0794  1.3819  0.7597
 3356SOL    HW221702   0.707   0.933   1.911  0.2106 -1.3927 -2.4443
 3357SOL     OW21703   0.481   2.617   2.540 -0.3906  0.9746 -0.7469
 3357SOL    HW121704   0.502   2.711   2.538  0.0092  0.9286  1.2669
 3357SOL    HW221705   0.557   2.593   2.487  0.4797  2.1144 -0.0431
 3358SOL     OW21706   3.088   2.129   6.235  0.3280 -0.7021  0.1780
 3358SOL    HW121707   3.065   2.221   6.231  2.4968 -0.2549 -2.1145
 3358SOL    HW221708   3.023   2.104   6.300  1.2639 -2.5112  0.4396
 3359SOL     OW21709   0.488   1.902   4.891 -0.1909  0.0151 -0.1741
 3359SOL    HW121710   0.432   1.930   4.819 -1.6021 -1.7720  0.2319
 3359SOL    HW221711   0.430   1.887   4.965 -0.0849  0.3409 -0.0244
 3360SOL     OW21712   1.422   4.115   7.359 -0.2852 -0.2922  0.4332
 3360SOL    HW121713   1.514   4.096   7.341 -0.1899 -0.3066  0.9320
 3360SOL    HW221714   1.395   4.043   7.417 -0.5701  0.7723  1.6218
 3361SOL     OW21715   1.189   3.124   3.222  0.3959 -0.0088  0.4833
 3361SOL    HW121716   1.103   3.116   3.180  0.4517 -0.5325  0.4626
 3361SOL    HW221717   1.177   3.200   3.278  3.5924  0.6267  0.3054
 3362SOL     OW21718   3.023   2.684  11.575 -0.3768 -0.3967 -0.1438
 3362SOL    HW121719   3.107   2.640  11.561 -1.1567 -2.2106  0.8211
 3362SOL    HW221720   3.040   2.769  11.616  0.6470 -0.6673 -0.0241
 3363SOL     OW21721   1.897   1.406   8.219  0.3509 -0.4562  0.0772
 3363SOL    HW121722   1.986   1.373   8.207  0.7108  0.6287 -0.2703
 3363SOL    HW221723   1.847   1.384   8.140  1.9081 -3.2008 -0.1169
 3364SOL     OW21724   3.442   0.445  15.931 -0.4159 -0.0484  0.8882
 3364SOL    HW121725   3.484   0.528  15.954  0.4330 -0.8611  2.3197
 3364SOL    HW221726   3.418   0.416  16.019  0.9181  0.2958  1.3769
 3365SOL     OW21727   0.960   1.746   6.229 -0.6220 -0.5642 -0.0480
 3365SOL    HW121728   1.053   1.742   6.251 -0.4764 -1.5850 -0.8523
 3365SOL    HW221729   0.950   1.671   6.171 -0.9061  0.1934 -0.9717
 3366SOL     OW21730   1.845   4.584   9.648 -0.1750  0.3462 -0.4827
 3366SOL    HW121731   1.862   4.640   9.724 -0.6053  1.3169 -1.0915
 3366SOL    HW221732   1.839   4.649   9.577 -3.6548 -0.9430 -1.3435
 3367SOL     OW21733   0.375   2.691  12.238  0.0092 -0.4063  0.1763
 3367SOL    HW121734   0.448   2.738  12.278  0.0612  0.0713 -0.4725
 3367SOL    HW221735   0.413   2.626  12.179 -1.0624 -0.4819 -0.4234
 3368SOL     OW21736   2.486   0.607   5.607 -0.0848 -0.3150  0.1362
 3368SOL    HW121737   2.579   0.599   5.629  0.1984  0.1413 -0.8654
 3368SOL    HW221738   2.463   0.515   5.600  2.0386 -0.8268  0.0093
 3369SOL     OW21739   2.673   0.139   2.016 -0.4915  0.0976 -0.0258
 3369SOL    HW121740   2.625   0.222   2.018 -2.0860 -0.8652  1.7603
 3369SOL    HW221741   2.765   0.162   2.030 -0.9929  2.1337 -0.1487
 3370SOL     OW21742   2.986   3.982   3.988 -0.4297 -0.1265  0.0750
 3370SOL    HW121743   2.974   4.076   4.002 -0.3533 -0.4220  2.0192
 3370SOL    HW221744   2.908   3.955   3.939  0.0787 -1.6671  0.0972
 3371SOL     OW21745   3.282   4.326  10.737  0.6496 -0.5404 -0.6095
 3371SOL    HW121746   3.323   4.347  10.653 -0.4691  2.6736 -0.3533
 3371SOL    HW221747   3.333   4.254  10.775 -1.9471 -0.0845  3.8089
 3372SOL     OW21748   4.064   0.066   3.673  0.0731 -0.5911 -0.2769
 3372SOL    HW121749   4.158   0.053   3.665  0.3404  0.5761  1.0868
 3372SOL    HW221750   4.039   0.126   3.603  2.4914  0.1907 -0.4403
 3373SOL     OW21751   0.307   2.893   3.096  0.1134  0.0289 -0.1488
 3373SOL    HW121752   0.223   2.856   3.124 -1.5340  4.1932  0.3459
 3373SOL    HW221753   0.292   2.929   3.008  1.8169 -1.4928 -1.0804
 3374SOL     OW21754   2.757   2.021   7.490 -0.0370  0.3647  0.4314
 3374SOL    HW121755   2.682   1.981   7.445 -0.3934  1.1374  0.3452
 3374SOL    HW221756   2.823   1.952   7.481  1.9158  2.1848  0.7256
 3375SOL     OW21757   3.245   2.925  12.536 -0.4082  0.2844 -0.3808
 3375SOL    HW121758   3.297   2.848  12.558 -0.7854 -0.7140 -3.0254
 3375SOL    HW221759   3.188   2.935  12.612 -1.0861 -0.5650 -0.7878
 3376SOL     OW21760   1.569   1.799   1.785 -0.4016 -0.1002 -0.2363
 3376SOL    HW121761   1.583   1.879   1.836  1.6376  1.1073 -2.6327
 3376SOL    HW221762   1.581   1.726   1.845  1.3345 -1.0096 -1.6802
 3377SOL     OW21763   1.176   2.860   9.134 -0.5070  0.0324 -0.3442
 3377SOL    HW121764   1.154   2.913   9.210 -0.3144 -2.3486  1.3547
 3377SOL    HW221765   1.138   2.921   9.071  0.6107 -0.4578 -1.5051
 3378SOL     OW21766   1.245   2.769   4.993 -0.5468 -0.6610 -0.1315
 3378SOL    HW121767   1.265   2.717   5.071 -0.0840 -0.7469 -0.3030
 3378SOL    HW221768   1.150   2.774   5.002 -0.5625  0.7733 -0.9938
 3379SOL     OW21769   0.632   4.010  14.971  0.0008 -0.4317  0.4287
 3379SOL    HW121770   0.568   4.073  14.937  1.7656  0.2959 -1.5619
 3379SOL    HW221771   0.704   4.074  14.972 -0.7383  0.3982  0.1626
 3380SOL     OW21772   3.195   2.683   3.523 -0.0087 -0.0163  0.1484
 3380SOL    HW121773   3.202   2.674   3.428  0.4522  0.3644  0.1479
 3380SOL    HW221774   3.119   2.739   3.537  0.7155  1.0012  0.0003
 3381SOL     OW21775   1.593   3.534   2.423  0.0018 -0.0442  0.0175
 3381SOL    HW121776   1.555   3.571   2.503 -1.5712 -0.9803 -0.3018
 3381SOL    HW221777   1.572   3.600   2.358 -1.3486  0.7313  1.2330
 3382SOL     OW21778   2.098   2.610   3.666  0.0182  0.0059 -0.4678
 3382SOL    HW121779   2.061   2.660   3.738 -2.5693  1.2223 -2.6391
 3382SOL    HW221780   2.086   2.670   3.593 -1.8849 -1.8259 -1.6552
 3383SOL     OW21781   0.075   2.930   9.288 -0.6735 -0.1679  0.0366
 3383SOL    HW121782   0.141   2.907   9.354  1.2275 -0.1828 -1.8486
 3383SOL    HW221783   0.135   2.911   9.216  0.3003 -1.3269  1.1629
 3384SOL     OW21784   2.418   2.885  15.020 -0.5698  0.5660  0.1940
 3384SOL    HW121785   2.392   2.816  15.081 -3.7757  0.1398 -1.6588
 3384SOL    HW221786   2.497   2.921  15.060  0.5080 -1.8997  0.2702
 3385SOL     OW21787   1.475   2.954   4.362 -0.1702 -0.3065  0.3632
 3385SOL    HW121788   1.416   2.885   4.390  1.5389 -0.6648  3.1132
 3385SOL    HW221789   1.476   3.011   4.439 -3.4451  0.8172 -0.4555
 3386SOL     OW21790   0.093   0.033  15.441 -0.0762 -0.1859 -0.9816
 3386SOL    HW121791   0.092   0.128  15.444  0.0178 -0.2371  0.7339
 3386SOL    HW221792   0.127   0.016  15.354  3.2417 -3.0136  0.8759
 3387SOL     OW21793   3.905   3.159   6.181 -0.3936 -0.4657  0.4378
 3387SOL    HW121794   3.989   3.113   6.185 -0.9839 -1.5657 -0.0487
 3387SOL    HW221795   3.922   3.251   6.160 -0.4924 -0.3109  1.0403
 3388SOL     OW21796   4.530   0.140  10.937  0.2327 -0.4049  1.0364
 3388SOL    HW121797   4.498   0.228  10.960  0.5428  0.0263 -0.1872
 3388SOL    HW221798   4.489   0.128  10.851 -0.7293  0.8534  1.3136
 3389SOL     OW21799   4.599   1.493   6.888  0.5325  0.4972  0.4134
 3389SOL    HW121800   4.677   1.531   6.847 -0.7700  1.1544 -1.4604
 3389SOL    HW221801   4.604   1.523   6.978  1.1222 -0.1959  0.6155
 3390SOL     OW21802   2.530   2.753   6.957  0.4269 -0.2572  0.0940
 3390SOL    HW121803   2.465   2.725   7.022 -1.3289  0.7804 -1.2324
 3390SOL    HW221804   2.487   2.825   6.911  0.3649 -0.2009  0.2385
 3391SOL     OW21805   3.669   1.521   2.242  0.3438  0.3463 -0.2889
 3391SOL    HW121806   3.677   1.554   2.152  0.1406  1.9244  0.2671
 3391SOL    HW221807   3.690   1.428   2.239 -3.2817 -0.4597 -1.6045
 3392SOL     OW21808   3.562   1.091   3.789 -0.1642  0.5878  0.1989
 3392SOL    HW121809   3.480   1.073   3.743  0.5556  0.3086 -0.9804
 3392SOL    HW221810   3.565   1.183   3.815 -0.7984  0.5093  0.5657
 3393SOL     OW21811   1.311   4.071   2.952  0.4172 -0.3494 -0.9887
 3393SOL    HW121812   1.387   4.127   2.967 -0.9919  0.8969  1.4488
 3393SOL    HW221813   1.352   4.003   3.006 -0.7901  0.7828  1.3465
 3394SOL     OW21814   2.012   1.185  16.950 -0.1037 -0.0575  0.8528
 3394SOL    HW121815   1.994   1.136  16.870  0.8068  1.5867 -0.3783
 3394SOL    HW221816   1.989   1.274  16.922  0.6340 -0.0820  0.1753
 3395SOL     OW21817   2.238   3.786   6.448  0.0271 -0.0867  0.6037
 3395SOL    HW121818   2.322   3.781   6.493  1.1147 -1.4604 -1.6001
 3395SOL    HW221819   2.218   3.879   6.457 -1.6986 -0.4544  0.5952
 3396SOL     OW21820   1.408   2.574   1.642  0.2911  0.2743 -0.2134
 3396SOL    HW121821   1.411   2.635   1.716  2.7177  1.6229 -1.4242
 3396SOL    HW221822   1.422   2.493   1.691 -1.2231  1.2032  1.7567
 3397SOL     OW21823   0.305   1.151  16.754 -0.1905  0.1365  0.0377
 3397SOL    HW121824   0.233   1.206  16.723  0.4884  1.2871  0.5357
 3397SOL    HW221825   0.286   1.167  16.846 -2.2471 -1.9135 -0.0275
 3398SOL     OW21826   0.879   3.462   7.812 -0.0315  0.8043  0.2812
 3398SOL    HW121827   0.894   3.491   7.902  0.4427  2.5242 -0.3631
 3398SOL    HW221828   0.949   3.507   7.765  1.2570 -0.4400  0.9777
 3399SOL     OW21829   4.176   0.948  14.081  0.1995 -0.0954  0.4222
 3399SOL    HW121830   4.169   1.044  14.088 -2.3337 -0.2302 -0.2437
 3399SOL    HW221831   4.103   0.930  14.140  2.0580  0.1568  2.7878
 3400SOL     OW21832   3.308   2.017   1.689  0.4511 -0.2790  0.3411
 3400SOL    HW121833   3.306   2.088   1.754 -1.0443 -1.8616  2.0318
 3400SOL    HW221834   3.332   2.061   1.608  2.8858 -3.0449 -0.4088
 3401SOL     OW21835   0.337   4.089   5.923 -0.1744  0.4076 -0.3175
 3401SOL    HW121836   0.257   4.113   5.969  1.2120  2.5112  0.9541
 3401SOL    HW221837   0.294   4.034   5.856  0.0743 -0.2496  0.0572
 3402SOL     OW21838   0.973   1.613  15.422 -0.0566  0.0937  0.5333
 3402SOL    HW121839   1.051   1.605  15.366 -1.1208  1.5586 -1.1276
 3402SOL    HW221840   0.912   1.585  15.353  1.0487 -2.0364  0.3934
 3403SOL     OW21841   0.431   3.102   1.378  0.2478  0.3415 -0.6375
 3403SOL    HW121842   0.436   3.062   1.291  1.2082  3.6819 -2.0948
 3403SOL    HW221843   0.366   3.048   1.423  0.6940  1.6618  1.6057
 3404SOL     OW21844   4.693   3.021   1.900  0.0816 -0.1523  0.2061
 3404SOL    HW121845   0.034   2.980   1.869 -1.3456 -2.8432  0.0126
 3404SOL    HW221846   4.663   3.076   1.828 -1.2018 -1.6325 -0.3971
 3405SOL     OW21847   0.636   2.211   8.473  0.2956  0.1154 -0.2799
 3405SOL    HW121848   0.680   2.245   8.395 -2.2082  0.2241 -1.6422
 3405SOL    HW221849   0.708   2.163   8.513 -0.5374 -0.9789 -0.0835
 3406SOL     OW21850   0.154   3.691   5.321  0.1236 -0.1923  0.2437
 3406SOL    HW121851   0.157   3.607   5.367  0.0833 -0.1386  0.3446
 3406SOL    HW221852   0.066   3.702   5.285 -0.2462 -0.9100  0.9396
 3407SOL     OW21853   0.203   2.330   8.465  0.0873 -0.0598  0.3248
 3407SOL    HW121854   0.235   2.252   8.420 -0.3214 -0.0789  0.0668
 3407SOL    HW221855   0.262   2.398   8.430 -0.9956  0.6928 -0.0238
 3408SOL     OW21856   2.520   1.254  15.252  0.5016 -0.2792  0.4188
 3408SOL    HW121857   2.565   1.291  15.176  1.3638  0.5894  1.3539
 3408SOL    HW221858   2.592   1.216  15.302  1.4713  0.4442 -0.4166
 3409SOL     OW21859   2.195   4.240   2.920 -0.5630  0.9151  0.0388
 3409SOL    HW121860   2.281   4.217   2.956 -0.2627  0.8254 -0.7426
 3409SOL    HW221861   2.223   4.267   2.833  0.4745 -0.5061 -0.0693
 3410SOL     OW21862   0.386   0.245  13.416 -0.0644 -0.8150 -0.4964
 3410SOL    HW121863   0.407   0.215  13.327  0.0893  0.9966 -1.0705
 3410SOL    HW221864   0.475   0.261  13.448 -0.5761  0.7842  0.0847
 3411SOL     OW21865   4.499   1.981   5.681 -0.3919  0.1837  0.6082
 3411SOL    HW121866   4.419   2.033   5.674 -1.9035 -2.3088 -0.8210
 3411SOL    HW221867   4.466   1.904   5.726 -2.3858  0.9549  0.4730
 3412SOL     OW21868   0.439   4.344   6.550 -0.0647  0.0820  0.3925
 3412SOL    HW121869   0.499   4.321   6.620  0.1170  2.2403  0.9370
 3412SOL    HW221870   0.481   4.313   6.470  0.4995 -1.1683  1.1690
 3413SOL     OW21871   2.454   2.586   5.132 -1.1212  0.2550 -0.7686
 3413SOL    HW121872   2.427   2.669   5.093  1.3234  1.4691  0.0988
 3413SOL    HW221873   2.482   2.539   5.054 -0.4772 -1.1383  0.2899
 3414SOL     OW21874   2.913   3.064   8.114 -0.1114 -0.0829 -0.5486
 3414SOL    HW121875   2.882   2.974   8.119 -0.6777  0.1845  0.9537
 3414SOL    HW221876   3.006   3.062   8.137 -0.3332 -0.2672  0.3519
 3415SOL     OW21877   0.087   3.824   2.719  0.1242 -0.1005  0.0039
 3415SOL    HW121878   0.092   3.855   2.810 -2.8314  3.3601 -1.0412
 3415SOL    HW221879   0.175   3.847   2.690  0.2247 -0.6841 -0.1449
 3416SOL     OW21880   4.314   2.637   8.931 -0.1271  0.7088 -0.6239
 3416SOL    HW121881   4.343   2.546   8.935  2.3534  1.5335  0.0158
 3416SOL    HW221882   4.241   2.631   8.869  0.0926  0.2758 -0.8450
 3417SOL     OW21883   0.268   0.726   6.761 -0.0510  0.0235  0.1526
 3417SOL    HW121884   0.334   0.785   6.725  0.2926 -1.1649 -1.1679
 3417SOL    HW221885   0.197   0.740   6.698  0.5609 -1.6472 -0.8978
 3418SOL     OW21886   3.363   4.148   2.368 -0.4670 -0.3049 -0.8051
 3418SOL    HW121887   3.322   4.070   2.405  2.9559  0.0003  3.6778
 3418SOL    HW221888   3.314   4.159   2.287  0.1543  1.6814 -0.9187
 3419SOL     OW21889   0.494   3.403   4.759  0.3094 -0.3033  0.1047
 3419SOL    HW121890   0.417   3.416   4.815 -0.4365 -3.7694 -0.1220
 3419SOL    HW221891   0.540   3.484   4.780  0.5692 -0.3363 -0.3343
 3420SOL     OW21892   0.914   0.980   4.096  0.2454  0.2579  0.6070
 3420SOL    HW121893   0.819   0.976   4.080  0.1409 -1.9256  1.7730
 3420SOL    HW221894   0.911   1.067   4.136  2.4404  1.0525 -1.0189
 3421SOL     OW21895   3.531   4.740   6.645 -0.1337 -0.0602 -0.6634
 3421SOL    HW121896   3.508   0.072   6.703  0.5572 -0.6964  0.4191
 3421SOL    HW221897   3.472   0.018   6.572 -0.7959 -2.2837 -0.6734
 3422SOL     OW21898   0.363   2.173  15.866  0.2451 -0.3633 -0.3427
 3422SOL    HW121899   0.365   2.081  15.840 -1.1302 -0.5631  0.2245
 3422SOL    HW221900   0.282   2.201  15.823  0.0395  0.6094  0.6713
 3423SOL     OW21901   4.415   0.135   6.914  0.3611  0.2346  0.0769
 3423SOL    HW121902   4.339   0.183   6.881  1.4055  2.1509  0.4657
 3423SOL    HW221903   4.418   0.078   6.837 -0.0119 -1.3353  1.2128
 3424SOL     OW21904   0.536   1.639   3.277  0.0710 -0.5425 -0.2915
 3424SOL    HW121905   0.511   1.548   3.292  2.1553 -1.3383 -1.6154
 3424SOL    HW221906   0.611   1.646   3.336 -1.2644  0.6245  1.2827
 3425SOL     OW21907   0.685   2.520   7.511  0.0080 -0.2388 -0.3000
 3425SOL    HW121908   0.745   2.588   7.544 -0.0429 -0.2949 -0.0934
 3425SOL    HW221909   0.676   2.466   7.590  0.1630 -1.5495 -1.1749
 3426SOL     OW21910   3.537   1.271   5.390 -0.0527 -0.2155  0.2578
 3426SOL    HW121911   3.591   1.282   5.312  0.3455 -0.6428  0.4769
 3426SOL    HW221912   3.468   1.209   5.368  1.1818 -0.7956 -1.9047
 3427SOL     OW21913   1.618   1.253   6.563 -0.2905 -0.4999  0.7087
 3427SOL    HW121914   1.612   1.160   6.586 -0.1073 -0.5791  0.4315
 3427SOL    HW221915   1.524   1.274   6.566 -0.4784 -1.3924  0.9386
 3428SOL     OW21916   4.559   0.178   4.929 -1.0480  0.0527 -0.4045
 3428SOL    HW121917   4.470   0.197   4.901 -1.1937 -0.0717 -0.0218
 3428SOL    HW221918   4.602   0.242   4.873 -0.2618 -0.4095 -0.3274
 3429SOL     OW21919   0.125   2.616   5.442 -0.5922 -0.6305 -0.1094
 3429SOL    HW121920   0.040   2.573   5.433 -0.9358 -0.5572  2.8742
 3429SOL    HW221921   0.126   2.666   5.360  1.7661  0.1782  0.4256
 3430SOL     OW21922   2.168   0.257  15.740  0.3575  0.7283  0.5308
 3430SOL    HW121923   2.163   0.271  15.834  1.6402 -0.5280  0.7875
 3430SOL    HW221924   2.078   0.230  15.720  1.8975 -3.8105 -0.3893
 3431SOL     OW21925   2.748   2.713  16.217  0.1351 -0.3677 -0.5398
 3431SOL    HW121926   2.831   2.709  16.170 -0.0482  0.1123 -0.9033
 3431SOL    HW221927   2.703   2.650  16.161  0.7140  0.7633 -2.2877
 3432SOL     OW21928   1.351   3.005   5.131  0.0999 -0.6777 -0.3819
 3432SOL    HW121929   1.387   2.942   5.193 -1.3692 -1.3649 -0.2072
 3432SOL    HW221930   1.314   2.943   5.068 -0.4532  0.0732 -0.7987
 3433SOL     OW21931   0.174   2.982   1.475 -0.1966  0.0178  0.2093
 3433SOL    HW121932   0.095   2.930   1.462 -1.3253  1.5095  1.0763
 3433SOL    HW221933   0.142   3.069   1.498 -2.7474 -1.5512  2.5585
 3434SOL     OW21934   3.203   4.603   5.797  0.4378 -0.1299  0.0530
 3434SOL    HW121935   3.174   4.678   5.746 -0.0592 -0.5908 -0.3456
 3434SOL    HW221936   3.180   4.638   5.883  0.9663 -2.3274  1.1029
 3435SOL     OW21937   1.830   3.249   4.340  0.1677  0.5110 -0.3279
 3435SOL    HW121938   1.795   3.160   4.345 -1.0151  0.9541 -0.7022
 3435SOL    HW221939   1.923   3.231   4.329  0.0468 -0.9865  1.0063
 3436SOL     OW21940   2.925   3.739   5.501  0.1922  0.1114  0.0526
 3436SOL    HW121941   2.995   3.773   5.445  1.3869 -2.0744  0.2351
 3436SOL    HW221942   2.866   3.814   5.511 -0.8107 -0.9831  2.3490
 3437SOL     OW21943   1.648   4.165  17.526 -0.5499 -0.7077  0.0381
 3437SOL    HW121944   1.738   4.196  17.531 -0.6807 -0.1491 -0.9249
 3437SOL    HW221945   1.662   4.072  17.542  0.1181 -0.7683 -0.8821
 3438SOL     OW21946   1.914   2.046   5.914 -0.3766 -1.4524 -0.4429
 3438SOL    HW121947   1.952   2.133   5.903 -2.0971 -0.5135  1.1854
 3438SOL    HW221948   1.857   2.036   5.838 -2.5964 -2.0086  1.3301
 3439SOL     OW21949   0.423   2.101   4.172 -0.2452 -0.0330  0.1767
 3439SOL    HW121950   0.482   2.068   4.105 -0.5357  0.2377 -0.2099
 3439SOL    HW221951   0.360   2.030   4.174 -1.5509  1.1382  1.1141
 3440SOL     OW21952   3.138   4.225   3.111 -0.1443 -0.2802 -0.2849
 3440SOL    HW121953   3.158   4.248   3.202  1.6649  0.4918 -0.8654
 3440SOL    HW221954   3.227   4.202   3.083  0.2188 -0.1451  0.7249
 3441SOL     OW21955   1.193   2.150   7.249  0.1899 -0.3639  0.4005
 3441SOL    HW121956   1.222   2.239   7.267  0.9794 -0.5182 -0.0972
 3441SOL    HW221957   1.174   2.147   7.155 -1.5162  0.2263  0.7257
 3442SOL     OW21958   3.839   2.296  16.846 -0.3160  1.1569  0.1622
 3442SOL    HW121959   3.846   2.205  16.817  0.9507  1.7044 -1.2195
 3442SOL    HW221960   3.805   2.337  16.767 -0.2491 -0.6505 -0.8062
 3443SOL     OW21961   4.464   2.745   7.369  0.0772  0.6493 -0.2509
 3443SOL    HW121962   4.457   2.708   7.456 -1.1564 -0.2462 -0.7379
 3443SOL    HW221963   4.374   2.735   7.337  0.1350  1.1314 -0.5822
 3444SOL     OW21964   4.498   0.058   8.313 -0.1024  0.3166  0.2810
 3444SOL    HW121965   4.464   0.147   8.320 -2.1634 -0.3573 -0.9181
 3444SOL    HW221966   4.502   0.044   8.218 -4.0231  0.1189  0.1070
 3445SOL     OW21967   2.008   0.650   5.780  0.3898 -0.2701 -0.7846
 3445SOL    HW121968   2.096   0.678   5.805 -0.8481  2.0361  0.9792
 3445SOL    HW221969   1.998   0.679   5.690 -2.9778  0.5705 -0.1468
 3446SOL     OW21970   4.567   0.689  11.992 -0.4106 -0.3447  1.1338
 3446SOL    HW121971   4.565   0.672  12.086 -0.5902 -0.4631  1.1085
 3446SOL    HW221972   4.540   0.604  11.958  0.6158 -0.0443 -0.4673
 3447SOL     OW21973   2.436   0.977   2.922  0.2740 -0.1789  0.6602
 3447SOL    HW121974   2.355   0.937   2.955  0.8580 -2.5403 -0.7651
 3447SOL    HW221975   2.405   1.017   2.841 -0.5861 -0.4665  0.8475
 3448SOL     OW21976   3.939   1.083   7.915  0.6482  0.2981 -0.6524
 3448SOL    HW121977   4.023   1.095   7.959  0.2158 -1.6129  0.7099
 3448SOL    HW221978   3.897   1.166   7.936  0.1504 -0.4314  1.2795
 3449SOL     OW21979   1.997   2.268   1.208  0.3798 -0.5250 -0.7979
 3449SOL    HW121980   1.916   2.301   1.169  0.4588  1.8905  1.0293
 3449SOL    HW221981   2.042   2.350   1.231 -1.6827  0.5487 -0.5677
 3450SOL     OW21982   3.085   3.744   4.084  0.2258  0.5747 -0.1920
 3450SOL    HW121983   3.020   3.797   4.038 -1.3306 -0.0950  1.2319
 3450SOL    HW221984   3.061   3.754   4.177  0.2137 -0.0376 -0.1285
 3451SOL     OW21985   0.273   0.362  11.426  1.5045  0.1052  0.3317
 3451SOL    HW121986   0.254   0.454  11.413  0.7610 -0.1802 -0.5775
 3451SOL    HW221987   0.198   0.346  11.483 -0.1887  0.4989 -1.8322
 3452SOL     OW21988   3.127   3.542   8.713 -0.2355  0.4309  0.2849
 3452SOL    HW121989   3.114   3.460   8.665 -0.3318  1.4426 -1.4310
 3452SOL    HW221990   3.159   3.591   8.637 -0.8198 -0.3537 -0.4630
 3453SOL     OW21991   4.455   3.584   2.968 -0.0446  0.1430 -0.2570
 3453SOL    HW121992   4.488   3.526   3.037 -0.0567  0.5212  0.0671
 3453SOL    HW221993   4.360   3.572   2.972  0.4872 -3.6089  1.5323
 3454SOL     OW21994   0.451   1.031  12.819 -0.2018  0.0492 -0.1484
 3454SOL    HW121995   0.417   0.943  12.806 -2.9081  1.3173 -1.5746
 3454SOL    HW221996   0.431   1.043  12.912 -0.0492  0.8247 -0.2143
 3455SOL     OW21997   1.926   3.827  15.833  0.0030 -0.3201  0.4761
 3455SOL    HW121998   1.855   3.769  15.860 -0.2825 -0.0972  0.2089
 3455SOL    HW221999   1.922   3.803  15.740  1.3975  1.1207  0.0254
 3456SOL     OW22000   0.011   4.652   6.546 -0.1416 -0.0896  0.2167
 3456SOL    HW122001   0.054   4.657   6.460 -0.0730 -1.8124  0.1444
 3456SOL    HW222002   4.659   4.633   6.529 -0.1294  1.7986 -2.0834
 3457SOL     OW22003   0.399   4.387   8.556 -0.3181  0.1551  0.0577
 3457SOL    HW122004   0.466   4.363   8.491  1.4152 -0.0021  1.9004
 3457SOL    HW222005   0.428   4.475   8.578 -2.0650  1.7962 -4.3395
 3458SOL     OW22006   2.069   1.073  12.491  0.0940 -0.5164 -0.3716
 3458SOL    HW122007   2.103   1.145  12.543  3.0176 -0.4500 -2.3978
 3458SOL    HW222008   1.995   1.103  12.437  1.1638 -0.7463 -1.9483
 3459SOL     OW22009   0.803   2.749   8.179  0.1926  0.4955 -0.2328
 3459SOL    HW122010   0.775   2.814   8.115 -2.3878 -1.1795 -0.8085
 3459SOL    HW222011   0.891   2.730   8.145 -0.2957  1.9281 -2.2892
 3460SOL     OW22012   4.580   3.405  10.833  0.2822 -0.1061  0.4109
 3460SOL    HW122013   4.667   3.443  10.822  0.3735 -1.0385 -2.0152
 3460SOL    HW222014   4.598   3.377  10.923 -2.0291 -1.6149  0.4037
 3461SOL     OW22015   0.463   2.572   9.463 -0.2515 -0.0168 -0.2673
 3461SOL    HW122016   0.529   2.610   9.406 -1.1549  0.5986 -0.9010
 3461SOL    HW222017   0.481   2.603   9.552  0.8246 -0.2900 -0.3933
 3462SOL     OW22018   4.259   2.478   6.056 -0.2168 -0.5323 -0.6715
 3462SOL    HW122019   4.186   2.444   6.107  1.4037 -0.7472  1.5076
 3462SOL    HW222020   4.302   2.401   6.019  0.1773 -0.5016 -0.2779
 3463SOL     OW22021   2.668   2.251   5.075 -0.0880  0.0677 -0.1428
 3463SOL    HW122022   2.743   2.265   5.016  1.3089 -0.5975  1.4752
 3463SOL    HW222023   2.725   2.258   5.151  1.1225 -0.5649 -0.9778
 3464SOL     OW22024   0.831   4.226  14.920  0.2184 -0.1573 -0.0685
 3464SOL    HW122025   0.829   4.173  14.841 -1.1797 -0.4157  0.1415
 3464SOL    HW222026   0.885   4.298  14.886 -0.7592  0.8260  0.4462
 3465SOL     OW22027   3.017   3.617   6.727  0.6455 -0.2763 -0.0159
 3465SOL    HW122028   3.006   3.706   6.694  0.4734 -0.5360 -0.6663
 3465SOL    HW222029   2.929   3.585   6.747  0.5400  0.1270  0.1736
 3466SOL     OW22030   3.246   2.093   2.236  0.2396  0.0222 -0.1900
 3466SOL    HW122031   3.190   2.103   2.312  0.8599 -1.6352  0.4988
 3466SOL    HW222032   3.204   2.152   2.173  0.1084 -0.3705 -0.4732
 3467SOL     OW22033   0.181   2.844  12.131 -0.3196 -0.9383  0.0437
 3467SOL    HW122034   0.232   2.770  12.165  0.4763 -0.4001  0.0217
 3467SOL    HW222035   0.099   2.804  12.102 -1.4599  1.1532  0.4059
 3468SOL     OW22036   0.766   0.820   3.243  0.3745  0.2468  0.1995
 3468SOL    HW122037   0.834   0.827   3.309  0.2872 -0.7578  0.4010
 3468SOL    HW222038   0.743   0.727   3.247 -2.4665  0.8953 -0.8865
 3469SOL     OW22039   4.637   1.558  13.438  0.2298  0.3611 -0.2174
 3469SOL    HW122040   4.544   1.582  13.432 -0.3697 -1.7538  0.5112
 3469SOL    HW222041   4.685   1.624  13.389  1.3247 -0.7303 -0.6232
 3470SOL     OW22042   0.485   2.015   0.317  0.2654 -0.3278 -0.0137
 3470SOL    HW122043   0.393   1.999   0.299  0.0484 -0.7004  1.4945
 3470SOL    HW222044   0.482   2.050   0.406 -0.1194  0.2633 -0.2598
 3471SOL     OW22045   3.799   0.349   7.495  0.3162 -0.1442  0.0785
 3471SOL    HW122046   3.742   0.355   7.571  0.3818 -0.8802  0.1880
 3471SOL    HW222047   3.753   0.292   7.433  2.4340 -0.5565 -1.1346
 3472SOL     OW22048   4.166   3.975   8.941  0.5357  0.1891  0.3456
 3472SOL    HW122049   4.080   3.980   8.983  0.7260  1.1064  0.6260
 3472SOL    HW222050   4.214   3.902   8.979  0.9321 -0.0560 -0.6370
 3473SOL     OW22051   2.656   2.088   4.358 -0.4686  0.4587 -0.1750
 3473SOL    HW122052   2.645   2.176   4.322  2.1488  1.0064  0.3716
 3473SOL    HW222053   2.628   2.101   4.449  3.1960  1.0350  0.8557
 3474SOL     OW22054   1.879   2.747   1.193  0.2697  0.0826  0.5787
 3474SOL    HW122055   1.891   2.838   1.219  0.8408  0.5935 -1.4664
 3474SOL    HW222056   1.939   2.754   1.118 -1.0197  1.7353 -0.2929
 3475SOL     OW22057   4.149   0.499   3.216 -0.7092 -0.5233 -0.3653
 3475SOL    HW122058   4.219   0.553   3.180 -0.5026 -1.3155 -1.1732
 3475SOL    HW222059   4.200   0.420   3.237 -2.7314 -1.9847 -0.9500
 3476SOL     OW22060   2.617   2.183   8.526  0.2477  0.6395 -0.1773
 3476SOL    HW122061   2.525   2.202   8.542  0.5291  0.6089  1.4622
 3476SOL    HW222062   2.653   2.265   8.492  0.5947 -0.1804 -1.8256
 3477SOL     OW22063   2.508   0.375   5.939  0.1497 -0.6760  0.5549
 3477SOL    HW122064   2.596   0.400   5.911 -0.1222  0.0284  0.3055
 3477SOL    HW222065   2.511   0.283   5.914 -4.3669 -0.5311 -0.4580
 3478SOL     OW22066   1.884   2.434  14.632  0.0158 -0.3825  0.4914
 3478SOL    HW122067   1.869   2.353  14.583  0.6843  0.3501 -0.9206
 3478SOL    HW222068   1.977   2.447  14.616  0.2231 -2.6120 -0.1079
 3479SOL     OW22069   0.174   1.029   6.613  0.0319  0.0599 -0.1518
 3479SOL    HW122070   0.247   1.082   6.646 -2.0061  0.3387  3.8682
 3479SOL    HW222071   0.129   1.091   6.557  0.1277 -0.4824 -0.8265
 3480SOL     OW22072   4.292   1.035   4.734  0.0040 -0.2548  0.4141
 3480SOL    HW122073   4.259   1.124   4.749 -1.2869 -0.5438 -0.6858
 3480SOL    HW222074   4.275   1.028   4.640 -0.5076  2.3099  0.2986
 3481SOL     OW22075   1.195   3.132   4.272  0.5501  0.8650  0.3546
 3481SOL    HW122076   1.137   3.138   4.196  1.5621 -2.8654 -0.6822
 3481SOL    HW222077   1.182   3.040   4.295  2.8001  0.3711 -0.3463
 3482SOL     OW22078   4.199   2.510   7.564 -0.4775  0.1083  0.1255
 3482SOL    HW122079   4.200   2.590   7.617 -0.2744  0.4815 -0.4314
 3482SOL    HW222080   4.112   2.519   7.525  0.5002  0.9394 -1.8570
 3483SOL     OW22081   4.627   3.791  15.594 -0.3949 -0.5016 -0.0389
 3483SOL    HW122082   4.642   3.885  15.582 -1.6291 -0.2099  0.6751
 3483SOL    HW222083   4.704   3.760  15.548 -1.1386  1.7559 -2.8257
 3484SOL     OW22084   2.235   4.550  12.590 -0.0218 -0.3433  0.0041
 3484SOL    HW122085   2.243   4.559  12.685  1.2547 -2.2160  0.0683
 3484SOL    HW222086   2.286   4.626  12.565  0.5725 -0.7535 -0.0228
 3485SOL     OW22087   4.422   0.221   7.870  0.2708 -0.3547 -0.1949
 3485SOL    HW122088   4.396   0.136   7.906  1.4092  0.8685  3.4500
 3485SOL    HW222089   4.518   0.221   7.866  0.2659  0.2225 -0.3035
 3486SOL     OW22090   3.033   1.335   3.466  0.1054 -0.8820  0.2697
 3486SOL    HW122091   3.112   1.280   3.460  0.3371 -0.5344  0.1602
 3486SOL    HW222092   2.982   1.278   3.408 -0.5506  1.2806 -1.2706
 3487SOL     OW22093   2.032   1.790   1.065 -0.6768  0.4632  0.3866
 3487SOL    HW122094   2.118   1.782   1.107 -0.0005  1.0913 -0.8910
 3487SOL    HW222095   2.003   1.708   1.104 -2.2293  1.3175  1.0180
 3488SOL     OW22096   1.308   2.084   3.734 -0.0760  0.4238  0.2269
 3488SOL    HW122097   1.272   2.172   3.745  0.1537  0.9804 -3.4983
 3488SOL    HW222098   1.226   2.036   3.725 -0.1216  0.6580 -0.6653
 3489SOL     OW22099   3.689   2.506  13.905  0.5031 -0.0387 -0.3433
 3489SOL    HW122100   3.650   2.501  13.818 -0.2793  2.1887 -0.1061
 3489SOL    HW222101   3.775   2.542  13.887 -0.0964  1.6335  0.1744
 3490SOL     OW22102   3.457   2.369   7.161  0.0789 -0.0953  0.2140
 3490SOL    HW122103   3.539   2.319   7.165  1.3046  1.7955 -1.3768
 3490SOL    HW222104   3.494   2.457   7.162  0.0567 -0.1294  2.7297
 3491SOL     OW22105   2.179   0.102  10.490  0.3637  0.1175  0.0745
 3491SOL    HW122106   2.221   0.179  10.529  1.9524 -0.4172 -0.5923
 3491SOL    HW222107   2.250   0.073  10.432  0.4710 -0.1403  0.3383
 3492SOL     OW22108   4.711   4.262   6.438  0.3054  0.2576 -0.3761
 3492SOL    HW122109   0.026   4.314   6.496  3.2066 -0.7441 -2.2100
 3492SOL    HW222110   4.632   4.315   6.439  0.5276  0.5777  1.3855
 3493SOL     OW22111   0.274   2.799   4.944 -0.7718  0.6104  0.1994
 3493SOL    HW122112   0.304   2.883   4.908 -2.3182  1.0870  0.0286
 3493SOL    HW222113   0.263   2.755   4.859  1.6429  0.0005  0.2128
 3494SOL     OW22114   2.591   1.816   9.202 -0.4344 -0.8604  0.1702
 3494SOL    HW122115   2.638   1.735   9.223  0.2768 -0.7451 -0.9463
 3494SOL    HW222116   2.522   1.799   9.265  0.9448 -2.6102  1.1956
 3495SOL     OW22117   1.779   1.548  14.838 -0.4677 -0.5661 -0.0884
 3495SOL    HW122118   1.849   1.578  14.781 -0.9130  1.1762  0.2974
 3495SOL    HW222119   1.707   1.574  14.782  0.0963 -0.2909 -0.6887
 3496SOL     OW22120   0.797   3.055   7.401 -0.1954 -0.0408 -0.4284
 3496SOL    HW122121   0.825   3.008   7.322 -0.9794  0.3924 -0.9611
 3496SOL    HW222122   0.702   3.059   7.403 -0.1878  0.0753 -0.2943
 3497SOL     OW22123   0.421   1.214  10.311 -0.1002  0.0489  0.1721
 3497SOL    HW122124   0.395   1.128  10.279 -0.5640  0.7585 -1.3024
 3497SOL    HW222125   0.516   1.202  10.318  0.0889  1.5129  0.1332
 3498SOL     OW22126   0.540   3.850   7.470 -0.1408 -0.4390 -0.1339
 3498SOL    HW122127   0.534   3.894   7.385 -3.1339 -0.9247 -0.1623
 3498SOL    HW222128   0.455   3.807   7.471 -0.4401  0.1597 -0.0300
 3499SOL     OW22129   3.159   1.772   7.785 -0.6229  0.1873  0.6142
 3499SOL    HW122130   3.123   1.698   7.736 -2.9921  1.3851  0.5607
 3499SOL    HW222131   3.096   1.768   7.857 -1.5373  1.8632 -0.1039
 3500SOL     OW22132   4.524   3.972   3.399 -0.3628 -0.4449  0.2782
 3500SOL    HW122133   4.551   4.064   3.409 -1.2275 -0.1590 -0.0103
 3500SOL    HW222134   4.461   3.973   3.327  0.9834 -0.4080 -0.8940
 3501SOL     OW22135   3.302   3.065  14.541 -0.1144  0.0851 -0.2195
 3501SOL    HW122136   3.262   2.994  14.492 -1.4449 -0.0322  1.0514
 3501SOL    HW222137   3.278   3.140  14.486  0.1171  0.2732 -0.0634
 3502SOL     OW22138   3.496   4.367   6.801 -0.1008  0.0426 -0.4350
 3502SOL    HW122139   3.555   4.305   6.845 -1.1426 -0.3621  0.3812
 3502SOL    HW222140   3.561   4.404   6.741  0.0831  1.6734  0.7623
 3503SOL     OW22141   3.276   1.513   4.829 -0.1083 -0.5939  0.2306
 3503SOL    HW122142   3.264   1.574   4.902  0.3964 -2.0383  1.5464
 3503SOL    HW222143   3.242   1.567   4.758  1.2378 -0.3705 -0.2394
 3504SOL     OW22144   1.099   0.809   6.525  0.4472 -0.5287  0.8341
 3504SOL    HW122145   1.109   0.720   6.492  2.5552 -0.7685  2.1628
 3504SOL    HW222146   1.177   0.818   6.578 -0.3555  1.8873  1.6530
 3505SOL     OW22147   0.867   4.570  10.741 -0.7949 -0.2679  0.6408
 3505SOL    HW122148   0.910   4.521  10.812 -0.0933 -0.2789  0.2147
 3505SOL    HW222149   0.814   4.641  10.775 -1.5965  0.2866 -1.7633
 3506SOL     OW22150   0.181   1.378   9.432  0.1514  0.5465  0.2577
 3506SOL    HW122151   0.228   1.296   9.447 -0.9834 -0.6527 -2.8648
 3506SOL    HW222152   0.106   1.367   9.489  0.2483  1.3157  0.5401
 3507SOL     OW22153   2.380   4.633   8.537 -0.1369  0.2780  0.1778
 3507SOL    HW122154   2.313   4.582   8.491  1.2482 -0.5128 -0.9527
 3507SOL    HW222155   2.434   4.653   8.461 -0.9563 -0.4567 -0.5914
 3508SOL     OW22156   0.794   2.024   2.937 -0.0491 -0.1253 -0.2910
 3508SOL    HW122157   0.859   2.062   2.997  0.5914  0.5280 -1.4115
 3508SOL    HW222158   0.728   2.002   3.003  0.1302 -1.1262 -0.4550
 3509SOL     OW22159   3.968   1.618  10.794  0.2384  0.2310 -0.5602
 3509SOL    HW122160   3.961   1.647  10.885 -1.5498  0.2963 -0.7290
 3509SOL    HW222161   3.895   1.558  10.778  1.7476 -1.2065 -2.0327
 3510SOL     OW22162   3.015   2.210  13.826 -0.6958  0.2444  0.0044
 3510SOL    HW122163   3.077   2.253  13.885  0.0339 -1.1927  0.2803
 3510SOL    HW222164   2.972   2.162  13.896 -0.9056  0.2814 -0.0993
 3511SOL     OW22165   4.168   4.718   2.260  0.3614  0.2078  0.2476
 3511SOL    HW122166   4.189   0.070   2.277 -3.4029  0.9691  0.7004
 3511SOL    HW222167   4.235   4.718   2.191 -0.5892 -0.7650 -0.6571
 3512SOL     OW22168   1.004   3.693  10.318  0.2041  0.5114  0.7298
 3512SOL    HW122169   0.927   3.735  10.282  0.5658 -0.0089 -0.6489
 3512SOL    HW222170   1.047   3.768  10.359  0.0246  0.1353  1.5948
 3513SOL     OW22171   0.280   1.196   7.272 -0.0912 -0.1456 -0.2888
 3513SOL    HW122172   0.247   1.136   7.206 -0.3892  0.4074 -0.6376
 3513SOL    HW222173   0.274   1.143   7.352 -1.8000 -1.1200 -1.0792
 3514SOL     OW22174   1.586   3.391  11.511 -0.4375 -0.1345 -0.5972
 3514SOL    HW122175   1.508   3.336  11.510 -0.6526  0.1494  0.3343
 3514SOL    HW222176   1.594   3.401  11.416  1.8470 -0.1415 -0.4207
 3515SOL     OW22177   0.359   2.206   9.498  0.0799 -0.8099  0.3764
 3515SOL    HW122178   0.270   2.177   9.481  0.0117  0.5232 -1.4512
 3515SOL    HW222179   0.352   2.199   9.594 -0.3694 -1.4354  0.2936
 3516SOL     OW22180   0.418   0.935   0.322 -0.6963  0.2410 -0.2544
 3516SOL    HW122181   0.404   0.860   0.380  1.7937 -0.8593 -1.0808
 3516SOL    HW222182   0.410   0.884   0.242 -1.4713 -0.9223  0.5675
 3517SOL     OW22183   3.491   4.310   2.556  0.3893  0.2446  0.3999
 3517SOL    HW122184   3.448   4.261   2.486 -1.6941  2.0256  0.4731
 3517SOL    HW222185   3.419   4.370   2.572  0.7312  0.5991  0.6122
 3518SOL     OW22186   0.843   0.199  10.590  0.3213 -0.3730 -0.0663
 3518SOL    HW122187   0.918   0.152  10.626 -0.7175 -1.3736  0.7919
 3518SOL    HW222188   0.818   0.147  10.514 -0.1540 -1.2343  0.6824
 3519SOL     OW22189   2.141   4.520   4.593  0.2555 -0.4899  0.4103
 3519SOL    HW122190   2.108   4.609   4.609 -0.0509 -0.6547  0.7118
 3519SOL    HW222191   2.235   4.534   4.582 -0.2422  1.0715 -1.7797
 3520SOL     OW22192   0.346   3.508  13.346 -0.5171 -0.2915  0.4849
 3520SOL    HW122193   0.258   3.529  13.376 -1.5396 -1.8015 -1.4511
 3520SOL    HW222194   0.385   3.447  13.409 -1.2970 -1.2609  0.0361
 3521SOL     OW22195   2.511   2.788  14.778  0.7452  0.1499  0.1762
 3521SOL    HW122196   2.469   2.704  14.761  1.6889 -0.4597  0.8328
 3521SOL    HW222197   2.461   2.836  14.845  0.1537  0.0203 -0.1704
 3522SOL     OW22198   3.545   4.238  13.236 -0.8566 -0.4959 -0.0113
 3522SOL    HW122199   3.574   4.148  13.252 -0.5075  0.3400  3.9909
 3522SOL    HW222200   3.459   4.221  13.197 -0.8066 -0.8333  0.0270
 3523SOL     OW22201   1.066   0.472   4.722  0.0053  0.1506  0.3579
 3523SOL    HW122202   0.985   0.421   4.725  0.8721 -1.2381 -0.0157
 3523SOL    HW222203   1.134   0.408   4.743  0.4472  0.9834  1.5036
 3524SOL     OW22204   1.512   3.787  10.644 -0.0313 -0.0572  0.0816
 3524SOL    HW122205   1.521   3.741  10.561 -1.4722  2.6319 -1.5553
 3524SOL    HW222206   1.591   3.762  10.692  0.6330  0.0452 -0.9700
 3525SOL     OW22207   2.498   1.619   8.475  0.0152  0.5948 -0.7608
 3525SOL    HW122208   2.406   1.608   8.497 -0.0494 -1.0454 -1.8198
 3525SOL    HW222209   2.530   1.528   8.477 -2.1675 -0.0926  2.0077
 3526SOL     OW22210   0.703   2.073   4.891  0.2558  0.1280  0.3506
 3526SOL    HW122211   0.619   2.028   4.901 -0.4921  1.4637  0.0106
 3526SOL    HW222212   0.677   2.161   4.864  0.4455  0.3305  0.8311
 3527SOL     OW22213   0.668   0.753  16.375 -0.1626 -0.3609  0.2079
 3527SOL    HW122214   0.678   0.846  16.393 -0.1144 -0.3814  0.2864
 3527SOL    HW222215   0.684   0.703  16.455  0.9663  1.1723  0.9489
 3528SOL     OW22216   2.493   3.005   7.275  0.1361 -0.1272  0.7379
 3528SOL    HW122217   2.541   2.924   7.294 -1.0318 -0.6609  1.4195
 3528SOL    HW222218   2.568   3.064   7.271 -1.3019  1.6658 -0.0128
 3529SOL     OW22219   2.285   4.613   7.810  0.3670 -0.0390  0.4625
 3529SOL    HW122220   2.355   4.561   7.769  1.0028  1.9387 -0.9495
 3529SOL    HW222221   2.249   4.660   7.735  0.3699  0.0909  0.5435
 3530SOL     OW22222   0.245   0.207   1.133  0.7738  0.6110  0.0369
 3530SOL    HW122223   0.325   0.256   1.111  0.8599  0.8455  0.8667
 3530SOL    HW222224   0.231   0.219   1.227 -2.8029  2.8903 -0.7684
 3531SOL     OW22225   0.171   1.183  11.519 -0.2809  0.2505  0.2267
 3531SOL    HW122226   0.151   1.093  11.545  1.0607 -0.7978 -2.2826
 3531SOL    HW222227   0.091   1.207  11.472  1.4760  0.2908 -2.7604
 3532SOL     OW22228   4.136   1.855  10.862 -0.3814  0.0100 -0.5527
 3532SOL    HW122229   4.045   1.850  10.891 -0.9695 -1.1324 -2.6205
 3532SOL    HW222230   4.186   1.869  10.943 -1.1733 -1.2316  0.1557
 3533SOL     OW22231   1.749   0.163   2.564  0.3026  0.1643 -0.2591
 3533SOL    HW122232   1.745   0.217   2.643  0.9077  1.3808 -1.0695
 3533SOL    HW222233   1.657   0.142   2.546  0.1855  0.4748 -0.0364
 3534SOL     OW22234   4.146   2.767   3.825 -0.3327  0.2777 -0.3233
 3534SOL    HW122235   4.098   2.709   3.766  1.2322 -0.9043 -0.4423
 3534SOL    HW222236   4.076   2.822   3.859  0.3298  0.2766  1.0254
 3535SOL     OW22237   3.981   2.277   7.657 -0.2957 -0.1949 -0.0456
 3535SOL    HW122238   3.928   2.347   7.696  0.3403  0.4185 -0.2759
 3535SOL    HW222239   4.037   2.262   7.732 -1.6499  5.8411  2.1661
 3536SOL     OW22240   2.112   0.088   8.911 -0.1267 -0.5268  0.3881
 3536SOL    HW122241   2.187   0.106   8.853  0.3719  0.7155  1.4314
 3536SOL    HW222242   2.053   0.031   8.862 -0.6720 -0.3002  0.7817
 3537SOL     OW22243   0.723   3.905   8.196  0.2630  0.0069  1.1073
 3537SOL    HW122244   0.657   3.896   8.264 -2.0673  0.5880 -1.0799
 3537SOL    HW222245   0.726   3.815   8.163  0.8466  0.0485  1.0432
 3538SOL     OW22246   1.758   1.292   3.136 -0.1184 -0.4162  0.2603
 3538SOL    HW122247   1.704   1.316   3.211 -0.6863 -2.6818  0.5731
 3538SOL    HW222248   1.847   1.318   3.161  1.2482 -0.6457 -4.3598
 3539SOL     OW22249   4.594   2.333   6.921 -0.1983  0.1322 -0.2935
 3539SOL    HW122250   4.637   2.253   6.952 -1.4456 -0.4494 -0.0346
 3539SOL    HW222251   4.579   2.381   7.003 -0.7740  2.3311 -1.6719
 3540SOL     OW22252   4.173   0.734  10.820  0.0320  0.1944 -0.1510
 3540SOL    HW122253   4.150   0.653  10.865 -2.5454  1.3879  0.7209
 3540SOL    HW222254   4.225   0.762  10.896  1.7404 -1.6467 -0.6478
 3541SOL     OW22255   3.774   0.965  16.994  0.0293 -0.5617 -0.3886
 3541SOL    HW122256   3.852   0.931  16.951 -0.1047 -0.8357 -0.4114
 3541SOL    HW222257   3.774   0.928  17.082 -0.5944  1.6675  0.5576
 3542SOL     OW22258   3.014   4.289  10.650  0.3159  0.1325 -0.0368
 3542SOL    HW122259   3.100   4.308  10.687  0.8311 -2.7975  0.2784
 3542SOL    HW222260   2.972   4.285  10.736  1.0218 -1.4242  0.2342
 3543SOL     OW22261   0.414   0.639   5.383  0.2067  0.5301 -0.6387
 3543SOL    HW122262   0.461   0.561   5.355 -0.4358  0.1078 -0.5487
 3543SOL    HW222263   0.411   0.632   5.479  0.2102  0.7906 -0.6195
 3544SOL     OW22264   3.142   3.044   0.558 -0.0809 -0.1275  0.1880
 3544SOL    HW122265   3.115   2.954   0.538  2.5762 -0.5214 -1.6453
 3544SOL    HW222266   3.177   3.028   0.646 -0.4832 -0.4990  0.2798
 3545SOL     OW22267   0.256   0.560   3.482  0.1500  0.1029 -0.1677
 3545SOL    HW122268   0.204   0.484   3.505 -0.3877  0.5970  0.2411
 3545SOL    HW222269   0.280   0.550   3.390  0.3961 -1.5188  0.0735
 3546SOL     OW22270   4.315   1.873   7.266  0.1303  0.6731  0.2459
 3546SOL    HW122271   4.226   1.839   7.268  0.0469  0.7620 -1.5452
 3546SOL    HW222272   4.300   1.965   7.242  2.2593  0.8809 -0.3326
 3547SOL     OW22273   3.704   0.334   7.199 -0.2063 -0.0258  0.3736
 3547SOL    HW122274   3.661   0.416   7.225  0.9349  0.8528 -0.5338
 3547SOL    HW222275   3.627   0.280   7.180  0.7989 -1.6737  0.9830
 3548SOL     OW22276   0.435   0.022  10.581 -0.0301 -0.3950 -0.2880
 3548SOL    HW122277   0.477   4.687  10.624 -0.1708  0.4077  1.2503
 3548SOL    HW222278   0.469   4.740  10.494  1.3192  0.9329 -0.0841
 3549SOL     OW22279   4.017   4.112  16.071 -0.2944  0.5413  0.1344
 3549SOL    HW122280   4.038   4.063  16.151  0.0749 -1.9848 -1.5371
 3549SOL    HW222281   4.047   4.198  16.100  0.7098  0.2983 -0.1903
 3550SOL     OW22282   1.021   1.289   2.173  0.0992  0.9339 -0.3303
 3550SOL    HW122283   0.939   1.334   2.154  0.6203  2.7088  1.5931
 3550SOL    HW222284   1.012   1.203   2.134  1.1879 -0.1102  1.6926
 3551SOL     OW22285   1.137   1.777   8.333  0.0154 -0.2050  0.0846
 3551SOL    HW122286   1.200   1.810   8.268  0.3884 -3.1769 -1.0675
 3551SOL    HW222287   1.193   1.747   8.405 -1.8102  0.7324  1.9010
 3552SOL     OW22288   4.441   4.661   1.114  0.0837  0.5814  0.2710
 3552SOL    HW122289   4.413   0.010   1.095 -0.3492  0.7692  1.8234
 3552SOL    HW222290   4.457   4.662   1.208  1.4661  2.3120  0.0045
 3553SOL     OW22291   4.329   2.210   4.992 -0.1914  0.4008 -0.2612
 3553SOL    HW122292   4.412   2.176   4.959 -1.4151 -2.8739 -0.0086
 3553SOL    HW222293   4.301   2.131   5.038  2.0592 -0.5656 -0.5542
 3554SOL     OW22294   0.390   0.231   5.508  0.3080  0.6387  0.0451
 3554SOL    HW122295   0.321   0.172   5.478  1.1664 -1.0598  1.4239
 3554SOL    HW222296   0.472   0.184   5.521 -0.3416  0.1781  2.3212
 3555SOL     OW22297   0.210   0.516   5.010  0.1421  0.0325 -0.2755
 3555SOL    HW122298   0.197   0.570   5.088  0.6617  1.3711 -1.1127
 3555SOL    HW222299   0.267   0.576   4.962 -0.0749 -0.0851 -0.6823
 3556SOL     OW22300   2.707   0.176   9.806 -0.8532 -0.0095 -0.5254
 3556SOL    HW122301   2.618   0.214   9.805 -0.3223  1.3350  2.3877
 3556SOL    HW222302   2.736   0.181   9.897 -3.1921 -0.7641  0.2689
 3557SOL     OW22303   2.601   3.091   4.152  0.5090 -0.5199  0.4149
 3557SOL    HW122304   2.517   3.136   4.153  0.4818 -0.5500 -0.5720
 3557SOL    HW222305   2.603   3.064   4.243  0.0410 -0.4778  0.4357
 3558SOL     OW22306   0.725   3.406   4.075 -0.0613  0.3725 -0.0194
 3558SOL    HW122307   0.783   3.408   4.000  0.0054 -0.4903  0.0093
 3558SOL    HW222308   0.649   3.462   4.059 -1.4393 -0.8030  2.4090
 3559SOL     OW22309   0.026   3.167   7.228 -0.5969  0.6354  1.0277
 3559SOL    HW122310   0.034   3.087   7.280 -0.2426  0.6034  0.9266
 3559SOL    HW222311   4.691   3.141   7.174 -0.5044  1.4817  0.4887
 3560SOL     OW22312   0.504   3.882   9.867 -0.1189 -0.4144  0.1984
 3560SOL    HW122313   0.409   3.880   9.876 -0.1354  1.5411  0.3600
 3560SOL    HW222314   0.525   3.943   9.938 -2.3058  0.4263  0.1202
 3561SOL     OW22315   3.594   2.916   7.929  0.0823 -0.6221  0.0032
 3561SOL    HW122316   3.622   2.879   8.013 -0.0941  0.6342  0.6164
 3561SOL    HW222317   3.681   2.932   7.894  0.1929  0.7773  0.9453
 3562SOL     OW22318   1.138   3.052   8.363 -0.3353 -0.2119 -0.1073
 3562SOL    HW122319   1.153   2.960   8.383  3.3816  0.7823  1.7062
 3562SOL    HW222320   1.187   3.087   8.438 -1.3891 -0.7250  0.8189
 3563SOL     OW22321   1.112   4.126   8.639 -0.3374 -0.8354 -0.2101
 3563SOL    HW122322   1.167   4.127   8.718  1.7836  1.2913 -1.7425
 3563SOL    HW222323   1.032   4.167   8.674  0.9796  1.0953  0.5270
 3564SOL     OW22324   2.552   2.776  15.487  0.0961 -0.0712  0.0157
 3564SOL    HW122325   2.564   2.743  15.398 -1.7256 -3.2152  0.9036
 3564SOL    HW222326   2.463   2.740  15.495  0.2640 -0.9329 -2.0550
 3565SOL     OW22327   0.689   1.794   4.042  0.3119 -0.5421 -0.6188
 3565SOL    HW122328   0.625   1.814   3.975 -0.1885 -0.4020 -0.0964
 3565SOL    HW222329   0.628   1.774   4.113 -1.3990  0.6917 -1.7576
 3566SOL     OW22330   1.329   2.891   4.764 -0.5712 -0.3933 -0.2834
 3566SOL    HW122331   1.325   2.815   4.706 -0.2377 -0.7531  0.1580
 3566SOL    HW222332   1.315   2.851   4.850 -1.2102  3.7855  1.5305
 3567SOL     OW22333   3.244   1.233   8.502  0.6345 -0.1028 -0.2512
 3567SOL    HW122334   3.176   1.285   8.459  0.3616 -0.8349 -0.6929
 3567SOL    HW222335   3.254   1.281   8.584  0.8072 -0.5162 -0.0323
 3568SOL     OW22336   4.304   2.607   6.998  0.1965  0.1655 -0.1647
 3568SOL    HW122337   4.332   2.630   7.086  1.2287  0.4025 -0.5539
 3568SOL    HW222338   4.209   2.621   6.998 -0.2066 -2.4854 -2.5966
 3569SOL     OW22339   3.647   2.513  11.413 -0.2601 -0.5345  0.0355
 3569SOL    HW122340   3.645   2.520  11.508  1.9431  1.8296 -0.0789
 3569SOL    HW222341   3.582   2.579  11.388 -0.5821 -0.6161  0.6628
 3570SOL     OW22342   4.565   0.062   4.299  0.0758 -0.2464  0.0762
 3570SOL    HW122343   4.630   0.107   4.245 -0.2040 -0.3825 -0.3700
 3570SOL    HW222344   4.577   0.123   4.372 -0.6001  1.4568 -1.2370
 3571SOL     OW22345   3.187   0.815   0.084  0.5920 -0.1813 -0.3096
 3571SOL    HW122346   3.252   0.764   0.133  0.7651  1.2645  0.9629
 3571SOL    HW222347   3.207   0.900   0.125 -0.7586 -0.3287  0.6306
 3572SOL     OW22348   1.672   2.900   8.063 -0.3655 -0.4368  0.6437
 3572SOL    HW122349   1.587   2.921   8.101 -1.5541 -2.9791 -0.6257
 3572SOL    HW222350   1.685   2.975   8.004 -1.4903 -0.1047  0.8081
 3573SOL     OW22351   3.045   1.202   7.293  0.4269 -0.4204 -0.1349
 3573SOL    HW122352   3.078   1.288   7.267 -0.0874 -0.3123 -0.4391
 3573SOL    HW222353   3.128   1.158   7.310  2.5397  2.1190 -3.8527
 3574SOL     OW22354   0.625   3.974   1.012 -0.0581  0.2251 -0.2828
 3574SOL    HW122355   0.597   3.899   1.063 -0.0956 -0.0780 -0.7455
 3574SOL    HW222356   0.680   3.941   0.940 -0.4030 -0.3360 -0.2904
 3575SOL     OW22357   4.479   4.441  16.384 -0.5354  0.5962  0.0476
 3575SOL    HW122358   4.573   4.445  16.399  0.0157  0.1475 -3.2075
 3575SOL    HW222359   4.458   4.351  16.409 -1.4602  1.0157  0.7813
 3576SOL     OW22360   0.792   0.107   3.500 -0.6168 -0.1904 -0.4836
 3576SOL    HW122361   0.735   0.154   3.440  0.0684 -0.1606 -1.1122
 3576SOL    HW222362   0.717   0.083   3.555 -1.5963  0.3991 -1.5418
 3577SOL     OW22363   1.845   1.994  14.563 -0.2025  0.2690 -0.0297
 3577SOL    HW122364   1.893   2.072  14.538  0.8581  0.0048  1.1724
 3577SOL    HW222365   1.796   1.983  14.481 -0.0432  0.4414 -0.1481
 3578SOL     OW22366   1.599   0.053  11.984  0.1076  0.5334  0.9812
 3578SOL    HW122367   1.663   4.736  12.025  0.8861 -0.1078 -1.1433
 3578SOL    HW222368   1.572   0.088  12.069  3.3465  1.0704  1.7852
 3579SOL     OW22369   3.178   4.562   2.989 -0.5455  0.6097  0.3853
 3579SOL    HW122370   3.161   4.655   2.978  1.1134  0.6249 -2.2618
 3579SOL    HW222371   3.088   4.531   2.985 -0.6884  1.1819 -0.6568
 3580SOL     OW22372   1.861   0.427   4.722  0.5645  0.4165  0.2891
 3580SOL    HW122373   1.788   0.365   4.724  0.1224  1.0200  2.5242
 3580SOL    HW222374   1.877   0.431   4.816 -0.4348  0.5146  0.4584
 3581SOL     OW22375   3.897   0.955   9.712 -0.4526 -0.7368  0.7969
 3581SOL    HW122376   3.879   0.882   9.770  0.2757 -3.1473 -2.0183
 3581SOL    HW222377   3.860   0.933   9.626 -0.5520 -0.4352  0.7598
 3582SOL     OW22378   0.017   3.246   0.966  0.0827 -0.2064 -0.2624
 3582SOL    HW122379   4.697   3.181   0.930 -1.7080  2.1291 -1.4286
 3582SOL    HW222380   0.040   3.206   1.050 -1.1404  3.8633  1.9770
 3583SOL     OW22381   2.887   2.594   0.826  0.1360  0.8017 -0.3488
 3583SOL    HW122382   2.963   2.551   0.786  0.6126  1.1871  0.1583
 3583SOL    HW222383   2.878   2.555   0.913 -1.3135 -2.8315 -2.1019
 3584SOL     OW22384   4.394   0.523   4.977 -0.4026  0.6560 -0.1869
 3584SOL    HW122385   4.363   0.611   5.001 -0.8045  0.7327 -0.9997
 3584SOL    HW222386   4.349   0.510   4.894 -2.3288  0.4678  0.8946
 3585SOL     OW22387   2.062   4.250   2.268 -0.3240  0.1917  0.1535
 3585SOL    HW122388   2.130   4.209   2.322 -1.4871  0.1430  1.5809
 3585SOL    HW222389   2.085   4.215   2.182  2.4993  0.1579  0.9404
 3586SOL     OW22390   2.589   3.105   6.646 -0.4641  0.6514  0.1343
 3586SOL    HW122391   2.684   3.106   6.659 -0.5806  1.0797  0.9537
 3586SOL    HW222392   2.577   3.119   6.553  0.9675  0.3909 -0.0854
 3587SOL     OW22393   2.490   1.943   7.334  0.6072 -0.1484 -0.7251
 3587SOL    HW122394   2.508   2.034   7.311 -1.6906  0.5928  0.4003
 3587SOL    HW222395   2.454   1.907   7.253 -0.1834 -0.2279 -0.3457
 3588SOL     OW22396   2.905   4.144  14.113  0.0460  0.5605  0.2806
 3588SOL    HW122397   2.856   4.158  14.194  0.8184 -1.1186  1.0332
 3588SOL    HW222398   2.918   4.235  14.088  1.2745  0.5473  0.8663
 3589SOL     OW22399   0.292   3.207   2.499  0.2552  0.3035 -0.3612
 3589SOL    HW122400   0.362   3.172   2.444  1.5083 -0.4675  1.7258
 3589SOL    HW222401   0.247   3.266   2.438  2.0271  1.3313 -0.6821
 3590SOL     OW22402   0.167   3.649  14.232  0.6755  0.2641 -0.4614
 3590SOL    HW122403   0.206   3.681  14.150  3.7689 -0.8859  0.5876
 3590SOL    HW222404   0.074   3.665  14.216  0.3811 -0.8723  0.1272
 3591SOL     OW22405   1.615   0.415   5.073  1.0334  0.0203  0.3228
 3591SOL    HW122406   1.614   0.350   5.002  0.7873 -1.8329  2.0000
 3591SOL    HW222407   1.525   0.414   5.107 -0.1339 -0.0848 -2.7599
 3592SOL     OW22408   4.070   4.251   2.652  0.3009  0.1656  0.8373
 3592SOL    HW122409   4.164   4.242   2.667 -0.1556 -0.8268  3.0959
 3592SOL    HW222410   4.076   4.301   2.571 -0.2113  1.2503  1.4609
 3593SOL     OW22411   3.945   4.282   0.108  0.4501 -0.1482  0.0501
 3593SOL    HW122412   3.892   4.259   0.031 -1.1761  2.4199  0.3835
 3593SOL    HW222413   3.999   4.204   0.119 -0.7491 -0.8081  1.3124
 3594SOL     OW22414   1.277   1.344   4.022  0.0146  0.2626  0.0238
 3594SOL    HW122415   1.267   1.409   4.092 -1.1580  0.1116 -0.0076
 3594SOL    HW222416   1.200   1.354   3.966  0.7949 -0.5409 -1.1756
 3595SOL     OW22417   0.039   2.688   8.413 -0.1115  0.3040 -0.0626
 3595SOL    HW122418   0.046   2.668   8.506 -2.7006 -1.5158 -0.2581
 3595SOL    HW222419   4.690   2.660   8.390 -0.6494  1.9161  0.0949
 3596SOL     OW22420   1.946   2.842   4.340 -0.0615 -0.7117  0.6575
 3596SOL    HW122421   1.886   2.895   4.393 -2.5564 -1.6221 -1.2985
 3596SOL    HW222422   1.950   2.756   4.381  3.1471  0.0019  1.8907
 3597SOL     OW22423   3.696   2.128  17.428  0.1296 -0.6065  0.1208
 3597SOL    HW122424   3.749   2.128  17.508 -0.7436 -1.4144  0.6912
 3597SOL    HW222425   3.615   2.078  17.440 -1.3254  1.3227 -1.6598
 3598SOL     OW22426   0.331   4.676   6.866  0.5274  0.4088  0.1558
 3598SOL    HW122427   0.298   0.018   6.905  1.5962  0.4719  0.9203
 3598SOL    HW222428   0.247   4.639   6.838 -0.0303  1.5092  0.3520
 3599SOL     OW22429   1.917   4.738  10.512 -0.2529  0.0537 -0.6449
 3599SOL    HW122430   1.968   4.693  10.579 -1.1348 -0.7961 -0.5430
 3599SOL    HW222431   1.992   0.053  10.490  1.2981 -0.5800  2.9694
 3600SOL     OW22432   1.589   4.585   6.788 -0.2226 -0.3550  0.0468
 3600SOL    HW122433   1.542   4.564   6.707 -1.0335 -0.3313  0.5008
 3600SOL    HW222434   1.635   4.503   6.807  1.1532  0.7176  1.3145
 3601SOL     OW22435   2.890   1.972   1.586  0.4496  0.1088 -0.3273
 3601SOL    HW122436   2.929   1.896   1.541  0.0695 -0.3115  0.0537
 3601SOL    HW222437   2.863   1.929   1.667  2.7471 -0.2082  0.2941
 3602SOL     OW22438   0.740   2.158   6.638 -0.5354 -0.6794  0.5173
 3602SOL    HW122439   0.726   2.190   6.727  0.6340  3.9182 -0.9689
 3602SOL    HW222440   0.771   2.070   6.661  1.8549  0.2224  0.7240
 3603SOL     OW22441   4.221   4.421  16.794 -0.3628 -0.4863  0.4010
 3603SOL    HW122442   4.234   4.364  16.870  3.4838  0.6066  0.5618
 3603SOL    HW222443   4.127   4.436  16.799 -0.3954 -1.2942  2.3627
 3604SOL     OW22444   3.587   2.416   2.186 -0.4899 -0.2524  0.5234
 3604SOL    HW122445   3.608   2.443   2.275 -1.1739  2.2395 -0.0851
 3604SOL    HW222446   3.561   2.325   2.201 -0.6656 -0.4895 -1.1385
 3605SOL     OW22447   2.772   1.279   7.913 -0.9734  0.1292  0.0769
 3605SOL    HW122448   2.803   1.309   7.999  1.6793 -1.0015 -0.4913
 3605SOL    HW222449   2.778   1.189   7.943  0.6770  0.2316  0.0669
 3606SOL     OW22450   0.572   3.005   7.686  0.1900  0.7804 -0.3813
 3606SOL    HW122451   0.506   3.061   7.646 -1.5073  0.5610  2.0852
 3606SOL    HW222452   0.632   3.070   7.721  0.9588 -0.3303  0.3732
 3607SOL     OW22453   1.438   1.898   6.506  0.1169  0.0037 -0.6025
 3607SOL    HW122454   1.436   1.835   6.434  1.6181 -0.2074 -0.4475
 3607SOL    HW222455   1.429   1.842   6.583 -0.6158 -0.5094 -1.0634
 3608SOL     OW22456   4.682   2.299   5.179 -0.1735 -0.5735  0.7562
 3608SOL    HW122457   0.005   2.340   5.119  0.7560 -0.9176  1.4820
 3608SOL    HW222458   4.683   2.358   5.254 -0.9191  1.7643 -1.0543
 3609SOL     OW22459   1.382   0.029   2.975  0.4688  0.3604 -0.0744
 3609SOL    HW122460   1.419   4.681   2.963  1.1571  0.4135  1.6475
 3609SOL    HW222461   1.306   0.024   2.918  0.4072  0.9119 -0.0408
 3610SOL     OW22462   4.716   3.290   5.926  0.8359  0.3957  0.1910
 3610SOL    HW122463   0.039   3.315   5.993  0.2907  1.2739  0.3786
 3610SOL    HW222464   4.637   3.324   5.968  1.2180 -1.8813  2.7360
 3611SOL     OW22465   2.686   3.283  10.484  0.2100 -0.2255  0.4838
 3611SOL    HW122466   2.637   3.259  10.405 -1.2026 -0.7981  1.5222
 3611SOL    HW222467   2.610   3.295  10.541 -0.3455  0.9915 -0.5152
 3612SOL     OW22468   0.162   2.180   0.479 -0.2031  0.1285 -0.1894
 3612SOL    HW122469   0.140   2.235   0.405  2.1213 -1.7660 -2.2981
 3612SOL    HW222470   0.203   2.107   0.432  1.8237  0.9741  0.2408
 3613SOL     OW22471   1.643   1.430   5.198  0.1346  0.0642  0.3290
 3613SOL    HW122472   1.688   1.354   5.162 -1.0063 -0.6303  0.3666
 3613SOL    HW222473   1.594   1.394   5.272  1.0792  0.1112  0.9768
 3614SOL     OW22474   3.991   4.031  15.756  0.1944 -0.1327  0.1431
 3614SOL    HW122475   4.058   4.099  15.756  0.6572 -0.5895  1.3464
 3614SOL    HW222476   4.018   3.977  15.681  0.8542 -1.1726  1.1159
 3615SOL     OW22477   2.388   2.150   2.896 -0.3058 -0.9084 -0.0824
 3615SOL    HW122478   2.338   2.122   2.972  1.6113 -0.2100  1.4241
 3615SOL    HW222479   2.355   2.239   2.880 -1.6726 -1.5669 -0.9058
 3616SOL     OW22480   0.216   0.090   8.297 -0.5871 -0.3971 -0.0580
 3616SOL    HW122481   0.208   0.004   8.337  0.7099  0.4034  1.9040
 3616SOL    HW222482   0.207   0.154   8.367 -1.0915  0.4621 -0.8966
 3617SOL     OW22483   0.088   1.608   3.382  0.1837 -0.2868  0.2168
 3617SOL    HW122484   0.167   1.557   3.397  0.3867 -0.1736 -0.4670
 3617SOL    HW222485   0.127   1.695   3.392 -1.8776  0.8402 -1.3440
 3618SOL     OW22486   4.722   1.880   1.734  0.0017 -0.4547 -0.4756
 3618SOL    HW122487   0.042   1.837   1.795  0.4283 -1.4480 -1.5849
 3618SOL    HW222488   0.044   1.875   1.660  2.1775  0.6152  1.2715
 3619SOL     OW22489   1.779   2.423   3.044 -0.2414 -0.2144  0.0348
 3619SOL    HW122490   1.835   2.347   3.029  0.8747  0.3547  1.3121
 3619SOL    HW222491   1.832   2.503   3.047 -0.3900 -0.1752  1.4838
 3620SOL     OW22492   1.068   0.992  11.399  0.2413 -0.0856 -0.4755
 3620SOL    HW122493   1.122   1.044  11.340 -0.0647 -0.7629 -1.3366
 3620SOL    HW222494   1.020   0.930  11.344 -0.3684  0.5469 -0.6595
 3621SOL     OW22495   0.778   2.431   9.245 -0.3159 -0.3909 -0.4002
 3621SOL    HW122496   0.796   2.491   9.318  1.4093  1.0061 -1.9498
 3621SOL    HW222497   0.853   2.455   9.190 -0.1089  1.0754  0.5044
 3622SOL     OW22498   3.708   2.424  16.608 -0.0797  0.6641 -0.3774
 3622SOL    HW122499   3.763   2.448  16.533 -0.7293  0.4506 -0.9301
 3622SOL    HW222500   3.666   2.345  16.573  0.4449 -0.8274  2.3667
 3623SOL     OW22501   3.782   4.322   0.318  0.0587  0.0719  0.2511
 3623SOL    HW122502   3.834   4.321   0.237 -0.3690  0.7529 -0.0244
 3623SOL    HW222503   3.826   4.251   0.366  2.4898 -1.0771 -3.6788
 3624SOL     OW22504   4.064   3.786   4.986  0.6427  0.2542  0.3525
 3624SOL    HW122505   4.044   3.698   4.953  0.1115 -0.0933  1.5990
 3624SOL    HW222506   4.002   3.804   5.057 -0.9965  0.6861 -1.2076
 3625SOL     OW22507   0.361   3.639   7.805 -0.5724  0.0301 -0.3725
 3625SOL    HW122508   0.456   3.631   7.792 -0.3266  0.8440  0.9294
 3625SOL    HW222509   0.346   3.593   7.887  2.0920 -3.4383 -1.7861
 3626SOL     OW22510   4.401   3.231   6.852  0.2913 -0.3141  0.4052
 3626SOL    HW122511   4.329   3.172   6.875  0.8419 -0.5512  1.4800
 3626SOL    HW222512   4.458   3.181   6.795  0.5694 -0.7327  1.0574
 3627SOL     OW22513   3.903   1.633   5.817 -0.2922  0.3815 -0.5511
 3627SOL    HW122514   3.888   1.719   5.778 -0.4624  0.7510  0.3127
 3627SOL    HW222515   3.970   1.655   5.881 -1.0414  0.7653  0.1095
 3628SOL     OW22516   4.539   2.824   0.962 -0.4636  0.6184 -0.0320
 3628SOL    HW122517   4.479   2.796   0.893 -0.1280 -1.7425  0.6336
 3628SOL    HW222518   4.501   2.802   1.047  0.4672  0.7819  0.4274
 3629SOL     OW22519   2.416   3.281  14.273 -0.2074 -0.3448  0.3511
 3629SOL    HW122520   2.413   3.322  14.187 -1.3104 -1.4979 -0.1639
 3629SOL    HW222521   2.457   3.350  14.325 -1.4979  0.4721  0.2996
 3630SOL     OW22522   1.439   3.499   9.191 -0.8070  0.4059  0.1590
 3630SOL    HW122523   1.472   3.571   9.244  0.3065  1.6864 -2.2754
 3630SOL    HW222524   1.524   3.456   9.181 -1.8327 -1.5487 -0.2471
 3631SOL     OW22525   0.768   0.476  10.557 -0.0583 -0.2739 -0.2900
 3631SOL    HW122526   0.692   0.440  10.512 -0.7034 -0.2555  0.7871
 3631SOL    HW222527   0.801   0.389  10.578 -0.5506 -0.1811  0.9129
 3632SOL     OW22528   0.195   1.257   3.233  0.1220  0.6820  0.1174
 3632SOL    HW122529   0.197   1.288   3.323  2.2797  1.2044 -0.0936
 3632SOL    HW222530   0.195   1.334   3.175 -0.1123 -0.2095 -1.0757
 3633SOL     OW22531   1.652   2.576  14.632 -0.7697  0.1217 -0.3907
 3633SOL    HW122532   1.677   2.652  14.685 -0.2507 -2.1818  2.6499
 3633SOL    HW222533   1.733   2.527  14.648  0.1204  1.8074  0.3078
 3634SOL     OW22534   2.009   1.993  15.517 -0.2522 -0.2415 -0.0578
 3634SOL    HW122535   1.934   2.000  15.576  0.6516  0.9499  0.9669
 3634SOL    HW222536   2.009   1.902  15.489 -1.0327  0.1572 -1.3413
 3635SOL     OW22537   2.074   0.490  14.597  0.9221  0.2903  0.6467
 3635SOL    HW122538   2.019   0.418  14.565  1.4229  0.0420  0.3421
 3635SOL    HW222539   2.037   0.510  14.683 -0.4678  0.4189  0.0301
 3636SOL     OW22540   3.610   4.595   7.663  0.2676  0.1230  0.4279
 3636SOL    HW122541   3.551   4.653   7.711 -1.0647 -1.6333  0.8949
 3636SOL    HW222542   3.686   4.652   7.653  0.5889 -0.4021 -0.1234
 3637SOL     OW22543   2.849   2.829   9.986 -0.1746 -0.3623 -0.6141
 3637SOL    HW122544   2.824   2.855   9.897 -1.0310 -1.7252 -0.7872
 3637SOL    HW222545   2.821   2.906  10.036  0.0359 -0.0295 -1.0084
 3638SOL     OW22546   2.704   1.483   7.724  0.5624 -0.1718 -0.0286
 3638SOL    HW122547   2.666   1.429   7.655 -2.1743  2.1386 -0.3451
 3638SOL    HW222548   2.737   1.422   7.790 -0.5542 -1.9376 -1.1060
 3639SOL     OW22549   0.109   3.026   3.453  0.0433  0.1836 -0.2744
 3639SOL    HW122550   0.123   2.939   3.414  1.1542  1.3003 -2.3533
 3639SOL    HW222551   0.145   3.018   3.541  1.5553  2.8957 -0.6550
 3640SOL     OW22552   1.088   4.447   8.688  0.6280  0.0346  0.0874
 3640SOL    HW122553   1.053   4.398   8.763  0.3915 -0.1423 -0.1402
 3640SOL    HW222554   1.017   4.495   8.644  1.7237  1.2481 -0.3478
 3641SOL     OW22555   4.028   2.818   5.433 -0.3291 -0.1477 -0.4411
 3641SOL    HW122556   4.117   2.838   5.405 -0.6050  1.6216 -0.0385
 3641SOL    HW222557   4.036   2.771   5.516 -0.6695  0.4861 -0.0466
 3642SOL     OW22558   3.911   3.347  11.445 -0.3447  0.0672  0.4071
 3642SOL    HW122559   3.907   3.287  11.520  1.3468  0.5589  0.8887
 3642SOL    HW222560   3.910   3.280  11.376  0.5227 -1.0631  1.4845
 3643SOL     OW22561   1.111   4.228   6.372  0.0106  0.7107  0.0680
 3643SOL    HW122562   1.063   4.224   6.290  0.9771 -1.0275 -0.4180
 3643SOL    HW222563   1.187   4.282   6.349 -0.5182  1.7004  0.6378
 3644SOL     OW22564   3.242   3.850   0.621  0.2203 -0.0231 -0.1346
 3644SOL    HW122565   3.161   3.823   0.578  0.6583 -2.1682  0.4122
 3644SOL    HW222566   3.302   3.795   0.571 -0.6758 -1.7557  0.6780
 3645SOL     OW22567   0.784   3.852   3.518  0.0531 -0.7593  0.4993
 3645SOL    HW122568   0.802   3.930   3.570 -0.2402  0.0245 -0.5773
 3645SOL    HW222569   0.689   3.844   3.524  0.0669 -0.6627  0.8465
 3646SOL     OW22570   1.524   1.559   4.009  0.0102 -0.2665  0.1271
 3646SOL    HW122571   1.524   1.542   4.104  1.0201  1.6333  0.4596
 3646SOL    HW222572   1.475   1.640   4.004 -0.2253 -0.2669  2.2406
 3647SOL     OW22573   3.381   2.821  17.509 -0.1788  0.4668 -0.2818
 3647SOL    HW122574   3.340   2.907  17.521  1.1827  1.0774  0.0613
 3647SOL    HW222575   3.469   2.846  17.482 -0.3772 -0.3707 -1.6973
 3648SOL     OW22576   4.074   2.610   8.762 -0.4372  0.4432 -0.1603
 3648SOL    HW122577   4.043   2.560   8.687  1.7442 -0.3228 -0.5735
 3648SOL    HW222578   3.999   2.601   8.820 -0.9435 -0.5357 -0.9701
 3649SOL     OW22579   2.649   0.709   8.955 -0.4611  0.0940 -0.3775
 3649SOL    HW122580   2.692   0.624   8.962 -1.1611 -0.0930  1.6466
 3649SOL    HW222581   2.712   0.767   8.911 -0.0014  0.4229  0.7096
 3650SOL     OW22582   3.432   0.782  14.902  0.1421 -0.2541 -0.6389
 3650SOL    HW122583   3.459   0.873  14.888 -3.4648  0.9692  0.4609
 3650SOL    HW222584   3.516   0.739  14.917 -0.2238 -0.8935 -0.4611
 3651SOL     OW22585   1.495   2.309  16.662 -0.1023 -0.1036 -0.3316
 3651SOL    HW122586   1.431   2.379  16.674 -0.0783 -0.3010  0.9979
 3651SOL    HW222587   1.578   2.351  16.687 -0.1606 -1.8370  2.7354
 3652SOL     OW22588   4.590   1.036   9.812  0.1621 -0.0111 -0.0373
 3652SOL    HW122589   4.505   1.041   9.855  0.8420 -1.1254  1.4325
 3652SOL    HW222590   4.647   0.995   9.877  1.4523 -1.9584 -2.4134
 3653SOL     OW22591   2.653   4.624   1.490  0.1736 -0.0186 -0.0158
 3653SOL    HW122592   2.711   4.677   1.545 -2.0875  2.3465  0.1054
 3653SOL    HW222593   2.574   4.678   1.500 -0.6537 -1.0775 -0.9210
 3654SOL     OW22594   4.213   0.107   8.667  0.0316 -0.0593 -0.5398
 3654SOL    HW122595   4.154   0.133   8.737 -0.4098  0.6435 -1.1825
 3654SOL    HW222596   4.287   0.166   8.681  0.4476 -0.8726  0.7377
 3655SOL     OW22597   0.100   3.712  12.947 -0.2520 -0.3195 -0.2847
 3655SOL    HW122598   0.091   3.629  12.995 -1.9773 -0.1082 -0.2333
 3655SOL    HW222599   0.153   3.683  12.873 -0.4192 -0.2479 -0.4336
 3656SOL     OW22600   3.488   0.808  16.608  0.4203 -0.8441  0.2258
 3656SOL    HW122601   3.412   0.853  16.571  0.5440 -1.0816 -0.3081
 3656SOL    HW222602   3.511   0.863  16.684 -3.4052  1.4807 -0.2663
 3657SOL     OW22603   3.401   4.694   6.964 -0.5981 -0.2264  0.1274
 3657SOL    HW122604   3.401   0.046   6.938 -0.6910 -0.1699  0.3250
 3657SOL    HW222605   3.363   4.656   6.886  1.2955  1.7786 -1.7712
 3658SOL     OW22606   1.991   1.842  12.930  0.1333 -0.5627  0.5279
 3658SOL    HW122607   1.935   1.841  13.007 -0.4438 -2.2972  0.0973
 3658SOL    HW222608   2.077   1.840  12.972  1.7947  0.2977 -2.8016
 3659SOL     OW22609   4.514   1.733  17.049  0.1816  0.0303 -0.3909
 3659SOL    HW122610   4.445   1.732  17.117  0.0580  2.7027 -0.4924
 3659SOL    HW222611   4.516   1.819  17.009  1.2840  0.1982  0.0274
 3660SOL     OW22612   2.674   2.662   4.661  0.1178 -0.7652  0.2454
 3660SOL    HW122613   2.640   2.747   4.689  2.1451  1.0441 -2.8250
 3660SOL    HW222614   2.763   2.695   4.657 -1.9156  4.6180  0.0870
 3661SOL     OW22615   0.857   4.090   3.631 -0.6086 -0.0359  0.2848
 3661SOL    HW122616   0.808   4.171   3.650  0.0787  0.8808 -1.9294
 3661SOL    HW222617   0.942   4.116   3.667 -0.6957  1.1302 -0.3490
 3662SOL     OW22618   3.037   3.442   6.387 -0.3440 -0.2964 -0.1917
 3662SOL    HW122619   3.020   3.425   6.294  0.2946 -1.4135 -0.1110
 3662SOL    HW222620   2.962   3.404   6.433 -0.8068  0.1276 -0.6000
 3663SOL     OW22621   3.821   1.712  16.984 -0.2350 -0.4037 -0.1455
 3663SOL    HW122622   3.733   1.685  17.009 -0.0908  0.2439  1.0658
 3663SOL    HW222623   3.816   1.803  17.015 -0.0017 -0.7538  0.9153
 3664SOL     OW22624   4.357   2.241   3.811  0.0476  0.0607 -0.0260
 3664SOL    HW122625   4.437   2.280   3.778 -0.1723  0.7718  0.2950
 3664SOL    HW222626   4.294   2.312   3.807  0.3955  0.3863  0.3128
 3665SOL     OW22627   2.526   4.242  12.074 -0.1482 -0.2353 -0.0801
 3665SOL    HW122628   2.521   4.151  12.102  1.4002  1.2697  4.9564
 3665SOL    HW222629   2.454   4.272  12.129 -0.7707 -3.1661  0.6702
 3666SOL     OW22630   4.481   0.173   4.578 -0.7211 -0.1052 -0.2598
 3666SOL    HW122631   4.448   0.212   4.659  2.4877  2.2631 -0.0987
 3666SOL    HW222632   4.572   0.186   4.603 -1.0212 -0.6840  1.1265
 3667SOL     OW22633   4.193   2.916   0.580 -0.1852 -0.2768  0.4499
 3667SOL    HW122634   4.141   2.995   0.568  1.0072  0.1962 -1.7963
 3667SOL    HW222635   4.129   2.845   0.577 -0.5614  0.0493  0.7401
 3668SOL     OW22636   0.842   4.080  13.309 -0.0264  0.3715 -0.3673
 3668SOL    HW122637   0.895   4.056  13.385  0.0441 -2.6333 -1.3659
 3668SOL    HW222638   0.779   4.009  13.299  0.6097 -0.4413  1.4361
 3669SOL     OW22639   4.008   3.503   2.381 -0.1051  0.1293  0.3014
 3669SOL    HW122640   3.947   3.576   2.371 -0.0053 -0.0938 -1.8191
 3669SOL    HW222641   4.063   3.518   2.304 -0.5197 -1.9028 -0.4040
 3670SOL     OW22642   2.109   4.716   9.438  0.4283 -0.2690  0.1811
 3670SOL    HW122643   2.120   0.059   9.391 -0.8784 -0.4825 -0.4905
 3670SOL    HW222644   2.025   4.735   9.478  1.0906  1.2328  0.8728
 3671SOL     OW22645   3.035   2.396   6.081  0.2647  0.2339 -0.0956
 3671SOL    HW122646   2.984   2.345   6.018  1.1485  1.4634 -1.8002
 3671SOL    HW222647   2.965   2.454   6.111  0.3045  0.8469 -1.1671
 3672SOL     OW22648   4.252   4.445   3.381  0.2076  0.3297  0.6840
 3672SOL    HW122649   4.179   4.480   3.330  1.0681  0.1595 -0.6729
 3672SOL    HW222650   4.232   4.353   3.397 -0.9317  0.6294  0.9922
 3673SOL     OW22651   1.697   3.259   6.566  0.0472 -0.3009  0.0117
 3673SOL    HW122652   1.634   3.255   6.494 -0.7792 -1.4509  0.7940
 3673SOL    HW222653   1.764   3.203   6.526 -0.0523  0.3957 -1.1325
 3674SOL     OW22654   4.449   4.294   8.775  0.0529  0.0940 -0.4724
 3674SOL    HW122655   4.421   4.365   8.832 -3.4105 -1.8136  0.2001
 3674SOL    HW222656   4.387   4.299   8.702 -0.6306  0.9984  0.1658
 3675SOL     OW22657   1.077   0.419  10.008  0.5731  0.4122  0.1033
 3675SOL    HW122658   1.139   0.380  10.069 -0.5131 -1.2770  0.1539
 3675SOL    HW222659   1.004   0.406  10.069 -1.1165 -0.8158 -2.1650
 3676SOL     OW22660   4.556   3.724  13.739  0.2926 -0.4909  0.6603
 3676SOL    HW122661   4.537   3.817  13.727  0.0417 -0.4732  1.2008
 3676SOL    HW222662   4.586   3.702  13.651 -0.7112  0.9313 -0.0411
 3677SOL     OW22663   3.680   2.305   3.090 -0.1961 -0.1459  0.0814
 3677SOL    HW122664   3.752   2.340   3.141 -0.5377  0.9429 -0.1737
 3677SOL    HW222665   3.630   2.258   3.157  2.1099 -1.9478  0.5148
 3678SOL     OW22666   2.116   4.638   4.873 -0.2199  0.0630  0.0693
 3678SOL    HW122667   2.165   4.620   4.954 -0.6897 -2.0838 -0.1414
 3678SOL    HW222668   2.106   4.731   4.894  0.8221  0.0443  0.7001
 3679SOL     OW22669   3.008   4.081   9.561  0.1716  0.2851 -0.5324
 3679SOL    HW122670   3.095   4.117   9.578  0.8349 -1.0729 -1.0344
 3679SOL    HW222671   2.949   4.155   9.573  0.6001  0.2679  1.6408
 3680SOL     OW22672   3.839   3.355   1.349  0.1704 -0.0212 -0.7456
 3680SOL    HW122673   3.913   3.318   1.397 -2.1312 -1.3938  1.6727
 3680SOL    HW222674   3.852   3.305   1.268  0.1927  1.6753 -1.7985
 3681SOL     OW22675   0.972   0.870   4.347 -0.1149  0.9557  0.0883
 3681SOL    HW122676   0.919   0.813   4.401  0.6948  0.8530  0.7723
 3681SOL    HW222677   0.939   0.855   4.258  0.2788 -0.1573  0.1357
 3682SOL     OW22678   2.853   2.478   4.342 -0.4769 -0.4546  0.0157
 3682SOL    HW122679   2.797   2.468   4.419  0.5186  0.2467  0.8314
 3682SOL    HW222680   2.786   2.462   4.276  0.6772 -2.0325 -0.7931
 3683SOL     OW22681   4.591   4.728  17.555  0.0995  0.4341 -0.1021
 3683SOL    HW122682   4.518   4.707  17.496 -1.6908 -3.5630  3.5291
 3683SOL    HW222683   4.543   0.006  17.635 -0.9257 -2.6959 -0.0071
 3684SOL     OW22684   3.597   2.382  10.563 -0.3994 -0.1232 -0.0147
 3684SOL    HW122685   3.652   2.374  10.641  0.8611 -0.1980 -0.8917
 3684SOL    HW222686   3.512   2.383  10.605 -0.3664 -1.7141  0.0940
 3685SOL     OW22687   0.264   2.208   4.789 -0.0169  0.3236 -0.4023
 3685SOL    HW122688   0.320   2.259   4.848  0.3405  0.8986 -1.2496
 3685SOL    HW222689   0.281   2.243   4.702  0.3420 -0.4101 -0.6220
 3686SOL     OW22690   2.930   2.691  16.006  0.3828  0.0701  0.1700
 3686SOL    HW122691   2.942   2.765  15.946  1.0567 -0.0338  0.1761
 3686SOL    HW222692   2.948   2.610  15.958 -0.1417 -0.7867  1.4413
 3687SOL     OW22693   2.745   3.076   3.593 -0.2064  0.0201  0.9472
 3687SOL    HW122694   2.802   3.143   3.556 -0.3350 -0.3545  0.0768
 3687SOL    HW222695   2.805   3.011   3.630  1.7673  1.0080 -0.5356
 3688SOL     OW22696   0.243   3.373   5.239 -0.1348 -0.0035  0.0465
 3688SOL    HW122697   0.280   3.357   5.326 -0.4123 -0.2134  0.1265
 3688SOL    HW222698   0.156   3.392   5.273  0.1683  1.5360 -0.0310
 3689SOL     OW22699   3.197   4.289   9.696 -0.6967  0.3115 -0.4729
 3689SOL    HW122700   3.262   4.360   9.694  0.6473 -0.8888  0.3590
 3689SOL    HW222701   3.250   4.225   9.648 -0.1271  1.2610 -1.1146
 3690SOL     OW22702   2.740   3.748   2.678  0.3712  0.0779 -0.2207
 3690SOL    HW122703   2.718   3.830   2.723 -0.1220 -1.2894  2.0414
 3690SOL    HW222704   2.833   3.768   2.664 -0.0091  1.3340 -0.9352
 3691SOL     OW22705   2.778   4.374  11.292  0.1311  0.6470 -0.0444
 3691SOL    HW122706   2.777   4.467  11.314  1.7620  0.1306  2.2293
 3691SOL    HW222707   2.835   4.384  11.216 -3.8859  0.9269 -2.9992
 3692SOL     OW22708   3.823   2.241   6.831 -0.0359  0.3583 -0.4689
 3692SOL    HW122709   3.889   2.309   6.849 -0.5956  0.3615  1.5873
 3692SOL    HW222710   3.849   2.162   6.879 -0.1181  0.0705 -0.8953
 3693SOL     OW22711   3.814   3.226   8.663  0.0243 -0.0626 -0.4593
 3693SOL    HW122712   3.835   3.140   8.627  1.3338 -0.8026  2.0869
 3693SOL    HW222713   3.885   3.252   8.722 -0.9899 -0.0823  0.7724
 3694SOL     OW22714   1.580   1.453   0.980  0.5648  0.1354  0.2112
 3694SOL    HW122715   1.538   1.381   0.933 -1.9627  1.5753  0.2173
 3694SOL    HW222716   1.647   1.485   0.920  0.9188 -1.5981 -0.2938
 3695SOL     OW22717   4.519   1.555  16.860 -0.4539  0.0273 -0.2023
 3695SOL    HW122718   4.425   1.560  16.843 -0.5644  3.3879  1.4803
 3695SOL    HW222719   4.521   1.607  16.940  0.8175  0.6167 -0.6002
 3696SOL     OW22720   2.413   1.417   6.913  0.0863 -0.2804  0.3208
 3696SOL    HW122721   2.464   1.470   6.851  0.2064 -0.6246  0.1293
 3696SOL    HW222722   2.462   1.443   6.991 -0.6572 -1.5732  1.2154
 3697SOL     OW22723   1.827   0.444  15.080  0.1061  0.0017 -0.5688
 3697SOL    HW122724   1.887   0.440  15.006  0.2682  0.0764 -0.4423
 3697SOL    HW222725   1.801   0.352  15.076 -2.1739  0.6602 -0.8358
 3698SOL     OW22726   4.407   0.392   6.606  0.3562  0.1826  0.2321
 3698SOL    HW122727   4.482   0.373   6.662 -0.4914  1.4023  1.8069
 3698SOL    HW222728   4.426   0.464   6.546 -1.0947  1.2177  1.0064
 3699SOL     OW22729   1.791   2.418  12.657  0.0169 -0.7103  0.2095
 3699SOL    HW122730   1.851   2.414  12.732 -0.2264 -0.0007  0.4421
 3699SOL    HW222731   1.841   2.356  12.605 -0.2640 -1.0205  0.3111
 3700SOL     OW22732   4.528   3.393   4.941 -0.6258 -0.1162 -0.2319
 3700SOL    HW122733   4.491   3.325   4.997  1.3977 -1.5765 -0.6808
 3700SOL    HW222734   4.597   3.343   4.899 -0.6053 -1.0334  0.8822
 3701SOL     OW22735   0.201   2.664  14.766 -0.2113 -0.0353 -0.4344
 3701SOL    HW122736   0.128   2.613  14.731  1.1995 -1.8926 -0.7167
 3701SOL    HW222737   0.195   2.643  14.859  0.4627  0.5429 -0.2573
 3702SOL     OW22738   1.518   4.217   3.023  0.3955  0.2726  0.3883
 3702SOL    HW122739   1.567   4.188   2.946 -0.4875 -0.0067 -0.0755
 3702SOL    HW222740   1.583   4.206   3.092  1.5322 -0.5681 -0.8266
 3703SOL     OW22741   3.005   1.649   8.992 -0.0192 -0.2419 -0.2362
 3703SOL    HW122742   3.045   1.612   9.070 -1.4528 -1.0838  0.0955
 3703SOL    HW222743   2.988   1.732   9.036 -2.5332 -0.8576 -0.0719
 3704SOL     OW22744   1.118   4.632   1.028  0.7536  0.2154 -0.3033
 3704SOL    HW122745   1.090   4.700   0.967 -0.0703 -0.3784 -0.5985
 3704SOL    HW222746   1.149   4.676   1.107  2.1941  0.9886 -1.2999
 3705SOL     OW22747   4.578   0.623   9.219  0.0672  0.4486 -0.0885
 3705SOL    HW122748   4.495   0.633   9.172 -0.0983  1.0104  0.3305
 3705SOL    HW222749   4.607   0.714   9.209  0.2655  0.3120 -0.7293
 3706SOL     OW22750   3.917   3.124  14.424 -0.4802  0.2488 -0.3573
 3706SOL    HW122751   3.872   3.061  14.480  0.2662 -1.6567 -1.8991
 3706SOL    HW222752   4.001   3.125  14.471 -0.2517 -1.3339 -0.7452
 3707SOL     OW22753   0.123   3.490   0.995  0.3024 -0.1016 -0.5333
 3707SOL    HW122754   0.145   3.514   0.905  1.3901 -0.5572 -0.3893
 3707SOL    HW222755   0.071   3.411   0.984  0.3861  0.3423 -4.2072
 3708SOL     OW22756   3.232   3.062  12.316  0.5253  0.4173  0.5860
 3708SOL    HW122757   3.184   3.127  12.366 -0.8928  1.5919 -2.3298
 3708SOL    HW222758   3.256   3.001  12.385  0.9237 -1.2827 -1.0320
 3709SOL     OW22759   1.851   3.476   8.072 -0.0162  0.4064  0.0643
 3709SOL    HW122760   1.881   3.386   8.085 -0.2468  0.1399 -1.2022
 3709SOL    HW222761   1.785   3.481   8.140  0.4192  0.0971  0.5076
 3710SOL     OW22762   0.011   3.471   4.613 -0.0673  0.5315  0.1786
 3710SOL    HW122763   0.001   3.382   4.647  0.2002  0.9277  1.2769
 3710SOL    HW222764   4.661   3.501   4.629  0.1550  0.8911  0.7624
 3711SOL     OW22765   3.362   4.550  17.434 -0.4429 -0.2527 -0.0813
 3711SOL    HW122766   3.431   4.488  17.457  0.5350  0.6902 -0.5080
 3711SOL    HW222767   3.407   4.629  17.405  0.7910 -1.8431 -2.4262
 3712SOL     OW22768   1.729   1.290   0.345 -0.2255 -0.6690 -0.3811
 3712SOL    HW122769   1.660   1.243   0.298 -0.6242  0.9092 -1.3442
 3712SOL    HW222770   1.738   1.370   0.295  2.0244 -1.9414 -2.0089
 3713SOL     OW22771   0.465   2.059   6.576  0.0501 -0.4588 -0.7185
 3713SOL    HW122772   0.542   2.086   6.626 -1.4528 -0.6620  1.7187
 3713SOL    HW222773   0.414   2.015   6.644  0.5501  0.6702  0.3984
 3714SOL     OW22774   4.227   2.118   7.211  0.4087  0.0856  0.4248
 3714SOL    HW122775   4.152   2.174   7.232  0.0491  0.4425 -1.7372
 3714SOL    HW222776   4.208   2.113   7.117 -2.0680  0.5942  0.8951
 3715SOL     OW22777   3.279   2.215   5.166  0.0559  0.8850 -0.2252
 3715SOL    HW122778   3.234   2.264   5.235  2.0999  1.1159  0.9389
 3715SOL    HW222779   3.219   2.213   5.091  0.5134  1.0095 -0.5985
 3716SOL     OW22780   3.890   2.624   7.689  1.0852  0.8056  0.2125
 3716SOL    HW122781   3.866   2.710   7.723  1.0154  0.1079  1.9530
 3716SOL    HW222782   3.918   2.640   7.599  0.6741 -0.7075 -0.1766
 3717SOL     OW22783   1.055   3.713   3.689  0.4092  0.4337 -0.5661
 3717SOL    HW122784   1.108   3.756   3.757 -0.9239  2.2839 -0.7147
 3717SOL    HW222785   1.043   3.625   3.723 -2.1871  1.0683  0.1218
 3718SOL     OW22786   1.079   4.739  12.785 -0.1714  0.3414  0.1595
 3718SOL    HW122787   1.040   0.080  12.818  1.7043  1.6550 -0.8330
 3718SOL    HW222788   1.049   0.007  12.694  0.0298  1.0163  0.1500
 3719SOL     OW22789   0.105   0.178  13.394  0.7272 -0.3686 -0.2671
 3719SOL    HW122790   0.190   0.198  13.432  0.0564 -0.5405  1.3134
 3719SOL    HW222791   0.122   0.104  13.335  3.8298 -0.3463  0.6269
 3720SOL     OW22792   4.048   2.342   6.458  0.3108 -0.4696 -0.1072
 3720SOL    HW122793   3.968   2.310   6.502  0.5064 -0.5661  0.1825
 3720SOL    HW222794   4.106   2.281   6.504  3.0062  2.3793  0.2372
 3721SOL     OW22795   4.256   4.276   4.188  0.1761  0.2408 -0.4035
 3721SOL    HW122796   4.173   4.266   4.142 -2.3717  0.1542  4.1756
 3721SOL    HW222797   4.279   4.184   4.204 -4.7112 -0.9081  0.0102
 3722SOL     OW22798   0.242   3.494   1.765  0.4663 -0.2175 -0.4078
 3722SOL    HW122799   0.155   3.456   1.775 -0.7475  2.5644 -0.1483
 3722SOL    HW222800   0.235   3.555   1.691  1.7287 -0.1740 -0.4839
 3723SOL     OW22801   1.369   0.125   7.567  0.7066  0.0261 -0.2954
 3723SOL    HW122802   1.286   0.085   7.541 -0.4812  2.0581  0.3650
 3723SOL    HW222803   1.404   0.063   7.631  3.7044 -1.0066 -2.9733
 3724SOL     OW22804   3.754   0.123  12.884 -0.2434 -1.0183  0.3914
 3724SOL    HW122805   3.660   0.128  12.904  0.1029 -0.6347  1.9399
 3724SOL    HW222806   3.754   0.142  12.790 -3.5430  0.1297  0.6105
 3725SOL     OW22807   3.242   2.627   0.445 -0.1430  0.5016 -0.3786
 3725SOL    HW122808   3.274   2.569   0.515 -1.8548  0.3494  0.2862
 3725SOL    HW222809   3.308   2.620   0.377 -0.9057  1.1311 -1.1755
 3726SOL     OW22810   4.313   0.188   3.038 -0.3134  0.2849  0.0546
 3726SOL    HW122811   4.220   0.200   3.022 -0.2653  0.7184  0.1083
 3726SOL    HW222812   4.316   0.196   3.133 -1.4448  0.0151  0.1069
 3727SOL     OW22813   1.784   2.357   6.612 -0.4486  0.1872  0.2648
 3727SOL    HW122814   1.812   2.415   6.541 -1.9385  0.7701  0.1404
 3727SOL    HW222815   1.855   2.363   6.675 -0.4347 -1.8012  0.4226
 3728SOL     OW22816   1.232   1.053   4.769 -0.1016  0.2644  0.4282
 3728SOL    HW122817   1.219   0.996   4.693  1.3421 -0.9349  1.0793
 3728SOL    HW222818   1.303   1.106   4.734 -0.5999 -0.2576 -1.4040
 3729SOL     OW22819   3.933   2.057   3.295 -0.1305 -0.2638  0.2810
 3729SOL    HW122820   3.906   2.032   3.207  0.4699  1.4323 -0.3956
 3729SOL    HW222821   3.911   2.150   3.287  0.0768 -0.3851 -1.8539
 3730SOL     OW22822   2.350   1.854   4.464 -0.5989 -0.1644 -0.4904
 3730SOL    HW122823   2.263   1.819   4.445 -1.0102  2.7386 -3.9791
 3730SOL    HW222824   2.345   1.946   4.436  0.7241  0.1637  0.3220
 3731SOL     OW22825   2.479   2.156  17.238 -0.7052  0.0827  0.1200
 3731SOL    HW122826   2.392   2.197  17.240 -1.1837 -0.8816 -1.0987
 3731SOL    HW222827   2.453   2.070  17.206  1.9774 -0.4334 -0.6919
 3732SOL     OW22828   2.971   3.100  15.939 -0.1103 -0.1231  0.2557
 3732SOL    HW122829   2.891   3.096  15.991 -0.0678 -1.4540  0.2163
 3732SOL    HW222830   2.992   3.007  15.937 -0.0091 -0.0679 -1.2625
 3733SOL     OW22831   2.746   0.851   9.479 -0.1218  0.4419 -0.2981
 3733SOL    HW122832   2.826   0.827   9.433 -0.3017  2.1890 -1.5372
 3733SOL    HW222833   2.696   0.771   9.464  0.3650  0.2465 -0.8755
 3734SOL     OW22834   2.141   2.541  12.031 -0.7879  0.4748 -0.0569
 3734SOL    HW122835   2.127   2.544  12.126 -0.9611  0.6420 -0.0877
 3734SOL    HW222836   2.128   2.635  12.021  0.0387  0.5695 -0.2474
 3735SOL     OW22837   0.968   4.085  13.563 -0.2942 -0.3514  0.0650
 3735SOL    HW122838   0.925   4.168  13.584  1.3886  0.4411  0.2975
 3735SOL    HW222839   0.903   4.027  13.605 -2.5657  0.9999 -1.5747
 3736SOL     OW22840   2.161   1.912   9.412 -0.0926 -0.3708  0.1810
 3736SOL    HW122841   2.123   1.957   9.488  2.0144  1.1077  0.3697
 3736SOL    HW222842   2.246   1.879   9.443  0.3240  1.5715  1.1084
 3737SOL     OW22843   4.454   3.277   3.242  0.0569 -0.2226  0.1397
 3737SOL    HW122844   4.476   3.226   3.321 -1.9350  0.3073  1.0133
 3737SOL    HW222845   4.534   3.329   3.231 -0.1479  0.5368  2.2177
 3738SOL     OW22846   1.336   1.728   2.799  0.6516  0.4815  0.2526
 3738SOL    HW122847   1.344   1.696   2.888 -3.0164 -2.6722 -0.5615
 3738SOL    HW222848   1.256   1.779   2.814 -0.1850 -1.3314  1.7889
 3739SOL     OW22849   0.405   4.669   8.655  0.0737  0.2177 -0.0450
 3739SOL    HW122850   0.386   4.623   8.737 -0.0452 -0.9966 -0.7567
 3739SOL    HW222851   0.329   4.724   8.637 -0.2987  0.2024  1.4881
 3740SOL     OW22852   2.785   3.815   5.127 -0.0098  0.4166 -0.6919
 3740SOL    HW122853   2.870   3.813   5.170 -1.7023  2.8369  2.7485
 3740SOL    HW222854   2.756   3.725   5.138  0.4227  0.2208 -1.1592
 3741SOL     OW22855   3.498   3.658   4.198 -0.0509 -0.3068 -0.3460
 3741SOL    HW122856   3.507   3.741   4.151 -0.1542 -0.8488 -1.3269
 3741SOL    HW222857   3.473   3.604   4.123 -2.6247 -1.0729  1.0544
 3742SOL     OW22858   2.520   3.761   6.588 -0.4416 -0.1403 -0.3655
 3742SOL    HW122859   2.523   3.666   6.600  2.1419  0.0692  0.7152
 3742SOL    HW222860   2.614   3.777   6.584 -0.1766 -1.3925  0.8785
 3743SOL     OW22861   1.032   3.992   5.894  0.4159  0.5547  0.0663
 3743SOL    HW122862   1.064   4.043   5.819  1.2952 -1.6457 -1.0608
 3743SOL    HW222863   1.111   3.988   5.947 -0.0272  0.9134  0.7488
 3744SOL     OW22864   0.946   3.954   4.854 -0.0697 -0.5201  0.2230
 3744SOL    HW122865   1.036   3.931   4.830 -0.2596 -0.2426 -0.7209
 3744SOL    HW222866   0.959   4.044   4.883 -1.8196 -0.7716  1.8000
 3745SOL     OW22867   3.806   1.374  13.234 -0.0892 -0.0866  0.5828
 3745SOL    HW122868   3.810   1.278  13.239 -1.9233 -0.3107 -2.1896
 3745SOL    HW222869   3.760   1.402  13.313 -1.3636  2.1012 -0.9365
 3746SOL     OW22870   1.175   3.178   5.205  0.2789  0.3617 -0.5001
 3746SOL    HW122871   1.222   3.104   5.168  1.4591 -0.3910  2.4838
 3746SOL    HW222872   1.213   3.164   5.292  1.8708  0.9640 -1.0921
 3747SOL     OW22873   0.165   3.911  16.522  0.3167  0.3595  0.4264
 3747SOL    HW122874   0.176   4.003  16.501  0.1671  0.3793  0.4328
 3747SOL    HW222875   0.189   3.909  16.615 -0.7530 -0.1020  0.6962
 3748SOL     OW22876   1.830   0.599   7.706 -0.4394  0.0472  0.0121
 3748SOL    HW122877   1.738   0.604   7.734  0.0971  0.8093  1.6485
 3748SOL    HW222878   1.862   0.570   7.792 -0.5088 -0.6013 -0.1831
 3749SOL     OW22879   2.170   4.248   0.245  0.1503  0.2974 -0.1256
 3749SOL    HW122880   2.158   4.153   0.257  0.9324  0.6199  2.9536
 3749SOL    HW222881   2.138   4.293   0.323 -1.9502  0.4683 -1.0811
 3750SOL     OW22882   1.453   0.990   1.115 -0.1090 -0.0189  0.0020
 3750SOL    HW122883   1.433   0.898   1.134  0.3770  0.0814  0.9687
 3750SOL    HW222884   1.382   1.031   1.165 -0.7975 -0.8022 -0.3239
 3751SOL     OW22885   0.650   4.183   4.543  0.4112  0.1574 -0.1699
 3751SOL    HW122886   0.740   4.209   4.559  0.3462  0.0322  0.4089
 3751SOL    HW222887   0.625   4.269   4.509  1.6577  0.8563  0.6823
 3752SOL     OW22888   2.275   3.223   3.696 -0.2017 -0.6413  0.1050
 3752SOL    HW122889   2.354   3.181   3.661  0.8865  0.4333  1.2503
 3752SOL    HW222890   2.218   3.150   3.672  0.3076 -0.1784 -2.5083
 3753SOL     OW22891   1.308   2.151   8.206  0.2057 -0.4298 -0.2214
 3753SOL    HW122892   1.264   2.067   8.196  0.3069 -0.2332 -2.3208
 3753SOL    HW222893   1.393   2.126   8.242  0.1377  2.7447  2.1187
 3754SOL     OW22894   2.289   1.970   8.903  0.0907  0.9793 -0.4558
 3754SOL    HW122895   2.379   2.001   8.894 -0.3808  1.7065 -2.5114
 3754SOL    HW222896   2.248   2.031   8.964  1.5890  0.9626  0.5872
 3755SOL     OW22897   0.201   3.250   6.704  0.1970  0.3729  0.8032
 3755SOL    HW122898   0.296   3.250   6.698  0.1829 -0.4341  0.5642
 3755SOL    HW222899   0.186   3.327   6.648  0.9512 -0.7991 -1.0311
 3756SOL     OW22900   3.185   1.130   9.921 -0.7983 -0.1064  0.4093
 3756SOL    HW122901   3.277   1.119   9.898 -0.9509  0.1057 -0.2833
 3756SOL    HW222902   3.153   1.045   9.889 -0.6884  0.3850 -0.9917
 3757SOL     OW22903   3.815   2.426   2.479  0.3895  0.7019 -0.4520
 3757SOL    HW122904   3.723   2.432   2.503 -0.3189 -0.3066 -2.8510
 3757SOL    HW222905   3.848   2.376   2.554  2.8529 -0.0277 -1.9997
 3758SOL     OW22906   1.085   0.894   5.426 -0.2124  0.7977 -0.1324
 3758SOL    HW122907   1.074   0.978   5.383  0.6428  0.2157 -1.4822
 3758SOL    HW222908   0.991   0.883   5.444 -0.1413 -3.3430 -2.1867
 3759SOL     OW22909   4.220   0.484   3.765 -0.2357  0.1448  0.0116
 3759SOL    HW122910   4.220   0.571   3.804  3.1506  0.4755 -0.8087
 3759SOL    HW222911   4.130   0.473   3.734 -0.0004  1.3706 -1.0545
 3760SOL     OW22912   0.023   4.251   7.977 -0.0813  0.2045  0.3040
 3760SOL    HW122913   0.030   4.164   8.016  0.7259 -0.4971 -1.3796
 3760SOL    HW222914   0.044   4.237   7.884  2.0209  1.5681  0.5780
 3761SOL     OW22915   4.410   2.235   9.245 -0.3950 -0.2687 -0.3910
 3761SOL    HW122916   4.325   2.247   9.202 -0.2390  1.1395 -0.3271
 3761SOL    HW222917   4.453   2.279   9.172 -0.0154 -1.8238 -1.0866
 3762SOL     OW22918   2.294   3.175  15.041  0.3838 -0.3142 -0.0554
 3762SOL    HW122919   2.301   3.163  14.946  0.4331  0.3151 -0.1279
 3762SOL    HW222920   2.287   3.267  15.063  0.7558 -0.3341  0.1357
 3763SOL     OW22921   1.332   4.194  16.722 -0.2097 -0.3586 -0.1113
 3763SOL    HW122922   1.370   4.134  16.786  0.5405  0.8668  0.5859
 3763SOL    HW222923   1.261   4.145  16.680  0.7024 -2.4038  0.7502
 3764SOL     OW22924   3.825   4.638  17.634  0.1288 -0.0493 -0.1252
 3764SOL    HW122925   3.782   4.722  17.617 -2.4832 -1.5586 -0.9781
 3764SOL    HW222926   3.915   4.669  17.625 -0.4907  1.6623 -0.5468
 3765SOL     OW22927   2.839   1.517  11.079 -0.0509  0.7420  0.4744
 3765SOL    HW122928   2.800   1.583  11.022  2.2896  0.0307 -1.9285
 3765SOL    HW222929   2.774   1.449  11.062  0.3259  0.4853  0.0539
 3766SOL     OW22930   3.436   0.386   7.359  0.7841 -0.1069  0.1250
 3766SOL    HW122931   3.423   0.478   7.381  1.5723  0.5884 -2.2862
 3766SOL    HW222932   3.360   0.361   7.307  0.1606 -1.7158  1.8254
 3767SOL     OW22933   2.405   2.366   1.041 -0.5067  0.4295  0.3383
 3767SOL    HW122934   2.339   2.431   1.062  1.4520  3.1399 -1.9394
 3767SOL    HW222935   2.436   2.385   0.952  1.3738  0.9091  1.0936
 3768SOL     OW22936   1.474   0.375   2.433  0.0783 -0.4156  0.1801
 3768SOL    HW122937   1.430   0.331   2.360 -0.1697  1.0381 -0.5365
 3768SOL    HW222938   1.466   0.308   2.502 -2.7001 -0.3210 -0.0510
 3769SOL     OW22939   1.193   0.298   2.665  0.7835 -0.0486  0.0189
 3769SOL    HW122940   1.197   0.343   2.581 -3.3924  0.0400 -0.1535
 3769SOL    HW222941   1.171   0.369   2.725  0.3769  0.8248 -1.1573
 3770SOL     OW22942   4.168   4.670   4.660 -0.6707 -0.1749 -0.3124
 3770SOL    HW122943   4.209   4.633   4.582 -2.4413 -1.0677 -0.8030
 3770SOL    HW222944   4.232   4.632   4.721 -1.1723 -2.2098 -1.0748
 3771SOL     OW22945   1.903   1.574   4.053  0.2836  0.0124  0.4444
 3771SOL    HW122946   1.877   1.624   4.130  1.0401 -1.5849  1.7475
 3771SOL    HW222947   1.909   1.636   3.981  3.4709  0.1938  0.8636
 3772SOL     OW22948   2.236   3.250   2.152  0.5221 -0.2804 -0.5278
 3772SOL    HW122949   2.214   3.168   2.195 -2.4522  0.6442 -0.2974
 3772SOL    HW222950   2.210   3.302   2.228  0.0259 -1.4008  0.0629
 3773SOL     OW22951   1.825   0.394  10.402  0.4816 -0.3143 -0.6666
 3773SOL    HW122952   1.915   0.371  10.377  1.3322  2.5225 -0.2031
 3773SOL    HW222953   1.823   0.490  10.405 -1.3790 -0.2913 -2.3156
 3774SOL     OW22954   3.521   1.568   7.678  0.9864 -0.4344  0.2782
 3774SOL    HW122955   3.547   1.658   7.699  0.6136 -0.0606 -0.8670
 3774SOL    HW222956   3.594   1.512   7.705  0.2709 -1.1593  0.6995
 3775SOL     OW22957   1.496   3.581   2.116  0.1197  0.2322 -0.0803
 3775SOL    HW122958   1.434   3.643   2.153 -0.5527 -0.3757 -0.1955
 3775SOL    HW222959   1.457   3.499   2.148 -0.0744 -0.1406 -1.2809
 3776SOL     OW22960   1.086   2.044   6.989 -0.0193  0.0017 -0.1975
 3776SOL    HW122961   0.998   2.011   7.007 -0.1359  0.7952  0.6763
 3776SOL    HW222962   1.142   1.979   7.032 -1.1188  0.9031  2.6233
 3777SOL     OW22963   1.503   4.520   6.545  0.6307  0.3661  0.2522
 3777SOL    HW122964   1.408   4.505   6.541  0.7203 -0.3765  0.8782
 3777SOL    HW222965   1.525   4.531   6.452 -2.0325  0.6333 -0.3761
 3778SOL     OW22966   2.019   2.800   0.984 -0.1386 -0.4140  0.0491
 3778SOL    HW122967   2.083   2.747   0.936  1.3042  1.6805 -0.3629
 3778SOL    HW222968   2.047   2.884   0.947 -0.6206  0.4960  1.7501
 3779SOL     OW22969   4.050   0.677   2.598 -0.1467 -0.1382 -0.5955
 3779SOL    HW122970   4.006   0.748   2.645 -0.0432 -1.2381  1.1721
 3779SOL    HW222971   4.036   0.705   2.508 -1.7135  1.3303  0.0871
 3780SOL     OW22972   0.968   3.660   4.521 -0.6927 -0.2423 -0.0880
 3780SOL    HW122973   1.056   3.648   4.483 -1.4069  0.4960 -1.9910
 3780SOL    HW222974   0.966   3.756   4.528  0.9192 -0.1837 -0.3485
 3781SOL     OW22975   0.441   1.235   2.346  0.3493  0.2795 -0.6753
 3781SOL    HW122976   0.441   1.302   2.414  0.1790 -0.8913  0.4866
 3781SOL    HW222977   0.493   1.171   2.395 -1.2308 -2.4386 -2.5125
 3782SOL     OW22978   3.394   2.974  16.794  0.4951  0.4520  0.7267
 3782SOL    HW122979   3.487   2.960  16.814  0.9894  0.4331 -1.5622
 3782SOL    HW222980   3.409   3.005  16.704 -1.7492  3.4230  1.3504
 3783SOL     OW22981   0.651   0.540   7.157 -0.0058  0.0646  0.4333
 3783SOL    HW122982   0.560   0.570   7.151 -1.0363 -2.2014  4.8458
 3783SOL    HW222983   0.667   0.528   7.064  0.6745  3.3373  0.1499
 3784SOL     OW22984   4.285   3.188  10.163 -0.1482  0.1472  0.1285
 3784SOL    HW122985   4.220   3.174  10.232  2.8993  1.1406  3.2008
 3784SOL    HW222986   4.354   3.135  10.204  1.2123  2.1289  0.4444
 3785SOL     OW22987   1.950   3.801   2.265  0.5572  0.0331 -0.6552
 3785SOL    HW122988   1.969   3.865   2.196  0.6622  0.3729 -0.3078
 3785SOL    HW222989   1.856   3.808   2.278  0.4604 -0.4821 -1.0656
 3786SOL     OW22990   2.223   0.576   6.126  0.3380  0.0343 -0.4610
 3786SOL    HW122991   2.295   0.575   6.189 -0.8519 -0.5322  0.8871
 3786SOL    HW222992   2.224   0.668   6.099 -0.4170  0.0189 -0.5530
 3787SOL     OW22993   2.754   1.326  15.850 -0.4901  0.1550  0.6080
 3787SOL    HW122994   2.819   1.260  15.823 -0.3788 -0.1381  1.6036
 3787SOL    HW222995   2.761   1.315  15.945  1.9484  1.2620  0.5692
 3788SOL     OW22996   2.976   4.022   6.700  0.5545  1.2127  0.8015
 3788SOL    HW122997   2.995   4.051   6.789  1.8725  1.1018  0.5590
 3788SOL    HW222998   3.031   3.944   6.687  0.5283  1.0557  1.6265
 3789SOL     OW22999   3.820   0.331   5.937 -0.0949  0.2312 -0.7029
 3789SOL    HW123000   3.803   0.257   5.996  0.3850 -0.4232 -1.3877
 3789SOL    HW223001   3.905   0.360   5.971 -0.0388 -0.0169 -0.6298
 3790SOL     OW23002   4.630   0.974   5.734 -0.5224  1.1491 -0.0835
 3790SOL    HW123003   4.653   1.002   5.646 -0.0189 -1.5412 -0.8112
 3790SOL    HW223004   4.710   0.987   5.785  0.8136  0.4368 -1.9719
 3791SOL     OW23005   3.167   3.307  17.612 -0.1918  0.3021  0.1861
 3791SOL    HW123006   3.260   3.329  17.616  0.1738 -0.9802 -1.9033
 3791SOL    HW223007   3.170   3.215  17.588  0.9837  0.0257  1.3931
 3792SOL     OW23008   2.932   2.767   4.652  0.0287  0.2105 -0.5060
 3792SOL    HW123009   2.913   2.848   4.604 -1.4243 -0.1028 -0.4540
 3792SOL    HW223010   3.026   2.756   4.635  0.0871 -0.0329 -0.0163
 3793SOL     OW23011   0.765   4.481   3.793  0.0985  0.1219 -0.3571
 3793SOL    HW123012   0.670   4.470   3.790  0.1305  0.0447 -1.1630
 3793SOL    HW223013   0.782   4.466   3.700 -0.7336  0.2594 -0.5275
 3794SOL     OW23014   4.286   3.234   5.408  0.0318  0.5094 -0.3489
 3794SOL    HW123015   4.373   3.268   5.432 -0.4320 -0.3972  2.5787
 3794SOL    HW223016   4.231   3.308   5.433 -0.0505  0.5631 -0.6894
 3795SOL     OW23017   0.344   0.083   1.712  0.3836 -0.1737 -0.5473
 3795SOL    HW123018   0.407   0.139   1.666  0.5416 -0.9761 -1.3030
 3795SOL    HW223019   0.275   0.063   1.649  0.0139  1.1005 -0.5525
 3796SOL     OW23020   1.024   2.717   2.304  0.3000  0.3974  0.2738
 3796SOL    HW123021   1.052   2.716   2.213  1.6331 -0.5243  0.6973
 3796SOL    HW223022   1.100   2.756   2.346  0.4944 -0.3168  0.5957
 3797SOL     OW23023   0.168   4.387   6.587 -0.3610  0.8181  0.5709
 3797SOL    HW123024   0.260   4.389   6.559 -0.4048 -0.1524  0.3567
 3797SOL    HW223025   0.149   4.477   6.559 -0.7905  0.1738 -1.1638
 3798SOL     OW23026   3.697   0.519  12.317  0.1298 -0.2406  0.0287
 3798SOL    HW123027   3.649   0.549  12.394  1.3545  0.3103  0.5772
 3798SOL    HW223028   3.685   0.424  12.313 -1.6929 -0.0648  1.2160
 3799SOL     OW23029   1.454   0.048  10.440 -0.1607  0.6685  0.2148
 3799SOL    HW123030   1.490   0.093  10.364  1.2222  1.1309  1.1375
 3799SOL    HW223031   1.530   0.064  10.496 -2.6389 -0.6236  3.9449
 3800SOL     OW23032   4.253   4.278  14.023 -0.3111 -0.3735  0.3794
 3800SOL    HW123033   4.200   4.293  14.101 -0.1003 -1.1481  0.6775
 3800SOL    HW223034   4.248   4.363  13.980 -3.9490 -0.7164  0.1821
 3801SOL     OW23035   0.315   1.866   0.620  0.1510 -0.2195  0.0231
 3801SOL    HW123036   0.325   1.780   0.660 -0.8154 -1.0386 -1.5083
 3801SOL    HW223037   0.220   1.865   0.608  0.2982 -1.0698 -1.0065
 3802SOL     OW23038   3.165   0.521   9.259  0.0483  0.2797 -0.4165
 3802SOL    HW123039   3.146   0.497   9.168 -1.9515  0.4720 -0.0501
 3802SOL    HW223040   3.249   0.567   9.254  0.4311  0.0229  3.5476
 3803SOL     OW23041   0.380   3.982   2.265 -0.0920 -0.2186  0.2372
 3803SOL    HW123042   0.293   3.945   2.251 -0.9909  1.9928  0.1418
 3803SOL    HW223043   0.403   3.958   2.354  1.8583  0.5306 -0.0577
 3804SOL     OW23044   1.648   4.380   5.499  0.4215  0.1675  0.1453
 3804SOL    HW123045   1.738   4.396   5.528  0.5529 -0.5629  0.1428
 3804SOL    HW223046   1.601   4.455   5.535  0.2835  0.0898  0.1273
 3805SOL     OW23047   1.633   2.888   6.353  0.0722 -0.2697 -0.0158
 3805SOL    HW123048   1.677   2.900   6.269 -0.4659  0.1123 -0.2362
 3805SOL    HW223049   1.607   2.796   6.349  1.7003 -0.6951 -0.9730
 3806SOL     OW23050   2.168   4.415  12.028 -0.2427  0.1510 -0.0422
 3806SOL    HW123051   2.114   4.458  12.094 -0.6184  1.0988 -0.9590
 3806SOL    HW223052   2.195   4.332  12.068 -0.1713  1.2063  2.1253
 3807SOL     OW23053   2.116   2.889   2.964 -0.0261 -0.2216  0.3109
 3807SOL    HW123054   2.166   2.963   3.000 -1.2939 -0.1592  1.9337
 3807SOL    HW223055   2.088   2.933   2.883  0.2379  0.8754  0.8065
 3808SOL     OW23056   2.072   2.271   4.353  0.3303  0.1240 -0.2441
 3808SOL    HW123057   2.054   2.351   4.401  1.9179  0.2300  0.1725
 3808SOL    HW223058   2.129   2.224   4.413  1.4504 -0.1670 -1.5223
 3809SOL     OW23059   2.854   0.222   9.297 -0.2095 -0.2646 -0.2801
 3809SOL    HW123060   2.851   0.158   9.368  1.5591  2.6927  2.4776
 3809SOL    HW223061   2.796   0.292   9.329 -0.7375 -0.0470 -1.7251
 3810SOL     OW23062   1.911   2.919  13.631 -0.3841  0.0919 -0.1931
 3810SOL    HW123063   1.986   2.864  13.606  0.4834  1.3543 -0.3755
 3810SOL    HW223064   1.833   2.896  13.581  0.0576 -0.2041 -0.7435
 3811SOL     OW23065   0.856   4.630   8.899 -0.6540  1.2996  0.5107
 3811SOL    HW123066   0.769   4.622   8.861 -0.6067 -0.5595  0.8081
 3811SOL    HW223067   0.907   4.654   8.822 -0.0596 -1.1959  0.1144
 3812SOL     OW23068   0.737   2.954   8.543  0.0490  0.0762  0.3611
 3812SOL    HW123069   0.783   2.876   8.574  1.4558  0.4587 -0.7563
 3812SOL    HW223070   0.671   2.924   8.481  0.1088 -0.6187  0.6411
 3813SOL     OW23071   1.235   4.295   5.953  0.3810  0.7584 -0.2724
 3813SOL    HW123072   1.259   4.205   5.977  1.0591  1.0382  0.1133
 3813SOL    HW223073   1.193   4.280   5.868 -2.2741  0.6286  1.0585
 3814SOL     OW23074   4.020   2.066   9.661  0.2522 -0.0639 -0.1658
 3814SOL    HW123075   4.018   1.988   9.717  0.0851  0.1210  0.0859
 3814SOL    HW223076   3.986   2.134   9.719 -0.4956  0.6967 -1.5218
 3815SOL     OW23077   2.228   3.828   4.532 -0.2339 -0.2781  0.0401
 3815SOL    HW123078   2.222   3.768   4.606 -1.7539 -0.9903 -0.6647
 3815SOL    HW223079   2.234   3.905   4.589  3.4257 -0.0389 -0.6676
 3816SOL     OW23080   0.004   3.637   5.978  0.0069 -0.0123 -0.2817
 3816SOL    HW123081   0.046   3.619   6.063 -0.7463  0.8997  0.2775
 3816SOL    HW223082   0.082   3.657   5.926 -0.5086  2.6338 -0.0082
 3817SOL     OW23083   0.972   0.361  10.827  0.7269  0.0842 -0.6009
 3817SOL    HW123084   0.979   0.275  10.786  1.0737 -0.1723 -0.0008
 3817SOL    HW223085   1.008   0.328  10.910  0.8050 -0.3747 -0.8170
 3818SOL     OW23086   4.680   1.291   4.008  0.0068  0.1091 -0.4588
 3818SOL    HW123087   0.014   1.325   3.957 -0.1513 -3.5633 -3.1052
 3818SOL    HW223088   4.659   1.213   3.957 -0.4750  0.5133 -0.8674
 3819SOL     OW23089   0.450   1.190  11.588 -0.3532  0.1132  0.1321
 3819SOL    HW123090   0.463   1.137  11.510  0.2689  1.9516 -1.0153
 3819SOL    HW223091   0.356   1.196  11.570  0.0221 -0.9533 -2.1698
 3820SOL     OW23092   1.426   2.628   7.183  0.5829 -0.1870 -0.4363
 3820SOL    HW123093   1.464   2.651   7.267  0.4829  0.1122 -0.4759
 3820SOL    HW223094   1.448   2.700   7.124 -3.1376 -0.1060 -1.7248
 3821SOL     OW23095   1.027   0.750  17.117  0.2248  1.0368  0.0654
 3821SOL    HW123096   0.955   0.688  17.128  1.0064 -0.1725 -1.6352
 3821SOL    HW223097   1.001   0.796  17.037 -1.5258 -1.5701 -0.8613
 3822SOL     OW23098   4.644   2.738   5.106  0.0119 -0.2170 -0.6042
 3822SOL    HW123099   4.555   2.754   5.138  1.0759  1.2927  1.5529
 3822SOL    HW223100   4.627   2.713   5.015 -0.4069 -1.7817 -0.0964
 3823SOL     OW23101   3.967   3.760  11.627  0.0183 -0.4394  0.8427
 3823SOL    HW123102   3.934   3.695  11.565 -0.8744  0.7373  0.0833
 3823SOL    HW223103   3.953   3.832  11.566  2.1366  0.5778  1.5748
 3824SOL     OW23104   0.898   3.201   8.742  0.2626  0.0844  0.4804
 3824SOL    HW123105   0.853   3.279   8.774 -0.8812 -0.7868  0.9900
 3824SOL    HW223106   0.930   3.223   8.654  1.5625  0.5765  1.0757
 3825SOL     OW23107   3.682   4.191   4.204 -0.0946  0.7398 -0.6865
 3825SOL    HW123108   3.689   4.272   4.254 -0.9820 -0.4206  1.3481
 3825SOL    HW223109   3.672   4.121   4.269  1.6549  0.9271 -0.2058
 3826SOL     OW23110   0.111   2.448   5.044  0.4381 -0.2923  0.2866
 3826SOL    HW123111   0.121   2.540   5.069 -3.4398 -0.2320  1.6107
 3826SOL    HW223112   0.194   2.432   4.998 -0.9088  0.0144 -2.2412
 3827SOL     OW23113   1.532   1.955  15.369 -0.1408 -0.2390 -0.6253
 3827SOL    HW123114   1.520   1.869  15.410 -1.1249 -0.8824 -2.2545
 3827SOL    HW223115   1.443   1.989  15.373 -0.0635 -0.1382  0.0851
 3828SOL     OW23116   0.571   4.227  15.706  0.3871 -0.2400 -0.0722
 3828SOL    HW123117   0.570   4.322  15.713  2.7628 -0.2197 -0.1582
 3828SOL    HW223118   0.647   4.211  15.650  1.8603  0.1538  1.8344
 3829SOL     OW23119   4.711   1.464   8.486 -0.0333 -0.2792 -0.5404
 3829SOL    HW123120   0.027   1.425   8.553  1.0086 -0.2324 -1.3978
 3829SOL    HW223121   4.646   1.509   8.540  0.1408 -0.5829 -0.0758
 3830SOL     OW23122   1.773   4.151   3.480 -0.1992  0.1271  0.3070
 3830SOL    HW123123   1.760   4.244   3.500 -0.5765  0.1067  0.1555
 3830SOL    HW223124   1.863   4.130   3.506  0.5957  0.0626 -2.5505
 3831SOL     OW23125   2.957   3.847   3.192  0.3886  0.1524  0.3579
 3831SOL    HW123126   2.875   3.895   3.179  0.6667  0.5834  0.1947
 3831SOL    HW223127   3.009   3.901   3.252  1.0594 -0.5696  0.4206
 3832SOL     OW23128   0.449   3.030  14.220  0.0958 -0.4407 -0.6329
 3832SOL    HW123129   0.434   2.977  14.299 -0.0780  0.9458  0.2604
 3832SOL    HW223130   0.382   3.093  14.246 -0.0335 -0.4845 -0.8582
 3833SOL     OW23131   0.570   2.512   4.664 -0.2696  0.4001  0.0803
 3833SOL    HW123132   0.652   2.546   4.699 -0.6370  0.1208  1.2429
 3833SOL    HW223133   0.536   2.502   4.753  0.2850 -0.1237  0.2344
 3834SOL     OW23134   3.179   4.098   0.716 -0.5363 -0.6923 -0.0204
 3834SOL    HW123135   3.175   4.010   0.678 -0.6160  0.3019 -2.3340
 3834SOL    HW223136   3.184   4.154   0.638  0.7742 -2.4648 -1.2112
 3835SOL     OW23137   2.797   3.255   2.906  0.1984 -0.0881  0.0281
 3835SOL    HW123138   2.749   3.332   2.938  0.9438  0.0825  0.7429
 3835SOL    HW223139   2.881   3.300   2.908  0.5912 -0.7951 -0.6872
 3836SOL     OW23140   4.344   2.945   7.800 -0.4848  0.6921 -0.0244
 3836SOL    HW123141   4.419   2.892   7.827 -1.1042 -0.8477 -1.3401
 3836SOL    HW223142   4.380   2.984   7.720 -1.6346  1.1977 -0.2962
 3837SOL     OW23143   3.064   2.895   6.834 -0.4623 -0.7119  0.1656
 3837SOL    HW123144   3.000   2.945   6.783 -0.5090  0.2784  1.1837
 3837SOL    HW223145   3.014   2.844   6.897  0.3014  0.6655  1.8901
 3838SOL     OW23146   2.449   2.844   2.731  0.7384  0.1461  0.1588
 3838SOL    HW123147   2.511   2.828   2.661  0.6652 -2.3802  0.6992
 3838SOL    HW223148   2.423   2.936   2.724 -0.6666 -0.2279  0.3483
 3839SOL     OW23149   2.908   2.842   3.196  0.1065 -0.6418  0.3587
 3839SOL    HW123150   2.955   2.898   3.257  0.4865  0.3622 -0.8553
 3839SOL    HW223151   2.974   2.773   3.197 -0.1208 -0.8697 -0.2518
 3840SOL     OW23152   4.467   1.230  13.276 -0.2243 -0.1394 -0.0043
 3840SOL    HW123153   4.382   1.269  13.256 -0.4961 -0.4761  0.4866
 3840SOL    HW223154   4.522   1.308  13.282  1.0381 -1.1517  1.4557
 3841SOL     OW23155   0.294   4.645   4.919 -0.3879 -0.0032 -0.4090
 3841SOL    HW123156   0.241   4.583   4.969 -0.1987 -0.4204 -0.7250
 3841SOL    HW223157   0.282   4.727   4.966  1.5161  1.4343 -2.4266
 3842SOL     OW23158   3.328   2.330  17.517 -0.3509 -0.1658  0.0503
 3842SOL    HW123159   3.392   2.285  17.572 -1.1678 -1.1618  0.1847
 3842SOL    HW223160   3.320   2.274  17.440  1.0155 -3.1711  2.0835
 3843SOL     OW23161   0.247   3.026   2.139  0.6021 -0.0504  0.2730
 3843SOL    HW123162   0.236   2.932   2.152 -0.1065 -0.2118 -1.4483
 3843SOL    HW223163   0.159   3.053   2.163 -0.4546 -1.2256 -2.2818
 3844SOL     OW23164   3.382   2.634   0.207  0.4957  0.0011  0.3494
 3844SOL    HW123165   3.403   2.552   0.163  1.4677 -0.3287  1.4473
 3844SOL    HW223166   3.325   2.664   0.136  0.8878 -0.7336 -0.2720
 3845SOL     OW23167   1.141   2.275   6.358 -0.4329  0.1856  0.1590
 3845SOL    HW123168   1.075   2.296   6.423 -0.6717 -0.1958  0.0373
 3845SOL    HW223169   1.139   2.180   6.368  0.2910  0.2116  0.5490
 3846SOL     OW23170   3.290   4.328   7.852 -0.3169 -0.4547 -0.5104
 3846SOL    HW123171   3.256   4.351   7.766  2.0575 -0.0478 -1.3522
 3846SOL    HW223172   3.317   4.237   7.840 -0.6078 -1.0370  3.1960
 3847SOL     OW23173   4.343   3.279   7.323  0.1161 -0.0293  0.4253
 3847SOL    HW123174   4.412   3.305   7.384 -1.7888  0.5520  2.3288
 3847SOL    HW223175   4.390   3.278   7.239  2.2966  0.9773  1.6320
 3848SOL     OW23176   2.992   1.725   6.446 -0.7039 -0.7017  0.1357
 3848SOL    HW123177   3.079   1.746   6.412 -0.6663 -0.3542  0.4472
 3848SOL    HW223178   2.938   1.805   6.442 -0.1048 -0.3751 -1.5578
 3849SOL     OW23179   4.573   1.529   8.256  0.1963 -0.4360 -0.4920
 3849SOL    HW123180   4.613   1.491   8.334  1.6811  0.0147 -1.0314
 3849SOL    HW223181   4.494   1.476   8.247  0.5993 -1.0421 -0.4318
 3850SOL     OW23182   2.440   1.076   4.531  0.3082 -0.2890  0.1004
 3850SOL    HW123183   2.494   1.109   4.604 -1.0348 -0.0614  0.9993
 3850SOL    HW223184   2.442   0.981   4.540  3.2452 -0.2556  0.0189
 3851SOL     OW23185   2.068   1.813  10.543  0.2002 -0.2815 -0.0403
 3851SOL    HW123186   2.127   1.812  10.618  1.3400 -1.5161 -0.9730
 3851SOL    HW223187   2.089   1.903  10.516  1.6159 -0.3606  0.7835
 3852SOL     OW23188   1.518   2.817   2.505 -0.4381 -0.3869 -0.1369
 3852SOL    HW123189   1.507   2.905   2.541 -0.2229 -0.6227  0.5042
 3852SOL    HW223190   1.526   2.766   2.585  0.4744 -2.2368 -1.4065
 3853SOL     OW23191   0.269   1.757   5.718  0.5328 -0.0890 -0.1234
 3853SOL    HW123192   0.286   1.709   5.799 -1.0676  1.3727  1.0747
 3853SOL    HW223193   0.208   1.690   5.686 -1.2724  0.9185  1.2295
 3854SOL     OW23194   2.121   3.465   7.225  0.1894 -0.2956 -0.4712
 3854SOL    HW123195   2.139   3.508   7.141 -1.6060 -2.2042 -1.8130
 3854SOL    HW223196   2.112   3.374   7.199  1.4498 -0.7197  0.5433
 3855SOL     OW23197   0.622   4.405   5.175 -0.4430 -0.2138 -0.1855
 3855SOL    HW123198   0.621   4.317   5.213 -1.9219 -0.0155  0.2218
 3855SOL    HW223199   0.538   4.439   5.206  0.4655  0.9046  1.0546
 3856SOL     OW23200   4.578   1.985   0.780 -0.8545 -0.0743  0.9871
 3856SOL    HW123201   4.649   2.024   0.832 -0.3899 -0.0578  0.3426
 3856SOL    HW223202   4.524   1.953   0.852 -2.2948  1.5333  0.6181
 3857SOL     OW23203   1.649   2.125   2.202 -0.4832  0.2398 -0.2001
 3857SOL    HW123204   1.732   2.170   2.218 -0.4570 -0.5456  1.8620
 3857SOL    HW223205   1.649   2.046   2.256 -0.4837  0.2430 -0.1954
 3858SOL     OW23206   3.639   3.449  13.330  0.2328  0.0604  0.3611
 3858SOL    HW123207   3.668   3.362  13.358  0.0161  0.4060  1.6433
 3858SOL    HW223208   3.632   3.495  13.413  2.4590 -0.9032  1.0883
 3859SOL     OW23209   4.127   2.980  13.764  0.1840 -0.1674  0.3177
 3859SOL    HW123210   4.196   2.958  13.701  1.9453 -1.5024  2.6740
 3859SOL    HW223211   4.176   2.984  13.847 -0.0086 -1.4794  0.4917
 3860SOL     OW23212   2.469   3.092   3.544  0.2440  0.4446  0.1211
 3860SOL    HW123213   2.560   3.103   3.573 -0.3157  1.3220  1.5072
 3860SOL    HW223214   2.484   3.014   3.489 -1.5008  1.0414 -1.1983
 3861SOL     OW23215   3.011   2.371   0.996 -0.3163  0.1426 -0.0957
 3861SOL    HW123216   3.001   2.316   1.073 -1.5862  1.2182  0.5169
 3861SOL    HW223217   3.093   2.415   1.015  0.1428 -1.3159  1.2753
 3862SOL     OW23218   1.973   1.788   6.001 -0.5079 -0.0717 -0.3418
 3862SOL    HW123219   2.049   1.806   6.056 -0.1378  0.0723 -0.8980
 3862SOL    HW223220   1.968   1.870   5.952  0.6816 -0.1270 -0.5537
 3863SOL     OW23221   0.104   1.219   3.547  0.1088 -0.1590  0.1502
 3863SOL    HW123222   0.036   1.261   3.600  0.1092  0.1641 -0.1057
 3863SOL    HW223223   0.108   1.133   3.590 -0.0290 -0.1417  0.1986
 3864SOL     OW23224   4.302   2.001   3.152  0.1428 -0.3375  0.0408
 3864SOL    HW123225   4.255   2.021   3.232  1.5042 -0.1032  0.7767
 3864SOL    HW223226   4.281   2.071   3.091  2.4643  0.9843  0.7963
 3865SOL     OW23227   1.877   4.421  15.181  0.2657  0.0591 -0.0155
 3865SOL    HW123228   1.833   4.348  15.224 -0.9144  0.6214 -0.2837
 3865SOL    HW223229   1.970   4.404  15.201  0.3410 -0.5241 -0.8545
 3866SOL     OW23230   2.138   0.394   9.292 -0.6082 -0.2608 -0.2384
 3866SOL    HW123231   2.217   0.414   9.241  0.4310 -1.3396  0.9315
 3866SOL    HW223232   2.110   0.307   9.263 -0.4511 -1.1458  2.2635
 3867SOL     OW23233   3.096   1.018   7.932  0.0581 -0.4489  0.2224
 3867SOL    HW123234   3.064   1.029   8.021 -0.7106  0.6905 -0.1905
 3867SOL    HW223235   3.011   1.040   7.894 -0.2912  0.5308  1.6009
 3868SOL     OW23236   0.751   1.837   5.126 -0.3283 -0.2177  0.0202
 3868SOL    HW123237   0.706   1.770   5.074 -1.8290 -1.2324  2.6758
 3868SOL    HW223238   0.801   1.883   5.059 -1.3833  0.3029 -0.4129
 3869SOL     OW23239   1.336   1.889   2.187  0.0056  0.2436  0.3775
 3869SOL    HW123240   1.424   1.865   2.215 -0.0110 -1.3213 -0.9095
 3869SOL    HW223241   1.320   1.965   2.243  1.0210 -0.2819  1.3916
 3870SOL     OW23242   1.768   2.638   8.527  0.7117 -0.6824 -0.2051
 3870SOL    HW123243   1.740   2.700   8.459  0.6769  0.6958  1.0577
 3870SOL    HW223244   1.704   2.659   8.595 -2.0934 -1.6615 -2.5300
 3871SOL     OW23245   2.561   0.654   8.242  0.1269  0.2795  0.2954
 3871SOL    HW123246   2.556   0.572   8.193  1.1525  0.9466 -0.9070
 3871SOL    HW223247   2.470   0.679   8.229  0.7763  2.4179  0.0037
 3872SOL     OW23248   3.775   1.457   3.786 -0.7626 -0.8810 -0.3170
 3872SOL    HW123249   3.842   1.402   3.827  1.3170  0.4093 -1.9856
 3872SOL    HW223250   3.811   1.545   3.779  0.4304 -1.4141 -0.8506
 3873SOL     OW23251   2.381   3.082   1.886 -0.2551  0.0301 -0.4478
 3873SOL    HW123252   2.321   3.029   1.938  0.2549 -1.6532 -1.5672
 3873SOL    HW223253   2.321   3.122   1.823 -1.6893  0.0319  0.9160
 3874SOL     OW23254   0.933   0.088   1.993  0.7283 -0.0998 -0.0746
 3874SOL    HW123255   0.957   0.172   1.954 -0.5756 -0.9380 -2.6667
 3874SOL    HW223256   0.898   0.113   2.079 -0.4940  0.3526 -0.7070
 3875SOL     OW23257   1.202   2.891  11.835  0.2079 -0.1958 -0.0106
 3875SOL    HW123258   1.125   2.891  11.778 -0.3720 -2.4392  0.7538
 3875SOL    HW223259   1.244   2.971  11.805 -0.7026 -0.8844 -3.1037
 3876SOL     OW23260   0.318   2.397   4.571 -0.1013  0.4632 -0.4695
 3876SOL    HW123261   0.326   2.407   4.476  2.1910 -0.3025 -0.3388
 3876SOL    HW223262   0.382   2.462   4.596 -0.3341 -0.2941  2.0496
 3877SOL     OW23263   3.914   0.709  15.674 -0.1517 -0.2155 -0.3987
 3877SOL    HW123264   3.928   0.780  15.737  0.9770 -1.8414  1.1704
 3877SOL    HW223265   4.004   0.681  15.656  0.0724 -0.2048  0.7365
 3878SOL     OW23266   4.179   3.079  17.549  0.0796  0.6091  0.2420
 3878SOL    HW123267   4.271   3.078  17.525  0.4976  1.2524  1.8367
 3878SOL    HW223268   4.151   3.149  17.490 -0.2022 -1.0347 -1.6144
 3879SOL     OW23269   4.664   2.342   6.659 -0.5369  0.0561 -0.4523
 3879SOL    HW123270   4.623   2.423   6.628 -0.9784 -0.0898 -0.2433
 3879SOL    HW223271   4.663   2.359   6.753  2.3009  1.9578 -0.7564
 3880SOL     OW23272   0.586   2.142   7.907 -0.4631  1.0939 -0.0569
 3880SOL    HW123273   0.600   2.080   7.836 -1.0686  0.2520  0.5572
 3880SOL    HW223274   0.558   2.083   7.977 -1.3855  0.1808 -1.1839
 3881SOL     OW23275   4.384   0.891   1.543 -0.0989  0.2535  0.2804
 3881SOL    HW123276   4.312   0.830   1.558  0.0715  0.3321  1.3883
 3881SOL    HW223277   4.448   0.840   1.492  1.2346  0.6460  1.5529
 3882SOL     OW23278   3.136   2.359   1.578 -0.8513 -0.2126 -0.2569
 3882SOL    HW123279   3.083   2.386   1.653  0.8233  1.6712  0.2417
 3882SOL    HW223280   3.092   2.402   1.505 -1.4795 -2.4476 -1.2070
 3883SOL     OW23281   0.569   0.121   6.699 -0.5330 -0.3927 -0.7293
 3883SOL    HW123282   0.473   0.118   6.695 -0.6356  0.0855  1.1445
 3883SOL    HW223283   0.591   0.031   6.675 -1.6859 -0.5163 -1.3243
 3884SOL     OW23284   2.764   1.792   6.275 -0.2894 -0.0193 -0.1609
 3884SOL    HW123285   2.855   1.764   6.280 -0.0673  0.5745 -0.8367
 3884SOL    HW223286   2.765   1.851   6.199  3.3882 -1.4308 -1.1654
 3885SOL     OW23287   4.011   3.638  12.783  0.1870  0.2541 -0.8985
 3885SOL    HW123288   3.979   3.689  12.857  0.4203 -1.5049  0.4243
 3885SOL    HW223289   4.022   3.553  12.826 -3.5948  1.6730  2.9484
 3886SOL     OW23290   3.985   0.005   2.490 -0.3188  0.3917  0.2829
 3886SOL    HW123291   4.039   4.737   2.411 -0.3775 -0.3095  0.3126
 3886SOL    HW223292   3.973   4.652   2.508 -0.7575  0.5263  0.6707
 3887SOL     OW23293   0.580   2.552   4.922 -0.2800  0.0234  0.6829
 3887SOL    HW123294   0.647   2.500   4.968  1.1315  0.2888 -1.0715
 3887SOL    HW223295   0.603   2.640   4.951  0.8784 -0.7310  2.0779
 3888SOL     OW23296   3.526   2.333   6.830  0.4482 -0.3933  0.5128
 3888SOL    HW123297   3.612   2.323   6.871  0.2920 -0.7030  0.7652
 3888SOL    HW223298   3.546   2.288   6.747  2.5221  0.2230  0.6684
 3889SOL     OW23299   4.294   2.010   1.125  0.7960  0.7125  0.5838
 3889SOL    HW123300   4.253   1.956   1.194 -0.1827 -2.6052 -2.5981
 3889SOL    HW223301   4.339   1.942   1.075  0.5658  1.1031 -0.1535
 3890SOL     OW23302   3.673   3.161   8.194 -0.1553 -0.0979  0.1654
 3890SOL    HW123303   3.658   3.149   8.288  2.1463  0.5984  0.6267
 3890SOL    HW223304   3.585   3.172   8.159 -0.9655 -0.0301  2.2128
 3891SOL     OW23305   1.511   1.612   7.043  0.8933 -0.1723 -0.0915
 3891SOL    HW123306   1.595   1.581   7.008  0.4015 -1.9918  0.3761
 3891SOL    HW223307   1.546   1.697   7.071  0.4923  0.4269 -1.4075
 3892SOL     OW23308   4.036   3.509   4.922  0.1454  0.7011  0.7125
 3892SOL    HW123309   3.972   3.511   4.851 -0.9100  1.0812  1.6741
 3892SOL    HW223310   4.113   3.481   4.874 -0.4570  0.0535  0.1303
 3893SOL     OW23311   3.860   3.332   6.455 -0.2191 -0.0689 -0.6160
 3893SOL    HW123312   3.884   3.263   6.517 -2.1341  0.1501  0.3722
 3893SOL    HW223313   3.942   3.339   6.406  0.8615 -2.9545  0.7908
 3894SOL     OW23314   0.932   0.932   2.486  0.1130  0.3151 -0.1063
 3894SOL    HW123315   0.977   0.849   2.473 -2.5897 -1.0383 -0.6596
 3894SOL    HW223316   0.879   0.944   2.408  0.3053 -0.1261 -0.3057
 3895SOL     OW23317   0.818   0.905   8.515 -0.1005  0.1964 -0.7635
 3895SOL    HW123318   0.841   0.848   8.589 -2.4653  2.8941  2.0338
 3895SOL    HW223319   0.725   0.923   8.529  0.3072 -0.2168  2.3543
 3896SOL     OW23320   0.686   1.015  16.462 -0.8454  0.2231  0.3597
 3896SOL    HW123321   0.640   1.056  16.535  1.2091 -0.9079  2.3016
 3896SOL    HW223322   0.673   1.082  16.395 -1.4599  0.0488  0.3063
 3897SOL     OW23323   3.395   0.057   6.395 -0.7334  0.2955 -0.3314
 3897SOL    HW123324   3.427   0.056   6.305  0.8049 -1.2200  0.2369
 3897SOL    HW223325   3.317   0.114   6.394  0.5711  2.1055  0.8944
 3898SOL     OW23326   2.906   4.602   2.951  0.0136  0.2126  0.2418
 3898SOL    HW123327   2.877   4.692   2.965 -0.7938 -0.0413  0.1548
 3898SOL    HW223328   2.865   4.580   2.867 -0.7790 -0.5764  0.8424
 3899SOL     OW23329   2.480   3.092  13.376 -0.0602 -0.2156  0.1265
 3899SOL    HW123330   2.528   3.075  13.295  0.5379 -1.3743  0.7377
 3899SOL    HW223331   2.451   3.183  13.363  1.1878 -0.0586 -1.6350
 3900SOL     OW23332   0.083   3.744  12.569  0.1530 -0.4610  0.3458
 3900SOL    HW123333   0.066   3.664  12.520  0.3096 -1.6531  2.2074
 3900SOL    HW223334   0.158   3.714  12.621  0.4231 -0.7170 -0.1912
 3901SOL     OW23335   2.187   0.318   8.630  0.1200 -0.2607 -0.3568
 3901SOL    HW123336   2.269   0.273   8.648 -0.0827  0.0974  1.4264
 3901SOL    HW223337   2.228   0.396   8.592  0.7033 -0.3006  0.1993
 3902SOL     OW23338   0.657   0.185   9.685 -0.4213  0.4405 -0.3374
 3902SOL    HW123339   0.738   0.139   9.663  0.3649  1.2664  0.8649
 3902SOL    HW223340   0.621   0.206   9.598 -3.6081  0.4438  0.9869
 3903SOL     OW23341   0.429   0.011   9.369 -0.3471 -0.3066 -0.1425
 3903SOL    HW123342   0.485   4.706   9.431 -1.2807 -2.1695 -0.6665
 3903SOL    HW223343   0.473   0.096   9.371 -0.8156 -0.0597 -0.3055
 3904SOL     OW23344   1.518   3.156   5.874 -0.0483 -0.2943 -0.6006
 3904SOL    HW123345   1.568   3.221   5.824 -0.5460  0.8633  0.3928
 3904SOL    HW223346   1.445   3.161   5.813 -0.4429  1.3385  0.0020
 3905SOL     OW23347   4.357   1.955  11.375  0.0118 -0.4374  0.2219
 3905SOL    HW123348   4.413   2.014  11.425 -0.5076  0.4354 -0.2171
 3905SOL    HW223349   4.414   1.888  11.338  4.6926  2.9990  1.1889
 3906SOL     OW23350   2.280   4.441  11.300 -0.1043  0.5199  0.2008
 3906SOL    HW123351   2.354   4.502  11.306 -0.5547  1.1246 -0.3343
 3906SOL    HW223352   2.253   4.429  11.391 -0.5483  0.2872  0.0388
 3907SOL     OW23353   0.395   2.620   5.510 -0.3894  0.1054 -0.2367
 3907SOL    HW123354   0.302   2.643   5.514 -0.4584 -0.3141  0.6230
 3907SOL    HW223355   0.414   2.670   5.431 -1.0282  1.4951  0.4964
 3908SOL     OW23356   1.407   1.623   8.810 -0.0083  0.6773 -0.8026
 3908SOL    HW123357   1.489   1.623   8.761 -0.3556 -2.0971 -1.3819
 3908SOL    HW223358   1.422   1.545   8.863 -0.5986  0.3318 -1.1455
 3909SOL     OW23359   3.743   0.047   1.087  0.0837  0.4577  0.7917
 3909SOL    HW123360   3.812   0.004   1.138 -1.5475 -2.2440  0.7386
 3909SOL    HW223361   3.697   4.716   1.043 -0.0937  0.3537  1.1455
 3910SOL     OW23362   3.058   1.540   7.669 -0.4640  0.0413 -0.2872
 3910SOL    HW123363   2.986   1.478   7.681 -0.8968  0.7343  0.6488
 3910SOL    HW223364   3.128   1.479   7.644 -1.0654 -0.2307 -1.2845
 3911SOL     OW23365   0.979   1.021  12.697 -0.0911 -0.1388 -0.1172
 3911SOL    HW123366   0.885   1.006  12.708 -0.3821  1.0640 -1.0524
 3911SOL    HW223367   1.016   0.962  12.763  0.4364  0.9057  0.5180
 3912SOL     OW23368   2.239   1.078  14.797 -0.0384 -0.4880  0.2650
 3912SOL    HW123369   2.304   1.133  14.841 -0.2566  1.6611 -2.0498
 3912SOL    HW223370   2.179   1.151  14.783  1.0333 -0.0065 -1.9015
 3913SOL     OW23371   1.041   2.869   4.563 -0.3215 -0.2128  0.0263
 3913SOL    HW123372   1.130   2.891   4.591  0.5333 -3.0216 -0.3824
 3913SOL    HW223373   1.048   2.863   4.467  1.3853  1.6364  0.0372
 3914SOL     OW23374   2.874   0.204  10.308 -0.1090 -0.8465 -0.0437
 3914SOL    HW123375   2.807   0.160  10.257 -2.1789  0.3576  1.6370
 3914SOL    HW223376   2.946   0.195  10.246  1.1243 -0.5689  1.3226
 3915SOL     OW23377   1.367   3.945  14.704  0.4096  0.2528  0.7635
 3915SOL    HW123378   1.290   3.889  14.698 -0.1517  0.9500  1.3918
 3915SOL    HW223379   1.417   3.908  14.777  0.0545  1.0305  1.4065
 3916SOL     OW23380   0.538   2.548   7.092 -0.0582  0.4830  0.3597
 3916SOL    HW123381   0.468   2.522   7.152 -0.9880 -0.7064 -1.2311
 3916SOL    HW223382   0.602   2.479   7.108  0.4815  0.7736 -0.5777
 3917SOL     OW23383   3.997   2.918   8.898  0.5021  0.0919  0.2068
 3917SOL    HW123384   3.907   2.906   8.927  0.2013 -0.5944 -1.0107
 3917SOL    HW223385   4.048   2.921   8.979  0.3560 -1.1714  0.3467
 3918SOL     OW23386   3.689   1.524   5.493 -0.5383 -0.0307 -0.2676
 3918SOL    HW123387   3.606   1.541   5.449 -0.2669  1.2821 -0.2700
 3918SOL    HW223388   3.677   1.432   5.515 -1.7154  0.3844  0.8512
 3919SOL     OW23389   4.623   4.420   6.904  0.2124 -0.0635  0.6736
 3919SOL    HW123390   4.594   4.473   6.979 -0.0133  0.3910  0.2634
 3919SOL    HW223391   4.538   4.422   6.862 -0.2313 -0.2238  1.5555
 3920SOL     OW23392   1.044   2.440   7.698 -0.0848 -0.6234  0.1106
 3920SOL    HW123393   1.029   2.346   7.706  1.5498 -0.8321  0.7331
 3920SOL    HW223394   1.135   2.445   7.671  0.2516 -1.0919  1.1361
 3921SOL     OW23395   2.200   3.904   3.346 -0.1781  0.3559 -0.1288
 3921SOL    HW123396   2.120   3.854   3.365  0.0991 -0.1755 -0.3480
 3921SOL    HW223397   2.251   3.861   3.415  0.0668  1.0207  0.0990
 3922SOL     OW23398   3.651   1.035   3.514  0.0392 -0.3192 -0.3259
 3922SOL    HW123399   3.648   1.035   3.419 -3.4028  0.1700 -0.2097
 3922SOL    HW223400   3.678   1.124   3.539  0.4400 -0.7640  0.8224
 3923SOL     OW23401   3.951   3.894   8.072 -0.0791  0.3981  0.0862
 3923SOL    HW123402   3.931   3.934   8.157  0.1834  2.1007 -0.6476
 3923SOL    HW223403   3.895   3.946   8.014  3.0448 -0.0224 -3.2783
 3924SOL     OW23404   2.371   0.518  15.353 -0.3936  0.2667 -0.8824
 3924SOL    HW123405   2.361   0.493  15.445 -0.7389  0.8169 -0.7714
 3924SOL    HW223406   2.456   0.561  15.362 -1.3732  1.5060  2.1572
 3925SOL     OW23407   0.684   0.112  13.819  0.2465 -0.0979  0.0063
 3925SOL    HW123408   0.615   0.058  13.781  0.1888 -0.5684  0.7663
 3925SOL    HW223409   0.632   0.179  13.864  0.7985 -0.2182  0.8201
 3926SOL     OW23410   0.961   3.914   2.046  0.0619 -0.4801 -0.1280
 3926SOL    HW123411   0.876   3.894   2.086  0.4672 -1.0019  0.4688
 3926SOL    HW223412   0.977   3.831   2.002  0.6570 -1.2408  1.4964
 3927SOL     OW23413   3.609   2.037   1.456  0.1643  0.1626  0.9767
 3927SOL    HW123414   3.544   2.050   1.386 -1.2868  1.9462  2.6655
 3927SOL    HW223415   3.568   2.091   1.523 -3.0876 -0.3616 -0.5821
 3928SOL     OW23416   4.096   4.062   0.159 -0.4588 -0.0678  0.0611
 3928SOL    HW123417   4.118   4.001   0.088 -2.5400 -1.9917  1.0661
 3928SOL    HW223418   4.123   4.007   0.233 -0.7857 -0.7242 -0.3017
 3929SOL     OW23419   0.141   0.301  15.440 -0.1830  0.1541  0.2717
 3929SOL    HW123420   0.209   0.337  15.497 -1.3524 -0.1403  1.8550
 3929SOL    HW223421   0.170   0.319  15.350  1.2130 -0.8421  0.5309
 3930SOL     OW23422   2.083   2.583  16.529 -0.1045 -0.1760  0.5145
 3930SOL    HW123423   2.114   2.603  16.441 -0.5180 -0.1007  0.3878
 3930SOL    HW223424   2.147   2.517  16.556 -0.6827  0.3743  3.2476
 3931SOL     OW23425   1.478   1.382   6.268  0.3533  0.0288 -0.1642
 3931SOL    HW123426   1.489   1.329   6.347  1.4725  0.0706 -0.2940
 3931SOL    HW223427   1.571   1.388   6.247  1.1566 -3.5374  2.4548
 3932SOL     OW23428   1.742   4.336   3.814  0.8902  0.1062 -0.5247
 3932SOL    HW123429   1.835   4.319   3.825  0.5052 -2.0260 -0.4959
 3932SOL    HW223430   1.735   4.431   3.822  1.4058  0.1717 -0.9050
 3933SOL     OW23431   0.644   2.481   7.782  0.3617 -0.2633 -0.3696
 3933SOL    HW123432   0.571   2.522   7.829  1.6130  1.7549 -0.1720
 3933SOL    HW223433   0.638   2.390   7.812  0.9614 -0.2710 -0.2730
 3934SOL     OW23434   4.475   2.685   4.404  0.6426 -0.4452 -0.1349
 3934SOL    HW123435   4.405   2.621   4.409 -0.1306  0.4672  0.7904
 3934SOL    HW223436   4.453   2.731   4.323  1.6971  0.3530  0.0234
 3935SOL     OW23437   0.875   0.967   6.848  0.0009  0.1900  0.6952
 3935SOL    HW123438   0.940   1.036   6.862  1.6541 -0.9494 -1.5590
 3935SOL    HW223439   0.831   1.003   6.771  0.8037 -0.8032 -0.2246
 3936SOL     OW23440   3.920   1.874   5.700  0.2247  0.7178  0.7720
 3936SOL    HW123441   4.012   1.902   5.701  0.1648  0.8903  1.5154
 3936SOL    HW223442   3.880   1.960   5.710 -2.3511 -0.4524  0.4088
 3937SOL     OW23443   3.266   0.534  15.323 -0.4365 -0.2272 -0.4570
 3937SOL    HW123444   3.349   0.486  15.330 -1.9558 -2.6976  0.8415
 3937SOL    HW223445   3.237   0.534  15.414  0.5101 -0.4716 -0.1632
 3938SOL     OW23446   3.374   4.017   3.308 -0.6390  0.3763 -0.4234
 3938SOL    HW123447   3.323   4.098   3.300 -0.5012  0.6712  1.8910
 3938SOL    HW223448   3.426   4.032   3.386  0.3492 -0.0807 -0.9953
 3939SOL     OW23449   2.607   4.563   7.166 -0.4154 -0.1311 -0.4281
 3939SOL    HW123450   2.548   4.615   7.111 -1.4506 -0.9043 -0.0483
 3939SOL    HW223451   2.692   4.604   7.153 -0.8381  1.1656  0.8860
 3940SOL     OW23452   2.973   1.939   1.137 -0.1070  1.0017 -0.4340
 3940SOL    HW123453   2.989   1.852   1.173  1.0088  0.5874 -1.9211
 3940SOL    HW223454   3.003   1.924   1.047 -1.6608 -0.6156 -0.6893
 3941SOL     OW23455   4.018   0.971   7.642  0.9660  0.0435 -0.0452
 3941SOL    HW123456   4.078   0.974   7.568 -1.5851  0.3904 -2.0869
 3941SOL    HW223457   4.042   1.046   7.697 -2.9320  0.3598  1.2369
 3942SOL     OW23458   0.448   0.020   1.076  0.1209 -0.2799 -0.2832
 3942SOL    HW123459   0.370   0.073   1.096 -1.5207 -2.9118  0.2478
 3942SOL    HW223460   0.457   0.017   0.981 -2.3408 -3.4573 -0.4027
 3943SOL     OW23461   4.011   1.369   4.128 -0.0556  0.4014 -0.2304
 3943SOL    HW123462   4.038   1.305   4.062  1.2315 -1.1416  1.8003
 3943SOL    HW223463   3.917   1.353   4.139 -0.2229  1.8076  0.3575
 3944SOL     OW23464   4.370   3.820  15.216 -0.3790 -0.3561  0.3310
 3944SOL    HW123465   4.448   3.835  15.162  0.5227 -1.8413  1.2033
 3944SOL    HW223466   4.406   3.764  15.286 -0.2202 -0.2268  0.3524
 3945SOL     OW23467   0.344   2.551   0.785 -0.3729  0.2173 -0.1175
 3945SOL    HW123468   0.411   2.547   0.853 -0.2970  1.7554 -0.1209
 3945SOL    HW223469   0.369   2.478   0.727 -2.6930  0.0252 -0.9074
 3946SOL     OW23470   0.100   0.674   6.487  0.0604  0.2708 -0.3009
 3946SOL    HW123471   0.078   0.650   6.397  1.8564 -1.9510 -0.1388
 3946SOL    HW223472   0.025   0.726   6.518 -0.3006 -1.0758  1.0270
 3947SOL     OW23473   2.458   2.340  12.264 -0.1813  0.2860 -0.3872
 3947SOL    HW123474   2.433   2.430  12.282 -2.9456 -0.7579  1.1897
 3947SOL    HW223475   2.379   2.304  12.223 -0.7746  1.4233 -0.2474
 3948SOL     OW23476   3.671   4.514   4.937  0.5166  0.2671 -0.1218
 3948SOL    HW123477   3.603   4.575   4.909 -1.3870 -1.7411  0.0238
 3948SOL    HW223478   3.624   4.441   4.979  0.2805  0.7605  0.4611
 3949SOL     OW23479   0.646   2.047   9.542  0.8450 -0.0519 -0.5662
 3949SOL    HW123480   0.683   2.107   9.476  1.3132 -0.0782 -0.3277
 3949SOL    HW223481   0.564   2.094   9.553 -0.2490 -1.7932 -1.3124
 3950SOL     OW23482   0.118   2.604   1.893  0.3253 -0.1945 -0.5218
 3950SOL    HW123483   0.062   2.564   1.827 -2.9268  1.2929  1.3280
 3950SOL    HW223484   0.189   2.646   1.844 -0.9909  2.1365 -0.4570
 3951SOL     OW23485   3.217   0.536  15.597  0.7319  0.1271  0.4000
 3951SOL    HW123486   3.224   0.453  15.646 -3.1821 -0.2855  0.2590
 3951SOL    HW223487   3.281   0.593  15.640 -0.3514  1.5892  0.0465
 3952SOL     OW23488   2.644   1.241   3.519 -0.4029 -0.3947 -0.3672
 3952SOL    HW123489   2.575   1.304   3.541  1.1023  1.5892 -1.3796
 3952SOL    HW223490   2.723   1.293   3.527 -0.0389 -0.8481 -1.0651
 3953SOL     OW23491   0.871   2.266  15.979  0.6346 -0.5274 -0.2668
 3953SOL    HW123492   0.930   2.226  16.043 -0.8428  0.9705  2.0090
 3953SOL    HW223493   0.835   2.186  15.941  0.2344 -0.3457 -0.2660
 3954SOL     OW23494   2.102   4.214  11.227 -0.0692 -0.3809 -0.3064
 3954SOL    HW123495   2.018   4.254  11.249 -0.6704  0.2062 -3.7649
 3954SOL    HW223496   2.161   4.276  11.270  0.1996 -1.7453  1.3301
 3955SOL     OW23497   0.205   2.958   1.765 -0.0297 -0.8929  0.1358
 3955SOL    HW123498   0.257   3.036   1.748 -0.7087  0.0087  2.1928
 3955SOL    HW223499   0.214   2.907   1.685 -1.2069 -0.5930 -0.1917
 3956SOL     OW23500   0.993   1.746   7.339 -0.5250 -0.4054  0.3553
 3956SOL    HW123501   0.905   1.747   7.377 -1.1607 -0.3498 -1.1094
 3956SOL    HW223502   1.001   1.660   7.298 -1.2220  1.0624 -2.8829
 3957SOL     OW23503   1.748   4.166  15.288 -0.1369 -0.3408  0.2753
 3957SOL    HW123504   1.662   4.190  15.324 -1.2395 -1.5368 -1.5590
 3957SOL    HW223505   1.787   4.150  15.374 -1.3696  1.4081  1.1593
 3958SOL     OW23506   1.876   0.327  11.750 -0.1493 -0.0602 -0.0778
 3958SOL    HW123507   1.969   0.312  11.765 -0.1891 -0.4526 -0.2036
 3958SOL    HW223508   1.842   0.320  11.840 -2.3724 -0.0893 -0.9113
 3959SOL     OW23509   2.743   1.667   3.399  0.1738  0.4973  0.2066
 3959SOL    HW123510   2.838   1.663   3.396  0.0097  0.3904 -3.9738
 3959SOL    HW223511   2.733   1.640   3.490  2.2012 -0.5241  0.1119
 3960SOL     OW23512   2.954   0.644   0.107  0.2403  0.5673 -0.3347
 3960SOL    HW123513   2.989   0.621   0.021 -1.3840  0.2767 -0.9134
 3960SOL    HW223514   3.006   0.723   0.124  2.0121 -0.2985 -1.6886
 3961SOL     OW23515   0.809   3.067   0.631  0.1119 -0.0542  0.3042
 3961SOL    HW123516   0.780   3.101   0.547  1.1617  1.0043  0.3644
 3961SOL    HW223517   0.891   3.023   0.609 -0.2031 -1.8407  2.6723
 3962SOL     OW23518   1.240   1.750   3.961  0.0115  0.6836 -0.8102
 3962SOL    HW123519   1.269   1.696   3.888 -0.2212  0.0522 -0.4261
 3962SOL    HW223520   1.175   1.686   3.989  0.0153  0.9066 -0.2836
 3963SOL     OW23521   4.162   2.224  16.034 -0.1993  0.0945 -0.7725
 3963SOL    HW123522   4.201   2.253  16.117 -0.9608 -0.7191 -0.1186
 3963SOL    HW223523   4.123   2.303  15.997 -1.1240 -0.4651 -1.0104
 3964SOL     OW23524   3.460   4.687   2.227  0.1854  0.3624 -0.0429
 3964SOL    HW123525   3.523   4.684   2.299 -3.1863 -0.0356  2.8776
 3964SOL    HW223526   3.520   4.711   2.156  0.3916 -0.1452 -0.0425
 3965SOL     OW23527   0.621   3.153  12.594 -0.4214 -0.4377 -0.0842
 3965SOL    HW123528   0.650   3.090  12.660 -0.9972  0.7901  1.3185
 3965SOL    HW223529   0.703   3.202  12.586 -0.4352 -0.6453 -1.5820
 3966SOL     OW23530   2.874   1.198   6.965 -0.1449  0.0425 -0.1869
 3966SOL    HW123531   2.815   1.227   7.035 -0.2009  0.1950 -0.2977
 3966SOL    HW223532   2.952   1.251   6.980 -0.0919 -0.1615  0.2365
 3967SOL     OW23533   1.751   4.319   0.031 -0.4840  0.1677  0.3926
 3967SOL    HW123534   1.821   4.372  17.753 -1.4084  0.7227 -0.5875
 3967SOL    HW223535   1.681   4.341  17.727  1.9796  0.4837 -2.2295
 3968SOL     OW23536   2.479   2.115   0.323 -0.0818 -0.6804 -0.1145
 3968SOL    HW123537   2.504   2.047   0.261  1.0732  1.0774 -1.5610
 3968SOL    HW223538   2.453   2.061   0.398  2.1416  2.0693  2.6338
 3969SOL     OW23539   0.221   0.078   3.637 -0.4816  0.4153  0.1545
 3969SOL    HW123540   0.205   0.002   3.692 -3.0907  0.5714 -0.3965
 3969SOL    HW223541   0.251   0.138   3.706  1.6075 -0.2777 -0.1446
 3970SOL     OW23542   2.845   3.984   5.845  0.1345  0.5332 -0.0638
 3970SOL    HW123543   2.927   3.940   5.868 -1.4522 -2.6663 -0.6089
 3970SOL    HW223544   2.812   4.007   5.932  0.5487  0.5712  0.0856
 3971SOL     OW23545   2.062   0.260   5.242 -0.4859  0.6588  0.1187
 3971SOL    HW123546   2.145   0.237   5.199  0.3744  0.2384  1.9965
 3971SOL    HW223547   2.011   0.180   5.259 -1.4462  0.5695 -3.1515
 3972SOL     OW23548   1.154   2.545  10.071 -0.5454  0.2175 -0.3539
 3972SOL    HW123549   1.205   2.552   9.990  0.7712 -1.2295  0.3506
 3972SOL    HW223550   1.220   2.511  10.131  0.1291 -0.5378 -1.5267
 3973SOL     OW23551   0.602   1.733   7.214 -0.2048 -0.0164  0.8416
 3973SOL    HW123552   0.675   1.702   7.269  0.1163 -2.7611 -1.1139
 3973SOL    HW223553   0.559   1.796   7.271 -0.9665  1.1539 -1.0299
 3974SOL     OW23554   3.834   4.351   3.270  0.7392 -0.3775 -0.4110
 3974SOL    HW123555   3.857   4.441   3.293 -3.0657  0.4073  0.3568
 3974SOL    HW223556   3.921   4.313   3.268  1.6187  1.6733 -2.0884
 3975SOL     OW23557   3.397   4.448   2.886 -0.1815  0.3527  0.0462
 3975SOL    HW123558   3.321   4.459   2.943  0.3579 -0.0412  0.8295
 3975SOL    HW223559   3.454   4.395   2.941 -1.1603 -1.1436 -0.3664
 3976SOL     OW23560   4.424   0.980   3.111  0.5528 -0.1736  0.1054
 3976SOL    HW123561   4.362   0.956   3.180 -0.8431 -0.2836 -1.1816
 3976SOL    HW223562   4.369   1.040   3.061  1.7004  0.2853 -0.6042
 3977SOL     OW23563   1.155   1.040   9.337  0.8538  0.0563  0.3493
 3977SOL    HW123564   1.162   1.033   9.242  2.5736 -4.0919  0.7540
 3977SOL    HW223565   1.235   0.993   9.364 -0.9584 -1.3478  3.3178
 3978SOL     OW23566   0.691   4.156   6.238  0.0311  0.1335  0.0516
 3978SOL    HW123567   0.785   4.146   6.246 -0.1216 -2.8240 -1.8000
 3978SOL    HW223568   0.660   4.081   6.289  1.5863 -0.6037 -0.1102
 3979SOL     OW23569   4.359   0.867   4.302 -0.0376  0.5220  0.2997
 3979SOL    HW123570   4.340   0.775   4.322 -1.6988  0.9800  0.8482
 3979SOL    HW223571   4.439   0.856   4.252 -0.2015 -1.0110  0.3698
 3980SOL     OW23572   1.425   3.339   4.759 -0.7623  0.0474 -0.0230
 3980SOL    HW123573   1.398   3.431   4.769 -0.8467 -0.0034  0.2198
 3980SOL    HW223574   1.453   3.310   4.846 -1.6808  0.3622  0.3813
 3981SOL     OW23575   2.315   0.153   4.887  0.0063  0.1791  0.0979
 3981SOL    HW123576   2.348   0.070   4.854  3.1217  0.9574  1.2698
 3981SOL    HW223577   2.336   0.205   4.809  0.3772 -0.9686 -0.5607
 3982SOL     OW23578   3.337   2.863   6.903  0.0619  0.1882  0.5874
 3982SOL    HW123579   3.351   2.769   6.890 -1.2169  0.1917 -0.8321
 3982SOL    HW223580   3.243   2.876   6.891  0.5278  2.1886 -0.8540
 3983SOL     OW23581   2.176   1.096   9.245 -0.3887 -0.1767  0.6058
 3983SOL    HW123582   2.179   1.077   9.339  0.1689 -1.1805  0.3904
 3983SOL    HW223583   2.251   1.155   9.236  0.8866 -1.8089  0.5264
 3984SOL     OW23584   3.028   3.417   2.901  0.1864  0.2129  0.4221
 3984SOL    HW123585   3.088   3.389   2.832  1.1738  1.0847  0.9208
 3984SOL    HW223586   3.048   3.511   2.898 -0.8727  0.4078 -0.4221
 3985SOL     OW23587   1.314   0.492   6.207 -0.1523 -0.1306  0.2796
 3985SOL    HW123588   1.334   0.585   6.216 -3.1151  0.2922  2.4705
 3985SOL    HW223589   1.342   0.467   6.119  0.9737  0.4279  0.4768
 3986SOL     OW23590   0.340   0.451   9.898 -0.0514  0.5033  0.3995
 3986SOL    HW123591   0.419   0.454   9.953  0.4180  0.6616 -0.2857
 3986SOL    HW223592   0.278   0.415   9.961  1.2709 -0.5545  1.1204
 3987SOL     OW23593   0.203   2.889  16.877  0.3088  0.9507 -0.4278
 3987SOL    HW123594   0.193   2.887  16.972 -0.0466 -0.8436 -0.5080
 3987SOL    HW223595   0.293   2.856  16.868  0.2682  1.3326 -2.2605
 3988SOL     OW23596   2.651   0.114   0.546  0.5258  0.1356 -0.0744
 3988SOL    HW123597   2.653   0.075   0.458 -1.4966  0.1741 -0.1371
 3988SOL    HW223598   2.695   0.196   0.524 -1.3530  1.6416  1.8442
 3989SOL     OW23599   4.566   0.297   3.702 -0.0205 -0.4105  0.4139
 3989SOL    HW123600   4.634   0.254   3.754  2.6463  1.8471 -1.1864
 3989SOL    HW223601   4.535   0.368   3.759 -0.0290  1.5430 -1.9942
 3990SOL     OW23602   1.257   4.005   6.704  0.3213 -0.3502  0.2299
 3990SOL    HW123603   1.264   4.091   6.746  0.7877 -0.0234 -0.5178
 3990SOL    HW223604   1.164   4.000   6.683 -0.1375  0.9039  1.9135
 3991SOL     OW23605   3.031   2.254   4.071 -0.4499 -0.1965  0.3222
 3991SOL    HW123606   3.037   2.164   4.103  1.0640 -0.3042 -0.2437
 3991SOL    HW223607   2.942   2.269   4.039  0.6026 -1.8284 -3.4729
 3992SOL     OW23608   1.789   1.147   8.122  0.1282 -0.2286  0.0441
 3992SOL    HW123609   1.733   1.080   8.082 -0.7570 -0.5857  1.8991
 3992SOL    HW223610   1.773   1.136   8.215 -1.1722  0.9091 -0.0445
 3993SOL     OW23611   4.671   1.332  11.826 -0.0311 -1.2657  0.2408
 3993SOL    HW123612   4.603   1.308  11.889  0.0782  1.5366  1.4375
 3993SOL    HW223613   4.628   1.301  11.746 -1.6119 -2.1501  1.4462
 3994SOL     OW23614   3.488   1.670  10.695 -0.2789 -0.1413 -0.1812
 3994SOL    HW123615   3.405   1.644  10.736 -0.3561 -2.7180 -1.9825
 3994SOL    HW223616   3.449   1.719  10.623  0.7715  1.1460  0.1269
 3995SOL     OW23617   2.632   1.178   2.754  0.5906  0.4969  0.4102
 3995SOL    HW123618   2.622   1.148   2.845 -1.5205 -0.7083 -0.1899
 3995SOL    HW223619   2.720   1.144   2.739  1.2043  1.3137  2.2735
 3996SOL     OW23620   3.413   2.245   8.437  0.3560  0.0248  0.6490
 3996SOL    HW123621   3.393   2.253   8.343 -1.1595  2.7219  1.1791
 3996SOL    HW223622   3.508   2.244   8.431  0.2709  0.0524 -0.9353
 3997SOL     OW23623   2.245   0.733   3.195 -0.0167  0.1761 -0.0182
 3997SOL    HW123624   2.324   0.781   3.217 -0.2378  0.9330 -0.8775
 3997SOL    HW223625   2.256   0.642   3.222 -1.3118 -0.4409 -1.5348
 3998SOL     OW23626   2.323   0.157   8.416  0.0273  0.2242 -0.3279
 3998SOL    HW123627   2.237   0.147   8.375 -0.1792  3.4962 -0.7452
 3998SOL    HW223628   2.369   0.074   8.412  0.2518  0.3620 -0.6120
 3999SOL     OW23629   0.956   2.399   6.517 -0.6318 -0.6827 -0.1336
 3999SOL    HW123630   0.963   2.347   6.597 -0.9711 -0.3451  0.1168
 3999SOL    HW223631   0.897   2.352   6.458  1.7774 -0.2998 -2.8265
 4000SOL     OW23632   3.761   4.516   3.897 -0.1127 -0.1016  0.2081
 4000SOL    HW123633   3.849   4.498   3.929 -0.0501 -0.6526 -0.2467
 4000SOL    HW223634   3.739   4.439   3.843  1.3187 -0.1685 -0.2886
 4001SOL     OW23635   1.578   2.691   8.713 -0.2954  0.0799  0.2476
 4001SOL    HW123636   1.540   2.621   8.766 -0.0955 -0.2628 -0.0619
 4001SOL    HW223637   1.495   2.738   8.702 -1.0064 -1.8843 -2.6500
 4002SOL     OW23638   0.149   0.789   0.717 -0.5165  0.1150 -0.0158
 4002SOL    HW123639   0.139   0.696   0.700  1.5037 -0.4517  1.9634
 4002SOL    HW223640   0.057   0.809   0.735 -1.1735 -2.0737 -0.9087
 4003SOL     OW23641   4.555   3.919  12.080  1.1003 -0.5593  0.2808
 4003SOL    HW123642   4.535   3.952  12.168 -0.9615 -0.8355 -0.0943
 4003SOL    HW223643   4.464   3.914  12.050  1.5721 -1.4014 -1.0205
 4004SOL     OW23644   4.068   2.617   2.730 -0.0013 -0.0819 -0.2097
 4004SOL    HW123645   3.978   2.586   2.741 -0.5453  0.8924 -2.0489
 4004SOL    HW223646   4.060   2.712   2.732 -0.1151 -0.1351  1.9198
 4005SOL     OW23647   1.044   0.357   6.162 -0.1776  0.1714 -0.1185
 4005SOL    HW123648   1.129   0.394   6.139  0.6443 -2.4496 -1.2658
 4005SOL    HW223649   0.994   0.431   6.196  0.2001  0.1548  0.4628
 4006SOL     OW23650   1.436   1.573  15.997  0.2434  0.2865 -0.0824
 4006SOL    HW123651   1.421   1.581  16.091  1.1911  3.1438 -0.1571
 4006SOL    HW223652   1.498   1.642  15.972 -1.1459  1.5060 -0.1991
 4007SOL     OW23653   2.478   0.850   3.278 -0.5477  0.1235  0.0735
 4007SOL    HW123654   2.536   0.781   3.309 -1.8460 -0.0448  2.1352
 4007SOL    HW223655   2.539   0.917   3.249 -2.0982  2.2816  1.7438
 4008SOL     OW23656   2.087   3.212   4.386  0.2914 -0.0825  0.5727
 4008SOL    HW123657   2.134   3.282   4.431 -0.7329 -0.2650  1.9513
 4008SOL    HW223658   2.155   3.187   4.324  0.5236 -1.6156  1.4390
 4009SOL     OW23659   3.280   1.648   4.214  0.2441  0.0551  0.3908
 4009SOL    HW123660   3.353   1.694   4.174 -0.5847  0.5879 -0.5138
 4009SOL    HW223661   3.223   1.638   4.138 -0.3103  1.9318  0.5573
 4010SOL     OW23662   2.001   2.466   6.756  0.0812  0.1330 -0.6579
 4010SOL    HW123663   2.031   2.522   6.684 -1.0635  0.8122 -0.6055
 4010SOL    HW223664   2.085   2.456   6.802 -0.7342 -3.7703 -0.0269
 4011SOL     OW23665   3.108   1.742  13.880  0.1611  0.1460  0.2079
 4011SOL    HW123666   3.160   1.818  13.908  0.2014 -0.0960  0.7769
 4011SOL    HW223667   3.040   1.782  13.825  0.0975  0.4956  0.5379
 4012SOL     OW23668   0.338   1.489   8.318 -0.3207  0.3008  0.0402
 4012SOL    HW123669   0.292   1.555   8.369  0.8457  0.4462  0.9040
 4012SOL    HW223670   0.279   1.464   8.247 -0.3075 -0.5967  0.3382
 4013SOL     OW23671   3.985   0.995   9.069  0.0740  0.1708 -0.1118
 4013SOL    HW123672   4.021   1.031   8.988 -1.3262 -0.5563 -1.0466
 4013SOL    HW223673   3.894   1.025   9.068 -0.2903 -0.8181  3.4000
 4014SOL     OW23674   4.301   3.066   1.073 -0.3490 -0.5474  0.2967
 4014SOL    HW123675   4.306   3.069   0.977  0.1447  0.3440  0.3483
 4014SOL    HW223676   4.237   2.998   1.091 -0.8366 -0.6922 -1.9668
 4015SOL     OW23677   3.438   1.588   5.319  0.0971 -0.1441 -0.2546
 4015SOL    HW123678   3.442   1.526   5.246  1.3357  1.0287 -1.1694
 4015SOL    HW223679   3.455   1.674   5.280  0.3892  0.4359  1.1382
 4016SOL     OW23680   1.026   1.850  13.828 -0.0829 -0.4404  0.4273
 4016SOL    HW123681   1.009   1.940  13.856 -3.6740 -0.7565 -0.7367
 4016SOL    HW223682   0.940   1.812  13.808 -1.1594  1.5949  1.2167
 4017SOL     OW23683   2.728   0.568   5.729  0.5409  0.3042 -0.5711
 4017SOL    HW123684   2.811   0.543   5.689  0.5853 -0.5768  0.0842
 4017SOL    HW223685   2.751   0.559   5.822  0.6783 -1.4929 -0.7858
 4018SOL     OW23686   1.786   0.857   4.689 -0.2288 -0.1655 -0.7879
 4018SOL    HW123687   1.695   0.867   4.662 -0.6467  2.0074  1.4280
 4018SOL    HW223688   1.800   0.771   4.649  0.3181  0.0292 -1.0164
 4019SOL     OW23689   3.550   1.375   2.949 -0.0934  0.1514 -0.1449
 4019SOL    HW123690   3.508   1.291   2.968  1.0529 -0.0882  1.3098
 4019SOL    HW223691   3.511   1.432   3.016 -1.3675 -1.3600  0.3905
 4020SOL     OW23692   3.946   2.282   7.230 -0.3919  0.1024 -0.0369
 4020SOL    HW123693   3.981   2.238   7.307 -0.9151  1.4685  0.9916
 4020SOL    HW223694   3.864   2.318   7.263 -0.8130 -2.0313  1.2469
 4021SOL     OW23695   0.328   0.501   0.713 -0.0775  0.0338  0.4230
 4021SOL    HW123696   0.236   0.475   0.707 -0.0274  0.1327 -0.9669
 4021SOL    HW223697   0.355   0.476   0.625 -0.2991  2.3152 -0.3099
 4022SOL     OW23698   1.781   0.497   6.702  0.4008 -0.0537  0.2419
 4022SOL    HW123699   1.777   0.446   6.621 -1.4676  1.2741 -0.4898
 4022SOL    HW223700   1.867   0.537   6.689  0.1723  0.5051  0.4572
 4023SOL     OW23701   0.964   3.737   0.356  0.6050  0.6934  0.8812
 4023SOL    HW123702   0.977   3.809   0.418 -0.6932  1.4425  0.2909
 4023SOL    HW223703   1.019   3.767   0.284 -0.3229  1.1085  0.3595
 4024SOL     OW23704   2.808   2.577   5.280 -0.5970  0.2934 -0.3261
 4024SOL    HW123705   2.815   2.489   5.244  3.4214  0.4492  0.1672
 4024SOL    HW223706   2.876   2.618   5.226  0.4700  0.4427  1.1619
 4025SOL     OW23707   3.074   1.861   0.898 -0.5975  0.0032 -0.4142
 4025SOL    HW123708   3.062   1.766   0.897  0.2620 -0.1281  2.3090
 4025SOL    HW223709   3.043   1.883   0.810  0.1683 -0.8010 -0.8899
 4026SOL     OW23710   2.406   0.014   1.544  0.7851  0.5326  0.7397
 4026SOL    HW123711   2.405   0.099   1.501  2.8492  1.0469  1.7427
 4026SOL    HW223712   2.351   0.045   1.616  0.3443 -1.7854  1.4301
 4027SOL     OW23713   4.445   2.391   4.661  0.1822  0.2291 -0.0245
 4027SOL    HW123714   4.445   2.448   4.738  1.4550 -0.3052  0.3633
 4027SOL    HW223715   4.527   2.409   4.615 -0.3166  3.1097  0.1856
 4028SOL     OW23716   1.967   0.291   6.851 -0.0980 -0.2542 -0.1629
 4028SOL    HW123717   1.953   0.205   6.812 -0.9791 -1.3179  2.5348
 4028SOL    HW223718   1.921   0.351   6.792 -1.0369  0.8460  1.6756
 4029SOL     OW23719   0.362   0.859   7.106 -0.1124  0.1602  0.3695
 4029SOL    HW123720   0.308   0.835   7.181 -0.9844  2.6850  0.5486
 4029SOL    HW223721   0.306   0.914   7.051 -2.1232 -1.2137  1.0680
 4030SOL     OW23722   2.238   3.093   4.929 -0.0686  0.1264 -0.0667
 4030SOL    HW123723   2.284   3.176   4.922  1.0513 -0.5906 -1.2038
 4030SOL    HW223724   2.168   3.097   4.864  1.3085 -1.4279 -1.6400
 4031SOL     OW23725   3.886   4.654   7.516 -0.0236  0.2335 -0.0162
 4031SOL    HW123726   3.902   4.719   7.585 -1.8467  0.1997  0.4367
 4031SOL    HW223727   3.821   4.687   7.454  0.8320  0.4164 -0.8219
 4032SOL     OW23728   2.319   2.211   3.573  0.3135  0.2207  0.1529
 4032SOL    HW123729   2.316   2.306   3.566  0.5816  0.1196 -1.3728
 4032SOL    HW223730   2.372   2.186   3.497 -1.1001 -0.1978 -0.7086
 4033SOL     OW23731   0.579   2.376  13.128 -0.6071  0.2651  0.1792
 4033SOL    HW123732   0.566   2.438  13.201 -1.3336  0.8812 -0.4836
 4033SOL    HW223733   0.664   2.334  13.144  1.6422  3.9712 -1.8790
 4034SOL     OW23734   0.641   0.848   3.973 -0.5718  0.4591  0.4493
 4034SOL    HW123735   0.654   0.898   3.893 -0.3996 -1.7117 -0.8819
 4034SOL    HW223736   0.678   0.764   3.946 -0.5005  0.3813  0.7915
 4035SOL     OW23737   1.970   2.940   6.234  0.1340  0.1365  0.6082
 4035SOL    HW123738   1.889   2.893   6.215  0.1561  0.5061 -0.4051
 4035SOL    HW223739   2.006   2.960   6.147 -0.6301 -1.8972 -0.1806
 4036SOL     OW23740   0.502   2.661   3.103 -0.1463 -0.4908 -0.1934
 4036SOL    HW123741   0.485   2.615   3.021  1.7043 -0.4360 -0.6099
 4036SOL    HW223742   0.422   2.714   3.107 -0.5576 -1.1868  0.7276
 4037SOL     OW23743   3.636   3.732   8.352 -0.2421  0.1079 -0.3056
 4037SOL    HW123744   3.716   3.781   8.370 -1.4670  2.2369 -0.6476
 4037SOL    HW223745   3.573   3.793   8.392  2.6362  1.9765  1.3607
 4038SOL     OW23746   1.858   3.448  13.276  0.2928  0.0700  0.5618
 4038SOL    HW123747   1.776   3.454  13.227  1.3827  2.9369 -0.9059
 4038SOL    HW223748   1.863   3.354  13.291  1.5644 -0.0738 -0.8107
 4039SOL     OW23749   4.068   1.027   6.576  0.2766  0.0111 -0.7889
 4039SOL    HW123750   4.141   1.042   6.637  2.2039 -2.1413 -2.5362
 4039SOL    HW223751   4.077   0.946   6.527 -0.4998 -0.0815 -0.7726
 4040SOL     OW23752   0.497   2.716   3.668 -0.9487 -0.2808 -0.0343
 4040SOL    HW123753   0.578   2.665   3.678 -2.3656 -1.8755  3.5264
 4040SOL    HW223754   0.496   2.715   3.573 -0.9060 -2.5702 -0.0178
 4041SOL     OW23755   3.179   0.760   7.825  0.1402  0.4924 -0.3993
 4041SOL    HW123756   3.154   0.848   7.853 -2.6572 -0.4344 -0.0416
 4041SOL    HW223757   3.107   0.706   7.857 -0.4673  1.4279 -0.2058
 4042SOL     OW23758   0.941   2.282   2.594  0.1747 -0.0234  0.1265
 4042SOL    HW123759   0.954   2.215   2.528 -1.2148 -0.2300  0.0725
 4042SOL    HW223760   0.932   2.355   2.533 -0.0925  0.2510  0.4937
 4043SOL     OW23761   3.512   3.898   4.750  0.1920 -0.3834 -0.2346
 4043SOL    HW123762   3.452   3.879   4.822  1.5635 -2.8801  0.2740
 4043SOL    HW223763   3.592   3.860   4.788  0.3063 -1.8783 -1.9671
 4044SOL     OW23764   2.948   4.493   6.037 -0.2344 -0.0340  0.2393
 4044SOL    HW123765   2.889   4.436   6.087 -0.6969 -0.2153 -0.4991
 4044SOL    HW223766   3.036   4.465   6.058 -0.3355 -0.7655 -0.3068
 4045SOL     OW23767   1.386   2.150   0.963  0.2829  0.3602  0.1013
 4045SOL    HW123768   1.443   2.180   0.892  0.5343 -1.7415 -0.5724
 4045SOL    HW223769   1.415   2.061   0.982 -1.6292 -0.8263 -2.6496
 4046SOL     OW23770   0.690   1.178   9.725 -0.3791 -0.3380  0.4942
 4046SOL    HW123771   0.679   1.189   9.631  0.8973 -0.6330  0.3208
 4046SOL    HW223772   0.763   1.119   9.739 -1.5558 -1.7654  0.6786
 4047SOL     OW23773   3.515   3.153   6.011 -0.5340  0.4391 -0.2680
 4047SOL    HW123774   3.573   3.079   6.030 -1.5714  0.0973  1.6113
 4047SOL    HW223775   3.474   3.175   6.095  1.4340  1.7576  0.3458
 4048SOL     OW23776   2.579   3.927   9.506 -0.3381 -1.2283 -0.2436
 4048SOL    HW123777   2.606   4.018   9.518  1.2553 -1.6947 -0.2978
 4048SOL    HW223778   2.665   3.885   9.507  0.9196  1.3640  0.5954
 4049SOL     OW23779   4.671   1.189   4.254 -0.1906 -0.0697  0.3207
 4049SOL    HW123780   4.642   1.237   4.177 -1.3225 -0.0266  0.7706
 4049SOL    HW223781   0.021   1.167   4.233  0.0560 -0.2104  1.5307
 4050SOL     OW23782   1.208   1.232   0.911 -0.1569  0.5732 -0.0659
 4050SOL    HW123783   1.228   1.147   0.872  0.8739  1.2722 -1.0338
 4050SOL    HW223784   1.298   1.257   0.932  0.2474  0.7800 -2.0314
 4051SOL     OW23785   2.961   1.012   5.061  0.9898 -0.0436 -1.0277
 4051SOL    HW123786   2.865   1.016   5.050  1.0702  0.8927 -1.3229
 4051SOL    HW223787   2.991   0.987   4.973  0.6654 -3.4956 -0.1569
 4052SOL     OW23788   4.637   4.489   7.960 -0.2455  0.3742 -0.0357
 4052SOL    HW123789   4.687   4.408   7.965  0.1143  0.6883  1.5308
 4052SOL    HW223790   4.547   4.456   7.971 -1.9301  3.1634 -5.6103
 4053SOL     OW23791   2.842   3.140   0.752  0.2423 -0.2038 -0.0573
 4053SOL    HW123792   2.829   3.059   0.801  0.1070 -0.7066 -0.9405
 4053SOL    HW223793   2.936   3.147   0.768  0.1093 -1.3854  1.2831
 4054SOL     OW23794   1.549   3.681   3.980  0.4041  0.1878  0.3255
 4054SOL    HW123795   1.482   3.624   4.017  1.3352  0.6609  2.7207
 4054SOL    HW223796   1.623   3.664   4.038 -1.1717 -1.9904  1.6866
 4055SOL     OW23797   2.046   2.264  12.262 -0.5140  0.5730  0.0263
 4055SOL    HW123798   2.122   2.229  12.215 -1.1963 -0.1681 -0.5146
 4055SOL    HW223799   2.038   2.187  12.318  0.9853 -0.2316 -0.8511
 4056SOL     OW23800   0.062   1.239   7.688  0.7363 -0.0684 -0.2365
 4056SOL    HW123801   0.076   1.179   7.615 -1.8084 -1.5105  0.4334
 4056SOL    HW223802   4.732   1.293   7.653  1.6551 -0.3259 -2.4943
 4057SOL     OW23803   2.661   1.076   8.401  0.3916  0.0502 -0.0580
 4057SOL    HW123804   2.737   1.044   8.451 -0.3568 -0.8472  0.5079
 4057SOL    HW223805   2.700   1.106   8.319 -0.7772  0.6858 -0.3839
 4058SOL     OW23806   1.709   0.543   4.321  0.2789 -0.4323  0.2829
 4058SOL    HW123807   1.731   0.459   4.279  1.7073  1.1856 -2.1717
 4058SOL    HW223808   1.734   0.608   4.255  0.3350 -1.1895 -0.4448
 4059SOL     OW23809   3.548   0.845  12.619 -0.1355  0.5166  0.3718
 4059SOL    HW123810   3.477   0.827  12.557  0.2104  0.9365 -0.1504
 4059SOL    HW223811   3.619   0.879  12.564  0.9637  0.5017  1.8029
 4060SOL     OW23812   3.266   3.124   9.330  0.2946 -0.0275 -0.0740
 4060SOL    HW123813   3.333   3.184   9.297  1.6795 -1.4197  0.2319
 4060SOL    HW223814   3.311   3.040   9.321  0.5243  0.1304 -0.3964
 4061SOL     OW23815   4.376   1.195   7.003 -0.2882 -0.1930 -0.4075
 4061SOL    HW123816   4.349   1.130   7.067 -2.1825  0.9994  0.0056
 4061SOL    HW223817   4.372   1.276   7.053 -0.2832 -1.0294  0.9344
 4062SOL     OW23818   2.873   0.702  14.920  0.7735  0.1582 -0.4165
 4062SOL    HW123819   2.836   0.761  14.985  0.5045 -1.2941  0.7561
 4062SOL    HW223820   2.963   0.733  14.913  0.7349 -0.0017 -1.6219
 4063SOL     OW23821   0.851   1.574   6.026  0.0364 -0.2302 -0.2989
 4063SOL    HW123822   0.877   1.586   5.934  0.2656  1.3189 -0.0289
 4063SOL    HW223823   0.764   1.613   6.017  0.1178 -0.3900 -1.8197
 4064SOL     OW23824   3.687   3.575   7.957 -0.4749 -0.3767  0.0267
 4064SOL    HW123825   3.628   3.614   7.893 -0.7204  0.5547  0.8140
 4064SOL    HW223826   3.667   3.482   7.944  0.4923 -0.7582  1.2232
 4065SOL     OW23827   1.349   0.335  12.276  0.3701  0.4499 -0.1148
 4065SOL    HW123828   1.322   0.421  12.309  1.6832  0.0516  1.9825
 4065SOL    HW223829   1.284   0.326  12.207 -1.3765 -1.0346  1.7436
 4066SOL     OW23830   1.732   4.489   3.072  0.5804  0.4799  0.2130
 4066SOL    HW123831   1.722   4.409   3.123  3.1343 -0.0773 -0.1606
 4066SOL    HW223832   1.728   4.451   2.984  3.8360 -0.8349  0.6407
 4067SOL     OW23833   2.503   2.754  10.381 -0.0815 -0.1035 -0.5248
 4067SOL    HW123834   2.425   2.726  10.428  1.0672 -0.9481  0.8579
 4067SOL    HW223835   2.470   2.842  10.360  0.1806  0.1000 -0.0855
 4068SOL     OW23836   0.986   2.396  13.673  0.1111 -0.0327  0.3725
 4068SOL    HW123837   0.941   2.455  13.613  3.5212  0.5070 -1.7147
 4068SOL    HW223838   1.067   2.397  13.622  0.7122  0.4307  1.3377
 4069SOL     OW23839   4.194   1.362   3.410 -0.2398  0.2835  0.2458
 4069SOL    HW123840   4.235   1.327   3.330  2.3001  0.5552  1.4301
 4069SOL    HW223841   4.216   1.455   3.404  2.0366 -0.1949  1.0823
 4070SOL     OW23842   3.521   2.280   5.762 -0.3901  0.4917 -0.0444
 4070SOL    HW123843   3.566   2.258   5.681 -2.3743  2.8180 -1.7603
 4070SOL    HW223844   3.594   2.275   5.824 -0.0944 -0.2579 -0.4641
 4071SOL     OW23845   3.823   0.820   4.627  0.4532  0.0846 -0.3803
 4071SOL    HW123846   3.848   0.857   4.542  1.7189  0.9322  0.3833
 4071SOL    HW223847   3.752   0.761   4.601 -0.7235  1.3685 -0.0797
 4072SOL     OW23848   4.608   1.264   1.333 -0.3585  0.2159 -0.3376
 4072SOL    HW123849   4.550   1.322   1.283 -1.3452 -0.2618  0.2571
 4072SOL    HW223850   4.592   1.174   1.306 -2.2388 -0.0188  1.5828
 4073SOL     OW23851   3.987   0.948  15.849 -0.3621 -0.0313 -0.4306
 4073SOL    HW123852   4.070   0.908  15.875  0.0415  1.7031  0.9659
 4073SOL    HW223853   4.016   1.035  15.820 -2.1733 -0.0523 -2.3263
 4074SOL     OW23854   1.309   0.298  14.037  0.0583  0.2031  0.4822
 4074SOL    HW123855   1.346   0.221  14.081 -0.3518 -0.0617  0.3753
 4074SOL    HW223856   1.224   0.310  14.079  1.3362  0.9564  2.8215
 4075SOL     OW23857   3.528   3.912   4.079 -0.6613  0.0972 -0.2819
 4075SOL    HW123858   3.549   3.985   4.137  1.6501  0.1853 -1.2133
 4075SOL    HW223859   3.458   3.955   4.031 -0.1399  0.1031 -1.0423
 4076SOL     OW23860   0.562   1.732   8.495  0.1031 -0.1078 -0.5073
 4076SOL    HW123861   0.652   1.745   8.522 -0.0926  0.7029 -0.2297
 4076SOL    HW223862   0.531   1.666   8.557  0.4705  0.9217  0.7886
 4077SOL     OW23863   3.340   3.376   4.703  0.3122 -0.4734  0.0726
 4077SOL    HW123864   3.357   3.311   4.635 -0.7786 -0.8752  0.1936
 4077SOL    HW223865   3.419   3.429   4.692 -1.2425  1.2824 -2.6774
 4078SOL     OW23866   4.240   4.292   7.428 -0.1292 -0.3951  0.4458
 4078SOL    HW123867   4.214   4.241   7.504  0.1203  0.3231  1.0062
 4078SOL    HW223868   4.235   4.373   7.477  1.1314  1.6610 -2.7983
 4079SOL     OW23869   2.413   0.900   5.894  0.4006 -0.7144 -0.2879
 4079SOL    HW123870   2.418   0.990   5.924  0.0288 -0.8009  0.0451
 4079SOL    HW223871   2.492   0.893   5.841  0.6865 -2.4335  0.3553
 4080SOL     OW23872   2.277   2.986   4.504 -0.1899 -0.2094 -0.4916
 4080SOL    HW123873   2.224   2.920   4.549 -0.1045 -1.5540 -2.3681
 4080SOL    HW223874   2.355   2.990   4.558  1.1643  0.0080 -2.4480
 4081SOL     OW23875   1.721   2.454  16.737 -0.1251  0.1327 -0.0221
 4081SOL    HW123876   1.756   2.489  16.655  0.5319  0.6868  0.4978
 4081SOL    HW223877   1.789   2.466  16.804  0.4788  1.4495 -0.8702
 4082SOL     OW23878   4.334   4.444  12.946  0.1530 -0.2671 -0.1095
 4082SOL    HW123879   4.240   4.458  12.945  0.3667  1.5726  3.0631
 4082SOL    HW223880   4.348   4.502  13.021  0.0855 -0.0075 -0.2973
 4083SOL     OW23881   1.212   3.982  13.481  0.5734  0.6875  0.1810
 4083SOL    HW123882   1.136   4.004  13.535  0.6545  1.5674 -0.0532
 4083SOL    HW223883   1.249   4.069  13.463  0.5388  0.9935  1.5471
 4084SOL     OW23884   1.334   3.995   6.248  0.0055  0.3674 -0.0094
 4084SOL    HW123885   1.342   4.055   6.322 -1.9603  1.2311 -0.5036
 4084SOL    HW223886   1.336   3.915   6.301 -0.2139 -0.0583 -0.6441
 4085SOL     OW23887   4.467   0.560   0.686 -0.2516 -0.2918 -0.3125
 4085SOL    HW123888   4.394   0.512   0.725  0.1187 -0.2521  0.4373
 4085SOL    HW223889   4.468   0.521   0.598 -2.5551  1.4097 -1.0957
 4086SOL     OW23890   4.041   2.461   1.986  0.1688 -0.1799 -0.1107
 4086SOL    HW123891   4.111   2.401   2.010  0.3010  0.3910  0.9430
 4086SOL    HW223892   3.964   2.407   2.003  0.6421 -0.3738  1.4317
 4087SOL     OW23893   2.578   1.530  16.733  0.1064  0.6056  0.1232
 4087SOL    HW123894   2.595   1.451  16.681  1.0949  0.6807  0.3239
 4087SOL    HW223895   2.646   1.589  16.700  1.4914 -1.3784 -0.6264
 4088SOL     OW23896   2.258   2.531   9.975  0.2037  0.3219  0.4997
 4088SOL    HW123897   2.265   2.600  10.040  0.5741 -0.4557  1.2876
 4088SOL    HW223898   2.305   2.459  10.019 -0.8519 -1.2618 -0.9422
 4089SOL     OW23899   0.287   3.709   7.552 -0.7946 -0.2585  0.3341
 4089SOL    HW123900   0.248   3.792   7.578  1.8816  0.3470  2.4793
 4089SOL    HW223901   0.320   3.684   7.638 -1.6911 -0.2578  0.6750
 4090SOL     OW23902   1.761   0.492   6.987 -0.2258 -0.5292  0.4125
 4090SOL    HW123903   1.688   0.547   6.960  2.6387  2.5854 -0.9222
 4090SOL    HW223904   1.773   0.448   6.903  1.4109 -0.3578  0.5432
 4091SOL     OW23905   4.133   0.969  17.123  0.0823 -0.4129  0.1632
 4091SOL    HW123906   4.132   0.880  17.087 -0.8305 -0.5820  0.5900
 4091SOL    HW223907   4.124   1.014  17.039  2.4264 -0.3786 -0.0497
 4092SOL     OW23908   2.686   2.894   8.781  0.2130 -0.2737 -0.1954
 4092SOL    HW123909   2.740   2.932   8.850 -0.8967 -0.6274  0.8630
 4092SOL    HW223910   2.623   2.833   8.819  1.7903 -1.3045  0.7536
 4093SOL     OW23911   0.950   3.858   1.085 -0.1082  1.0109  0.4481
 4093SOL    HW123912   0.972   3.765   1.075  1.0977  1.3013  0.3908
 4093SOL    HW223913   0.922   3.872   0.994 -0.4554 -0.7812  0.2723
 4094SOL     OW23914   2.457   1.668   0.022 -0.4191 -0.1017 -0.0762
 4094SOL    HW123915   2.516   1.611  17.732 -0.2520  0.6365 -0.7551
 4094SOL    HW223916   2.414   1.708  17.704  0.7824  2.2937  0.4943
 4095SOL     OW23917   0.770   2.785   4.202 -0.3802  0.4477  0.3696
 4095SOL    HW123918   0.723   2.857   4.242 -1.7815  0.0936 -0.6363
 4095SOL    HW223919   0.705   2.753   4.139 -0.9705 -4.3950  3.4204
 4096SOL     OW23920   2.695   0.119   4.409  0.1086 -0.8514  0.2747
 4096SOL    HW123921   2.616   0.172   4.400  0.2760 -0.7168 -0.3849
 4096SOL    HW223922   2.749   0.159   4.341 -1.3898 -0.9495 -0.9676
 4097SOL     OW23923   2.956   4.248   4.047 -0.1685  0.0665  0.3123
 4097SOL    HW123924   3.005   4.330   4.049  0.5929 -0.4070  0.8430
 4097SOL    HW223925   2.911   4.254   4.131  2.0941  1.9980  1.3491
 4098SOL     OW23926   1.299   2.604   5.204  0.3229  0.0625  0.5324
 4098SOL    HW123927   1.387   2.607   5.167  0.5996 -0.6553  1.1452
 4098SOL    HW223928   1.318   2.617   5.297 -1.0167 -1.1416  0.9674
 4099SOL     OW23929   0.784   0.928  13.041  0.1720 -0.2776  0.0908
 4099SOL    HW123930   0.748   0.939  13.130  1.1722 -1.6782  0.6602
 4099SOL    HW223931   0.868   0.887  13.061  0.5061  1.0235  1.4409
 4100SOL     OW23932   0.851   4.465   9.637  0.1123  0.8737  0.2875
 4100SOL    HW123933   0.824   4.505   9.719 -2.5775  0.4689 -0.4131
 4100SOL    HW223934   0.794   4.388   9.629  1.2677  0.0630 -0.1478
 4101SOL     OW23935   4.686   2.676   6.862 -0.3383 -0.0712  0.0664
 4101SOL    HW123936   4.614   2.627   6.822 -0.9054  0.1391  0.8174
 4101SOL    HW223937   4.630   2.746   6.894 -1.1653 -0.2004 -1.0991
 4102SOL     OW23938   3.909   2.683   6.102 -0.4452 -0.1259  0.3609
 4102SOL    HW123939   3.930   2.605   6.153 -0.4427 -1.3670 -1.5348
 4102SOL    HW223940   3.823   2.665   6.065  0.6943  0.5852 -2.6422
 4103SOL     OW23941   4.011   3.102   0.936 -0.1930 -0.0162  0.5752
 4103SOL    HW123942   4.088   3.138   0.891 -0.8075 -1.6518 -1.7788
 4103SOL    HW223943   4.054   3.019   0.957  1.2052  0.7783  0.8546
 4104SOL     OW23944   4.498   0.194   1.033  0.3902  0.1966  0.4210
 4104SOL    HW123945   4.438   0.264   1.006  0.2556 -0.1948 -0.3024
 4104SOL    HW223946   4.501   0.143   0.953 -0.0528  0.6528  0.1107
 4105SOL     OW23947   1.533   2.531   3.580  0.0021  0.2649 -0.3756
 4105SOL    HW123948   1.486   2.450   3.600 -1.1470  1.7447  2.8694
 4105SOL    HW223949   1.596   2.506   3.513 -1.6128 -0.3338 -1.6862
 4106SOL     OW23950   0.157   4.691  15.188 -0.7857 -0.0657  0.1855
 4106SOL    HW123951   0.159   0.005  15.109  0.7570 -0.0234  0.2542
 4106SOL    HW223952   0.111   4.611  15.162 -0.4188 -0.2844  0.2138
 4107SOL     OW23953   4.635   3.667   4.924 -0.2963  0.7495  0.4672
 4107SOL    HW123954   4.552   3.620   4.916  0.9463 -0.7341 -3.8058
 4107SOL    HW223955   4.644   3.687   5.017  3.1370  0.2505  0.2356
 4108SOL     OW23956   2.257   2.168   7.085  0.2175  0.0206  0.1308
 4108SOL    HW123957   2.202   2.244   7.100 -1.1167 -1.1131  0.9474
 4108SOL    HW223958   2.333   2.193   7.136  1.2980 -1.9726 -0.4714
 4109SOL     OW23959   1.773   2.683   7.328 -0.0500 -0.1021  0.6108
 4109SOL    HW123960   1.757   2.733   7.249 -3.1551  0.3528  1.5184
 4109SOL    HW223961   1.697   2.706   7.381  0.3561 -0.4697  1.3560
 4110SOL     OW23962   1.154   3.488   4.127  0.3879 -0.0202  0.2894
 4110SOL    HW123963   1.080   3.522   4.176 -0.6789  0.3042 -1.5564
 4110SOL    HW223964   1.117   3.405   4.096 -0.9576  0.7360 -0.0707
 4111SOL     OW23965   1.071   2.655   6.547 -0.3916  0.1942 -0.6503
 4111SOL    HW123966   1.063   2.563   6.524  2.1281  0.2369 -1.7907
 4111SOL    HW223967   1.097   2.693   6.463 -2.0735  0.5504 -1.0070
 4112SOL     OW23968   0.304   3.629  14.687  0.0189  0.3682 -0.1896
 4112SOL    HW123969   0.299   3.605  14.595 -2.6232  0.7788 -0.1475
 4112SOL    HW223970   0.375   3.573  14.720 -0.8244  0.5505  1.9870
 4113SOL     OW23971   4.662   3.840  10.220 -0.0854 -0.0544 -0.4504
 4113SOL    HW123972   4.574   3.877  10.231 -1.2082 -2.9175  0.3394
 4113SOL    HW223973   4.722   3.914  10.229  1.8804 -1.2566 -3.5814
 4114SOL     OW23974   3.411   4.572   4.694  0.2911  0.6174 -0.0358
 4114SOL    HW123975   3.443   4.661   4.683  0.2680  0.5346 -0.7779
 4114SOL    HW223976   3.372   4.561   4.607  0.7346  0.6894 -0.2436
 4115SOL     OW23977   2.753   2.257   4.055  0.0771  0.0614  0.3013
 4115SOL    HW123978   2.730   2.332   4.110 -1.3669 -1.0722  1.2262
 4115SOL    HW223979   2.665   2.223   4.044 -0.3726  2.4529 -3.7395
 4116SOL     OW23980   0.006   1.499   2.055  0.0299  0.6755 -0.2919
 4116SOL    HW123981   4.653   1.511   2.074 -0.3219 -3.1478  0.3245
 4116SOL    HW223982   4.738   1.497   1.960  1.8212  0.5946 -0.4510
 4117SOL     OW23983   0.711   1.469   5.257  0.1817  0.8727 -0.1575
 4117SOL    HW123984   0.633   1.507   5.299  0.0698  1.6947 -1.1101
 4117SOL    HW223985   0.781   1.472   5.322  3.0118  1.3602 -3.2638
 4118SOL     OW23986   4.552   1.837   5.202 -0.2354 -0.3995 -0.0120
 4118SOL    HW123987   4.595   1.779   5.139 -2.5110 -1.1796 -0.8324
 4118SOL    HW223988   4.621   1.902   5.217 -0.1555 -0.0107 -2.1125
 4119SOL     OW23989   4.674   4.097   6.209  0.2571 -1.1996  0.4546
 4119SOL    HW123990   4.596   4.045   6.228 -0.2079 -1.0838 -1.1148
 4119SOL    HW223991   4.684   4.129   6.299  0.0094 -1.0649  0.4365
 4120SOL     OW23992   1.163   2.990  12.928  0.2131  0.1184  0.3558
 4120SOL    HW123993   1.240   2.933  12.922  2.0454  2.8365 -1.5918
 4120SOL    HW223994   1.096   2.949  12.984  1.2990 -0.1195  1.4942
 4121SOL     OW23995   0.958   3.643  14.123  0.1804  0.5198  0.1552
 4121SOL    HW123996   0.882   3.592  14.097  0.1807 -0.1561  1.4702
 4121SOL    HW223997   0.918   3.726  14.145 -0.5193  0.2570 -0.1405
 4122SOL     OW23998   3.313   4.228   6.018  0.3111 -0.5501 -0.5002
 4122SOL    HW123999   3.258   4.160   5.979  0.3171 -0.0532 -1.3523
 4122SOL    HW224000   3.353   4.270   5.943  2.6551  0.7974  1.5298
 4123SOL     OW24001   3.568   1.870  12.394 -0.0229 -0.0147  0.0381
 4123SOL    HW124002   3.522   1.794  12.358 -0.9833 -0.0158  1.2609
 4123SOL    HW224003   3.659   1.843  12.402  0.0150  0.7677  2.0747
 4124SOL     OW24004   4.658   1.019   8.785 -0.2465 -0.5686  0.2411
 4124SOL    HW124005   0.004   0.990   8.757 -0.1267  1.7709 -1.9123
 4124SOL    HW224006   4.676   1.104   8.826 -1.7474  0.2344 -0.7299
 4125SOL     OW24007   2.244   3.358  10.280 -0.3790  0.2911  0.0455
 4125SOL    HW124008   2.314   3.383  10.220 -0.4720  0.3652 -0.0319
 4125SOL    HW224009   2.204   3.445  10.280  2.7636  1.7441  2.7193
 4126SOL     OW24010   0.373   0.578   3.776 -0.0210 -0.2286 -0.6101
 4126SOL    HW124011   0.411   0.498   3.811 -2.7118 -1.0215  0.5134
 4126SOL    HW224012   0.336   0.613   3.857 -2.1188 -3.1164 -0.3288
 4127SOL     OW24013   0.926   0.053   4.345 -0.1218 -0.5469 -0.2779
 4127SOL    HW124014   0.879   4.719   4.306  0.0830  0.2243 -2.0153
 4127SOL    HW224015   0.982   0.077   4.270 -2.2361  0.4443 -1.5616
 4128SOL     OW24016   3.625   1.905   8.148  0.1338  0.4302 -0.3030
 4128SOL    HW124017   3.682   1.870   8.080  0.0639  0.3721 -0.3320
 4128SOL    HW224018   3.606   1.994   8.117 -1.9559  0.3740  0.8070
 4129SOL     OW24019   1.784   1.190  10.037  0.5009 -0.7450 -0.4256
 4129SOL    HW124020   1.824   1.216   9.955  0.5121  1.0315  0.1490
 4129SOL    HW224021   1.843   1.222  10.105  0.4384  0.9069 -1.1538
 4130SOL     OW24022   3.899   0.273   2.330 -0.1476  0.0514  0.7872
 4130SOL    HW124023   3.867   0.239   2.414  1.5496 -1.8830  0.6421
 4130SOL    HW224024   3.933   0.356   2.364 -2.3354  1.3050 -0.1132
 4131SOL     OW24025   1.993   3.202   6.847  0.0741  0.2380 -0.3651
 4131SOL    HW124026   1.955   3.116   6.862  0.6482  0.0679  0.1233
 4131SOL    HW224027   1.966   3.242   6.930  0.4390  0.7145 -0.4729
 4132SOL     OW24028   0.674   3.814  12.047  0.2325  0.0196 -0.2966
 4132SOL    HW124029   0.623   3.735  12.026 -0.0526  0.4152 -1.0886
 4132SOL    HW224030   0.609   3.872  12.085  1.0935  1.1610 -0.5774
 4133SOL     OW24031   4.193   4.243  14.344  0.2479  0.5511 -0.4463
 4133SOL    HW124032   4.130   4.179  14.378  0.3496  0.9108  0.4237
 4133SOL    HW224033   4.124   4.294  14.301 -0.8396  1.1443  1.9765
 4134SOL     OW24034   0.730   1.195   7.630 -0.2653 -0.2365 -0.0334
 4134SOL    HW124035   0.672   1.212   7.705  1.2091 -0.7610  1.2236
 4134SOL    HW224036   0.666   1.172   7.563  0.3069 -0.8684 -0.3615
 4135SOL     OW24037   3.872   4.550   7.087 -0.1849  0.5033 -0.0818
 4135SOL    HW124038   3.779   4.527   7.091 -0.5128  1.6684 -1.2130
 4135SOL    HW224039   3.875   4.646   7.086 -0.6013  0.5276  1.1778
 4136SOL     OW24040   1.007   1.706   4.253  0.1071 -0.5302  0.1809
 4136SOL    HW124041   1.087   1.653   4.254 -1.3851 -2.7940  0.1395
 4136SOL    HW224042   0.955   1.669   4.182 -1.8128  0.4482  1.0735
 4137SOL     OW24043   2.412   0.241   3.307 -0.4315 -0.8427  0.0988
 4137SOL    HW124044   2.354   0.209   3.237  0.8050 -0.2452 -1.1954
 4137SOL    HW224045   2.445   0.163   3.350  0.9108  1.1145  2.6292
 4138SOL     OW24046   2.995   1.411   8.847 -0.3933  0.1661  0.2174
 4138SOL    HW124047   2.964   1.499   8.868 -1.0393 -0.2340  0.9521
 4138SOL    HW224048   2.919   1.362   8.816  0.6934 -1.6925  0.5431
 4139SOL     OW24049   3.183   1.948  10.006  0.4183  0.1599 -0.0706
 4139SOL    HW124050   3.121   1.877  10.019  1.4921 -0.9464 -0.9328
 4139SOL    HW224051   3.234   1.925   9.928 -1.4314 -0.7965 -0.9880
 4140SOL     OW24052   1.889   2.637  15.681 -0.1146 -0.4567  0.7668
 4140SOL    HW124053   1.795   2.654  15.689 -0.0302 -0.6146  2.0576
 4140SOL    HW224054   1.902   2.589  15.599  1.1131 -0.5216  1.0034
 4141SOL     OW24055   0.879   1.820  11.800  0.4490  0.1497  0.6658
 4141SOL    HW124056   0.836   1.735  11.798  0.4800  0.1342  0.6695
 4141SOL    HW224057   0.920   1.812  11.714 -2.3216  0.5484 -0.6881
 4142SOL     OW24058   4.527   1.901   4.705 -0.5177 -0.3144  0.1579
 4142SOL    HW124059   4.473   1.826   4.680  0.3418 -1.2571  1.1194
 4142SOL    HW224060   4.554   1.933   4.619 -0.7077  1.0299  0.6130
 4143SOL     OW24061   4.304   4.552  10.896 -0.5925  0.0448 -0.1969
 4143SOL    HW124062   4.242   4.533  10.826  0.3565 -1.3242 -0.6542
 4143SOL    HW224063   4.276   4.488  10.961  0.6262 -1.4446 -1.1348
 4144SOL     OW24064   2.455   4.728   8.026 -0.3624  0.1045 -0.0800
 4144SOL    HW124065   2.419   0.076   8.038  1.7899  0.5959  2.6452
 4144SOL    HW224066   2.406   4.701   7.948 -1.6740 -0.6580  1.0145
 4145SOL     OW24067   1.007   3.290   4.493 -0.3983  0.1594 -0.2866
 4145SOL    HW124068   0.982   3.285   4.400  1.1577  0.8277 -0.7297
 4145SOL    HW224069   1.100   3.313   4.493 -0.4081  0.1962 -0.2364
 4146SOL     OW24070   3.691   0.154   4.857 -0.0768 -0.0228  0.6136
 4146SOL    HW124071   3.663   0.130   4.945 -1.9796 -1.8949 -0.5052
 4146SOL    HW224072   3.775   0.109   4.846 -2.1506 -3.8985  0.7304
 4147SOL     OW24073   0.710   1.336   6.098  0.0244 -0.1635  0.6521
 4147SOL    HW124074   0.785   1.280   6.077 -2.1196 -2.3412 -1.2419
 4147SOL    HW224075   0.750   1.419   6.074 -1.6770  0.3935 -0.2381
 4148SOL     OW24076   0.821   4.661   2.964 -0.3204 -1.1196  0.5179
 4148SOL    HW124077   0.726   4.675   2.966 -0.0141  1.2001 -1.4674
 4148SOL    HW224078   0.837   4.708   3.046  0.8885  0.7788 -0.8076
 4149SOL     OW24079   1.322   3.192   5.464  0.5534  0.0318 -0.2806
 4149SOL    HW124080   1.394   3.173   5.403 -0.6251 -1.0317 -1.3312
 4149SOL    HW224081   1.366   3.254   5.522 -0.0704 -0.2742  0.5054
 4150SOL     OW24082   0.845   3.802  13.417  0.4335  0.0521  0.6370
 4150SOL    HW124083   0.788   3.726  13.407  0.4028  0.3791 -1.6985
 4150SOL    HW224084   0.832   3.826  13.509 -1.1190  3.7590 -0.5329
 4151SOL     OW24085   3.843   4.289   5.105 -0.0697 -0.4463  0.2268
 4151SOL    HW124086   3.935   4.289   5.077 -0.0125 -0.6392  0.4157
 4151SOL    HW224087   3.807   4.315   5.020  2.1093  2.0266  0.0683
 4152SOL     OW24088   0.177   0.005   9.036  0.2689  0.0751  0.1028
 4152SOL    HW124089   0.118   4.677   9.003 -1.4949  1.8844 -0.5309
 4152SOL    HW224090   0.155   0.007   9.129 -0.4471 -0.0004 -0.0614
 4153SOL     OW24091   1.407   1.717  11.502  0.3800 -0.5024  0.2343
 4153SOL    HW124092   1.323   1.672  11.512 -0.9087  1.2436 -2.7602
 4153SOL    HW224093   1.436   1.677  11.420 -1.3752  0.8741 -1.0412
 4154SOL     OW24094   0.931   1.959   7.900  0.3152 -0.8654 -0.1059
 4154SOL    HW124095   0.986   2.022   7.948  0.1916 -1.0873  0.3254
 4154SOL    HW224096   0.874   1.932   7.972  0.2491  2.5483  1.1097
 4155SOL     OW24097   3.008   3.405  17.429  0.4018 -0.5555 -0.2169
 4155SOL    HW124098   3.067   3.412  17.504 -2.3308  1.0160  1.8019
 4155SOL    HW224099   3.051   3.338  17.376  0.5113 -2.1767  1.9225
 4156SOL     OW24100   4.503   3.193   4.597 -0.2047 -0.3126  0.2257
 4156SOL    HW124101   4.483   3.133   4.524  0.9571 -0.6725  0.2063
 4156SOL    HW224102   4.483   3.278   4.558 -0.9788 -1.0928 -1.0792
 4157SOL     OW24103   4.284   0.930   7.962  0.1634 -0.6203  0.5745
 4157SOL    HW124104   4.374   0.937   7.996  0.2461  0.1403  0.2132
 4157SOL    HW224105   4.275   1.016   7.921  0.4650 -1.3265 -0.9962
 4158SOL     OW24106   1.330   0.011  10.068  0.5632  0.1353  0.0438
 4158SOL    HW124107   1.278   4.728  10.145  0.0500  1.3988  0.0797
 4158SOL    HW224108   1.342   0.105  10.082 -0.6639  0.3086 -0.0817
 4159SOL     OW24109   0.679   4.406  17.675  0.7063  0.5157 -0.0192
 4159SOL    HW124110   0.664   4.323  17.629 -1.6155 -0.7865  3.0764
 4159SOL    HW224111   0.613   4.406  17.745  0.1998  0.4217 -0.4966
 4160SOL     OW24112   4.331   0.683   9.745 -0.2397  0.5831  0.0616
 4160SOL    HW124113   4.325   0.773   9.713 -0.1548  0.8580  0.8234
 4160SOL    HW224114   4.241   0.661   9.767  0.0778 -2.4869 -1.6985
 4161SOL     OW24115   2.245   0.076   7.530 -0.3316  0.0071  0.0150
 4161SOL    HW124116   2.300   0.041   7.460 -0.0529  2.7470 -1.1104
 4161SOL    HW224117   2.164   0.041   7.493 -0.3326  1.1511 -1.0598
 4162SOL     OW24118   3.378   3.000   4.095 -0.0349 -0.1846 -0.4060
 4162SOL    HW124119   3.381   3.096   4.088 -0.1395  0.0377  2.3820
 4162SOL    HW224120   3.392   2.980   4.003  1.2112  1.7180 -0.6288
 4163SOL     OW24121   3.664   3.152   5.684  0.3161 -0.0431  0.4745
 4163SOL    HW124122   3.672   3.068   5.729 -0.4620  0.2790  1.2169
 4163SOL    HW224123   3.630   3.203   5.758  0.2651 -1.1502  1.2195
 4164SOL     OW24124   2.082   1.853   4.410  0.4449  0.6681  0.3732
 4164SOL    HW124125   2.075   1.876   4.318  1.8019 -0.4557 -0.0053
 4164SOL    HW224126   1.994   1.866   4.448  0.6834  0.8264  0.8714
 4165SOL     OW24127   1.754   3.761   6.378 -0.0942 -0.3130 -0.1153
 4165SOL    HW124128   1.713   3.787   6.296  1.3485 -1.1202 -1.1173
 4165SOL    HW224129   1.819   3.696   6.348 -0.0917  1.2965 -3.5622
 4166SOL     OW24130   3.717   2.110   2.827  0.0220  0.6522  0.0276
 4166SOL    HW124131   3.654   2.123   2.898  0.0195  0.5298  0.0481
 4166SOL    HW224132   3.798   2.148   2.862 -0.2343  0.6494  0.6146
 4167SOL     OW24133   3.514   2.276   1.038  0.4110 -0.2757  0.1416
 4167SOL    HW124134   3.463   2.227   0.973  2.0638  0.9886 -2.0994
 4167SOL    HW224135   3.501   2.240   1.125 -1.4432  1.0061  0.3965
 4168SOL     OW24136   2.889   2.999   4.493  0.4309 -0.3781  0.1424
 4168SOL    HW124137   2.905   3.046   4.574 -0.4826 -2.3335  1.4578
 4168SOL    HW224138   2.962   3.035   4.442  0.1846  1.9609  1.4525
 4169SOL     OW24139   3.133   0.682   5.361 -0.7587  0.1285 -0.0507
 4169SOL    HW124140   3.043   0.653   5.344 -0.7638  0.0515  0.1033
 4169SOL    HW224141   3.126   0.772   5.329  1.1639  0.1944 -0.3133
 4170SOL     OW24142   3.425   4.735   4.286  0.0514  0.1650  0.4527
 4170SOL    HW124143   3.384   0.054   4.223  2.2625  0.9631 -0.2432
 4170SOL    HW224144   3.512   0.004   4.247  0.2144 -0.0038  0.7822
 4171SOL     OW24145   1.632   2.059   6.561  0.3524  0.7255 -0.3843
 4171SOL    HW124146   1.570   1.990   6.536 -0.1425  0.7892  0.6844
 4171SOL    HW224147   1.684   2.055   6.480 -0.0180 -2.1684 -0.4962
 4172SOL     OW24148   0.332   1.860  15.208 -0.3233 -0.0981  0.5770
 4172SOL    HW124149   0.421   1.856  15.172 -0.0029 -0.5008  1.4239
 4172SOL    HW224150   0.280   1.831  15.133  1.6401  1.5543 -1.4210
 4173SOL     OW24151   3.725   1.872   2.132  0.2859 -0.3233  0.1031
 4173SOL    HW124152   3.658   1.927   2.091  0.8523 -1.5650 -2.4698
 4173SOL    HW224153   3.738   1.915   2.216  0.7604  0.5743 -0.4362
 4174SOL     OW24154   3.953   3.493   4.406  0.9771  0.0820 -0.5010
 4174SOL    HW124155   3.862   3.522   4.399  0.4420 -1.5912 -0.4434
 4174SOL    HW224156   3.998   3.569   4.368 -0.2820 -0.5657 -3.2929
 4175SOL     OW24157   1.824   1.170   6.383  0.5016  0.1389  0.4044
 4175SOL    HW124158   1.731   1.181   6.405 -0.2500 -3.2952 -1.0799
 4175SOL    HW224159   1.845   1.132   6.469 -0.3703  4.0255  2.3501
 4176SOL     OW24160   1.496   0.714   1.712 -0.4025 -0.4912  0.6730
 4176SOL    HW124161   1.533   0.626   1.720 -0.8455 -0.6772  0.6819
 4176SOL    HW224162   1.551   0.772   1.764 -0.7050  1.0053 -0.7058
 4177SOL     OW24163   1.561   0.618   2.106  0.0373  1.0574 -0.3591
 4177SOL    HW124164   1.584   0.547   2.046  2.4248  1.3103  0.2442
 4177SOL    HW224165   1.467   0.627   2.091 -0.4051  2.2205  3.1521
 4178SOL     OW24166   0.205   2.341   5.876 -0.1276  0.2829  0.6497
 4178SOL    HW124167   0.189   2.433   5.857 -3.1938 -0.4525 -0.2757
 4178SOL    HW224168   0.258   2.342   5.956  0.5667 -1.4169  0.2156
 4179SOL     OW24169   0.399   3.894   8.707  0.3810  0.0164  0.0806
 4179SOL    HW124170   0.388   3.946   8.628 -0.4832 -2.9585 -1.7540
 4179SOL    HW224171   0.359   3.812   8.676 -0.1924  0.0906  0.6095
 4180SOL     OW24172   3.239   2.491   8.868  0.1203  0.3427 -0.1676
 4180SOL    HW124173   3.185   2.431   8.816 -0.9847  1.4117 -0.2638
 4180SOL    HW224174   3.213   2.467   8.957  0.4959 -0.3310 -0.2375
 4181SOL     OW24175   2.951   2.466  16.272  0.2212 -0.1460 -0.1636
 4181SOL    HW124176   2.964   2.545  16.325 -0.6912  1.3842 -2.2196
 4181SOL    HW224177   2.867   2.426  16.296  0.8299 -0.0237  2.1850
 4182SOL     OW24178   0.611   1.174   4.189 -0.3589  0.2540 -0.6154
 4182SOL    HW124179   0.601   1.124   4.271 -0.1296 -1.6109 -1.7376
 4182SOL    HW224180   0.667   1.248   4.211 -0.7573  0.2959  0.2626
 4183SOL     OW24181   3.486   1.024   2.058  0.2023 -0.1854  0.6884
 4183SOL    HW124182   3.408   0.969   2.062  0.1200 -0.1678 -0.7289
 4183SOL    HW224183   3.509   1.038   2.150 -0.8689 -0.4437  0.9942
 4184SOL     OW24184   1.681   0.003   2.963 -0.1282  0.4673  0.2812
 4184SOL    HW124185   1.676   4.652   2.991  1.1888 -0.3258 -2.1011
 4184SOL    HW224186   1.587   0.018   2.951  0.1357  1.8375 -0.1592
 4185SOL     OW24187   3.413   0.307   0.003  0.3106 -0.2220  0.6948
 4185SOL    HW124188   3.508   0.297   0.013  0.6042  1.5029 -0.3920
 4185SOL    HW224189   3.392   0.218  17.730  0.2771  0.2631 -0.6704
 4186SOL     OW24190   0.761   3.876   4.324  0.1850 -0.3801  0.1095
 4186SOL    HW124191   0.769   3.933   4.400 -0.6102  1.1652 -0.9570
 4186SOL    HW224192   0.734   3.790   4.354  1.2739 -1.1393 -1.0889
 4187SOL     OW24193   0.068   2.967   0.271 -0.5003  0.1105  0.4624
 4187SOL    HW124194   0.064   2.955   0.366  0.7136  1.2041  0.6486
 4187SOL    HW224195   4.722   2.937   0.242 -0.2607  1.1386 -1.3042
 4188SOL     OW24196   4.528   4.467   1.789  0.0130  0.2092  0.5335
 4188SOL    HW124197   4.439   4.461   1.754  0.4332  0.8392 -0.6646
 4188SOL    HW224198   4.590   4.460   1.716  0.5314  1.8481  0.8278
 4189SOL     OW24199   0.754   2.778   5.338  0.2585  0.2198  0.3364
 4189SOL    HW124200   0.764   2.861   5.291 -0.5882  1.2735  2.0355
 4189SOL    HW224201   0.821   2.721   5.300 -0.8406  0.0023 -1.3165
 4190SOL     OW24202   1.800   4.442   4.695  0.0066  0.4455  0.0578
 4190SOL    HW124203   1.712   4.405   4.687  0.2330  0.1061 -0.8296
 4190SOL    HW224204   1.839   4.417   4.612 -0.0494 -0.8765  0.4276
 4191SOL     OW24205   3.996   4.144   4.065 -0.0773  0.2850  0.3743
 4191SOL    HW124206   3.998   4.050   4.083  0.3926  0.1455 -0.3657
 4191SOL    HW224207   3.971   4.177   4.151  2.6760 -0.1720  1.3778
 4192SOL     OW24208   2.933   2.808   4.943  0.8512  0.3315 -0.0916
 4192SOL    HW124209   2.976   2.735   4.987 -0.6599  0.1333  1.0709
 4192SOL    HW224210   2.924   2.773   4.854 -0.2165  0.6691 -0.1182
 4193SOL     OW24211   4.178   0.269   6.817 -0.0954  0.2222 -0.0297
 4193SOL    HW124212   4.108   0.314   6.863 -0.9358  0.2983 -1.3763
 4193SOL    HW224213   4.219   0.345   6.776  1.0212  0.0101  0.7151
 4194SOL     OW24214   2.964   1.060   8.155 -0.3345  0.3427  0.9964
 4194SOL    HW124215   2.894   0.996   8.169 -0.8410  0.3492 -1.3874
 4194SOL    HW224216   2.918   1.138   8.186 -2.1460 -2.9048  6.4350
 4195SOL     OW24217   2.774   2.516   5.953 -0.3136  0.3728 -0.0165
 4195SOL    HW124218   2.782   2.551   5.865 -1.4444 -2.1000 -1.1182
 4195SOL    HW224219   2.780   2.597   6.004 -0.0173 -0.1911  0.8605
 4196SOL     OW24220   1.534   3.909  16.733 -0.6688  0.1763  0.1306
 4196SOL    HW124221   1.576   3.829  16.765  2.1817  1.4746 -0.3685
 4196SOL    HW224222   1.608   3.968  16.720 -1.6375  1.3735  0.1037
 4197SOL     OW24223   0.138   1.842   8.266  0.6135 -0.0961  0.0587
 4197SOL    HW124224   0.082   1.782   8.216 -0.1536 -0.8290  1.8051
 4197SOL    HW224225   0.149   1.794   8.348  1.0907  0.2009  0.1690
 4198SOL     OW24226   4.189   2.363   1.400 -0.0120 -0.5160 -0.2829
 4198SOL    HW124227   4.200   2.458   1.408 -0.4662 -0.3363 -1.9219
 4198SOL    HW224228   4.126   2.334   1.466 -1.3471  2.6092 -0.1438
 4199SOL     OW24229   0.509   3.151   6.393 -0.1386 -0.1025  0.0187
 4199SOL    HW124230   0.586   3.207   6.403  0.8740 -1.5005  0.0379
 4199SOL    HW224231   0.550   3.086   6.336  1.2471  1.6009 -0.9155
 4200SOL     OW24232   0.815   4.018   5.369  0.0849  0.5166  0.9679
 4200SOL    HW124233   0.822   3.941   5.313  1.5349  0.9745  0.5181
 4200SOL    HW224234   0.729   4.046   5.338 -0.5902 -2.1832  0.3791
 4201SOL     OW24235   1.517   1.467   4.343 -0.5009 -0.4564 -0.2686
 4201SOL    HW124236   1.485   1.501   4.426  2.3104  2.1130 -0.2257
 4201SOL    HW224237   1.546   1.377   4.357  1.4817  0.9049  4.0563
 4202SOL     OW24238   3.920   2.220   6.146  0.1839 -0.1453 -0.3882
 4202SOL    HW124239   4.014   2.208   6.157 -0.0102 -0.2969  1.1430
 4202SOL    HW224240   3.910   2.315   6.157 -0.5160 -0.3774  0.9315
 4203SOL     OW24241   0.082   1.524   7.867  0.0393  0.2307  0.1781
 4203SOL    HW124242   0.067   1.439   7.909 -0.6988  0.3417  0.1499
 4203SOL    HW224243   0.157   1.505   7.811 -0.4184 -0.2479 -0.2733
 4204SOL     OW24244   1.794   3.930   3.333  0.3132  1.1062 -0.0486
 4204SOL    HW124245   1.699   3.922   3.321  0.1850  0.2131  1.5079
 4204SOL    HW224246   1.787   3.996   3.402 -1.3422  0.2661  0.6014
 4205SOL     OW24247   3.664   4.003   0.409  0.4442  0.5287 -0.0440
 4205SOL    HW124248   3.740   4.020   0.466  1.7135 -0.5318 -1.4101
 4205SOL    HW224249   3.597   4.054   0.454  1.1630  0.5056  1.0437
 4206SOL     OW24250   1.704   1.915  17.252  0.2615 -0.1742  0.4771
 4206SOL    HW124251   1.679   1.986  17.194 -1.5489 -1.7310 -0.6617
 4206SOL    HW224252   1.742   1.966  17.324 -1.7772  0.8523  0.8338
 4207SOL     OW24253   1.598   2.195   3.361  0.2497  0.1993 -0.1224
 4207SOL    HW124254   1.612   2.156   3.275 -0.2444 -2.5892  1.0677
 4207SOL    HW224255   1.654   2.272   3.355  1.2062 -0.4977 -0.0993
 4208SOL     OW24256   3.364   1.417   2.027 -0.2024 -0.8340 -0.0675
 4208SOL    HW124257   3.449   1.402   2.068 -0.1660 -1.6961 -0.4593
 4208SOL    HW224258   3.363   1.512   2.014 -2.0778 -0.7465  0.7165
 4209SOL     OW24259   1.548   3.304   3.348  0.0674 -0.2984  0.6722
 4209SOL    HW124260   1.497   3.283   3.426 -4.0621  0.5402 -1.8389
 4209SOL    HW224261   1.559   3.398   3.361  1.1632 -0.1147 -1.4954
 4210SOL     OW24262   2.955   3.455  11.887 -0.6388  0.6702  0.1484
 4210SOL    HW124263   2.875   3.424  11.845  0.1964  0.8665 -1.5960
 4210SOL    HW224264   2.935   3.546  11.910  1.0116  1.8915 -3.1360
 4211SOL     OW24265   1.634   0.518  11.593 -0.4313 -0.0586 -0.5871
 4211SOL    HW124266   1.569   0.483  11.653 -0.0083  0.7083  0.3103
 4211SOL    HW224267   1.701   0.449  11.594  0.1184  0.4535 -1.5711
 4212SOL     OW24268   4.076   0.295   2.966  0.4066 -0.0374  0.0695
 4212SOL    HW124269   4.108   0.339   2.887  1.0227  0.6568  0.6889
 4212SOL    HW224270   4.010   0.245   2.920 -0.3296 -1.3419  2.5830
 4213SOL     OW24271   3.576   3.115   6.667 -0.5901  0.2373  0.0724
 4213SOL    HW124272   3.574   3.131   6.761 -0.1836  0.2817  0.0709
 4213SOL    HW224273   3.535   3.196   6.634  0.1318  0.4394 -0.3384
 4214SOL     OW24274   0.266   2.657  17.747 -0.1205 -0.1297 -0.0303
 4214SOL    HW124275   0.307   2.678  17.663  0.3577 -0.8046  0.0408
 4214SOL    HW224276   0.334   2.603   0.028  0.1492 -0.5257 -1.0400
 4215SOL     OW24277   1.235   3.864   7.158 -0.2132  0.4720 -0.1782
 4215SOL    HW124278   1.285   3.845   7.237 -0.6003 -2.6254 -0.6921
 4215SOL    HW224279   1.300   3.898   7.096 -2.6144  3.7752 -0.9114
 4216SOL     OW24280   0.054   1.934   0.583  0.1306  0.0021 -0.4576
 4216SOL    HW124281   4.709   1.958   0.619  0.8222  0.6869  0.7481
 4216SOL    HW224282   0.091   2.022   0.579  1.5330 -0.5248  0.8065
 4217SOL     OW24283   0.058   2.106   3.102 -0.4212  0.2852 -0.7572
 4217SOL    HW124284   0.013   2.056   3.170 -0.4536  1.0237 -0.2436
 4217SOL    HW224285   0.117   2.156   3.158  0.0191  1.0369 -1.9012
 4218SOL     OW24286   2.993   4.279   7.844  0.2057  0.6704 -0.1314
 4218SOL    HW124287   2.983   4.362   7.798 -0.8095  1.4752  1.5163
 4218SOL    HW224288   3.064   4.228   7.805  1.5449  4.0488 -2.0849
 4219SOL     OW24289   2.751   1.347  12.513  0.1571  0.7814  0.6563
 4219SOL    HW124290   2.665   1.306  12.504  0.6663 -0.5833  2.0044
 4219SOL    HW224291   2.757   1.353  12.608 -1.3625 -0.6525  0.8271
 4220SOL     OW24292   0.661   4.440   6.090  0.3801 -0.0694  0.2598
 4220SOL    HW124293   0.571   4.462   6.115 -0.0820 -2.0070  0.2533
 4220SOL    HW224294   0.656   4.372   6.023  2.2480 -1.8934  1.9945
 4221SOL     OW24295   1.187   1.824   7.905 -0.1650  0.6752  0.3604
 4221SOL    HW124296   1.141   1.898   7.945 -0.5554  0.4372  0.3444
 4221SOL    HW224297   1.120   1.757   7.917  0.8878 -0.5847 -0.7731
 4222SOL     OW24298   4.006   0.564  10.615 -0.3411  0.1049 -0.3470
 4222SOL    HW124299   3.917   0.554  10.583 -0.3603 -2.3259  0.5110
 4222SOL    HW224300   4.004   0.590  10.707 -0.2607 -1.4760  0.0999
 4223SOL     OW24301   4.267   4.297   1.118  0.7069  0.2346  0.5285
 4223SOL    HW124302   4.326   4.326   1.048  0.7660  1.3598  1.0555
 4223SOL    HW224303   4.279   4.202   1.120  2.2809  0.4248  0.4032
 4224SOL     OW24304   3.168   3.834   6.627  0.5275  0.0885 -0.3620
 4224SOL    HW124305   3.260   3.859   6.632  0.1736  1.2168  0.6463
 4224SOL    HW224306   3.179   3.739   6.629  0.1120  0.0799  1.4808
 4225SOL     OW24307   2.262   0.178  12.731 -0.1693  0.3171  0.0248
 4225SOL    HW124308   2.303   0.202  12.648 -0.1041  0.2793  0.0464
 4225SOL    HW224309   2.171   0.154  12.710  1.2063 -4.6829 -0.3100
 4226SOL     OW24310   0.538   3.616   4.900  0.3574 -0.3354  0.1384
 4226SOL    HW124311   0.614   3.671   4.885 -0.2641  0.6929  0.6967
 4226SOL    HW224312   0.475   3.684   4.926  1.1626 -0.0204  1.2472
 4227SOL     OW24313   0.938   4.304  10.448  0.8275  0.3946 -0.1822
 4227SOL    HW124314   0.862   4.252  10.474 -0.0950  2.0866  0.5376
 4227SOL    HW224315   0.996   4.228  10.440  1.0859  0.3796  1.7427
 4228SOL     OW24316   0.016   3.356   7.486  0.1861  0.5550  0.1506
 4228SOL    HW124317   0.029   3.300   7.409 -1.0162  1.2169 -0.5309
 4228SOL    HW224318   0.058   3.439   7.467  0.4785  0.7132  1.4788
 4229SOL     OW24319   3.492   2.171  10.843  0.3608  0.2766  0.2353
 4229SOL    HW124320   3.532   2.100  10.792  0.5236 -0.1511  0.9617
 4229SOL    HW224321   3.418   2.119  10.874 -0.3839  1.1441 -0.1155
 4230SOL     OW24322   0.452   3.534   5.603 -0.0744  0.5479  0.2573
 4230SOL    HW124323   0.512   3.603   5.575 -1.8606  1.5518 -1.0769
 4230SOL    HW224324   0.499   3.457   5.570  0.7158  0.5506  1.3627
 4231SOL     OW24325   4.041   0.621   3.538 -0.4320  0.5830  0.1166
 4231SOL    HW124326   4.131   0.590   3.524  0.1575  1.9397  0.9266
 4231SOL    HW224327   4.065   0.714   3.532 -0.0564  0.6196  2.2727
 4232SOL     OW24328   2.206   2.702   5.371  0.3241 -0.6283  0.4219
 4232SOL    HW124329   2.219   2.676   5.462  1.5175 -0.3878  0.3305
 4232SOL    HW224330   2.294   2.709   5.333  0.8998  0.5721  1.9445
 4233SOL     OW24331   1.182   0.096   1.746  0.2004  0.2285 -0.1377
 4233SOL    HW124332   1.145   0.023   1.697 -0.5402 -0.5649  1.6203
 4233SOL    HW224333   1.224   0.143   1.674  1.4220  0.5413  0.7660
 4234SOL     OW24334   4.539   3.977   5.378 -0.0155  0.0476  0.1678
 4234SOL    HW124335   4.444   3.979   5.367 -0.0389 -1.2727  0.1104
 4234SOL    HW224336   4.540   4.066   5.414 -1.4574  0.6124 -1.2022
 4235SOL     OW24337   0.144   0.429   8.018  0.4209  0.1150 -0.1004
 4235SOL    HW124338   0.235   0.456   8.030 -0.3735  3.1456 -0.7867
 4235SOL    HW224339   0.131   0.489   7.945 -2.6849  0.4311  0.7106
 4236SOL     OW24340   3.342   3.536   6.817  0.7817 -0.0316 -0.1125
 4236SOL    HW124341   3.322   3.458   6.868 -0.5813 -0.5093 -1.3557
 4236SOL    HW224342   3.275   3.532   6.748  1.5453  0.6089 -0.8918
 4237SOL     OW24343   0.918   1.148   3.840  0.3407 -0.0489 -0.2855
 4237SOL    HW124344   0.931   1.072   3.897  0.6637 -1.9109 -2.8506
 4237SOL    HW224345   0.826   1.174   3.851 -0.2164 -1.2780 -1.9743
 4238SOL     OW24346   2.305   0.467  16.435  0.1302  0.4230  0.0949
 4238SOL    HW124347   2.396   0.491  16.450 -0.1844  1.5270  0.2336
 4238SOL    HW224348   2.267   0.523  16.503 -1.9636 -0.6223 -0.1990
 4239SOL     OW24349   4.548   0.158   2.927  0.4462 -0.2735 -0.3539
 4239SOL    HW124350   4.466   0.173   2.974  1.0538 -0.6262  0.8248
 4239SOL    HW224351   4.527   0.146   2.834 -0.7585 -0.6496 -0.0264
 4240SOL     OW24352   2.562   1.709   7.648 -0.6717  0.4602  0.1561
 4240SOL    HW124353   2.588   1.712   7.556 -0.2647 -0.3501  0.2453
 4240SOL    HW224354   2.623   1.642   7.679  0.7848  1.3440 -0.7999
 4241SOL     OW24355   1.002   3.882   6.238 -0.0841  0.2106  0.4848
 4241SOL    HW124356   0.956   3.862   6.320 -0.6306 -0.1501  0.0913
 4241SOL    HW224357   1.080   3.827   6.243 -0.2028 -0.0104 -0.1625
 4242SOL     OW24358   0.356   3.091  17.167 -0.1704  0.3723 -0.1733
 4242SOL    HW124359   0.441   3.113  17.204 -1.2191  2.3875  1.0275
 4242SOL    HW224360   0.336   3.170  17.117 -2.5142 -1.2376 -1.8341
 4243SOL     OW24361   4.553   2.740   7.837 -0.1733 -0.1192  0.6176
 4243SOL    HW124362   4.542   2.653   7.798 -0.1349  0.8564 -1.5631
 4243SOL    HW224363   4.633   2.779   7.801  0.1050 -1.3350 -0.0763
 4244SOL     OW24364   2.010   4.126   4.836  0.4515  0.4997  0.2081
 4244SOL    HW124365   1.985   4.217   4.852 -3.4075 -0.3345 -0.9046
 4244SOL    HW224366   2.051   4.128   4.749 -0.6226 -2.2852 -0.3777
 4245SOL     OW24367   4.496   0.866   8.256 -0.3240 -1.0121 -0.1764
 4245SOL    HW124368   4.555   0.793   8.277 -0.5440 -1.0120  0.4146
 4245SOL    HW224369   4.433   0.847   8.325 -0.2080 -0.6103  0.0375
 4246SOL     OW24370   2.242   1.362   1.906  0.3153 -0.0404  0.0823
 4246SOL    HW124371   2.251   1.267   1.897  0.7146  0.0536 -0.4854
 4246SOL    HW224372   2.203   1.382   1.821 -1.1707  1.2160  1.0470
 4247SOL     OW24373   1.043   0.666   8.008  0.2456  0.0677  0.0056
 4247SOL    HW124374   1.002   0.581   7.996  1.4852 -0.4679 -0.3700
 4247SOL    HW224375   1.051   0.661   8.103 -0.1645  1.4069  0.1133
 4248SOL     OW24376   0.276   3.652  15.113  0.3268  0.0698 -0.2899
 4248SOL    HW124377   0.336   3.619  15.047  0.6559  0.5226 -0.2124
 4248SOL    HW224378   0.192   3.631  15.071  0.3571 -2.1776  0.7425
 4249SOL     OW24379   1.974   0.122   6.342  0.5470 -0.0808 -0.2042
 4249SOL    HW124380   1.988   0.203   6.294 -0.0412 -0.5651 -1.1784
 4249SOL    HW224381   1.902   0.087   6.291  0.6350  0.5445 -0.7539
 4250SOL     OW24382   2.006   1.054   2.070 -0.4982 -0.7662 -0.6095
 4250SOL    HW124383   2.004   1.082   2.161  1.5605  1.3837 -1.2104
 4250SOL    HW224384   1.933   1.105   2.034 -0.7390 -0.4192  0.3892
 4251SOL     OW24385   1.972   0.362  12.707 -0.5347  0.2816  0.3616
 4251SOL    HW124386   1.999   0.451  12.727 -1.5024  0.2100  2.0340
 4251SOL    HW224387   1.899   0.384  12.648  0.0968 -2.0095 -1.2893
 4252SOL     OW24388   4.177   0.996   5.165 -0.1035 -0.0340 -0.0878
 4252SOL    HW124389   4.269   1.019   5.177 -0.4034  0.8603  0.4955
 4252SOL    HW224390   4.181   0.901   5.161  3.0925  0.1001 -0.4731
 4253SOL     OW24391   0.004   2.959   4.412 -0.2005  0.2937  0.2890
 4253SOL    HW124392   4.658   2.989   4.384 -0.6261 -0.4529  0.7999
 4253SOL    HW224393   4.731   2.866   4.432 -1.0450 -0.1779 -2.4642
 4254SOL     OW24394   3.653   2.530   1.031 -0.4961  0.4812  0.0017
 4254SOL    HW124395   3.624   2.441   1.050 -1.2019  1.3409  2.9557
 4254SOL    HW224396   3.613   2.518   0.944  0.9328 -1.4086 -0.3983
 4255SOL     OW24397   0.272   1.889   2.517  0.4518 -0.3699  0.0772
 4255SOL    HW124398   0.344   1.862   2.573  2.1226  1.2304 -1.2648
 4255SOL    HW224399   0.321   1.946   2.457 -2.1561 -0.1283 -1.8576
 4256SOL     OW24400   3.365   1.081  15.240 -0.8707  0.0951 -0.1548
 4256SOL    HW124401   3.327   0.994  15.224  0.6500 -0.0101 -3.3046
 4256SOL    HW224402   3.330   1.108  15.325  1.3840 -0.2189  0.8645
 4257SOL     OW24403   3.649   1.946   8.699  0.3160  0.5266  0.9731
 4257SOL    HW124404   3.612   1.940   8.787 -1.3442 -1.3565  0.1504
 4257SOL    HW224405   3.578   1.921   8.640 -0.2657  2.6692  0.7581
 4258SOL     OW24406   0.385   2.651   3.889 -0.3110  0.0045 -0.1275
 4258SOL    HW124407   0.429   2.671   3.806 -3.2999  0.3072 -1.6532
 4258SOL    HW224408   0.342   2.569   3.867 -0.2935 -0.5319  1.8573
 4259SOL     OW24409   0.438   1.461   5.589  0.0254  0.1964 -0.2416
 4259SOL    HW124410   0.436   1.557   5.586  1.4415  0.2734  1.1119
 4259SOL    HW224411   0.421   1.447   5.496  2.4714  0.3210 -0.7247
 4260SOL     OW24412   4.695   4.381   7.520 -0.7938 -0.0649  0.1220
 4260SOL    HW124413   4.738   4.438   7.584  1.0574  1.6676 -2.6403
 4260SOL    HW224414   4.719   4.422   7.436  1.1144  0.9711  1.1608
 4261SOL     OW24415   1.120   0.518  12.899  0.0485  0.0565 -0.8148
 4261SOL    HW124416   1.072   0.440  12.870  0.3064 -0.8359  1.1522
 4261SOL    HW224417   1.101   0.583  12.832 -3.9267 -0.6008 -0.3724
 4262SOL     OW24418   2.115   4.638  14.014  0.3347  0.1391  0.2779
 4262SOL    HW124419   2.137   4.569  14.076  3.6015  3.4363  2.7886
 4262SOL    HW224420   2.197   4.660  13.969 -0.0774 -1.1289 -1.0991
 4263SOL     OW24421   4.025   2.353   1.152  0.1747 -0.4404  0.0297
 4263SOL    HW124422   4.093   2.344   1.219  0.0001 -1.2831  0.0944
 4263SOL    HW224423   3.977   2.272   1.164 -0.1026 -0.5776 -2.0359
 4264SOL     OW24424   3.403   3.184   5.227  0.0128  0.0799  0.7325
 4264SOL    HW124425   3.465   3.212   5.295  0.0931 -1.9130  1.4720
 4264SOL    HW224426   3.471   3.167   5.161  0.3359 -2.3429  1.6832
 4265SOL     OW24427   3.159   2.232   4.921  0.8298  0.6746  0.1852
 4265SOL    HW124428   3.091   2.192   4.867  0.5672 -0.1417  1.1264
 4265SOL    HW224429   3.183   2.301   4.860 -1.2605  0.4708 -0.8602
 4266SOL     OW24430   0.168   0.839   4.072 -0.4612 -0.4049 -0.1748
 4266SOL    HW124431   0.164   0.900   4.145  0.8600 -2.4781  1.6100
 4266SOL    HW224432   0.231   0.888   4.020  0.8516 -2.2441 -0.3170
 4267SOL     OW24433   4.076   3.422   7.622 -0.3978 -0.0587 -0.4436
 4267SOL    HW124434   4.044   3.435   7.533 -0.9640  0.4562 -0.1710
 4267SOL    HW224435   4.132   3.498   7.639 -1.4957  0.7736 -0.4768
 4268SOL     OW24436   1.928   4.053   9.523  0.4104  0.3753  0.2380
 4268SOL    HW124437   1.967   4.139   9.540  0.7843  0.0821  0.9101
 4268SOL    HW224438   1.840   4.082   9.500  0.4034 -1.3519 -1.8313
 4269SOL     OW24439   1.128   4.136  12.863  0.0844 -0.3777  0.5052
 4269SOL    HW124440   1.171   4.159  12.945 -3.4989  0.2339  2.1774
 4269SOL    HW224441   1.044   4.104  12.896 -0.3198  1.8669  1.6390
 4270SOL     OW24442   1.841   1.989   0.712  0.0572  0.0460 -0.2015
 4270SOL    HW124443   1.841   2.060   0.777  0.7551  1.1082 -1.3710
 4270SOL    HW224444   1.899   2.019   0.643  1.3001  0.2997  0.9501
 4271SOL     OW24445   3.320   3.415   1.978 -0.1092 -0.4377 -0.1617
 4271SOL    HW124446   3.242   3.465   1.954 -0.0772 -0.8635 -1.1138
 4271SOL    HW224447   3.389   3.481   1.977 -0.2998 -0.2436 -0.4585
 4272SOL     OW24448   4.178   1.128  14.703 -0.1130  0.1110 -0.3162
 4272SOL    HW124449   4.115   1.130  14.631 -0.1389  0.8215 -0.2741
 4272SOL    HW224450   4.212   1.217  14.707  1.2673 -0.4028 -0.5918
 4273SOL     OW24451   2.233   1.452   5.188  0.4735 -0.0979 -0.5885
 4273SOL    HW124452   2.299   1.501   5.236  1.9090 -0.4593 -2.2091
 4273SOL    HW224453   2.153   1.500   5.210  0.9032 -0.2642  1.3364
 4274SOL     OW24454   1.547   2.261  10.982 -0.5320 -0.0025 -0.0996
 4274SOL    HW124455   1.497   2.219  11.053 -2.1059  3.0114  0.6236
 4274SOL    HW224456   1.519   2.215  10.904  1.9527  0.8098 -1.4730
 4275SOL     OW24457   4.414   3.105  14.722  0.3681  0.4350  0.5616
 4275SOL    HW124458   4.486   3.153  14.681  2.2372 -3.3503 -0.6288
 4275SOL    HW224459   4.375   3.162  14.788  2.2863  1.4196  0.8221
 4276SOL     OW24460   2.765   4.007   2.833 -0.2753 -0.6225 -0.2302
 4276SOL    HW124461   2.700   4.074   2.812  0.1309  0.1292  0.9215
 4276SOL    HW224462   2.845   4.058   2.848  0.5829 -1.5839 -1.4537
 4277SOL     OW24463   0.161   4.452   1.479  0.1415 -0.1802  0.0599
 4277SOL    HW124464   0.228   4.438   1.546 -1.8337  0.2945  2.1276
 4277SOL    HW224465   0.180   4.546   1.482 -2.2535  0.2687  1.1453
 4278SOL     OW24466   1.895   0.190   9.007  0.2798 -0.3003 -0.1146
 4278SOL    HW124467   1.876   0.284   9.008  0.3154 -0.3093  0.9639
 4278SOL    HW224468   1.980   0.175   8.966  0.8232  1.4601  0.3865
 4279SOL     OW24469   0.879   0.815  13.566  0.5534  0.0624 -0.2050
 4279SOL    HW124470   0.910   0.904  13.549  0.3873  0.6812  2.7156
 4279SOL    HW224471   0.794   0.832  13.606  0.3308  0.3824 -0.8188
 4280SOL     OW24472   1.919   2.863   3.199 -0.0655  0.3271  0.0563
 4280SOL    HW124473   1.976   2.875   3.123  3.3258 -0.4022  2.4666
 4280SOL    HW224474   1.871   2.944   3.214 -1.1329 -0.0307 -1.4995
 4281SOL     OW24475   2.449   0.444   3.158 -0.1904 -0.9135 -0.0583
 4281SOL    HW124476   2.361   0.469   3.187  0.2763 -0.0301  0.6055
 4281SOL    HW224477   2.463   0.368   3.215 -0.0481 -1.4944 -0.8763
 4282SOL     OW24478   1.014   0.687  12.702  0.0032  0.4948 -0.2309
 4282SOL    HW124479   0.940   0.721  12.752 -0.0384 -1.7505  1.2323
 4282SOL    HW224480   0.979   0.666  12.615 -1.5342  1.2316  0.2047
 4283SOL     OW24481   1.345   0.453   7.798 -0.6094 -0.5209  0.6956
 4283SOL    HW124482   1.329   0.378   7.855  0.2889 -0.6050  0.8333
 4283SOL    HW224483   1.250   0.463   7.792 -0.5554 -0.3331  0.0905
 4284SOL     OW24484   0.973   4.453   7.165 -0.4712  0.4879  0.4397
 4284SOL    HW124485   1.020   4.532   7.140 -0.2473 -0.8854 -3.4903
 4284SOL    HW224486   1.044   4.389   7.176 -2.1560 -1.9365 -2.8851
 4285SOL     OW24487   3.460   1.154   8.761 -0.5900  0.1539 -0.0781
 4285SOL    HW124488   3.381   1.209   8.766 -0.0424  1.0482 -1.2315
 4285SOL    HW224489   3.508   1.191   8.834 -1.1207  1.9556 -0.6237
 4286SOL     OW24490   3.552   0.246   3.443  0.2474  0.1816 -0.1875
 4286SOL    HW124491   3.477   0.210   3.395 -0.8590  2.5062 -0.2064
 4286SOL    HW224492   3.524   0.238   3.535  0.1782 -0.6729 -0.2816
 4287SOL     OW24493   2.072   1.564  11.722 -0.0532  0.7386 -0.6568
 4287SOL    HW124494   2.064   1.540  11.815 -0.1115 -0.0170 -0.8541
 4287SOL    HW224495   2.039   1.488  11.674 -0.0617  0.8415 -0.8123
 4288SOL     OW24496   0.250   1.355  13.027  0.6638 -0.1687  0.0882
 4288SOL    HW124497   0.261   1.439  12.982  1.7070  0.5222  1.6098
 4288SOL    HW224498   0.245   1.390  13.116 -0.1387  0.9270 -0.3787
 4289SOL     OW24499   2.076   0.365  10.290 -0.0520  0.7519 -0.2400
 4289SOL    HW124500   2.111   0.427  10.226  1.7427 -0.1605 -0.1420
 4289SOL    HW224501   2.137   0.369  10.363 -0.2039 -0.3684 -0.0518
 4290SOL     OW24502   0.800   4.512   2.288 -0.1256 -0.1457  0.4387
 4290SOL    HW124503   0.879   4.477   2.246  0.3624 -0.2717  1.4478
 4290SOL    HW224504   0.741   4.498   2.214  1.0651  1.2508 -0.7897
 4291SOL     OW24505   3.196   2.812   6.292  0.0229 -0.3119  0.2501
 4291SOL    HW124506   3.170   2.892   6.246 -0.3104 -0.0195  0.9415
 4291SOL    HW224507   3.185   2.836   6.384 -1.8821  0.5954 -0.2025
 4292SOL     OW24508   0.092   0.935  11.610  0.3462 -0.5227  0.0032
 4292SOL    HW124509   0.143   0.854  11.614  1.1294 -0.0469 -0.2849
 4292SOL    HW224510   0.038   0.924  11.688 -1.5984 -0.4107 -1.3426
 4293SOL     OW24511   3.586   1.398   0.123  0.6371 -0.3852 -0.3391
 4293SOL    HW124512   3.610   1.310   0.152  0.6627  0.1264  1.2197
 4293SOL    HW224513   3.659   1.444   0.164 -0.1225 -0.1491  0.7538
 4294SOL     OW24514   2.195   1.428   5.572 -0.3221 -0.5666  0.0605
 4294SOL    HW124515   2.252   1.457   5.501  1.0985  2.8946  2.6202
 4294SOL    HW224516   2.250   1.436   5.650 -0.6537 -1.8301  0.4367
 4295SOL     OW24517   0.436   2.038   8.800  0.2374  0.1615  0.3634
 4295SOL    HW124518   0.407   1.995   8.720 -1.5827 -0.9103  1.5959
 4295SOL    HW224519   0.424   2.131   8.781 -0.0790 -0.2723 -1.4642
 4296SOL     OW24520   0.700   3.683   1.813 -0.1193  0.0820  0.2133
 4296SOL    HW124521   0.784   3.666   1.855  0.5441  1.2140 -0.6362
 4296SOL    HW224522   0.684   3.601   1.766  3.4283 -0.2642 -0.3936
 4297SOL     OW24523   1.891   1.339  12.688  0.4102 -0.1719 -0.4721
 4297SOL    HW124524   1.959   1.314  12.750 -1.3735 -0.6256  1.2843
 4297SOL    HW224525   1.814   1.318  12.741 -0.4567  1.2694 -1.1415
 4298SOL     OW24526   0.890   0.517   5.197 -0.3321  0.6047 -0.0936
 4298SOL    HW124527   0.967   0.552   5.151  0.2173  2.0034  1.9127
 4298SOL    HW224528   0.837   0.595   5.217 -2.8267 -0.8327 -1.0309
 4299SOL     OW24529   2.117   2.608   6.573  0.5985 -0.2978  0.5735
 4299SOL    HW124530   2.160   2.685   6.610 -1.2473 -0.2303  2.5869
 4299SOL    HW224531   2.075   2.642   6.494 -0.2359 -0.6954  0.8437
 4300SOL     OW24532   4.708   2.669  12.063 -0.2181  0.3044  0.1640
 4300SOL    HW124533   0.027   2.599  12.032  1.0426  1.2744  0.3608
 4300SOL    HW224534   4.690   2.632  12.149 -0.7431 -1.6112 -0.7571
 4301SOL     OW24535   4.046   1.321   6.186  0.7277 -0.0555  0.0268
 4301SOL    HW124536   4.039   1.416   6.186  0.2505 -0.0888 -0.7568
 4301SOL    HW224537   4.108   1.317   6.113 -1.9810 -0.2497 -2.2844
 4302SOL     OW24538   4.364   1.976   3.927  0.1791  0.4714 -0.0086
 4302SOL    HW124539   4.279   2.020   3.924 -1.0208 -1.8921 -0.4748
 4302SOL    HW224540   4.430   2.016   3.870 -0.0399  2.8743  1.4548
 4303SOL     OW24541   3.437   2.210  17.730  0.2395 -0.6198  0.4138
 4303SOL    HW124542   3.502   2.238   0.037  2.3603 -2.2371 -1.0127
 4303SOL    HW224543   3.482   2.131  17.699  0.1486 -0.1857 -0.8269
 4304SOL     OW24544   2.001   4.224  13.208  0.3559 -0.0916  1.0401
 4304SOL    HW124545   1.934   4.266  13.155  0.7432 -0.8496 -0.0504
 4304SOL    HW224546   2.069   4.237  13.142 -2.8885 -1.9985 -2.6713
 4305SOL     OW24547   0.740   0.969  11.821  0.2932 -0.3861 -0.6664
 4305SOL    HW124548   0.717   0.935  11.734  0.0821  0.5489 -0.9733
 4305SOL    HW224549   0.731   0.890  11.874 -2.8027  0.4113 -0.0176
 4306SOL     OW24550   1.592   2.375   5.601 -0.0902  0.9595 -0.5766
 4306SOL    HW124551   1.618   2.459   5.565 -2.0066  0.1386 -3.8711
 4306SOL    HW224552   1.592   2.400   5.693  2.7155 -2.2427  0.3116
 4307SOL     OW24553   2.132   4.726  11.897 -0.0620 -0.0532  0.1112
 4307SOL    HW124554   2.082   4.645  11.888 -2.8761  1.8385 -1.2257
 4307SOL    HW224555   2.134   0.009  11.804  2.0534 -0.1026  0.1329
 4308SOL     OW24556   2.234   1.464   6.570 -0.0357  0.0293  0.1067
 4308SOL    HW124557   2.194   1.382   6.600  0.8733  0.0878  1.4718
 4308SOL    HW224558   2.198   1.533   6.627 -4.0453 -1.6022 -0.4759
 4309SOL     OW24559   3.580   0.392  15.690  0.3209  1.2409  0.8168
 4309SOL    HW124560   3.509   0.393  15.755  0.1016 -1.6325  0.6188
 4309SOL    HW224561   3.641   0.327  15.725  0.5423  0.3649 -1.2037
 4310SOL     OW24562   0.709   3.917   9.122 -0.5604  0.4210 -0.0437
 4310SOL    HW124563   0.709   3.858   9.197 -1.4717  0.6164  0.1105
 4310SOL    HW224564   0.706   3.846   9.059  0.4151 -0.5854  1.0497
 4311SOL     OW24565   2.418   1.581  16.368 -0.1707 -0.0424 -0.0477
 4311SOL    HW124566   2.463   1.521  16.309 -1.3566  0.1337 -1.1109
 4311SOL    HW224567   2.363   1.520  16.417  0.1980 -0.6518 -0.3898
 4312SOL     OW24568   1.328   2.570   2.109 -0.1902 -0.3738 -0.3867
 4312SOL    HW124569   1.304   2.485   2.146 -2.4287  0.0629 -0.8326
 4312SOL    HW224570   1.415   2.547   2.078  0.2070  1.6019 -0.7390
 4313SOL     OW24571   4.633   4.040   5.929  0.7891  0.6367 -0.6436
 4313SOL    HW124572   4.590   3.960   5.958  2.1850  0.3146  0.4936
 4313SOL    HW224573   4.632   4.085   6.013  1.0413  1.5955 -1.1482
 4314SOL     OW24574   2.172   0.334   4.695 -0.4643 -0.4829 -0.2205
 4314SOL    HW124575   2.083   0.316   4.725  0.0159 -2.7224 -0.1616
 4314SOL    HW224576   2.154   0.355   4.603 -0.0802 -2.1814 -0.6911
 4315SOL     OW24577   3.285   0.911   7.473 -0.2630 -0.3557  0.0584
 4315SOL    HW124578   3.358   0.877   7.422 -0.2071 -1.3433  0.7947
 4315SOL    HW224579   3.294   1.001   7.442 -0.2485  0.4687  2.4351
 4316SOL     OW24580   0.549   4.447   3.430  0.2547  0.3438  0.4326
 4316SOL    HW124581   0.534   4.356   3.455  0.4714  0.2645  0.2657
 4316SOL    HW224582   0.456   4.470   3.420  0.1776 -0.6942 -1.1549
 4317SOL     OW24583   0.027   1.285   2.275 -0.2116 -0.1688  0.4318
 4317SOL    HW124584   0.022   1.354   2.209 -1.8334 -1.2678 -0.5965
 4317SOL    HW224585   4.713   1.223   2.226 -2.4233  1.3161  0.9778
 4318SOL     OW24586   4.009   2.573   4.909  0.1528  0.6373  0.1091
 4318SOL    HW124587   4.096   2.534   4.902 -1.0160 -1.7655 -0.8531
 4318SOL    HW224588   3.973   2.526   4.984  4.3975 -1.1925  0.9887
 4319SOL     OW24589   3.058   3.823  14.933  0.0266  0.0171 -0.3815
 4319SOL    HW124590   3.128   3.804  14.996  0.4754  1.8663 -0.3241
 4319SOL    HW224591   3.105   3.795  14.854  0.2406 -0.5215 -0.0645
 4320SOL     OW24592   2.549   0.763   1.984  0.4454  0.2724 -0.4143
 4320SOL    HW124593   2.457   0.786   1.980  0.4753  0.1092 -2.4348
 4320SOL    HW224594   2.545   0.674   2.018  3.0232 -0.2257 -1.3775
 4321SOL     OW24595   1.026   3.610   1.131  0.1674 -0.1395  0.0917
 4321SOL    HW124596   0.979   3.534   1.097  0.8108 -1.1117  1.3804
 4321SOL    HW224597   0.975   3.615   1.212 -0.2570 -2.3299 -0.0447
 4322SOL     OW24598   4.323   0.390  10.720  0.0930 -0.4054  0.6420
 4322SOL    HW124599   4.319   0.434  10.805  0.8090 -2.5921  1.8076
 4322SOL    HW224600   4.317   0.301  10.755  1.5544  0.0975  2.1346
 4323SOL     OW24601   2.751   4.555   3.652 -0.0720  0.0033 -0.3532
 4323SOL    HW124602   2.725   4.504   3.728  1.0425 -1.9825 -1.3025
 4323SOL    HW224603   2.790   4.633   3.691  0.2963  0.3604 -1.4133
 4324SOL     OW24604   2.408   4.728   0.692 -0.1727 -0.4223 -0.0469
 4324SOL    HW124605   2.471   0.038   0.640 -2.9144  3.3904  0.3438
 4324SOL    HW224606   2.429   4.637   0.671  0.0942 -0.7835  1.7667
 4325SOL     OW24607   1.185   0.768   3.248 -0.4909 -0.2778 -0.5396
 4325SOL    HW124608   1.274   0.775   3.211 -0.8078  0.1724 -1.2251
 4325SOL    HW224609   1.197   0.753   3.342  0.2603 -0.1166 -0.6066
 4326SOL     OW24610   2.724   3.045   5.790 -0.4278 -0.8410  0.1215
 4326SOL    HW124611   2.632   3.019   5.795  0.1333 -2.8954 -0.2224
 4326SOL    HW224612   2.736   3.050   5.695  0.5639 -3.1290  0.1217
 4327SOL     OW24613   2.199   2.088  16.966  0.1026 -0.7542  0.2963
 4327SOL    HW124614   2.175   1.996  16.974  1.3871 -0.9718  1.5001
 4327SOL    HW224615   2.245   2.076  16.883  2.2179  0.5907  1.2935
 4328SOL     OW24616   1.112   0.893   8.781  0.6787  0.0760 -0.0957
 4328SOL    HW124617   1.092   0.977   8.739  0.2455  0.4194  0.8066
 4328SOL    HW224618   1.042   0.842   8.741  1.5495 -2.2388  1.3290
 4329SOL     OW24619   2.213   0.502   8.382  0.2507  0.2347  0.0191
 4329SOL    HW124620   2.286   0.529   8.438  0.6000 -1.5192  0.3953
 4329SOL    HW224621   2.238   0.553   8.305 -0.3521  0.8077  0.2027
 4330SOL     OW24622   0.465   1.093  15.481 -0.4004 -0.4053 -0.6497
 4330SOL    HW124623   0.374   1.068  15.496 -0.0612 -1.9829 -1.2767
 4330SOL    HW224624   0.509   1.046  15.551 -2.5149 -0.1702  0.8285
 4331SOL     OW24625   0.323   2.025   7.086  0.7533  0.1077 -0.7159
 4331SOL    HW124626   0.291   2.064   7.168  1.3723  2.5653 -1.6250
 4331SOL    HW224627   0.281   2.086   7.025  1.5674  0.2452 -1.1345
 4332SOL     OW24628   1.814   0.822   0.328  0.2568 -0.1620 -0.1624
 4332SOL    HW124629   1.828   0.855   0.239 -3.0415  0.4170 -0.4817
 4332SOL    HW224630   1.887   0.871   0.365  2.0156 -3.0753  0.2385
 4333SOL     OW24631   4.359   4.735   2.085 -0.2821 -0.2421  0.1020
 4333SOL    HW124632   4.324   0.081   2.062  1.3282 -0.1321 -1.8785
 4333SOL    HW224633   4.450   4.734   2.055 -0.2588 -0.4305  0.1806
 4334SOL     OW24634   3.811   4.388   7.560 -0.5429  0.1969  0.2341
 4334SOL    HW124635   3.734   4.432   7.525 -0.4971  1.0702  1.2268
 4334SOL    HW224636   3.874   4.460   7.562  0.7255 -0.9478  0.8269
 4335SOL     OW24637   0.650   1.043   4.440 -0.1677 -0.3906 -0.0230
 4335SOL    HW124638   0.669   1.133   4.468 -1.9841  0.0902 -0.2871
 4335SOL    HW224639   0.708   0.986   4.489  1.9543  1.5880 -0.2399
 4336SOL     OW24640   0.770   1.041   2.235 -0.4661 -0.0049 -0.1767
 4336SOL    HW124641   0.700   1.081   2.183 -2.0083  0.2175  2.0565
 4336SOL    HW224642   0.770   0.947   2.216  1.2684 -0.6562  3.1181
 4337SOL     OW24643   2.290   0.465   9.035  0.3584 -0.7252  0.1352
 4337SOL    HW124644   2.295   0.561   9.033 -2.0649 -0.6182 -0.0623
 4337SOL    HW224645   2.207   0.453   8.990 -0.2431 -0.2400  1.1278
 4338SOL     OW24646   0.106   3.711   4.229  0.2942  0.1310 -0.2378
 4338SOL    HW124647   0.034   3.713   4.292  0.2753 -2.6946 -0.1776
 4338SOL    HW224648   0.094   3.806   4.216  1.9865  0.4840  0.8319
 4339SOL     OW24649   4.358   1.100  11.121 -0.0090 -0.5622  0.8992
 4339SOL    HW124650   4.287   1.053  11.165 -0.3740 -1.7527 -0.9366
 4339SOL    HW224651   4.319   1.187  11.117 -1.5689 -1.4304 -2.5336
 4340SOL     OW24652   2.838   1.262  14.679  0.4658  0.1410  0.0540
 4340SOL    HW124653   2.903   1.219  14.735  1.4220  0.2612 -0.9746
 4340SOL    HW224654   2.864   1.352  14.660 -0.2479  0.3850  0.2341
 4341SOL     OW24655   1.335   4.372   0.906  0.3221  0.3400 -0.1111
 4341SOL    HW124656   1.342   4.279   0.886  0.0744  0.1525  0.6702
 4341SOL    HW224657   1.258   4.367   0.963 -0.4908 -1.2106 -1.3527
 4342SOL     OW24658   3.939   3.464   4.682 -0.0197 -0.6758 -0.3632
 4342SOL    HW124659   3.852   3.499   4.704  1.1462  0.2836  2.8005
 4342SOL    HW224660   3.959   3.468   4.589  0.3164 -1.6884 -0.3245
 4343SOL     OW24661   2.900   2.804   2.070 -0.1588 -0.4372  0.5347
 4343SOL    HW124662   2.864   2.844   1.991  2.3667  2.6987  0.9431
 4343SOL    HW224663   2.946   2.875   2.115  0.6520 -0.2642 -0.5805
 4344SOL     OW24664   2.112   4.629   8.048  0.1035  0.5248 -0.8178
 4344SOL    HW124665   2.081   4.718   8.037  0.5672  0.5646 -1.8251
 4344SOL    HW224666   2.154   4.613   7.963 -1.6447 -0.7983 -1.4218
 4345SOL     OW24667   3.757   2.459   7.331  0.0887  0.4212  0.0185
 4345SOL    HW124668   3.686   2.483   7.271 -0.1582 -1.5101 -0.4680
 4345SOL    HW224669   3.811   2.538   7.327  0.5509  0.0458 -1.2326
 4346SOL     OW24670   3.293   1.916   2.628  0.3680 -0.8242  0.0211
 4346SOL    HW124671   3.284   1.991   2.687  2.4623 -0.5649  0.0106
 4346SOL    HW224672   3.212   1.868   2.645 -0.1370 -0.4289 -1.2603
 4347SOL     OW24673   1.233   0.957   2.247  0.3949  0.1183 -0.4445
 4347SOL    HW124674   1.201   0.877   2.288 -2.7310  0.8936 -1.3585
 4347SOL    HW224675   1.328   0.943   2.244  0.6074  1.5010 -0.2857
 4348SOL     OW24676   1.243   3.608   4.528  0.1197  0.1907 -0.2076
 4348SOL    HW124677   1.285   3.524   4.510  0.9589  0.8574 -1.3115
 4348SOL    HW224678   1.308   3.638   4.592 -0.9467  1.0333  0.4776
 4349SOL     OW24679   0.723   1.577   1.899  0.5146 -0.5251 -0.3899
 4349SOL    HW124680   0.731   1.539   1.811 -1.0110  1.9428 -1.6033
 4349SOL    HW224681   0.808   1.620   1.895 -0.6216  1.6416 -1.0238
 4350SOL     OW24682   4.246   1.400  13.253 -0.2252  0.3426 -0.1496
 4350SOL    HW124683   4.202   1.417  13.337  1.7087  2.7087  0.3780
 4350SOL    HW224684   4.178   1.432  13.193  0.7110 -0.0178 -1.3895
 4351SOL     OW24685   4.664   2.913   7.620  0.3884  0.2404 -0.5696
 4351SOL    HW124686   4.575   2.939   7.595  0.4316  0.2624 -0.6993
 4351SOL    HW224687   4.720   2.977   7.576  0.1156  0.3633 -0.7396
 4352SOL     OW24688   1.063   4.619  10.265 -0.5367  0.3320  0.4835
 4352SOL    HW124689   1.098   4.702  10.297  2.3315 -0.7844  0.3129
 4352SOL    HW224690   0.992   4.605  10.327 -2.0680  1.2070 -1.0727
 4353SOL     OW24691   3.757   0.149  17.578  0.0999  0.1535  0.3172
 4353SOL    HW124692   3.712   0.183  17.655  0.5142 -2.8422  1.8768
 4353SOL    HW224693   3.828   0.213  17.570  0.7489 -0.4303  1.4911
 4354SOL     OW24694   1.640   0.078   9.732 -0.0911 -0.4303  0.5500
 4354SOL    HW124695   1.618   0.003   9.785  0.1900 -1.1809 -0.3921
 4354SOL    HW224696   1.553   0.116   9.719  1.3586  2.4110 -1.0672
 4355SOL     OW24697   0.048   4.474   9.710  0.2660 -0.7182  0.6779
 4355SOL    HW124698   0.009   4.417   9.644 -1.8411  1.3460  0.1362
 4355SOL    HW224699   0.142   4.458   9.708  0.4678  0.1864  2.6550
 4356SOL     OW24700   3.351   2.974   5.693  0.0129  0.2359  0.1617
 4356SOL    HW124701   3.387   2.907   5.752 -2.4090 -1.4798 -0.3183
 4356SOL    HW224702   3.403   2.955   5.615 -0.0756  2.6906 -0.4822
 4357SOL     OW24703   2.051   1.095  14.206  0.2643 -0.3250 -0.2551
 4357SOL    HW124704   2.023   1.068  14.119  0.2826  0.4563 -0.5078
 4357SOL    HW224705   2.081   1.018  14.254 -2.9144 -0.1009  2.1178
 4358SOL     OW24706   1.482   1.556  13.333  0.1779  0.9137  0.4919
 4358SOL    HW124707   1.507   1.558  13.425  1.0191 -0.2185  0.2842
 4358SOL    HW224708   1.527   1.473  13.317  0.6438  0.7010  2.9114
 4359SOL     OW24709   2.037   0.736   7.999 -0.1753 -0.5198 -0.0863
 4359SOL    HW124710   2.111   0.720   7.941 -1.0737 -1.9772 -0.8312
 4359SOL    HW224711   1.976   0.761   7.930  1.6598  1.2821 -1.0651
 4360SOL     OW24712   1.753   2.488   8.249 -0.2654 -0.8227 -0.0146
 4360SOL    HW124713   1.824   2.424   8.248 -0.3280 -0.8940  0.0460
 4360SOL    HW224714   1.688   2.436   8.296  0.4822  0.8460  2.8592
 4361SOL     OW24715   1.177   3.379   7.567 -0.4769 -0.7069 -0.2917
 4361SOL    HW124716   1.139   3.443   7.627  1.5293 -0.9207  1.2444
 4361SOL    HW224717   1.102   3.339   7.523 -2.0199  2.5242 -0.5602
 4362SOL     OW24718   1.100   4.719   9.740 -0.5138  0.4755  0.7880
 4362SOL    HW124719   1.175   4.662   9.727 -0.2618  0.7600  1.0060
 4362SOL    HW224720   1.129   0.070   9.729  1.6358 -0.2366  0.6469
 4363SOL     OW24721   0.252   0.949   5.340 -0.5921 -0.2614  0.1555
 4363SOL    HW124722   0.338   0.980   5.370 -0.8859  0.7008  0.0097
 4363SOL    HW224723   0.219   1.011   5.275  1.8361  1.5713  0.6599
 4364SOL     OW24724   0.311   3.142  11.171 -0.1568 -0.8607  0.1058
 4364SOL    HW124725   0.261   3.124  11.092 -0.1285  0.2694 -0.1743
 4364SOL    HW224726   0.395   3.154  11.128 -0.5484 -0.6209 -0.6018
 4365SOL     OW24727   1.513   3.380   8.893  0.0069  0.2413 -0.2039
 4365SOL    HW124728   1.555   3.299   8.866  0.1690  0.5125 -0.7634
 4365SOL    HW224729   1.532   3.367   8.986 -0.4024 -1.9439 -0.4320
 4366SOL     OW24730   1.878   1.139   4.409 -0.0697 -0.2524  0.6703
 4366SOL    HW124731   1.783   1.148   4.419 -0.1010  0.5262 -0.2976
 4366SOL    HW224732   1.916   1.207   4.464  1.5260 -1.5020  1.1192
 4367SOL     OW24733   2.469   4.169   4.899  0.5629 -0.2577 -0.0261
 4367SOL    HW124734   2.503   4.090   4.941  2.1181  0.9229  0.9638
 4367SOL    HW224735   2.504   4.158   4.811  1.6092 -1.1844  0.5111
 4368SOL     OW24736   2.287   2.802  10.112 -0.0903 -0.0676 -0.0808
 4368SOL    HW124737   2.285   2.786  10.206  1.2145  1.9918  0.3030
 4368SOL    HW224738   2.251   2.890  10.101  0.3844  0.0332 -0.8249
 4369SOL     OW24739   0.892   3.969   4.558 -0.1756  0.7851 -0.1857
 4369SOL    HW124740   0.867   4.001   4.644 -1.6983  2.2241 -1.1663
 4369SOL    HW224741   0.963   4.026   4.529  0.3861  1.2752  2.1668
 4370SOL     OW24742   4.009   1.406   1.973  0.4950  0.6728 -0.1007
 4370SOL    HW124743   4.032   1.388   2.064  2.1672 -1.0789 -0.8543
 4370SOL    HW224744   3.914   1.406   1.973  0.4941 -0.5892 -0.6665
 4371SOL     OW24745   4.402   2.175   7.420 -0.7372 -0.0112  0.0039
 4371SOL    HW124746   4.350   2.155   7.343 -1.8904  1.2380  0.4510
 4371SOL    HW224747   4.489   2.168   7.380  0.0432 -1.6043  1.9589
 4372SOL     OW24748   3.309   0.577   1.123  0.2837  0.0378 -0.2314
 4372SOL    HW124749   3.281   0.585   1.214 -2.4013 -1.1174 -0.9322
 4372SOL    HW224750   3.229   0.585   1.070 -1.7937 -2.1144  2.5665
 4373SOL     OW24751   2.004   1.275   3.863  0.3169  0.1740 -0.4973
 4373SOL    HW124752   1.926   1.222   3.844  0.2462 -0.0654  0.4689
 4373SOL    HW224753   1.964   1.362   3.858  3.5063  1.6590 -0.0328
 4374SOL     OW24754   1.756   2.242  16.909 -0.0232 -0.0315 -0.1776
 4374SOL    HW124755   1.735   2.318  16.855  2.3596  0.4051 -0.5140
 4374SOL    HW224756   1.773   2.176  16.842  1.0149 -0.8363  0.8732
 4375SOL     OW24757   2.920   1.691   5.566  0.6046  0.6982  0.1050
 4375SOL    HW124758   2.870   1.626   5.615  0.7606  0.0248 -0.6373
 4375SOL    HW224759   2.967   1.740   5.634  1.9825 -0.9409  0.3057
 4376SOL     OW24760   4.181   2.143   3.362 -0.3701 -0.4853 -0.0444
 4376SOL    HW124761   4.100   2.092   3.351  0.9399 -2.5232 -0.3103
 4376SOL    HW224762   4.142   2.229   3.352  0.4237 -0.1960 -0.6283
 4377SOL     OW24763   3.226   1.062  14.346  0.5324 -0.3377  0.1957
 4377SOL    HW124764   3.181   0.989  14.303 -1.3359  0.3693  0.9139
 4377SOL    HW224765   3.158   1.104  14.398  1.0270  3.2739 -2.1237
 4378SOL     OW24766   0.449   3.521   2.341 -0.1462 -0.1217 -0.0066
 4378SOL    HW124767   0.465   3.604   2.385  1.7385 -1.4450  1.7774
 4378SOL    HW224768   0.512   3.467   2.388 -0.2750  0.6197  0.9953
 4379SOL     OW24769   2.286   2.500  17.511  0.3358 -0.2202  0.7380
 4379SOL    HW124770   2.263   2.589  17.486 -1.3353 -1.1491 -1.1058
 4379SOL    HW224771   2.204   2.460  17.480 -0.0646  1.2911 -0.1576
 4380SOL     OW24772   2.957   4.078   7.229  0.5623 -0.3072 -0.2889
 4380SOL    HW124773   2.892   4.008   7.219 -0.7039  0.5417  1.9185
 4380SOL    HW224774   2.911   4.160   7.212  0.4169 -1.1233 -3.6972
 4381SOL     OW24775   0.437   1.261  13.626  0.5799  0.3262 -0.2636
 4381SOL    HW124776   0.445   1.301  13.712  1.7039 -0.3484 -0.0625
 4381SOL    HW224777   0.518   1.214  13.609 -0.2029 -1.3778  0.7057
 4382SOL     OW24778   3.566   0.361  11.138  0.2852  0.7116 -0.0021
 4382SOL    HW124779   3.557   0.271  11.168  0.7906  0.4778 -0.5521
 4382SOL    HW224780   3.517   0.399  11.211 -1.0288  3.3736 -2.2500
 4383SOL     OW24781   3.936   1.666   4.648  0.5966 -0.0494 -0.5732
 4383SOL    HW124782   3.955   1.573   4.656 -0.7085 -0.3713 -1.2352
 4383SOL    HW224783   3.901   1.672   4.559 -0.2979 -1.0531 -0.2833
 4384SOL     OW24784   1.898   2.797  11.897 -0.3404  0.4577  0.4894
 4384SOL    HW124785   1.935   2.830  11.815 -0.0026 -0.3520  0.3226
 4384SOL    HW224786   1.824   2.738  11.884  1.5546 -1.5993 -0.8880
 4385SOL     OW24787   2.040   0.144   4.964  0.6659 -0.7258  0.2761
 4385SOL    HW124788   2.008   0.178   5.048 -0.7952 -0.5068 -0.3828
 4385SOL    HW224789   2.132   0.164   4.983  0.8299  1.2482 -2.5630
 4386SOL     OW24790   4.627   3.049   5.796 -0.0387 -0.6085  0.0417
 4386SOL    HW124791   4.686   3.117   5.829 -3.5747  2.8480 -0.6174
 4386SOL    HW224792   4.688   2.982   5.765  0.5867 -0.4894  1.0208
 4387SOL     OW24793   1.572   0.511   6.394 -0.5751 -0.1216 -0.0744
 4387SOL    HW124794   1.665   0.510   6.371 -0.1903  0.9421  1.4332
 4387SOL    HW224795   1.544   0.594   6.356 -1.0142  0.6644  1.9774
 4388SOL     OW24796   0.493   1.031   5.459  0.0635 -0.0786 -0.4102
 4388SOL    HW124797   0.582   0.997   5.471  0.6180  0.9437 -1.5543
 4388SOL    HW224798   0.493   1.086   5.537 -0.7030 -1.0196  0.2540
 4389SOL     OW24799   3.911   3.624   8.105 -0.3693  0.3082  0.3157
 4389SOL    HW124800   3.835   3.599   8.053 -0.3541 -1.9959  1.3962
 4389SOL    HW224801   3.910   3.719   8.106  0.9767  0.3357 -3.3188
 4390SOL     OW24802   3.752   2.226   5.911 -0.0013 -0.5332 -0.1469
 4390SOL    HW124803   3.767   2.226   6.006 -2.8491 -2.8675  0.3315
 4390SOL    HW224804   3.837   2.252   5.877 -0.3138 -0.0150 -0.5212
 4391SOL     OW24805   4.392   2.480   9.723 -0.1775  0.1096 -0.2476
 4391SOL    HW124806   4.344   2.417   9.776 -1.8764  1.0909 -0.6165
 4391SOL    HW224807   4.478   2.438   9.718  0.8520  2.1177  0.1606
 4392SOL     OW24808   4.707   2.061   6.670 -0.2085  0.3087  0.6947
 4392SOL    HW124809   4.625   2.037   6.713 -0.4600  0.3032  0.2143
 4392SOL    HW224810   4.695   2.155   6.688  1.1419  0.3298  1.4276
 4393SOL     OW24811   3.050   1.627   5.182  0.5810 -0.2751  0.9869
 4393SOL    HW124812   3.004   1.549   5.214  0.1384 -0.7857 -0.9185
 4393SOL    HW224813   3.033   1.610   5.089 -0.1840  1.4046  0.8178
 4394SOL     OW24814   0.666   1.713   1.501 -0.0418  0.5449 -0.2729
 4394SOL    HW124815   0.641   1.624   1.526  0.2012  0.0312 -1.8634
 4394SOL    HW224816   0.736   1.740   1.560 -0.1565  0.1469  0.0512
 4395SOL     OW24817   1.702   3.529   4.752 -0.2111  0.2772  0.6961
 4395SOL    HW124818   1.715   3.469   4.825  0.0900  0.7521  1.0296
 4395SOL    HW224819   1.757   3.476   4.694  0.6171  1.7828  0.1018
 4396SOL     OW24820   0.647   2.061   3.159  0.3525 -0.0218  0.1191
 4396SOL    HW124821   0.653   2.102   3.245 -2.4317  2.9632 -1.1210
 4396SOL    HW224822   0.563   2.099   3.133  0.7720  1.3798  0.7926
 4397SOL     OW24823   0.423   2.511   8.379 -0.9253 -0.2601 -0.1693
 4397SOL    HW124824   0.483   2.547   8.444 -0.6257  1.6356 -1.4986
 4397SOL    HW224825   0.480   2.510   8.302 -2.1833 -1.3133 -1.0751
 4398SOL     OW24826   1.818   2.721  15.037  0.6253  0.5667 -0.1140
 4398SOL    HW124827   1.826   2.635  14.997  0.1766  1.9131 -3.1783
 4398SOL    HW224828   1.806   2.774  14.958 -1.5754 -0.4500 -0.4577
 4399SOL     OW24829   3.644   2.858   6.631  0.0553  0.2299  0.4643
 4399SOL    HW124830   3.562   2.811   6.617  0.8593 -0.3837 -2.1884
 4399SOL    HW224831   3.614   2.947   6.646 -1.3364 -0.1053 -0.3725
 4400SOL     OW24832   3.346   1.330   3.636 -0.1497  0.4692 -0.1471
 4400SOL    HW124833   3.277   1.314   3.701  0.7982 -1.6206  0.3578
 4400SOL    HW224834   3.318   1.408   3.588 -3.9553 -1.5824 -1.2430
 4401SOL     OW24835   0.945   3.007   6.565  0.0042  0.2233 -0.5506
 4401SOL    HW124836   0.992   2.925   6.550  0.7380  0.7289 -0.9861
 4401SOL    HW224837   0.886   2.968   6.630  0.7934  0.8583  0.5367
 4402SOL     OW24838   0.065   0.282   5.236 -0.6424  0.3123  0.0840
 4402SOL    HW124839   0.026   0.349   5.180 -1.2069 -0.0113  0.0930
 4402SOL    HW224840   0.090   0.322   5.319 -1.2541  0.4575  0.1939
 4403SOL     OW24841   3.286   2.415   6.155  0.0765 -0.2358 -0.5911
 4403SOL    HW124842   3.312   2.507   6.153 -1.1400  0.1240 -0.1718
 4403SOL    HW224843   3.191   2.410   6.142  0.1069  2.1771 -1.7857
 4404SOL     OW24844   1.215   2.873   5.765 -0.1075 -0.1588 -0.3480
 4404SOL    HW124845   1.206   2.805   5.831 -1.1034 -0.8587 -1.2053
 4404SOL    HW224846   1.168   2.843   5.687  0.5470 -1.0725 -0.3789
 4405SOL     OW24847   1.660   3.498   6.422 -0.5239 -0.3763 -0.0285
 4405SOL    HW124848   1.703   3.463   6.500 -0.8942  0.2162  0.4372
 4405SOL    HW224849   1.656   3.592   6.439 -1.1104 -0.7965  2.1392
 4406SOL     OW24850   1.849   2.910  16.914 -0.1478 -0.5073 -0.1281
 4406SOL    HW124851   1.888   2.997  16.906  1.0051 -0.9033  1.1918
 4406SOL    HW224852   1.880   2.875  16.830 -0.8497 -1.1988 -0.1031
 4407SOL     OW24853   0.101   0.315   7.480  0.4657  0.2042  0.1480
 4407SOL    HW124854   0.009   0.291   7.486  0.7931 -0.8874  0.7598
 4407SOL    HW224855   0.131   0.268   7.558  1.9849  0.0418 -0.5297
 4408SOL     OW24856   3.437   4.382   7.454  0.3037  0.1024 -0.1779
 4408SOL    HW124857   3.486   4.368   7.535  0.0032 -1.6113 -0.3056
 4408SOL    HW224858   3.359   4.336   7.485  1.0213 -2.5322 -2.3065
 4409SOL     OW24859   1.990   0.660   6.723  0.2838  0.0345  0.6409
 4409SOL    HW124860   1.980   0.717   6.800 -1.6697 -2.1197  1.9665
 4409SOL    HW224861   2.050   0.713   6.671  1.3256 -1.3140  0.4659
 4410SOL     OW24862   3.681   3.857   2.904 -0.2704 -0.1458 -0.0587
 4410SOL    HW124863   3.674   3.841   2.810  0.7947 -0.1857 -0.1283
 4410SOL    HW224864   3.731   3.939   2.908  0.5549 -0.6256 -0.6518
 4411SOL     OW24865   0.354   1.734   8.029  0.0163 -0.1428  0.1801
 4411SOL    HW124866   0.289   1.741   8.098 -2.2605  1.4146 -2.0779
 4411SOL    HW224867   0.426   1.701   8.082 -0.5915 -0.4642  0.8081
 4412SOL     OW24868   0.480   3.369  15.163 -0.6754 -0.1978  0.1810
 4412SOL    HW124869   0.418   3.296  15.159  1.1070 -1.6902 -0.6848
 4412SOL    HW224870   0.450   3.417  15.240 -1.3523  0.2952 -0.4007
 4413SOL     OW24871   2.658   1.368  15.069 -0.4781 -0.2539 -0.1749
 4413SOL    HW124872   2.751   1.356  15.051 -0.6333 -0.5802 -0.7465
 4413SOL    HW224873   2.634   1.449  15.024 -3.1288 -1.1596 -0.3916
 4414SOL     OW24874   3.045   0.321   9.080  0.0221  0.3294  0.3461
 4414SOL    HW124875   3.105   0.246   9.087 -4.0122 -3.1930 -2.6347
 4414SOL    HW224876   2.968   0.287   9.125 -0.4027 -0.8004 -1.2369
 4415SOL     OW24877   0.212   2.940   1.045  0.3996  0.6413  0.2018
 4415SOL    HW124878   0.302   2.971   1.045  0.0020  1.8216  0.0443
 4415SOL    HW224879   0.174   2.985   1.121 -1.1451  1.8817 -1.2875
 4416SOL     OW24880   1.645   0.702   5.613 -0.4951 -0.0419  0.1975
 4416SOL    HW124881   1.687   0.630   5.567 -0.6338 -1.8533  2.9193
 4416SOL    HW224882   1.663   0.773   5.551 -2.6790  0.5579  0.2514
 4417SOL     OW24883   2.932   4.544   8.690  0.5892  0.0772  0.0911
 4417SOL    HW124884   2.876   4.466   8.698 -1.6705  1.6244 -0.6992
 4417SOL    HW224885   2.887   4.591   8.620  0.8697 -0.1126 -0.2136
 4418SOL     OW24886   2.678   2.095   9.214  0.1252 -0.1678  0.0068
 4418SOL    HW124887   2.641   2.015   9.176 -4.0249  1.5292  0.4872
 4418SOL    HW224888   2.603   2.146   9.245  1.2692  0.3001  2.0105
 4419SOL     OW24889   3.242   2.462   3.307 -0.1878 -0.0782 -0.2423
 4419SOL    HW124890   3.335   2.478   3.325 -0.1700 -0.1045 -0.3073
 4419SOL    HW224891   3.234   2.367   3.320  2.4712 -0.1783  0.7479
 4420SOL     OW24892   1.789   3.012   5.966  0.2742  0.2566 -0.3456
 4420SOL    HW124893   1.797   3.106   5.983 -0.7756  0.0584  1.2210
 4420SOL    HW224894   1.881   2.987   5.977 -0.3023 -1.7107 -0.0602
 4421SOL     OW24895   1.964   2.137   1.577 -0.2286 -0.4249  0.8404
 4421SOL    HW124896   1.931   2.083   1.649 -0.2047 -2.2868 -0.5625
 4421SOL    HW224897   2.059   2.128   1.578 -0.1914  0.0073  1.3563
 4422SOL     OW24898   0.170   3.129   3.949  0.7387 -0.6655 -0.6180
 4422SOL    HW124899   0.164   3.071   4.024 -0.0441  0.9341  0.5590
 4422SOL    HW224900   0.224   3.199   3.985 -0.9470 -0.1959  0.9897
 4423SOL     OW24901   3.588   3.440   1.406 -0.0563 -0.4241 -0.2588
 4423SOL    HW124902   3.673   3.401   1.384  0.3242  0.3459 -0.1598
 4423SOL    HW224903   3.537   3.385   1.347  0.1803  0.1353 -0.9906
 4424SOL     OW24904   2.052   4.361   0.032  0.1403 -0.1265  0.2198
 4424SOL    HW124905   2.103   4.313   0.096 -0.4715 -0.9438  0.0966
 4424SOL    HW224906   2.073   4.450   0.059 -1.2241  0.6687 -1.3192
 4425SOL     OW24907   1.153   0.063   2.817 -0.3313 -0.0477  0.0054
 4425SOL    HW124908   1.166   0.153   2.785 -1.3262 -0.2790 -1.0645
 4425SOL    HW224909   1.101   0.017   2.751  0.1476  1.3012 -1.3265
 4426SOL     OW24910   0.588   2.478  13.453 -0.6440  0.5940 -0.2022
 4426SOL    HW124911   0.677   2.464  13.486 -0.4170  0.0606 -1.0129
 4426SOL    HW224912   0.541   2.403  13.489 -0.9672  0.4314 -0.9696
 4427SOL     OW24913   4.650   2.753   7.169  0.7348 -0.5687 -0.7745
 4427SOL    HW124914   4.724   2.782   7.222 -0.4776 -0.5531  0.9391
 4427SOL    HW224915   4.574   2.767   7.226  0.2306  0.4605 -1.6797
 4428SOL     OW24916   4.011   1.491  13.090 -0.5718  0.1474 -0.5337
 4428SOL    HW124917   3.993   1.580  13.061 -0.6173  0.6775  1.1003
 4428SOL    HW224918   3.933   1.470  13.140 -0.0186  1.8605  1.0653
 4429SOL     OW24919   1.647   0.182   7.125  0.0388 -0.0816 -0.4404
 4429SOL    HW124920   1.600   0.168   7.043  1.0581  0.1248 -1.0569
 4429SOL    HW224921   1.584   0.152   7.190  0.6870 -0.1708  0.1517
 4430SOL     OW24922   3.109   0.990  14.643 -0.1780  0.4067  0.3075
 4430SOL    HW124923   3.108   1.067  14.586 -3.0377  0.9494  1.0861
 4430SOL    HW224924   3.075   1.021  14.726 -0.8616 -1.6684  0.8047
 4431SOL     OW24925   2.624   1.200   6.246 -0.2723 -0.2563  0.2202
 4431SOL    HW124926   2.665   1.249   6.176 -0.0818  2.3683  2.1723
 4431SOL    HW224927   2.553   1.260   6.270  0.5873  1.1746 -0.8684
 4432SOL     OW24928   0.526   1.872   6.981  0.5215  0.3141 -0.7278
 4432SOL    HW124929   0.549   1.821   7.059 -1.1542  0.6999  0.0139
 4432SOL    HW224930   0.459   1.936   7.007 -1.1284 -1.1856 -1.2555
 4433SOL     OW24931   3.536   3.135  11.925 -0.3310 -0.5684 -0.6953
 4433SOL    HW124932   3.603   3.068  11.941 -0.5714 -0.8319 -0.7696
 4433SOL    HW224933   3.495   3.092  11.849 -3.5212 -0.1117  0.7844
 4434SOL     OW24934   4.485   1.289   8.903  0.1431  0.2139  0.1306
 4434SOL    HW124935   4.574   1.263   8.928  0.7876  2.5970  0.2806
 4434SOL    HW224936   4.458   1.364   8.956 -0.2594 -0.6912  1.1954
 4435SOL     OW24937   4.732   2.423   2.535 -0.1019 -0.2453  0.3598
 4435SOL    HW124938   4.651   2.445   2.489  0.7433  0.3618 -0.8174
 4435SOL    HW224939   0.035   2.383   2.459 -0.7630  1.7620 -1.0616
 4436SOL     OW24940   0.506   0.412   3.955 -0.1490  0.0224  0.1413
 4436SOL    HW124941   0.513   0.447   4.044 -0.0110 -1.9288  0.8862
 4436SOL    HW224942   0.560   0.333   3.956  0.0210  0.1372  0.0884
 4437SOL     OW24943   3.793   0.143   6.127  0.1796  0.0266 -0.1079
 4437SOL    HW124944   3.773   0.163   6.219 -1.3078 -2.6585  0.1411
 4437SOL    HW224945   3.801   0.049   6.137  1.7815  0.1085 -0.5619
 4438SOL     OW24946   1.929   0.262  16.337 -0.7261  0.4154  0.2641
 4438SOL    HW124947   1.878   0.283  16.259  2.2505  1.3640 -1.4169
 4438SOL    HW224948   1.861   0.224  16.393 -1.0710  1.1249  0.3283
 4439SOL     OW24949   2.945   2.196   1.450  0.2862 -0.4009  0.0138
 4439SOL    HW124950   3.016   2.236   1.499 -1.6776  0.7976  1.8759
 4439SOL    HW224951   2.889   2.166   1.522 -0.9380  1.6074 -0.1175
 4440SOL     OW24952   0.574   0.493  17.062  0.1944 -0.0449  0.1146
 4440SOL    HW124953   0.529   0.431  17.120 -0.1966  1.3225  1.2840
 4440SOL    HW224954   0.576   0.570  17.120  0.2278  0.5043 -0.6157
 4441SOL     OW24955   1.932   3.370   4.702 -0.2077 -0.2668 -0.0051
 4441SOL    HW124956   1.995   3.310   4.662  2.4808  2.3133  0.3140
 4441SOL    HW224957   1.978   3.453   4.718 -2.6918  1.3321 -1.1135
 4442SOL     OW24958   2.394   1.505   2.246 -0.0813  0.3112  0.3615
 4442SOL    HW124959   2.437   1.588   2.266  3.7674 -1.6562  0.3041
 4442SOL    HW224960   2.477   1.458   2.243  0.6663  1.5315  1.8142
 4443SOL     OW24961   3.386   1.851   2.206  0.4706  0.5615  0.3098
 4443SOL    HW124962   3.355   1.924   2.260 -2.0990 -0.4951  0.2778
 4443SOL    HW224963   3.435   1.797   2.267 -0.5149  1.3447  1.8027
 4444SOL     OW24964   4.454   2.717   9.961 -0.3243  0.1192 -0.6144
 4444SOL    HW124965   4.450   2.670   9.878  0.3445 -2.0495  0.6005
 4444SOL    HW224966   4.402   2.793   9.932 -1.8164 -0.1513  1.3458
 4445SOL     OW24967   4.493   1.653  17.592 -0.1171 -0.0650  0.1674
 4445SOL    HW124968   4.564   1.700  17.635 -0.5147  1.1029 -0.4527
 4445SOL    HW224969   4.425   1.680  17.654 -0.8341 -0.6828 -0.3559
 4446SOL     OW24970   0.815   0.322  12.596  0.4416 -0.1455 -0.5337
 4446SOL    HW124971   0.748   0.382  12.631 -0.5450 -1.1406 -0.7185
 4446SOL    HW224972   0.792   0.324  12.503 -0.8238  2.4338 -0.1637
 4447SOL     OW24973   1.779   3.519   4.418  0.1365 -0.1554  0.2822
 4447SOL    HW124974   1.791   3.429   4.391 -0.6254 -0.1943  0.0667
 4447SOL    HW224975   1.867   3.554   4.432  0.5831 -1.1811 -0.0341
 4448SOL     OW24976   0.515   4.207   3.110 -0.2436 -0.4258  0.2048
 4448SOL    HW124977   0.544   4.146   3.177  0.0178 -1.0741 -0.4979
 4448SOL    HW224978   0.443   4.245   3.160 -0.0930 -2.2713  1.8014
 4449SOL     OW24979   4.297   0.644   2.584 -0.3242 -0.1464 -0.0365
 4449SOL    HW124980   4.315   0.732   2.554 -1.2676  0.3140  0.7404
 4449SOL    HW224981   4.206   0.651   2.614 -0.3991  0.5915 -0.4513
 4450SOL     OW24982   2.049   4.326   4.420 -0.2096  0.7094 -0.1396
 4450SOL    HW124983   2.058   4.381   4.497 -0.2092  0.3726  0.0995
 4450SOL    HW224984   2.121   4.348   4.361  0.2771 -0.3168  0.0653
 4451SOL     OW24985   4.059   4.370   7.111 -0.0755  1.0579 -0.1239
 4451SOL    HW124986   3.990   4.437   7.115  0.7193  1.8311  0.6637
 4451SOL    HW224987   4.036   4.292   7.160  1.1332  0.2809 -0.8001
 4452SOL     OW24988   1.411   0.027  14.125 -0.0284  0.1389  0.3961
 4452SOL    HW124989   1.498   0.068  14.122 -0.2939  0.7272  0.9023
 4452SOL    HW224990   1.428   4.704  14.055  1.6769  0.9354  0.0788
 4453SOL     OW24991   2.008   4.303   9.587  0.3972 -0.3814 -0.1551
 4453SOL    HW124992   1.957   4.383   9.580 -0.5247 -1.0682 -1.3055
 4453SOL    HW224993   2.081   4.330   9.531  1.5411  0.8595  1.9374
 4454SOL     OW24994   4.307   3.810   5.625 -0.1540 -0.1498  0.7176
 4454SOL    HW124995   4.399   3.805   5.651 -0.6457  1.6801  2.7708
 4454SOL    HW224996   4.284   3.900   5.646 -0.4403  0.5377 -2.5782
 4455SOL     OW24997   1.317   3.638   7.882  0.1731 -0.0989  0.4296
 4455SOL    HW124998   1.293   3.705   7.947 -0.2584 -0.1261  0.2944
 4455SOL    HW224999   1.332   3.560   7.936 -2.6515 -2.9370 -2.8999
 4456SOL     OW25000   2.837   4.287   3.541 -0.6250  0.0676  0.1801
 4456SOL    HW125001   2.797   4.375   3.541  0.7309  0.6880  0.5339
 4456SOL    HW225002   2.901   4.294   3.611 -0.1160 -1.7138 -0.1198
 4457SOL     OW25003   1.933   2.247   8.303 -0.0073  0.5790 -0.0011
 4457SOL    HW125004   1.912   2.155   8.315 -0.5423  0.7505  0.3556
 4457SOL    HW225005   1.887   2.273   8.383 -0.1456 -1.1203  0.4646
 4458SOL     OW25006   4.098   1.577   3.081  0.6352 -0.3063 -0.2392
 4458SOL    HW125007   4.169   1.628   3.121 -0.6935  1.4725 -0.1559
 4458SOL    HW225008   4.020   1.617   3.119  0.8345  0.4155 -0.5856
 4459SOL     OW25009   4.107   0.657   2.992 -0.1060 -0.5964 -0.3472
 4459SOL    HW125010   4.080   0.600   3.064 -1.4156  0.1368 -0.2624
 4459SOL    HW225011   4.141   0.596   2.926  0.4626  1.0546 -1.5788
 4460SOL     OW25012   0.235   1.131   4.275  0.1654 -0.0074  0.4864
 4460SOL    HW125013   0.307   1.073   4.303  0.7908 -0.1064 -1.3458
 4460SOL    HW225014   0.269   1.164   4.192 -3.8741  1.6511 -0.4743
 4461SOL     OW25015   4.344   1.404   7.817 -0.3464  0.1048 -0.4201
 4461SOL    HW125016   4.420   1.462   7.820 -0.6719  0.4366  1.3822
 4461SOL    HW225017   4.379   1.328   7.863 -1.7204 -0.7302 -0.7431
 4462SOL     OW25018   4.279   0.624   3.998 -0.2062 -0.3131  0.2780
 4462SOL    HW125019   4.266   0.536   4.035  1.3683 -0.2783  0.9217
 4462SOL    HW225020   4.204   0.665   4.041 -0.8054 -0.8048 -0.2947
 4463SOL     OW25021   3.447   2.801   5.855 -0.5541 -0.7792  0.4105
 4463SOL    HW125022   3.438   2.721   5.802  1.1802 -0.5822 -0.1846
 4463SOL    HW225023   3.416   2.776   5.942  1.2588  0.4229  1.3840
 4464SOL     OW25024   3.076   1.173   8.950  0.2094  0.4878  0.6459
 4464SOL    HW125025   3.066   1.268   8.943  0.2099  0.4951  0.7437
 4464SOL    HW225026   2.992   1.132   8.928  0.9204  0.3662 -1.9248
 4465SOL     OW25027   3.740   1.810   3.420  0.1476  0.6522 -0.0842
 4465SOL    HW125028   3.682   1.740   3.450 -0.3022  0.8565 -0.4755
 4465SOL    HW225029   3.818   1.802   3.474  0.3706 -0.3090 -0.5578
 4466SOL     OW25030   3.542   0.221  12.104  0.1475  0.0809 -0.4075
 4466SOL    HW125031   3.461   0.264  12.079  0.1076  0.3731  0.2396
 4466SOL    HW225032   3.512   0.130  12.101  0.9821 -0.2922  2.4083
 4467SOL     OW25033   2.985   3.432  13.905 -0.2625  0.2333 -0.0487
 4467SOL    HW125034   2.896   3.406  13.929  1.0438 -1.6120  2.7276
 4467SOL    HW225035   2.985   3.527  13.891  1.9300  0.3544  0.7143
 4468SOL     OW25036   1.965   1.045   6.589  0.2517  0.0070  0.1725
 4468SOL    HW125037   2.048   1.060   6.545 -0.4765  1.2163 -0.7756
 4468SOL    HW225038   1.977   0.950   6.592 -1.0932 -0.2186 -1.9573
 4469SOL     OW25039   2.007   1.023   9.058  0.4349  0.1290  0.2209
 4469SOL    HW125040   1.953   1.068   9.123  0.1282 -1.3364  0.9745
 4469SOL    HW225041   2.092   1.029   9.103  0.0641  2.2944  0.6421
 4470SOL     OW25042   2.246   4.068  17.641  0.0233 -0.4072 -0.1954
 4470SOL    HW125043   2.237   4.079  17.546  0.3552 -5.4996 -0.8061
 4470SOL    HW225044   2.334   4.105  17.649  0.3969 -2.1805  3.6982
 4471SOL     OW25045   3.247   4.161   6.352 -0.6783 -0.0487 -0.3236
 4471SOL    HW125046   3.163   4.177   6.396  0.3667 -0.0389  1.6539
 4471SOL    HW225047   3.230   4.070   6.329 -0.2083  0.0996 -1.2378
 4472SOL     OW25048   2.707   2.303   0.290 -0.3856 -0.4266 -0.4578
 4472SOL    HW125049   2.669   2.372   0.237  0.5894 -0.2216 -0.8971
 4472SOL    HW225050   2.632   2.248   0.312  0.1975 -0.7132  0.8267
 4473SOL     OW25051   4.674   2.731   9.433 -0.0571 -0.7147 -0.1191
 4473SOL    HW125052   4.718   2.678   9.366  0.8463 -1.6443  1.2097
 4473SOL    HW225053   4.680   2.814   9.386  1.3045 -0.2788  0.8215
 4474SOL     OW25054   4.145   0.452  13.795 -0.1859  0.4831 -0.4377
 4474SOL    HW125055   4.145   0.428  13.702  2.3650  0.1301 -0.3359
 4474SOL    HW225056   4.061   0.499  13.788 -0.8957 -0.3876  2.2356
 4475SOL     OW25057   1.042   1.803  13.426 -0.2292 -0.3413 -0.3438
 4475SOL    HW125058   0.949   1.785  13.410 -1.0557  1.1648  2.7226
 4475SOL    HW225059   1.037   1.826  13.519  2.4492 -0.7358 -0.0953
 4476SOL     OW25060   4.193   3.040  15.096  0.0135 -0.0295 -0.1314
 4476SOL    HW125061   4.207   3.006  15.184  0.4966 -0.5882 -0.4266
 4476SOL    HW225062   4.181   2.959  15.047 -2.9675  0.8924 -0.9293
 4477SOL     OW25063   4.196   3.948   7.467  0.1450  0.6321 -0.9862
 4477SOL    HW125064   4.173   4.003   7.542 -1.3325 -2.4537  0.8909
 4477SOL    HW225065   4.275   3.993   7.438  0.4142  2.7439  3.0449
 4478SOL     OW25066   3.990   4.234   4.346  0.2808 -0.1959  0.2321
 4478SOL    HW125067   4.059   4.206   4.406  1.6611  0.7730 -0.9395
 4478SOL    HW225068   3.961   4.317   4.385 -2.7171 -1.8521  1.5657
 4479SOL     OW25069   1.936   0.092   2.377 -0.1409 -0.4665 -0.1139
 4479SOL    HW125070   1.899   0.108   2.464  0.6571  0.7030  0.0040
 4479SOL    HW225071   2.029   0.101   2.398 -0.3322  0.7308  0.2404
 4480SOL     OW25072   1.832   3.502  15.535 -0.0891 -0.1578 -0.3682
 4480SOL    HW125073   1.737   3.487  15.540 -0.1951  1.4092  2.3291
 4480SOL    HW225074   1.856   3.417  15.572 -0.8400 -0.3207 -0.2419
 4481SOL     OW25075   0.023   2.336   0.276  0.1029  0.9102  0.0010
 4481SOL    HW125076   0.054   2.411   0.327  0.6155  0.3800  0.4639
 4481SOL    HW225077   4.681   2.370   0.240 -1.7412 -2.0817  1.3083
 4482SOL     OW25078   1.713   3.978   2.257  0.2038 -0.4999 -0.7236
 4482SOL    HW125079   1.762   4.060   2.252 -1.7228  0.7114  0.3534
 4482SOL    HW225080   1.652   3.975   2.330  0.9343 -2.8393 -0.1991
 4483SOL     OW25081   3.818   4.274  11.599 -0.6253 -0.4425  0.1114
 4483SOL    HW125082   3.786   4.187  11.622 -0.0989 -0.3170  1.3044
 4483SOL    HW225083   3.876   4.250  11.527 -1.0992  0.3552 -0.5459
 4484SOL     OW25084   0.763   1.393   2.131 -0.1445 -0.3662  0.0678
 4484SOL    HW125085   0.695   1.328   2.113 -0.4276  0.1144 -0.5833
 4484SOL    HW225086   0.753   1.463   2.067  0.1886 -0.3742  0.0093
 4485SOL     OW25087   4.111   0.774   5.344  0.0918 -0.3512 -0.4936
 4485SOL    HW125088   4.101   0.679   5.340 -0.2301 -0.4625  3.6449
 4485SOL    HW225089   4.026   0.804   5.376 -0.1125 -2.0856  0.5574
 4486SOL     OW25090   2.050   1.880   4.128  0.0281  0.0494  0.7830
 4486SOL    HW125091   1.956   1.872   4.114  0.2510 -1.5528  0.2444
 4486SOL    HW225092   2.082   1.897   4.040  0.6587 -0.2210  0.9547
 4487SOL     OW25093   4.407   4.517   3.143 -0.1658  0.5860  0.4959
 4487SOL    HW125094   4.381   4.511   3.235  1.1140  0.0293  0.8165
 4487SOL    HW225095   4.498   4.545   3.140 -0.4102  1.6964  3.0163
 4488SOL     OW25096   2.578   1.741   5.399 -0.1958  0.3961 -0.4686
 4488SOL    HW125097   2.673   1.730   5.398 -0.0930  1.1641  0.1777
 4488SOL    HW225098   2.575   1.835   5.379 -1.3864  0.5966  0.6601
 4489SOL     OW25099   2.202   4.627   5.377  0.6769  0.1681  0.2943
 4489SOL    HW125100   2.234   4.698   5.434 -0.8562 -0.3669  1.8096
 4489SOL    HW225101   2.113   4.658   5.359  1.3127  1.3446 -0.8293
 4490SOL     OW25102   0.370   1.686   8.888 -0.3968  0.2199  0.4763
 4490SOL    HW125103   0.324   1.734   8.820 -1.2049 -0.9654  0.1783
 4490SOL    HW225104   0.452   1.735   8.885  0.8183 -1.6777  3.0312
 4491SOL     OW25105   0.497   0.640  12.620  0.6214  0.1685  0.0368
 4491SOL    HW125106   0.508   0.572  12.686  1.3360  0.8220  0.5918
 4491SOL    HW225107   0.403   0.631  12.604  0.8544 -1.7952 -0.1734
 4492SOL     OW25108   2.684   0.321  10.667  0.7234  0.1069 -0.4097
 4492SOL    HW125109   2.747   0.391  10.651  0.2210  0.4868 -0.7326
 4492SOL    HW225110   2.602   0.371  10.665 -0.1775 -1.3198  1.2110
 4493SOL     OW25111   3.902   3.826   5.239  0.0719 -0.4394 -0.7332
 4493SOL    HW125112   3.885   3.916   5.267  0.4463  0.2081 -2.5214
 4493SOL    HW225113   3.946   3.802   5.320  1.5667  0.3284 -1.2988
 4494SOL     OW25114   3.517   0.626  12.147  0.0425  0.2423  0.1683
 4494SOL    HW125115   3.581   0.579  12.200  2.1047  1.3440 -1.3107
 4494SOL    HW225116   3.523   0.715  12.182  0.7679 -0.0558  0.7938
 4495SOL     OW25117   2.151   1.275   7.402 -0.2297  0.2891  0.2494
 4495SOL    HW125118   2.232   1.224   7.406 -1.1813 -1.2715 -0.5257
 4495SOL    HW225119   2.125   1.268   7.310  1.7118 -2.6741 -0.0715
 4496SOL     OW25120   1.196   3.379   6.251 -0.2103  0.1622  0.7445
 4496SOL    HW125121   1.240   3.441   6.309 -0.0583  2.7865 -2.1440
 4496SOL    HW225122   1.117   3.357   6.299 -1.3257  2.4255 -0.0133
 4497SOL     OW25123   0.174   2.341   7.045 -0.1818  0.2871  0.3301
 4497SOL    HW125124   0.141   2.358   7.133 -0.7522 -0.0494  0.1802
 4497SOL    HW225125   0.211   2.425   7.016  0.3915 -0.7511 -1.9485
 4498SOL     OW25126   3.971   3.344  16.677  0.1426  0.0822 -0.2622
 4498SOL    HW125127   4.046   3.327  16.620  2.2308  2.7428  1.6974
 4498SOL    HW225128   3.951   3.436  16.661 -2.6513 -0.5262 -0.2469
 4499SOL     OW25129   2.723   0.525   8.671 -0.3822  0.1094 -0.1194
 4499SOL    HW125130   2.687   0.442   8.702  1.9584 -0.8021  0.2224
 4499SOL    HW225131   2.649   0.584   8.655 -1.1880 -0.6951  0.6614
 4500SOL     OW25132   1.056   3.973   3.438 -0.5408  0.1676 -0.0010
 4500SOL    HW125133   1.111   4.020   3.501  1.3035 -0.8539 -0.8491
 4500SOL    HW225134   1.004   3.909   3.485 -0.6444 -0.4694 -0.9904
 4501SOL     OW25135   0.791   4.425  11.464  0.1952 -0.4992  0.0137
 4501SOL    HW125136   0.828   4.347  11.423  0.8034 -1.8620  3.1515
 4501SOL    HW225137   0.833   4.407  11.548  2.1428  1.1774 -0.6169
 4502SOL     OW25138   0.764   1.216  12.979 -0.0923 -1.0442  0.3025
 4502SOL    HW125139   0.797   1.134  13.015 -2.5632 -1.8766  0.6886
 4502SOL    HW225140   0.688   1.224  13.037 -0.4775 -0.5346 -0.2620
 4503SOL     OW25141   2.202   3.901   4.237 -0.2375  0.2279  0.6256
 4503SOL    HW125142   2.111   3.875   4.223  0.3996 -2.6376  1.7015
 4503SOL    HW225143   2.230   3.834   4.300  1.5152  1.3497  1.0405
 4504SOL     OW25144   4.480   1.099  16.558 -0.7874  0.1830  0.1002
 4504SOL    HW125145   4.471   1.168  16.623  2.1921  0.0515  0.6529
 4504SOL    HW225146   4.575   1.090  16.555 -0.6644  2.7612 -3.0021
 4505SOL     OW25147   4.399   1.767   2.811  0.1847  0.5505  0.2727
 4505SOL    HW125148   4.459   1.724   2.750 -0.8173  0.2014 -0.4583
 4505SOL    HW225149   4.465   1.777   2.879  1.3573  1.3934 -0.9891
 4506SOL     OW25150   0.265   4.139   4.178  0.3452  0.1077 -0.4723
 4506SOL    HW125151   0.350   4.096   4.182  1.2114  1.9516  0.5535
 4506SOL    HW225152   0.269   4.218   4.231 -2.3129  0.6663 -1.0986
 4507SOL     OW25153   4.101   2.415   9.547 -0.5274  0.0016  0.4638
 4507SOL    HW125154   4.154   2.416   9.627 -0.3310  2.5577  0.3123
 4507SOL    HW225155   4.008   2.407   9.569 -1.0952  2.7113 -1.0091
 4508SOL     OW25156   3.735   2.389   6.367 -0.3484 -0.3082 -0.1386
 4508SOL    HW125157   3.675   2.327   6.326  1.2654 -0.4298 -2.3337
 4508SOL    HW225158   3.776   2.323   6.424 -1.2384 -1.4665 -0.8397
 4509SOL     OW25159   0.247   2.036  17.058 -0.3448  0.0302  1.0964
 4509SOL    HW125160   0.319   1.988  17.017 -0.6140 -0.7652  1.5517
 4509SOL    HW225161   0.251   2.114  17.003  0.8968  0.0529  1.2025
 4510SOL     OW25162   4.466   1.972   9.245  0.0306  0.1902 -0.2167
 4510SOL    HW125163   4.561   1.983   9.243 -0.0781  1.2224  0.1949
 4510SOL    HW225164   4.440   2.065   9.246  0.9336  0.4321  1.1416
 4511SOL     OW25165   0.802   1.294   0.907  0.2001  0.1573 -0.0239
 4511SOL    HW125166   0.850   1.249   0.837  2.7070  2.0252  0.5033
 4511SOL    HW225167   0.724   1.239   0.905  0.0869  0.3369 -0.4193
 4512SOL     OW25168   1.621   3.692  14.194 -0.3465 -0.5174 -0.1780
 4512SOL    HW125169   1.686   3.641  14.242 -1.3629 -1.7422 -0.1166
 4512SOL    HW225170   1.662   3.732  14.117  0.1373  1.2579  1.0018
 4513SOL     OW25171   3.819   2.597   4.308 -0.4122 -0.1393  0.2415
 4513SOL    HW125172   3.849   2.524   4.362  1.7332  1.4620  1.2260
 4513SOL    HW225173   3.770   2.655   4.367 -0.4913  0.6159 -0.5651
 4514SOL     OW25174   3.450   1.607  11.292 -0.4436 -0.3051  0.6884
 4514SOL    HW125175   3.386   1.552  11.337  0.2403 -3.6680 -2.4963
 4514SOL    HW225176   3.395   1.683  11.276 -0.0750 -0.2492 -0.2732
 4515SOL     OW25177   2.325   1.495  16.817  0.1252 -0.2369  0.0703
 4515SOL    HW125178   2.417   1.504  16.794  0.6208 -2.2576  1.2084
 4515SOL    HW225179   2.313   1.586  16.845 -0.2249 -0.2237 -0.1171
 4516SOL     OW25180   3.981   4.009   3.507  0.0688  0.2041  0.4053
 4516SOL    HW125181   3.905   3.977   3.458  0.7808 -0.3927 -0.3057
 4516SOL    HW225182   3.961   3.971   3.593  1.4431 -2.1671 -0.3287
 4517SOL     OW25183   4.669   2.094   1.051  0.0542 -0.3303  0.1018
 4517SOL    HW125184   4.640   2.120   1.138  1.4615  2.0552 -0.1536
 4517SOL    HW225185   0.023   2.102   1.063 -0.1809  0.2757  1.4918
 4518SOL     OW25186   0.239   3.689  13.765 -0.2799 -0.1571  0.3002
 4518SOL    HW125187   0.199   3.623  13.821 -1.2491  1.8673  1.9873
 4518SOL    HW225188   0.175   3.760  13.764  0.5246  0.5587  0.7731
 4519SOL     OW25189   3.960   2.568   3.044  0.0562  0.5188  0.3250
 4519SOL    HW125190   3.901   2.623   2.992 -0.3855 -1.2230 -0.9861
 4519SOL    HW225191   4.040   2.622   3.042 -0.5284  1.4445  1.7908
 4520SOL     OW25192   1.364   2.064   3.995 -0.1849  0.0915  0.4188
 4520SOL    HW125193   1.352   2.067   3.900  1.8071 -0.2644  0.1578
 4520SOL    HW225194   1.275   2.075   4.029 -0.1508 -1.6365  1.0693
 4521SOL     OW25195   1.792   3.116   9.202  0.3826 -0.3638 -0.6333
 4521SOL    HW125196   1.829   3.064   9.131  1.1686 -0.2402 -0.3128
 4521SOL    HW225197   1.769   3.053   9.270  1.8933  0.3774  0.6009
 4522SOL     OW25198   2.406   0.731  14.452 -0.4042  0.2937  0.7516
 4522SOL    HW125199   2.377   0.808  14.501 -2.6598  1.3186 -2.1637
 4522SOL    HW225200   2.497   0.732  14.480 -1.1215 -0.8268  3.1452
 4523SOL     OW25201   0.655   3.999   4.974  0.1918  0.1949 -0.4809
 4523SOL    HW125202   0.604   3.930   4.932  0.0980  0.7165 -1.2358
 4523SOL    HW225203   0.717   4.024   4.905 -1.0280 -0.6370 -1.8679
 4524SOL     OW25204   2.229   4.045   9.169 -0.7717 -0.3456  0.1082
 4524SOL    HW125205   2.236   4.001   9.085 -1.5048 -0.2151 -0.0197
 4524SOL    HW225206   2.299   4.006   9.220 -0.2726  1.7442  1.0222
 4525SOL     OW25207   3.318   1.799   9.345 -0.3236  0.4178 -0.1988
 4525SOL    HW125208   3.301   1.853   9.422  1.2640 -0.8117  1.0087
 4525SOL    HW225209   3.396   1.837   9.305  0.1331 -1.3343 -1.0075
 4526SOL     OW25210   1.114   2.289   1.917  0.2454  0.1744 -0.2590
 4526SOL    HW125211   1.089   2.220   1.855  1.8197  0.1975 -0.9168
 4526SOL    HW225212   1.209   2.284   1.913  0.1299 -1.1813 -1.1208
 4527SOL     OW25213   3.483   1.624   0.466  0.2002 -0.0520 -0.0106
 4527SOL    HW125214   3.448   1.590   0.548  0.6037 -0.2549  0.0753
 4527SOL    HW225215   3.575   1.637   0.491  0.6873 -4.7212  0.4748
 4528SOL     OW25216   1.708   3.792   0.949  0.4289  0.6706 -0.1597
 4528SOL    HW125217   1.670   3.734   1.014  1.8281  0.8931  0.8625
 4528SOL    HW225218   1.800   3.767   0.962  0.4092 -0.2261 -1.6494
 4529SOL     OW25219   4.166   4.117   2.355 -0.0857  0.1124 -0.6027
 4529SOL    HW125220   4.258   4.091   2.356  0.0528  0.6168 -0.4747
 4529SOL    HW225221   4.121   4.033   2.342  1.7128 -0.8347 -0.6968
 4530SOL     OW25222   3.448   4.417   8.394 -0.0129 -0.2882  0.1757
 4530SOL    HW125223   3.460   4.338   8.342 -1.3128 -0.7396  0.5788
 4530SOL    HW225224   3.495   4.388   8.472 -0.2022 -0.9991  0.0210
 4531SOL     OW25225   1.401   1.839   0.679  0.2772 -0.3217 -0.3287
 4531SOL    HW125226   1.488   1.800   0.683  0.3219 -0.1242  0.5868
 4531SOL    HW225227   1.368   1.804   0.762 -0.3856  1.1422  0.0201
 4532SOL     OW25228   2.782   0.962   6.794 -0.3855 -0.1987  0.3230
 4532SOL    HW125229   2.739   0.987   6.876  1.2952  0.3997  1.0172
 4532SOL    HW225230   2.805   1.041   6.745 -1.6604  1.4314  2.3466
 4533SOL     OW25231   1.288   4.523   5.450  0.2170 -0.1369  0.6051
 4533SOL    HW125232   1.335   4.589   5.501  0.5199 -0.8371  1.2270
 4533SOL    HW225233   1.200   4.559   5.462 -0.0720 -0.8555  0.6183
 4534SOL     OW25234   4.302   1.726   3.175  0.2909 -0.1750 -0.0787
 4534SOL    HW125235   4.389   1.693   3.154  0.9228  0.8017  1.0152
 4534SOL    HW225236   4.309   1.817   3.146  0.4656 -0.8652 -2.2276
 4535SOL     OW25237   4.490   3.531   2.019 -0.8285 -0.2425  0.2629
 4535SOL    HW125238   4.413   3.484   1.988 -1.4703  1.5852 -0.9112
 4535SOL    HW225239   4.471   3.619   1.987  0.5927 -0.2834 -0.7181
 4536SOL     OW25240   2.633   2.873   6.086 -0.2987 -0.2202 -0.3518
 4536SOL    HW125241   2.647   2.957   6.043 -0.6461  0.1783  0.3215
 4536SOL    HW225242   2.613   2.903   6.175  1.2800 -0.6996  0.1724
 4537SOL     OW25243   0.425   1.023   9.499  0.0478  0.1989 -0.5008
 4537SOL    HW125244   0.427   1.118   9.513  1.6598 -0.1854  1.9681
 4537SOL    HW225245   0.515   0.994   9.511  0.1671  0.9733  0.4749
 4538SOL     OW25246   4.385   2.405  15.035 -0.0424 -0.2603 -0.4411
 4538SOL    HW125247   4.383   2.311  15.055  0.5338 -0.1091  0.3159
 4538SOL    HW225248   4.478   2.418  15.019 -0.0771  0.7676  0.1897
 4539SOL     OW25249   3.137   1.966   8.457  0.0432 -0.1532 -0.6803
 4539SOL    HW125250   3.072   2.036   8.457 -1.9294 -2.0215  1.4967
 4539SOL    HW225251   3.186   1.970   8.374  2.2202 -2.4574  0.4822
 4540SOL     OW25252   2.917   2.877   0.880 -0.3936 -0.3077 -0.2217
 4540SOL    HW125253   2.900   2.795   0.833  1.9179 -0.9163  0.0051
 4540SOL    HW225254   3.007   2.877   0.914 -0.8695 -0.8675  1.0218
 4541SOL     OW25255   4.398   2.625   9.193  0.5370  0.2550 -0.0935
 4541SOL    HW125256   4.399   2.639   9.098 -0.9556 -0.3184 -0.1959
 4541SOL    HW225257   4.492   2.618   9.209  0.9741  0.2296 -2.7410
 4542SOL     OW25258   3.889   1.583   8.871  0.2030  0.1839  0.2151
 4542SOL    HW125259   3.977   1.604   8.838  0.6238 -0.5395  0.8774
 4542SOL    HW225260   3.827   1.619   8.808 -1.4819 -3.3935 -0.1603
 4543SOL     OW25261   4.513   3.962   8.111  0.3062  0.3902 -0.7073
 4543SOL    HW125262   4.458   4.029   8.150  2.2187  1.9142 -0.6265
 4543SOL    HW225263   4.467   3.888   8.150  1.3153 -0.6092 -1.4074
 4544SOL     OW25264   3.939   3.289   5.092  0.1252  0.4312 -0.5022
 4544SOL    HW125265   3.976   3.345   5.024  1.3884 -2.3650 -2.1161
 4544SOL    HW225266   4.007   3.221   5.093  0.8615  1.1739  1.2359
 4545SOL     OW25267   0.647   3.831   9.647 -0.1294 -0.4769  0.7607
 4545SOL    HW125268   0.598   3.857   9.725 -2.5901 -1.7311 -0.3751
 4545SOL    HW225269   0.689   3.748   9.669 -0.0678  0.2233  3.3532
 4546SOL     OW25270   1.805   1.679  10.574 -0.2613 -0.3026  0.3312
 4546SOL    HW125271   1.821   1.615  10.504  1.3654 -0.2698  0.6844
 4546SOL    HW225272   1.892   1.718  10.572 -1.9066  3.3705 -0.1101
 4547SOL     OW25273   2.867   2.996  10.231 -0.2269  0.2371 -1.0303
 4547SOL    HW125274   2.837   2.932  10.296  1.7181  0.5408  0.1360
 4547SOL    HW225275   2.925   2.946  10.174 -0.2085 -1.0600  0.1254
 4548SOL     OW25276   3.669   3.825   5.801 -0.2273 -0.3894  0.6253
 4548SOL    HW125277   3.733   3.763   5.835  2.4492  2.7122  1.2313
 4548SOL    HW225278   3.699   3.820   5.710  0.0137  0.8071  0.6304
 4549SOL     OW25279   0.027   4.436   4.222  0.0094  0.0210  0.7030
 4549SOL    HW125280   0.114   4.467   4.199 -0.5576  0.6745 -0.5710
 4549SOL    HW225281   0.052   4.365   4.282  0.1353  1.4736  2.3672
 4550SOL     OW25282   2.174   2.263   1.857  0.6168  0.6975  0.4493
 4550SOL    HW125283   2.118   2.189   1.879  0.3993  0.3144 -1.3960
 4550SOL    HW225284   2.202   2.230   1.772  0.3626  2.6497 -0.3962
 4551SOL     OW25285   3.635   0.857   9.871 -0.7790  0.0165 -1.0908
 4551SOL    HW125286   3.728   0.843   9.890 -1.4176 -2.6972  0.0284
 4551SOL    HW225287   3.611   0.792   9.804 -1.0700 -1.1771  0.1630
 4552SOL     OW25288   0.606   4.276   4.900  0.4727 -0.1949  0.0182
 4552SOL    HW125289   0.658   4.206   4.939  3.0016  1.0052 -1.2008
 4552SOL    HW225290   0.579   4.338   4.968 -1.2283 -0.2540 -0.5849
 4553SOL     OW25291   2.647   4.057   4.729 -0.1175 -0.3565  0.0386
 4553SOL    HW125292   2.718   4.057   4.793 -0.0386 -1.1512 -0.0565
 4553SOL    HW225293   2.702   4.071   4.652 -0.4920  0.1749 -0.1372
 4554SOL     OW25294   0.724   3.358  13.785  0.0355  0.2542 -0.0829
 4554SOL    HW125295   0.753   3.268  13.797  0.2818  0.2781 -0.4791
 4554SOL    HW225296   0.793   3.396  13.730  2.2499 -0.9917  1.8600
 4555SOL     OW25297   3.810   0.843   7.926 -0.0484  0.0301  0.1191
 4555SOL    HW125298   3.883   0.783   7.914 -0.2893  0.0242 -1.4001
 4555SOL    HW225299   3.845   0.922   7.886  0.6432 -0.1777  0.3312
 4556SOL     OW25300   0.252   1.765  17.273  0.0442  0.0151  0.3876
 4556SOL    HW125301   0.165   1.798  17.254 -0.2134 -0.7579  0.1994
 4556SOL    HW225302   0.309   1.839  17.292  2.3014 -1.8999  1.1380
 4557SOL     OW25303   4.546   3.687   7.860  0.0398  0.3746 -0.9273
 4557SOL    HW125304   4.532   3.716   7.770  0.4404  1.3348 -0.6740
 4557SOL    HW225305   4.458   3.653   7.876  0.4111 -0.3835 -0.4669
 4558SOL     OW25306   3.414   4.201   3.033 -0.1257  0.3636  0.1196
 4558SOL    HW125307   3.442   4.162   2.950 -0.9056 -0.7977  0.4079
 4558SOL    HW225308   3.463   4.160   3.104 -0.7947 -1.1061 -0.2703
 4559SOL     OW25309   0.540   4.010  10.093 -0.1981 -0.5738  0.5462
 4559SOL    HW125310   0.462   4.064  10.106  0.4670  0.6536 -0.6501
 4559SOL    HW225311   0.607   4.073  10.117 -3.2051  3.1202 -0.7927
 4560SOL     OW25312   3.037   4.645   8.183 -0.3158 -0.0478 -0.4228
 4560SOL    HW125313   3.079   4.633   8.268 -0.2179 -1.8039 -0.7171
 4560SOL    HW225314   3.065   4.566   8.137  1.9099  1.7909 -2.2333
 4561SOL     OW25315   4.605   0.874  10.036 -0.3925  0.5505 -0.5625
 4561SOL    HW125316   4.576   0.783  10.025 -0.2641  0.4493 -0.0360
 4561SOL    HW225317   4.591   0.894  10.129  0.2141  1.1378 -0.6006
 4562SOL     OW25318   0.439   1.986   0.836  0.7038  0.1226 -0.1830
 4562SOL    HW125319   0.394   1.922   0.781  0.2856 -2.8055  3.6255
 4562SOL    HW225320   0.486   2.047   0.779 -0.2737  0.4810 -0.6160
 4563SOL     OW25321   3.068   1.702  15.817  0.6505 -0.8126  0.0585
 4563SOL    HW125322   3.015   1.782  15.816  1.1067 -0.5046  0.3903
 4563SOL    HW225323   3.149   1.731  15.858 -0.3677 -0.2757  1.7020
 4564SOL     OW25324   3.333   3.929   2.081 -1.0433  0.0887 -0.8646
 4564SOL    HW125325   3.397   3.908   2.149 -2.5978  1.2257  0.9599
 4564SOL    HW225326   3.318   4.023   2.090 -2.5175 -0.2579  0.1637
 4565SOL     OW25327   0.783   4.164  10.074 -0.1285  0.3425 -0.4860
 4565SOL    HW125328   0.862   4.115  10.051 -0.6463 -0.8460  0.2598
 4565SOL    HW225329   0.820   4.252  10.084  1.5047 -0.3791 -0.2343
 4566SOL     OW25330   1.341   1.100   5.481 -0.3712 -0.1834  0.2906
 4566SOL    HW125331   1.323   1.115   5.574  1.6194  0.3499  0.5753
 4566SOL    HW225332   1.288   1.022   5.466  1.0618 -1.1144  0.1003
 4567SOL     OW25333   2.513   0.485  17.322 -0.0083  0.2819  0.4310
 4567SOL    HW125334   2.459   0.479  17.243 -2.5397  0.2410  2.2063
 4567SOL    HW225335   2.471   0.559  17.364  3.6170  1.6122  1.6984
 4568SOL     OW25336   1.622   4.278   5.239 -0.0965  0.1916 -0.0734
 4568SOL    HW125337   1.643   4.295   5.331  1.6176 -3.4574  0.2392
 4568SOL    HW225338   1.619   4.368   5.206 -1.5323 -0.2825 -1.1855
 4569SOL     OW25339   2.934   1.869   9.702 -0.0542  0.0434 -0.1358
 4569SOL    HW125340   2.890   1.869   9.617 -0.8114  1.6607  0.2535
 4569SOL    HW225341   3.007   1.929   9.687  0.0586  0.7553  3.2121
 4570SOL     OW25342   0.661   0.604   7.890 -0.5878 -0.6259  0.1799
 4570SOL    HW125343   0.701   0.690   7.874 -0.0768 -0.6727  1.1997
 4570SOL    HW225344   0.620   0.594   7.804 -0.8503  3.7178 -0.2326
 4571SOL     OW25345   1.359   1.789   6.245 -0.1687 -0.1910 -0.1434
 4571SOL    HW125346   1.333   1.697   6.242 -0.8055  0.0951 -3.1017
 4571SOL    HW225347   1.364   1.797   6.150  0.5333 -1.0596 -0.1820
 4572SOL     OW25348   0.754   0.042  12.340 -0.1360  0.0522 -0.8603
 4572SOL    HW125349   0.702   4.707  12.369  2.0210 -2.7297 -4.1724
 4572SOL    HW225350   0.807   4.733  12.277 -0.4047  0.1161 -1.1353
 4573SOL     OW25351   0.729   3.926   6.987 -0.0970  0.2680 -0.2687
 4573SOL    HW125352   0.806   3.977   6.962 -0.8135  1.2448 -0.4940
 4573SOL    HW225353   0.700   3.889   6.904 -0.0957  1.1525 -0.6562
 4574SOL     OW25354   4.526   1.521   3.168  0.1348  0.2996 -0.3779
 4574SOL    HW125355   4.614   1.513   3.133 -0.6323 -0.1364 -2.2337
 4574SOL    HW225356   4.473   1.464   3.112  1.0452  0.7104 -1.6528
 4575SOL     OW25357   0.319   3.057  10.182  0.2490  0.4860  0.0263
 4575SOL    HW125358   0.330   2.986  10.118 -0.1470 -0.2720  0.7974
 4575SOL    HW225359   0.239   3.098  10.148 -0.9215 -0.3807  1.7355
 4576SOL     OW25360   4.425   0.895  14.200  0.8805  0.3158  0.0286
 4576SOL    HW125361   4.366   0.891  14.125  1.5131  0.5581 -0.4881
 4576SOL    HW225362   4.514   0.904  14.166  0.7865  1.4560  0.0763
 4577SOL     OW25363   3.428   4.205   5.075 -0.1768 -0.2448 -0.3032
 4577SOL    HW125364   3.421   4.219   4.980 -1.8715 -1.7437 -0.3923
 4577SOL    HW225365   3.453   4.114   5.094  0.4252 -0.4504 -2.0225
 4578SOL     OW25366   3.414   0.343  10.855 -0.0373 -0.5678  0.2739
 4578SOL    HW125367   3.448   0.311  10.938 -0.3509  1.3483  1.1391
 4578SOL    HW225368   3.354   0.271  10.835  1.4392 -1.7263 -0.0072
 4579SOL     OW25369   0.809   0.340   4.999  0.0677 -0.0090  0.7207
 4579SOL    HW125370   0.722   0.379   4.990  0.0084 -0.3071 -0.0508
 4579SOL    HW225371   0.826   0.391   5.078  1.2937 -0.8331  0.9930
 4580SOL     OW25372   0.750   3.104   4.026 -0.0075 -0.4026  0.0698
 4580SOL    HW125373   0.686   3.093   4.097  0.3346  2.4469  0.8426
 4580SOL    HW225374   0.712   3.177   3.977 -2.1363 -1.0547  0.7701
 4581SOL     OW25375   2.443   4.051  16.784  0.4094  0.3175 -0.1392
 4581SOL    HW125376   2.420   4.013  16.700  0.4984  0.8465 -0.4006
 4581SOL    HW225377   2.442   4.145  16.768 -0.3722 -0.0130 -2.0401
 4582SOL     OW25378   0.604   1.201   4.882  0.4721 -0.2771  0.2747
 4582SOL    HW125379   0.574   1.111   4.867  0.1291 -0.2571  0.8775
 4582SOL    HW225380   0.609   1.211   4.977  0.6690  0.6931  0.1545
 4583SOL     OW25381   3.309   0.796  15.261  0.1426 -0.0234  0.3139
 4583SOL    HW125382   3.299   0.701  15.262 -0.0202  0.0448  3.5210
 4583SOL    HW225383   3.318   0.803  15.356  0.3425 -1.2785  0.3887
 4584SOL     OW25384   4.410   3.729  14.164 -0.6037  0.0732 -0.2000
 4584SOL    HW125385   4.399   3.824  14.155 -0.6026  0.0244 -0.6828
 4584SOL    HW225386   4.389   3.691  14.079 -1.8271 -0.0935  0.1806
 4585SOL     OW25387   1.900   0.161   2.989 -0.1501  0.0968  0.1351
 4585SOL    HW125388   1.847   0.221   2.936 -2.6260  0.6288  3.2023
 4585SOL    HW225389   1.860   0.081   2.955  2.0448 -0.8572 -0.1738
 4586SOL     OW25390   0.653   1.949   6.368 -0.0670  0.0501  0.4724
 4586SOL    HW125391   0.570   1.970   6.412 -1.3213  0.8399 -2.2356
 4586SOL    HW225392   0.699   1.889   6.426 -0.1353 -1.7071 -1.3020
 4587SOL     OW25393   0.512   2.225   3.365  0.3905  0.3385  0.0947
 4587SOL    HW125394   0.418   2.208   3.366  0.3221  0.7873  1.0053
 4587SOL    HW225395   0.520   2.295   3.430  0.8750 -0.4004  0.8393
 4588SOL     OW25396   4.038   1.321   4.423  0.1491  0.4534  0.4679
 4588SOL    HW125397   4.048   1.352   4.333  0.9916 -0.4819  0.2419
 4588SOL    HW225398   4.110   1.259   4.433  2.0969  2.7738  0.8748
 4589SOL     OW25399   0.198   4.314   3.017 -0.4269  0.0102 -0.3821
 4589SOL    HW125400   0.267   4.376   3.036  0.2072 -0.1203 -2.2806
 4589SOL    HW225401   0.216   4.256   3.092 -0.6115  0.0950 -0.2714
 4590SOL     OW25402   3.791   2.904   5.046  0.4049 -0.2176 -0.5239
 4590SOL    HW125403   3.697   2.891   5.036  0.0013 -0.1287  3.1436
 4590SOL    HW225404   3.813   2.836   5.109 -0.9340 -0.9837 -0.8828
 4591SOL     OW25405   1.486   0.038   3.554  1.0964 -0.2241  0.0225
 4591SOL    HW125406   1.394   0.065   3.545  0.9286 -1.0076 -0.5869
 4591SOL    HW225407   1.489   4.730   3.472 -2.8191  0.4497 -0.5403
 4592SOL     OW25408   2.949   3.036   7.517  0.5584  0.5725  0.0094
 4592SOL    HW125409   2.959   3.000   7.606 -1.2889 -2.0843 -0.8491
 4592SOL    HW225410   3.019   2.992   7.470  0.3461 -2.3968  2.3819
 4593SOL     OW25411   1.473   0.274   4.419 -0.2114  0.1926  0.6468
 4593SOL    HW125412   1.502   0.330   4.491  1.8968  0.9318 -0.7843
 4593SOL    HW225413   1.388   0.254   4.459 -0.5640 -0.5599 -0.4772
 4594SOL     OW25414   2.043   3.082   7.775  0.6251 -0.1640 -0.9401
 4594SOL    HW125415   2.085   3.064   7.860 -2.1509 -0.7675  0.3042
 4594SOL    HW225416   2.004   2.997   7.754  1.2043 -1.3835  2.8638
 4595SOL     OW25417   3.900   2.489   5.121 -0.1632 -0.0882 -0.3253
 4595SOL    HW125418   3.907   2.575   5.162 -0.4219 -0.3306  0.2251
 4595SOL    HW225419   3.935   2.425   5.183 -0.6040 -0.1432 -0.1370
 4596SOL     OW25420   2.378   2.416  14.467  0.0519 -0.1174  0.4519
 4596SOL    HW125421   2.409   2.473  14.397  0.6664 -0.7022  0.2418
 4596SOL    HW225422   2.405   2.331  14.432 -1.0697 -0.2412 -0.0890
 4597SOL     OW25423   1.416   4.265   5.662  0.0429  0.5139 -0.4077
 4597SOL    HW125424   1.482   4.273   5.593 -3.6998  1.3762 -3.8580
 4597SOL    HW225425   1.446   4.315   5.738  1.5866  0.1042 -0.7429
 4598SOL     OW25426   1.096   3.358   8.553 -0.1340  0.3856 -0.4695
 4598SOL    HW125427   1.023   3.353   8.491  0.1535  1.4774 -0.8850
 4598SOL    HW225428   1.085   3.442   8.596  1.1280 -0.0441  0.7002
 4599SOL     OW25429   0.760   2.693   3.214  0.0050  0.2318 -0.0719
 4599SOL    HW125430   0.670   2.684   3.183 -0.4507 -0.0677  1.3323
 4599SOL    HW225431   0.808   2.632   3.158  0.5529 -1.2342  2.0011
 4600SOL     OW25432   0.547   4.145   5.623  0.0891 -0.2655 -0.2148
 4600SOL    HW125433   0.624   4.090   5.627 -0.1551 -0.6552 -0.8670
 4600SOL    HW225434   0.483   4.093   5.575  1.6408 -1.0217 -1.4566
 4601SOL     OW25435   3.386   2.547  13.521 -0.2216  0.5338 -0.1786
 4601SOL    HW125436   3.335   2.474  13.556 -0.3569 -0.2162 -1.9461
 4601SOL    HW225437   3.365   2.598  13.600  0.6181 -0.1027  0.4478
 4602SOL     OW25438   4.119   4.179   3.364 -0.2911  0.4372 -0.3530
 4602SOL    HW125439   4.066   4.113   3.409  1.9457 -0.7526  0.5340
 4602SOL    HW225440   4.200   4.168   3.415  0.4996  0.1928 -1.6590
 4603SOL     OW25441   0.796   3.509  10.142 -0.1809 -0.0557 -0.6260
 4603SOL    HW125442   0.707   3.480  10.120 -0.4827 -1.0114  1.8492
 4603SOL    HW225443   0.789   3.604  10.133  1.7714  0.0949 -0.4911
 4604SOL     OW25444   3.930   3.230  10.757 -0.1316 -0.8365 -0.2306
 4604SOL    HW125445   3.858   3.211  10.697  0.2204  0.1909 -0.9924
 4604SOL    HW225446   3.985   3.296  10.714  0.6983 -1.9700 -0.9048
 4605SOL     OW25447   2.703   3.819  13.728 -0.3876  0.4751  0.1211
 4605SOL    HW125448   2.748   3.903  13.717  1.5571 -0.5074  0.7012
 4605SOL    HW225449   2.649   3.847  13.802  2.5802  0.6355  2.2434
 4606SOL     OW25450   3.657   0.782   2.058  0.5763  0.6284  0.6312
 4606SOL    HW125451   3.635   0.875   2.065 -0.0682  0.6378 -1.5411
 4606SOL    HW225452   3.657   0.760   2.152 -1.6390  1.0649  0.7290
 4607SOL     OW25453   1.030   3.750   5.531  0.6752  0.6444  0.5229
 4607SOL    HW125454   0.986   3.716   5.453  0.5367  0.5788  0.6316
 4607SOL    HW225455   1.070   3.674   5.573  0.5189  1.7672  2.7245
 4608SOL     OW25456   0.340   4.141   4.806 -0.2610  0.0192 -0.0628
 4608SOL    HW125457   0.424   4.137   4.760 -0.8046  0.9987 -1.1618
 4608SOL    HW225458   0.276   4.161   4.737  1.5132 -0.8109 -1.9334
 4609SOL     OW25459   2.793   2.825   4.295  0.0215  0.3350  0.1800
 4609SOL    HW125460   2.809   2.740   4.336  0.0294  0.9410  1.4583
 4609SOL    HW225461   2.829   2.884   4.362 -0.0655  0.1617  0.3794
 4610SOL     OW25462   4.308   0.289   3.583  0.3342 -0.1601  0.0282
 4610SOL    HW125463   4.399   0.277   3.609  0.1208 -0.8242  0.4722
 4610SOL    HW225464   4.287   0.353   3.651 -0.0364 -0.4157  0.1549
 4611SOL     OW25465   1.326   4.030   2.081 -0.1165  0.0182  0.4700
 4611SOL    HW125466   1.390   4.091   2.118 -0.2659  0.5788 -0.1870
 4611SOL    HW225467   1.290   4.083   2.009 -1.0980 -2.6590 -0.9979
 4612SOL     OW25468   1.142   1.952  11.672  0.0614  0.6723  0.0507
 4612SOL    HW125469   1.129   1.859  11.691 -0.6554  1.1352  1.8650
 4612SOL    HW225470   1.205   1.976  11.740 -1.2343 -1.2315  1.9129
 4613SOL     OW25471   0.877   4.373   5.709 -0.0435  0.1903 -0.0294
 4613SOL    HW125472   0.965   4.336   5.703 -0.5354 -0.9016 -0.5045
 4613SOL    HW225473   0.894   4.460   5.745  0.3545  0.0641  0.0856
 4614SOL     OW25474   2.528   4.615   6.487  0.2562  0.4727 -0.4764
 4614SOL    HW125475   2.588   4.687   6.469 -1.0491  1.8051  0.5137
 4614SOL    HW225476   2.501   4.585   6.400 -1.3217 -1.2000  0.5726
 4615SOL     OW25477   2.701   1.898   7.807 -0.5063 -0.4226 -0.3000
 4615SOL    HW125478   2.655   1.831   7.758 -2.9811  1.5744 -0.7237
 4615SOL    HW225479   2.654   1.893   7.891 -0.4391 -1.3059 -0.3159
 4616SOL     OW25480   1.459   2.736   6.011  0.3954 -0.6538  0.1742
 4616SOL    HW125481   1.428   2.816   6.052 -1.2592 -1.3287  0.2654
 4616SOL    HW225482   1.519   2.765   5.943 -0.2829  0.8835  0.2440
 4617SOL     OW25483   2.007   1.339  13.523 -0.0850  0.9525  0.2983
 4617SOL    HW125484   2.024   1.308  13.434  1.3729 -1.4080  1.3894
 4617SOL    HW225485   1.915   1.314  13.534 -0.2131  2.4151  2.4702
 4618SOL     OW25486   0.491   4.276   8.991  0.0067  0.1327  0.1008
 4618SOL    HW125487   0.429   4.241   9.055  2.4812 -0.1449  2.3664
 4618SOL    HW225488   0.513   4.196   8.945  0.5403 -0.6723  1.7443
 4619SOL     OW25489   1.397   3.775   2.247  0.4092  0.3779  0.4443
 4619SOL    HW125490   1.332   3.842   2.226  0.1193  0.3784  1.3560
 4619SOL    HW225491   1.468   3.833   2.274 -0.6495  0.3475  3.2068
 4620SOL     OW25492   2.587   1.824   1.224 -0.4139 -0.5050 -0.5512
 4620SOL    HW125493   2.628   1.852   1.306  2.2939 -1.8367 -1.4425
 4620SOL    HW225494   2.560   1.907   1.186  1.7026  1.1252  1.5452
 4621SOL     OW25495   2.425   0.367  11.617  0.5797 -0.0717  0.3791
 4621SOL    HW125496   2.422   0.458  11.645  0.2508 -0.4638  1.6114
 4621SOL    HW225497   2.342   0.361  11.568 -0.3921  0.5300  1.9596
 4622SOL     OW25498   2.142   2.399  16.912  0.0648  0.2396 -0.0091
 4622SOL    HW125499   2.179   2.324  16.959  1.0367 -0.3957 -1.7896
 4622SOL    HW225500   2.208   2.463  16.936  0.0785  0.4141 -0.5145
 4623SOL     OW25501   2.703   3.492   2.506  0.1273 -0.2891  0.0374
 4623SOL    HW125502   2.738   3.522   2.422  1.1856  0.3403  0.7039
 4623SOL    HW225503   2.723   3.575   2.549 -2.5444 -0.9968  2.6289
 4624SOL     OW25504   0.729   0.140   8.250  0.4490  0.0919 -0.3004
 4624SOL    HW125505   0.751   0.190   8.329  2.0492  0.4443 -0.9669
 4624SOL    HW225506   0.781   0.063   8.271 -0.3904  0.3031  2.6737
 4625SOL     OW25507   1.609   2.548   4.423  0.5330 -0.2270 -0.0202
 4625SOL    HW125508   1.687   2.501   4.394 -0.0824 -1.6412  0.6114
 4625SOL    HW225509   1.642   2.591   4.503 -0.2050 -0.9526  0.6799
 4626SOL     OW25510   0.384   0.501   8.463 -0.5747  0.3761  0.6462
 4626SOL    HW125511   0.421   0.440   8.399  0.3966 -0.0666  1.6333
 4626SOL    HW225512   0.293   0.473   8.453 -1.2644  2.3837  1.4458
 4627SOL     OW25513   2.243   1.820   6.134 -0.3113 -0.4302  0.1640
 4627SOL    HW125514   2.291   1.760   6.076  2.1892  3.4367 -1.7288
 4627SOL    HW225515   2.303   1.894   6.143  1.3770 -1.3349 -3.6493
 4628SOL     OW25516   0.353   2.004   1.670  0.5832 -0.3208 -0.1906
 4628SOL    HW125517   0.441   1.988   1.703  0.2278 -0.7604  0.5452
 4628SOL    HW225518   0.317   2.027   1.756 -0.0144  0.2601 -0.5939
 4629SOL     OW25519   1.839   0.636   4.534 -0.2703 -0.1325  0.1091
 4629SOL    HW125520   1.795   0.599   4.457 -0.7738 -2.2888  1.4341
 4629SOL    HW225521   1.882   0.562   4.577 -0.1322 -0.7797 -1.1555
 4630SOL     OW25522   3.362   1.518   3.112  0.7115 -0.0651  0.6600
 4630SOL    HW125523   3.291   1.454   3.119  1.7344 -0.8843  3.2829
 4630SOL    HW225524   3.319   1.599   3.083  1.2287  0.4121  1.2432
 4631SOL     OW25525   4.371   4.557  14.799 -0.1445  0.8776 -0.4711
 4631SOL    HW125526   4.330   4.643  14.785  1.0748  1.5214 -0.0757
 4631SOL    HW225527   4.413   4.550  14.713 -0.9995  2.5845 -1.0336
 4632SOL     OW25528   2.648   1.574   2.054 -0.0612  0.5717 -0.0006
 4632SOL    HW125529   2.708   1.633   2.099 -0.2366  0.9125 -0.2164
 4632SOL    HW225530   2.626   1.512   2.124  0.4236 -0.2333 -0.5725
 4633SOL     OW25531   1.224   1.277   2.751 -0.7857 -0.0660  0.6009
 4633SOL    HW125532   1.137   1.317   2.755 -1.6101 -1.9792  1.6896
 4633SOL    HW225533   1.198   1.200   2.702 -2.2464  2.5075 -2.6396
 4634SOL     OW25534   0.965   1.948   4.358 -0.1288 -0.2436  0.3369
 4634SOL    HW125535   0.884   1.913   4.393 -0.1963 -1.0667 -0.6340
 4634SOL    HW225536   1.002   1.866   4.324  1.4999  0.4969  0.3093
 4635SOL     OW25537   0.855   4.246  13.087 -1.0347  0.3926 -0.3582
 4635SOL    HW125538   0.867   4.199  13.170 -2.8565  1.9265  0.7794
 4635SOL    HW225539   0.942   4.287  13.091 -1.1535  0.7104 -1.1614
 4636SOL     OW25540   1.600   0.450   9.066 -0.2080 -0.1441 -0.0562
 4636SOL    HW125541   1.695   0.459   9.074 -0.2086 -0.6476  0.4847
 4636SOL    HW225542   1.595   0.381   9.001  0.6090 -0.6857  0.4511
 4637SOL     OW25543   3.264   2.343   3.967 -0.7705  0.2722  0.1873
 4637SOL    HW125544   3.169   2.330   3.967 -0.6743 -0.4034 -1.0240
 4637SOL    HW225545   3.303   2.268   4.013 -0.6657 -0.0824 -0.4821
 4638SOL     OW25546   2.370   1.728   9.423 -0.2490 -0.0186 -0.0149
 4638SOL    HW125547   2.395   1.644   9.384  2.4233 -0.4792  2.6812
 4638SOL    HW225548   2.387   1.709   9.515  2.3312  1.1713 -0.2436
 4639SOL     OW25549   1.269   1.051   6.224 -0.2090 -0.3706 -0.0428
 4639SOL    HW125550   1.346   1.021   6.273 -1.3837 -0.7683  1.5680
 4639SOL    HW225551   1.212   1.088   6.291 -3.3654 -0.5656 -2.6278
 4640SOL     OW25552   3.429   2.673   6.586 -0.3860  0.2726 -0.0675
 4640SOL    HW125553   3.363   2.736   6.558 -2.7608 -1.5245  1.4909
 4640SOL    HW225554   3.378   2.622   6.649  0.0620  0.5259  0.4912
 4641SOL     OW25555   0.314   1.756   6.489  0.1879  0.0872  0.1401
 4641SOL    HW125556   0.236   1.809   6.473  0.4592  0.7610  0.9837
 4641SOL    HW225557   0.360   1.788   6.567  0.6844  0.4295 -0.2928
 4642SOL     OW25558   2.954   4.125   7.576  0.1281  0.0555 -0.4355
 4642SOL    HW125559   2.906   4.058   7.624 -2.1591  1.9966  0.0193
 4642SOL    HW225560   2.874   4.169   7.545 -1.5773 -1.0744  2.2992
 4643SOL     OW25561   0.542   3.516   9.009 -0.0482 -0.6310 -0.2581
 4643SOL    HW125562   0.452   3.538   8.985 -0.6920 -2.3555  0.6286
 4643SOL    HW225563   0.539   3.442   9.069 -1.2651  1.1129  1.8301
 4644SOL     OW25564   2.088   1.223  13.245 -0.4376 -0.0207 -0.0547
 4644SOL    HW125565   2.125   1.141  13.212  1.8752  1.5050 -1.2384
 4644SOL    HW225566   2.131   1.285  13.186 -2.6063 -0.2221 -1.8409
 4645SOL     OW25567   3.664   2.208   7.124  0.4094 -0.2469  0.2779
 4645SOL    HW125568   3.647   2.136   7.064  0.0369 -0.6327  0.8487
 4645SOL    HW225569   3.714   2.160   7.189  0.8775 -0.6465 -0.3887
 4646SOL     OW25570   0.605   1.527  12.764  0.5002 -0.3442  0.0908
 4646SOL    HW125571   0.532   1.469  12.788 -0.0330  0.5403  0.6282
 4646SOL    HW225572   0.586   1.616  12.792 -0.4095 -1.3569  2.7515
 4647SOL     OW25573   2.350   1.484  16.019  0.3477 -0.1718 -0.2425
 4647SOL    HW125574   2.372   1.574  16.044 -1.9932  0.1492  0.5936
 4647SOL    HW225575   2.424   1.434  16.054  0.6394 -0.5143 -1.3267
 4648SOL     OW25576   0.718   4.500  13.104 -0.4952 -0.6931 -0.3934
 4648SOL    HW125577   0.803   4.500  13.060  0.0457 -1.9818  0.6438
 4648SOL    HW225578   0.745   4.544  13.184 -1.2482 -2.2003  0.6872
 4649SOL     OW25579   2.326   1.471  17.568  0.4480  0.0064 -0.2728
 4649SOL    HW125580   2.336   1.563  17.543 -0.6978  0.0601 -0.5282
 4649SOL    HW225581   2.289   1.425  17.493  1.0044  1.3389 -1.3678
 4650SOL     OW25582   2.435   3.770   4.071  0.5872  0.3905  0.4467
 4650SOL    HW125583   2.357   3.823   4.053  0.3935 -1.0251 -2.8908
 4650SOL    HW225584   2.407   3.696   4.017 -0.3752 -3.0703  5.6352
 4651SOL     OW25585   3.145   4.285   8.489  0.1139  0.6216  0.2418
 4651SOL    HW125586   3.090   4.208   8.473  2.1528 -0.4843 -1.5135
 4651SOL    HW225587   3.194   4.280   8.407  0.6979 -0.6341  0.6770
 4652SOL     OW25588   3.504   3.672   7.788 -0.7588 -0.2535  0.0025
 4652SOL    HW125589   3.414   3.642   7.796 -1.2090  1.3647  1.0457
 4652SOL    HW225590   3.496   3.720   7.705 -2.2880 -0.6020 -0.0457
 4653SOL     OW25591   0.181   2.992   6.038  0.5769 -0.1372 -0.1424
 4653SOL    HW125592   0.185   3.002   6.133  1.5312 -0.0182 -0.1904
 4653SOL    HW225593   0.165   3.086   6.023 -0.5459 -0.6519 -2.1605
 4654SOL     OW25594   3.186   2.631   4.900  0.1093  0.4434 -0.2226
 4654SOL    HW125595   3.202   2.719   4.865  4.2968  1.2533  3.6037
 4654SOL    HW225596   3.262   2.578   4.875 -0.2759 -0.9528  1.5483
 4655SOL     OW25597   2.278   0.294   4.166  0.1396 -0.9102 -0.4036
 4655SOL    HW125598   2.262   0.346   4.087  1.0420 -1.3432 -0.8783
 4655SOL    HW225599   2.188   0.265   4.182 -0.4459  0.7340 -0.7687
 4656SOL     OW25600   3.948   1.901   6.389  0.0052  0.6272 -0.2449
 4656SOL    HW125601   3.896   1.933   6.316 -0.7899 -1.7802 -0.7221
 4656SOL    HW225602   4.036   1.935   6.372 -0.9367  2.3005 -1.7434
 4657SOL     OW25603   1.061   3.604   8.671  0.1486 -0.2457  0.2494
 4657SOL    HW125604   1.144   3.650   8.687 -1.5399  2.5414  1.1099
 4657SOL    HW225605   1.015   3.637   8.748  0.1237  1.2608 -0.4118
 4658SOL     OW25606   4.047   4.236   8.860  0.7469  0.6053 -0.1481
 4658SOL    HW125607   4.101   4.308   8.827 -0.2598  1.8039  0.8321
 4658SOL    HW225608   4.108   4.163   8.856 -0.0367 -0.0717  0.4135
 4659SOL     OW25609   3.700   1.498  10.755 -0.4045  0.2692  0.2070
 4659SOL    HW125610   3.648   1.577  10.741 -0.0318  0.8103  1.8983
 4659SOL    HW225611   3.629   1.435  10.768 -0.7553  0.3574 -1.2914
 4660SOL     OW25612   1.068   0.119  10.732  0.3464  0.0094 -0.3277
 4660SOL    HW125613   1.075   0.052  10.800  0.3066  0.0351 -0.2987
 4660SOL    HW225614   1.151   0.167  10.740  0.2374  0.4486 -1.8538
 4661SOL     OW25615   2.988   2.840   4.073 -0.2121  0.1314 -0.2548
 4661SOL    HW125616   3.009   2.783   4.146  2.6689 -1.1961 -2.1320
 4661SOL    HW225617   2.896   2.856   4.094  0.0840 -3.1707  3.3587
 4662SOL     OW25618   4.372   1.505   4.297 -0.2030 -0.3699  0.3353
 4662SOL    HW125619   4.393   1.485   4.206 -0.6458  2.7499 -0.4366
 4662SOL    HW225620   4.417   1.589   4.309 -1.6130  0.4336 -0.0453
 4663SOL     OW25621   3.166   3.019  12.806  0.3571  0.5147 -0.7433
 4663SOL    HW125622   3.248   3.064  12.829 -0.8538  1.4073  1.7874
 4663SOL    HW225623   3.111   3.089  12.770  0.1124  0.9546  0.4927
 4664SOL     OW25624   1.560   2.232   0.780  0.5845  0.2689 -0.0002
 4664SOL    HW125625   1.570   2.306   0.720 -1.3199  0.9544  0.5421
 4664SOL    HW225626   1.650   2.216   0.808  0.5121  0.4408  0.3315
 4665SOL     OW25627   0.717   2.259  11.921 -0.0629  0.4351 -0.3007
 4665SOL    HW125628   0.796   2.210  11.903  0.6975  0.9095  1.7149
 4665SOL    HW225629   0.749   2.343  11.888  0.5529 -0.1555 -1.1796
 4666SOL     OW25630   3.900   4.332   3.575 -0.7228 -0.2910  0.4903
 4666SOL    HW125631   3.960   4.366   3.642 -0.9639  0.0311  0.5422
 4666SOL    HW225632   3.958   4.262   3.545 -0.0644 -0.1321  1.3836
 4667SOL     OW25633   3.622   1.756   5.620 -0.5113  0.4692 -0.2288
 4667SOL    HW125634   3.612   1.833   5.563  0.0272  0.4627 -0.3324
 4667SOL    HW225635   3.693   1.706   5.580 -3.5074 -2.7716 -1.4263
 4668SOL     OW25636   4.306   2.785   0.818  0.2648 -0.5312  0.3482
 4668SOL    HW125637   4.237   2.795   0.883 -0.2033  0.3448 -0.2791
 4668SOL    HW225638   4.261   2.808   0.737  0.2620 -0.4505  0.3729
 4669SOL     OW25639   1.992   3.034   9.025 -0.5273  0.2357  0.0186
 4669SOL    HW125640   2.019   2.983   9.101 -3.6560 -1.3964  0.0125
 4669SOL    HW225641   2.015   2.977   8.951 -0.1953  0.2186  0.1378
 4670SOL     OW25642   2.436   4.173   3.015 -0.2966  0.1528 -0.3307
 4670SOL    HW125643   2.514   4.194   2.963 -0.0346 -1.1463 -0.4760
 4670SOL    HW225644   2.448   4.078   3.014 -2.0909 -0.0563 -1.5696
 4671SOL     OW25645   0.078   4.253   4.423  0.1863  0.0419  0.5622
 4671SOL    HW125646   0.140   4.188   4.458 -0.2266 -0.6156  0.0726
 4671SOL    HW225647   0.008   4.194   4.397 -0.0754  0.7596 -0.3353
 4672SOL     OW25648   1.317   0.735   8.892 -0.2777  0.3345  0.4099
 4672SOL    HW125649   1.251   0.779   8.838  0.8066  1.0358 -0.3325
 4672SOL    HW225650   1.390   0.779   8.849 -1.4972  1.6264 -0.3516
 4673SOL     OW25651   1.635   0.944   8.030  0.2979 -0.4905  0.7731
 4673SOL    HW125652   1.584   0.964   7.952 -0.2492 -4.1690  0.1688
 4673SOL    HW225653   1.648   0.850   8.016 -4.8508 -1.1525  0.5088
 4674SOL     OW25654   0.622   2.263   0.288 -0.5122 -0.6921  0.2422
 4674SOL    HW125655   0.589   2.185   0.243  2.1897 -0.3494 -2.3653
 4674SOL    HW225656   0.717   2.251   0.288 -0.7384 -2.5341 -0.1163
 4675SOL     OW25657   4.432   2.891  15.624 -0.2513 -0.1659 -0.0262
 4675SOL    HW125658   4.464   2.801  15.626  1.4201  0.4112 -1.1740
 4675SOL    HW225659   4.349   2.858  15.658  1.2773 -2.3952  1.5194
 4676SOL     OW25660   2.585   0.606   2.942  0.0403  0.2454  0.1413
 4676SOL    HW125661   2.632   0.524   2.930  0.3168  0.5116 -0.5869
 4676SOL    HW225662   2.531   0.586   3.018  0.2014 -1.5971 -0.2217
 4677SOL     OW25663   0.710   2.076  15.875 -0.1503 -0.2552  0.7426
 4677SOL    HW125664   0.647   2.008  15.900  0.6507 -1.1205  0.3798
 4677SOL    HW225665   0.661   2.126  15.810 -0.4452 -1.6028 -0.0769
 4678SOL     OW25666   2.342   4.295   2.697  0.4863 -0.6697 -0.0395
 4678SOL    HW125667   2.313   4.359   2.632 -1.0539 -0.9048  0.4070
 4678SOL    HW225668   2.420   4.341   2.729 -0.9284  0.9624  1.0638
 4679SOL     OW25669   3.158   4.729   6.776  0.0311 -0.2607  0.2981
 4679SOL    HW125670   3.154   0.084   6.786  1.2740  0.0476 -2.0974
 4679SOL    HW225671   3.113   4.730   6.692 -1.0102  0.9566  0.8725
 4680SOL     OW25672   1.639   2.658   6.764  0.2780  0.2396  0.2870
 4680SOL    HW125673   1.658   2.738   6.715  0.3652  0.6930  1.0748
 4680SOL    HW225674   1.552   2.638   6.729 -0.1538  0.7077  1.1061
 4681SOL     OW25675   0.413   3.613   3.060 -0.4081 -0.2107  0.2225
 4681SOL    HW125676   0.457   3.682   3.011  1.5873 -2.2783 -0.8670
 4681SOL    HW225677   0.369   3.665   3.128  1.4432 -0.4131  1.5661
 4682SOL     OW25678   2.401   4.432  10.124 -0.1870 -0.7597  0.0030
 4682SOL    HW125679   2.317   4.474  10.142 -0.9235  0.0504 -5.2311
 4682SOL    HW225680   2.372   4.373  10.053 -1.0595  0.6079 -0.7746
 4683SOL     OW25681   0.086   4.729  16.717 -0.1624  0.3207 -0.4534
 4683SOL    HW125682   0.099   0.019  16.807  1.1988 -6.5491  1.6466
 4683SOL    HW225683   0.135   0.058  16.673 -0.0631  0.1053 -0.6867
 4684SOL     OW25684   1.525   0.877  17.298  0.0520  0.2736  0.3952
 4684SOL    HW125685   1.466   0.886  17.373 -0.0078 -0.5029  0.4404
 4684SOL    HW225686   1.573   0.959  17.290 -0.2381  0.1852 -2.1074
 4685SOL     OW25687   2.592   4.024   7.426  0.6170 -0.1350 -0.7295
 4685SOL    HW125688   2.598   4.107   7.378  0.1165  0.0580 -0.4638
 4685SOL    HW225689   2.497   4.014   7.427  0.3978  1.6264 -1.9230
 4686SOL     OW25690   3.746   4.173  14.573  0.1693 -0.1123  0.6719
 4686SOL    HW125691   3.748   4.083  14.607  1.0051  0.1907  1.4287
 4686SOL    HW225692   3.817   4.213  14.623  0.6839 -0.3262  0.1218
 4687SOL     OW25693   0.027   3.619  10.108  1.1206 -0.2145  0.2058
 4687SOL    HW125694   0.005   3.650  10.020  0.3892 -1.2024  0.0294
 4687SOL    HW225695   0.002   3.697  10.156 -0.2917 -0.2548 -0.4600
 4688SOL     OW25696   2.111   0.957   8.607 -0.7062  0.2291  0.2804
 4688SOL    HW125697   2.049   0.891   8.636 -0.0448  0.0131  1.2008
 4688SOL    HW225698   2.050   1.030   8.597 -0.1679  0.6696  0.1721
 4689SOL     OW25699   4.459   0.403  11.005  0.0676  0.0928 -0.3132
 4689SOL    HW125700   4.488   0.489  10.973  2.3565 -0.3327  0.5978
 4689SOL    HW225701   4.521   0.389  11.076  0.1020 -3.6576 -1.0788
 4690SOL     OW25702   0.201   0.405  10.123  0.1214 -0.2696 -0.1215
 4690SOL    HW125703   0.209   0.475  10.189  0.9790 -0.4389 -0.0473
 4690SOL    HW225704   0.126   0.438  10.073 -0.7285 -0.0473  1.3178
 4691SOL     OW25705   0.132   0.986   7.771 -0.5874  0.4509 -0.6526
 4691SOL    HW125706   0.084   1.069   7.776  2.1397  2.0110 -0.8280
 4691SOL    HW225707   0.064   0.928   7.736 -0.9655 -0.1777  1.1160
 4692SOL     OW25708   4.587   2.480   7.743 -0.2250 -0.0974 -0.3467
 4692SOL    HW125709   4.516   2.426   7.708 -0.9203  1.3217 -1.1015
 4692SOL    HW225710   4.617   2.415   7.807  0.4546  2.8154  2.2739
 4693SOL     OW25711   0.403   4.536   8.910  0.2803 -0.1201 -0.2058
 4693SOL    HW125712   0.313   4.517   8.886 -0.2096  1.8041  0.0636
 4693SOL    HW225713   0.439   4.451   8.934 -1.2086 -0.2669  1.4782
 4694SOL     OW25714   0.859   2.245   3.947  0.3472  0.4795  0.1729
 4694SOL    HW125715   0.950   2.230   3.921  0.3608 -0.7174  0.8926
 4694SOL    HW225716   0.848   2.185   4.021 -0.8134  1.6320  0.9311
 4695SOL     OW25717   4.096   0.736   2.045 -0.3409 -0.0694  0.7718
 4695SOL    HW125718   4.186   0.732   2.012 -0.4096  0.8389  0.4891
 4695SOL    HW225719   4.072   0.649   2.077 -0.3382 -0.2373  0.3274
 4696SOL     OW25720   4.198   1.965  14.147 -0.3149 -0.1398  0.7189
 4696SOL    HW125721   4.264   1.903  14.178  0.3845  1.4002  2.3064
 4696SOL    HW225722   4.146   1.970  14.227 -1.8636  1.8245 -0.4176
 4697SOL     OW25723   1.110   0.910   2.927 -0.7867 -0.0950  0.6708
 4697SOL    HW125724   1.202   0.933   2.936 -1.1795  1.9993 -0.6178
 4697SOL    HW225725   1.079   0.955   3.006  0.8760 -1.3117  2.0031
 4698SOL     OW25726   2.744   1.545  10.134  0.1546 -0.3062  0.4199
 4698SOL    HW125727   2.833   1.512  10.120  0.0847  0.5618 -1.9971
 4698SOL    HW225728   2.757   1.614  10.199  0.8533  0.8768 -0.9950
 4699SOL     OW25729   1.222   0.423   9.380 -0.5788 -0.5072 -0.0201
 4699SOL    HW125730   1.314   0.398   9.375 -0.6140 -0.7736  0.7621
 4699SOL    HW225731   1.224   0.514   9.408 -0.2081 -0.0054 -1.6597
 4700SOL     OW25732   0.206   3.241   1.948  0.1973  0.7064  0.0160
 4700SOL    HW125733   0.246   3.249   1.862 -1.6906  3.3232 -0.6158
 4700SOL    HW225734   0.241   3.161   1.986 -0.9370  0.4391  0.5007
 4701SOL     OW25735   4.085   2.975   9.401 -0.0982 -0.0198 -0.3181
 4701SOL    HW125736   4.172   2.977   9.362 -0.3067  2.3133 -0.6662
 4701SOL    HW225737   4.069   2.881   9.402 -0.3360 -0.0329 -3.1050
 4702SOL     OW25738   0.415   1.701   9.186 -0.1638  0.5697  0.5920
 4702SOL    HW125739   0.413   1.796   9.185  0.4971  0.5811  0.5760
 4702SOL    HW225740   0.440   1.688   9.094  3.0718  0.2084  1.5187
 4703SOL     OW25741   3.030   2.698   7.238  0.4186 -0.1810 -0.1312
 4703SOL    HW125742   2.965   2.641   7.278 -0.3984 -0.3148 -1.6593
 4703SOL    HW225743   3.105   2.639   7.229  0.5443  0.3657 -2.7518
 4704SOL     OW25744   0.578   1.737   0.325  0.6128  0.1952  0.3867
 4704SOL    HW125745   0.542   1.823   0.306  1.3620  0.4610  0.1658
 4704SOL    HW225746   0.619   1.745   0.411 -0.9060 -1.8943  1.3247
 4705SOL     OW25747   1.207   2.977  17.438  0.1765 -0.5994 -0.2149
 4705SOL    HW125748   1.216   2.923  17.359 -0.8738 -1.6786  0.4008
 4705SOL    HW225749   1.128   2.939  17.477  1.0733  1.3521  3.4060
 4706SOL     OW25750   0.281   3.510   8.034 -0.0841 -0.6133  0.5186
 4706SOL    HW125751   0.256   3.512   8.127 -0.2547  2.1984  0.4089
 4706SOL    HW225752   0.196   3.499   7.991  0.2331 -0.6527 -0.0837
 4707SOL     OW25753   3.157   2.205   6.617  0.7406 -0.0341 -0.2422
 4707SOL    HW125754   3.145   2.182   6.709  1.8328 -0.4043 -0.2014
 4707SOL    HW225755   3.080   2.260   6.598  0.4981  0.1701  1.3545
 4708SOL     OW25756   0.812   3.801   2.314  0.0086 -0.0311  0.4059
 4708SOL    HW125757   0.805   3.714   2.274 -0.9821  1.0094 -1.7121
 4708SOL    HW225758   0.745   3.856   2.272 -1.8891 -0.5072  2.8201
 4709SOL     OW25759   3.795   3.643   2.028  0.1568  0.6576  0.6129
 4709SOL    HW125760   3.862   3.576   2.013 -0.3375 -0.2608  2.5531
 4709SOL    HW225761   3.807   3.671   2.119 -0.7455  1.2394  0.5515
 4710SOL     OW25762   0.299   1.396   8.946 -0.1137 -0.0314  0.4348
 4710SOL    HW125763   0.251   1.386   9.028  0.1363  1.8945  0.8253
 4710SOL    HW225764   0.316   1.490   8.937  1.6540 -0.3045  1.0894
 4711SOL     OW25765   3.411   2.097   4.964  0.0341 -0.2284  0.8280
 4711SOL    HW125766   3.369   2.115   5.048 -1.4374  1.7204 -0.3140
 4711SOL    HW225767   3.345   2.128   4.902  1.0536  1.3798  0.5288
 4712SOL     OW25768   0.767   2.608  13.222  0.2634 -0.0562  0.1522
 4712SOL    HW125769   0.810   2.523  13.213  0.3466  0.0516 -0.4673
 4712SOL    HW225770   0.847   2.657  13.237 -1.1176  2.0630  0.6519
 4713SOL     OW25771   2.610   2.541   3.018 -0.6319 -0.1334 -0.2186
 4713SOL    HW125772   2.584   2.632   3.003 -1.6459 -0.4806 -0.6085
 4713SOL    HW225773   2.548   2.498   2.958 -2.1252  1.1296  0.4034
 4714SOL     OW25774   4.342   3.336   7.765  0.4318 -0.0776  0.0823
 4714SOL    HW125775   4.322   3.408   7.824 -1.8155 -2.6007  2.3844
 4714SOL    HW225776   4.419   3.294   7.803  0.9834  0.3715 -0.5429
 4715SOL     OW25777   3.075   1.352   2.960 -1.0651  0.1944  0.3082
 4715SOL    HW125778   2.985   1.380   2.973 -1.7276 -2.3877  1.3777
 4715SOL    HW225779   3.058   1.258   2.959  0.3607 -0.0614  0.8696
 4716SOL     OW25780   4.064   4.029   8.454 -0.1838  0.2115  0.0042
 4716SOL    HW125781   4.104   4.037   8.541 -1.7649  2.6771  0.5040
 4716SOL    HW225782   4.140   3.993   8.408  0.9547  1.4257  0.9126
 4717SOL     OW25783   1.888   0.105   4.731  0.0726  0.1169  0.3376
 4717SOL    HW125784   1.819   0.047   4.765  0.1490  1.9835  3.6921
 4717SOL    HW225785   1.952   0.088   4.800 -1.1882 -1.8730  1.0199
 4718SOL     OW25786   1.804   3.883   5.850 -0.1608  0.3511  0.5493
 4718SOL    HW125787   1.758   3.920   5.775  0.3432  0.5320  0.3317
 4718SOL    HW225788   1.856   3.956   5.883 -0.4336  1.1568 -0.8125
 4719SOL     OW25789   2.863   2.193  12.354 -0.5902 -0.2331 -0.2421
 4719SOL    HW125790   2.850   2.202  12.260 -0.3210  1.1783 -0.1547
 4719SOL    HW225791   2.943   2.140  12.355 -0.2402  0.3246  1.5216
 4720SOL     OW25792   4.202   3.919   8.664  0.7050  0.1298  0.3770
 4720SOL    HW125793   4.204   3.824   8.677  0.6122 -0.5128 -4.1724
 4720SOL    HW225794   4.194   3.958   8.751  1.6315  0.6989  0.2120
 4721SOL     OW25795   3.393   3.903   5.347  0.1586  0.2261  0.0399
 4721SOL    HW125796   3.331   3.954   5.295  0.6442 -0.6190 -1.3449
 4721SOL    HW225797   3.440   3.976   5.389  1.3001 -0.3357 -0.2690
 4722SOL     OW25798   1.104   2.055  13.005 -0.1061 -0.0738 -0.6111
 4722SOL    HW125799   1.130   2.144  12.981 -0.4926  0.8299  2.2966
 4722SOL    HW225800   1.135   2.006  12.929 -0.4520 -2.7223  0.9551
 4723SOL     OW25801   1.770   2.657   4.613 -0.0695 -0.1029  0.2535
 4723SOL    HW125802   1.820   2.738   4.607 -0.7032  0.3997  1.9244
 4723SOL    HW225803   1.746   2.665   4.705  0.2763 -2.1766  0.5252
 4724SOL     OW25804   2.215   0.626   0.770 -0.0495  0.0179 -0.0879
 4724SOL    HW125805   2.276   0.647   0.700 -0.5109 -0.5812 -0.6779
 4724SOL    HW225806   2.165   0.553   0.732  1.7229 -1.6814  0.8602
 4725SOL     OW25807   0.227   1.476   6.465  0.0209  0.0568 -0.2331
 4725SOL    HW125808   0.247   1.567   6.486  3.4540 -0.0200 -3.3386
 4725SOL    HW225809   0.136   1.492   6.440 -0.3329 -0.5090  0.6540
 4726SOL     OW25810   4.668   4.059  15.503 -0.1786 -0.1669 -0.6563
 4726SOL    HW125811   4.647   4.024  15.416  1.2632 -0.0043 -1.0690
 4726SOL    HW225812   4.726   4.133  15.485 -0.7753 -0.4694 -3.8328
 4727SOL     OW25813   3.005   2.506   3.568  0.2286 -0.1270  0.2572
 4727SOL    HW125814   3.082   2.551   3.533  0.2403 -0.5840 -0.2998
 4727SOL    HW225815   2.967   2.491   3.481  1.7466  1.1821 -0.6336
 4728SOL     OW25816   1.211   3.579   2.857  0.0936 -0.5914 -0.1858
 4728SOL    HW125817   1.145   3.617   2.799  1.3414 -1.4712 -2.1774
 4728SOL    HW225818   1.164   3.591   2.940  0.9857 -1.1468  0.4002
 4729SOL     OW25819   2.919   3.583   5.948 -0.6962 -0.3263 -0.1693
 4729SOL    HW125820   2.983   3.526   5.905 -0.6976  1.2189 -2.1716
 4729SOL    HW225821   2.940   3.666   5.905 -3.0195  0.6571  0.5882
 4730SOL     OW25822   3.881   2.868   3.187  0.7421 -0.2966 -0.1145
 4730SOL    HW125823   3.799   2.897   3.147 -0.9310  0.1358  3.7240
 4730SOL    HW225824   3.940   2.858   3.112  0.5942  0.4567 -0.3269
 4731SOL     OW25825   1.032   2.495   8.379  0.2128  0.0218  0.2236
 4731SOL    HW125826   1.058   2.404   8.390  2.0780  0.5785  0.4803
 4731SOL    HW225827   1.023   2.490   8.283  1.3446  1.3447  0.0414
 4732SOL     OW25828   1.925   0.293  17.654 -0.0288  0.0641  0.0013
 4732SOL    HW125829   1.893   0.241  17.728 -1.3412  0.2212 -0.4426
 4732SOL    HW225830   2.003   0.327  17.696 -0.2917  0.1389  0.4357
 4733SOL     OW25831   4.091   3.484   5.257  0.4232 -0.2340  0.0679
 4733SOL    HW125832   4.063   3.543   5.187 -0.7096  0.2903  0.9681
 4733SOL    HW225833   4.129   3.411   5.207 -1.3201 -0.6788 -0.6474
 4734SOL     OW25834   1.380   0.426  15.232 -0.0992 -0.5654  0.6849
 4734SOL    HW125835   1.321   0.498  15.209 -1.6679 -1.9980  0.2138
 4734SOL    HW225836   1.447   0.439  15.165 -2.8409  0.9584 -1.8021
 4735SOL     OW25837   1.800   3.507   3.638  0.1905  0.0098  0.8365
 4735SOL    HW125838   1.732   3.565   3.674  0.8496  0.3905  1.4749
 4735SOL    HW225839   1.793   3.515   3.543 -1.7675 -3.2951  0.7113
 4736SOL     OW25840   4.452   2.523   5.718  0.3299 -0.4466 -0.2192
 4736SOL    HW125841   4.496   2.438   5.715  0.2293 -0.4190 -2.7757
 4736SOL    HW225842   4.487   2.564   5.797 -0.6409 -0.9901  0.5062
 4737SOL     OW25843   0.591   0.383   6.396  0.1056 -0.1262 -0.1817
 4737SOL    HW125844   0.668   0.330   6.377 -0.3377 -0.5064 -0.8987
 4737SOL    HW225845   0.528   0.331   6.346 -0.1728  0.7499 -0.7422
 4738SOL     OW25846   4.061   3.214   8.816  0.2751 -0.0146  0.2131
 4738SOL    HW125847   4.157   3.210   8.826  0.4062  4.7307  0.8315
 4738SOL    HW225848   4.033   3.124   8.828  3.3596 -0.9325  0.4622
 4739SOL     OW25849   1.997   3.981   2.050 -0.1972  0.3327  0.2735
 4739SOL    HW125850   1.909   4.011   2.028  0.1382 -0.2176 -1.8275
 4739SOL    HW225851   2.048   4.012   1.976 -0.2533 -1.0935 -0.3600
 4740SOL     OW25852   2.212   3.981  13.265  0.2430 -0.3476 -0.4589
 4740SOL    HW125853   2.255   3.997  13.349 -1.0496 -0.8425  0.3061
 4740SOL    HW225854   2.148   4.052  13.270 -1.7882 -1.8753 -4.5224
 4741SOL     OW25855   3.396   1.517   7.017  0.1119 -0.2966  0.2302
 4741SOL    HW125856   3.379   1.467   6.937  2.3110  0.8814 -0.9845
 4741SOL    HW225857   3.348   1.600   7.007 -0.1038 -0.6421 -1.5916
 4742SOL     OW25858   4.127   4.716   7.376 -0.1130  0.0467 -0.6492
 4742SOL    HW125859   4.043   4.678   7.401  1.2551 -1.4306  1.6790
 4742SOL    HW225860   4.134   4.685   7.286 -0.0622 -3.1702  0.4767
 4743SOL     OW25861   3.018   1.694  17.131  0.2686  0.3848  0.6619
 4743SOL    HW125862   2.969   1.624  17.089  1.7976  0.6816 -1.6099
 4743SOL    HW225863   2.953   1.703  17.201  0.4844  1.0783  0.7724
 4744SOL     OW25864   3.730   1.645   2.499 -0.0732  0.4585 -0.5284
 4744SOL    HW125865   3.736   1.612   2.410  0.4479 -1.8728  0.3671
 4744SOL    HW225866   3.659   1.708   2.486 -0.9184 -0.1613  1.0132
 4745SOL     OW25867   2.187   3.061   2.515  0.6826 -0.1802 -0.2231
 4745SOL    HW125868   2.259   3.024   2.465  1.6353 -0.9122  1.6920
 4745SOL    HW225869   2.144   3.099   2.438 -2.9091 -1.3965  1.1617
 4746SOL     OW25870   0.159   2.246   9.987  0.6570 -0.3251 -0.1951
 4746SOL    HW125871   0.096   2.226   9.918  1.0989 -2.0162 -0.1004
 4746SOL    HW225872   0.145   2.339  10.005 -0.3882 -0.6331  0.6196
 4747SOL     OW25873   0.096   4.206   7.709  0.0256 -0.0281 -0.5134
 4747SOL    HW125874   0.190   4.208   7.724 -0.1574  1.1022  0.5688
 4747SOL    HW225875   0.091   4.256   7.628 -0.3119  0.6881 -0.0600
 4748SOL     OW25876   3.775   0.851   0.643  0.1845  0.3082 -0.7502
 4748SOL    HW125877   3.701   0.825   0.697  0.7243 -0.9768 -0.6255
 4748SOL    HW225878   3.848   0.819   0.696 -0.3363 -1.0419 -0.8537
 4749SOL     OW25879   3.420   2.139   9.021 -0.2489 -0.2583 -0.4862
 4749SOL    HW125880   3.325   2.126   9.025 -0.3155  0.3130 -0.1517
 4749SOL    HW225881   3.432   2.169   8.931 -0.1932  0.6291 -0.1829
 4750SOL     OW25882   4.428   4.588  17.367 -0.2875 -0.4242 -0.1343
 4750SOL    HW125883   4.334   4.586  17.382 -0.3883  0.6436 -0.6039
 4750SOL    HW225884   4.425   4.617  17.276  0.8778  2.1531  0.6470
 4751SOL     OW25885   3.188   0.488   9.559  0.1719 -0.1006 -0.9217
 4751SOL    HW125886   3.093   0.485   9.554  0.1045  0.6398 -0.0513
 4751SOL    HW225887   3.192   0.571   9.606 -0.5662 -0.1279 -0.8189
 4752SOL     OW25888   3.539   1.447   4.725  0.3449 -0.0289 -0.3935
 4752SOL    HW125889   3.457   1.436   4.773 -1.0753  4.1583 -1.8514
 4752SOL    HW225890   3.514   1.494   4.645  0.7877  1.5010  0.3692
 4753SOL     OW25891   1.847   2.190   5.423 -0.3336  0.4956 -0.4040
 4753SOL    HW125892   1.875   2.210   5.513 -2.0287  1.9208 -0.1935
 4753SOL    HW225893   1.852   2.273   5.375 -1.3414 -0.0201 -1.4064
 4754SOL     OW25894   2.466   3.320   7.198 -0.1276 -0.2689  0.0852
 4754SOL    HW125895   2.445   3.297   7.289  0.9874 -0.1029  0.3929
 4754SOL    HW225896   2.480   3.414   7.204 -0.3546 -0.4293  2.9749
 4755SOL     OW25897   4.530   2.356  10.704 -0.2399  0.8369  0.1733
 4755SOL    HW125898   4.486   2.274  10.679  3.5029 -1.8406  2.4327
 4755SOL    HW225899   4.574   2.318  10.780 -1.1106 -0.4551  0.0332
 4756SOL     OW25900   2.873   1.013   8.885 -0.2890  0.2796  0.1969
 4756SOL    HW125901   2.901   0.951   8.817 -0.2765 -0.4873  0.9112
 4756SOL    HW225902   2.781   1.021   8.862  0.0556  0.4379 -1.1508
 4757SOL     OW25903   4.693   4.022   4.685  0.2691  0.6376 -0.4310
 4757SOL    HW125904   4.701   4.024   4.590 -1.6337 -0.8008 -0.6266
 4757SOL    HW225905   4.604   3.993   4.703  1.0369 -1.5140 -0.0463
 4758SOL     OW25906   1.986   2.180  16.713  0.2088 -0.1172  0.1713
 4758SOL    HW125907   2.007   2.213  16.800  0.5482  0.4440 -0.1229
 4758SOL    HW225908   2.071   2.151  16.679 -0.6839 -0.3295 -1.8808
 4759SOL     OW25909   3.774   2.181  13.214 -0.1666  0.1949 -0.0954
 4759SOL    HW125910   3.802   2.249  13.274  0.6938 -0.2665  0.0236
 4759SOL    HW225911   3.823   2.211  13.137  0.6252  0.1432  0.3938
 4760SOL     OW25912   0.140   2.177   3.693 -0.6241 -0.6351 -0.0732
 4760SOL    HW125913   0.225   2.134   3.687  0.2877  1.1879 -0.0977
 4760SOL    HW225914   0.075   2.121   3.651  0.1533 -1.7611  0.2239
 4761SOL     OW25915   0.802   4.489   3.536  0.1550 -0.6328 -0.2224
 4761SOL    HW125916   0.824   4.572   3.492 -0.3727 -0.7415 -0.6989
 4761SOL    HW225917   0.709   4.474   3.519  0.1109 -0.8636  0.2327
 4762SOL     OW25918   3.323   0.421   8.646  0.0446 -0.1371  0.0977
 4762SOL    HW125919   3.333   0.359   8.573  0.8866  1.1836 -0.9046
 4762SOL    HW225920   3.233   0.447   8.626  0.2985  0.6743  0.0332
 4763SOL     OW25921   2.462   2.644   7.603  0.3184  0.5156 -0.2674
 4763SOL    HW125922   2.407   2.624   7.679  1.1822 -2.1500 -0.3270
 4763SOL    HW225923   2.472   2.564   7.551  0.9562 -0.2010  0.9387
 4764SOL     OW25924   1.301   0.702  17.064 -0.4721  0.4956 -0.0566
 4764SOL    HW125925   1.279   0.795  17.051 -0.4220  0.6226  0.7662
 4764SOL    HW225926   1.222   0.653  17.042 -0.7591  1.3957 -1.0823
 4765SOL     OW25927   0.588   1.801   2.311  0.0541 -0.0154  0.3014
 4765SOL    HW125928   0.594   1.714   2.350  0.7041  0.8101  2.0496
 4765SOL    HW225929   0.585   1.785   2.216 -0.1404 -0.4005  0.3729
 4766SOL     OW25930   2.695   1.398   4.065  0.0799 -0.1611  0.6585
 4766SOL    HW125931   2.722   1.354   4.146  0.9879  0.3231  0.6256
 4766SOL    HW225932   2.664   1.475   4.111  0.6005 -0.6037  1.7793
 4767SOL     OW25933   4.452   1.453   2.412 -0.6392  0.1099 -0.4438
 4767SOL    HW125934   4.512   1.386   2.446  0.0138  0.8251 -0.1994
 4767SOL    HW225935   4.373   1.402   2.430  0.0772 -0.8136  0.1361
 4768SOL     OW25936   0.565   0.501  16.657 -0.2549 -0.4170  0.2519
 4768SOL    HW125937   0.484   0.450  16.666  0.3402 -1.0310  2.0397
 4768SOL    HW225938   0.615   0.453  16.591  1.2177  0.2921  0.8484
 4769SOL     OW25939   0.805   1.977   6.143  0.7248  0.0205 -0.3361
 4769SOL    HW125940   0.852   1.898   6.170 -0.0282 -0.2182  0.2608
 4769SOL    HW225941   0.743   1.962   6.214 -2.6482  2.6297 -2.7249
 4770SOL     OW25942   0.478   2.850  16.845 -0.2505  0.7115  0.1958
 4770SOL    HW125943   0.512   2.939  16.858  0.1159  0.4975  0.7439
 4770SOL    HW225944   0.457   2.838  16.753  1.8540  0.3341 -0.2454
 4771SOL     OW25945   0.025   3.170   9.033 -0.2685 -0.2421 -0.6312
 4771SOL    HW125946   0.052   3.088   8.991  0.3932  0.1235 -0.9107
 4771SOL    HW225947   0.077   3.233   8.983 -1.9538  0.7611 -1.1034
 4772SOL     OW25948   4.161   0.963  14.941 -0.0817 -0.1190  0.1061
 4772SOL    HW125949   4.240   0.930  14.982  0.5907  1.7996  0.3499
 4772SOL    HW225950   4.187   0.996  14.855 -2.4236 -1.3513 -1.1043
 4773SOL     OW25951   2.440   0.446   9.465 -0.2143 -0.5034  0.4828
 4773SOL    HW125952   2.512   0.405   9.513 -2.1731 -2.2603  1.9144
 4773SOL    HW225953   2.476   0.434   9.377 -0.9458  0.1162  0.1075
 4774SOL     OW25954   3.223   4.049   3.724 -0.1731 -1.1259 -0.0912
 4774SOL    HW125955   3.237   4.026   3.816  1.7419 -1.5342 -0.4819
 4774SOL    HW225956   3.287   3.991   3.681 -1.6176 -2.3153 -0.6713
 4775SOL     OW25957   2.981   1.818   4.519  0.5529 -0.7216  0.3542
 4775SOL    HW125958   3.057   1.803   4.575  0.1744 -1.1530  0.7524
 4775SOL    HW225959   2.915   1.856   4.578  1.5126 -1.5059  1.9401
 4776SOL     OW25960   4.361   4.599   9.501  0.0194 -0.1257  0.2946
 4776SOL    HW125961   4.339   4.511   9.531 -0.7392  0.5102  1.6371
 4776SOL    HW225962   4.332   4.597   9.410  2.3050  0.5504 -0.4286
 4777SOL     OW25963   2.377   0.186   6.566 -0.4370 -0.1100 -0.1298
 4777SOL    HW125964   2.304   0.184   6.505 -0.7861 -1.8160  0.3275
 4777SOL    HW225965   2.407   0.096   6.549  1.3073  0.3569  0.4041
 4778SOL     OW25966   1.372   2.174   5.738 -0.3712 -0.0401 -0.6489
 4778SOL    HW125967   1.277   2.170   5.727 -0.1237  0.7463 -3.0580
 4778SOL    HW225968   1.379   2.179   5.834  1.4917  0.9062 -0.8335
 4779SOL     OW25969   1.077   2.435   6.089 -0.1361  0.0983  0.1601
 4779SOL    HW125970   1.100   2.386   6.168 -0.0967  0.6242  0.4675
 4779SOL    HW225971   1.009   2.376   6.054  2.3205 -3.2062  0.9559
 4780SOL     OW25972   3.733   4.130  15.798  0.0186 -0.3120 -0.4809
 4780SOL    HW125973   3.818   4.122  15.753 -0.2832  1.4186 -1.3833
 4780SOL    HW225974   3.733   4.057  15.859  2.1411  0.0074 -0.0772
 4781SOL     OW25975   1.107   3.000   0.880  0.5411 -0.1533  0.7110
 4781SOL    HW125976   1.047   3.003   0.955 -0.5451  0.7303 -0.1961
 4781SOL    HW225977   1.058   2.970   0.804 -0.3114  0.5379  0.9949
 4782SOL     OW25978   0.620   0.536   8.861  0.1886 -0.2878  0.2355
 4782SOL    HW125979   0.642   0.453   8.903 -1.0554 -0.8665 -0.2585
 4782SOL    HW225980   0.689   0.593   8.894  0.4781  0.6689 -1.9986
 4783SOL     OW25981   4.137   2.780   6.301  0.1032 -0.4573  0.4685
 4783SOL    HW125982   4.211   2.753   6.248  0.3142 -0.0399  0.5455
 4783SOL    HW225983   4.060   2.765   6.245 -0.1125 -1.2638  0.9838
 4784SOL     OW25984   0.970   4.269  11.241  0.9071 -0.2824  0.2745
 4784SOL    HW125985   1.028   4.335  11.203  0.6433 -0.6229 -0.7075
 4784SOL    HW225986   1.034   4.209  11.278  0.7884 -1.2797 -1.1671
 4785SOL     OW25987   1.991   2.034  12.419  0.9007  0.3229  0.3432
 4785SOL    HW125988   2.038   1.962  12.461  0.2466 -0.1184  0.3156
 4785SOL    HW225989   1.914   1.996  12.376  0.7139  3.2838 -1.9338
 4786SOL     OW25990   0.559   0.111   3.685  0.0758 -0.2575  0.3248
 4786SOL    HW125991   0.502   0.035   3.700 -1.9069  1.4766  1.7835
 4786SOL    HW225992   0.609   0.123   3.766  1.1507 -0.6551 -0.2796
 4787SOL     OW25993   2.921   2.224   5.917 -0.0894  0.1917 -0.0174
 4787SOL    HW125994   2.877   2.257   5.838  1.0620 -1.3455 -1.3214
 4787SOL    HW225995   2.845   2.210   5.973  0.2486  1.4229  0.7447
 4788SOL     OW25996   1.865   2.609   2.038 -0.5445  0.8324  0.1601
 4788SOL    HW125997   1.793   2.656   1.997 -0.4607  0.7407 -0.0967
 4788SOL    HW225998   1.867   2.537   1.975 -1.3690  0.6814  0.3175
 4789SOL     OW25999   0.505   1.545   7.041  0.2032 -0.2068 -0.0849
 4789SOL    HW126000   0.518   1.625   7.091 -0.0298 -0.4432  0.3504
 4789SOL    HW226001   0.517   1.486   7.115 -1.5130  2.2458  2.1057
 4790SOL     OW26002   1.928   0.021   9.891  0.8407 -0.0273  0.2840
 4790SOL    HW126003   1.963   0.100   9.932  0.6295 -0.9980  2.2867
 4790SOL    HW226004   1.846   0.017   9.940  1.1659 -0.4750  0.7791
 4791SOL     OW26005   1.080   0.117   8.477 -0.2044  0.1464 -0.3541
 4791SOL    HW126006   1.020   0.192   8.478 -0.1236  0.2004  1.5357
 4791SOL    HW226007   1.163   0.165   8.475  0.3502 -0.8114 -0.1181
 4792SOL     OW26008   1.425   3.504   4.170  0.1155  0.3732  0.2431
 4792SOL    HW126009   1.429   3.460   4.255 -1.7108  0.6440  0.4552
 4792SOL    HW226010   1.333   3.489   4.148  0.3414 -0.1577 -0.3429
 4793SOL     OW26011   0.827   2.691   4.724  0.2677  0.0484 -0.2813
 4793SOL    HW126012   0.884   2.700   4.648 -0.9628  1.9062 -0.9806
 4793SOL    HW226013   0.867   2.616   4.768  1.9712  0.2186 -1.5591
 4794SOL     OW26014   2.290   2.512   2.357  0.6122 -0.0507 -0.3596
 4794SOL    HW126015   2.340   2.565   2.295  1.0650 -0.3790 -0.2758
 4794SOL    HW226016   2.249   2.457   2.291 -0.1786  0.7936 -0.5817
 4795SOL     OW26017   3.145   3.494   4.440  0.5574 -0.3099 -0.4788
 4795SOL    HW126018   3.234   3.518   4.413  1.3629 -2.3870  0.3077
 4795SOL    HW226019   3.102   3.494   4.355 -1.1896 -0.6805  0.4028
 4796SOL     OW26020   2.327   0.998   9.829 -0.1837  0.3608  0.0781
 4796SOL    HW126021   2.314   1.058   9.903  1.7870 -2.0740  2.3890
 4796SOL    HW226022   2.314   1.057   9.754 -1.0755  0.4574  0.3005
 4797SOL     OW26023   4.114   2.366  11.541  0.1479 -0.6042 -0.5331
 4797SOL    HW126024   4.114   2.271  11.528  0.1042 -0.9040  1.7080
 4797SOL    HW226025   4.160   2.395  11.462 -0.0744  0.4900 -0.2628
 4798SOL     OW26026   0.351   3.518  13.081 -0.0276 -0.7711 -0.0507
 4798SOL    HW126027   0.420   3.454  13.064  1.6870  0.6699  1.4445
 4798SOL    HW226028   0.358   3.518  13.177 -2.9305  0.5634  0.1632
 4799SOL     OW26029   0.712   4.605   7.008  0.1908  0.7372 -0.0102
 4799SOL    HW126030   0.786   4.589   6.950  0.4868  1.2083  0.2385
 4799SOL    HW226031   0.647   4.538   6.986  1.9403 -2.0005  2.9681
 4800SOL     OW26032   1.405   2.220   7.566  0.3098  0.0719  0.0709
 4800SOL    HW126033   1.342   2.209   7.495 -0.1954 -0.2867  0.5760
 4800SOL    HW226034   1.481   2.167   7.546 -0.4366 -0.1306 -2.3197
 4801SOL     OW26035   0.597   1.118   0.850  0.3350 -0.7423  0.7485
 4801SOL    HW126036   0.579   1.061   0.925 -0.8858 -0.3146  0.7728
 4801SOL    HW226037   0.529   1.097   0.787  0.3617  1.4398 -0.0033
 4802SOL     OW26038   4.696   3.617   3.864 -0.3075  0.3940 -0.0656
 4802SOL    HW126039   4.707   3.587   3.955 -2.8713  0.2396  0.1860
 4802SOL    HW226040   4.670   3.533   3.827 -1.7782 -1.4423  5.0481
 4803SOL     OW26041   4.254   1.900   9.408  0.0993 -0.0877  0.2654
 4803SOL    HW126042   4.266   1.931   9.497 -0.6761  0.4834  0.1676
 4803SOL    HW226043   4.338   1.927   9.370 -0.6173  1.4073 -0.2498
 4804SOL     OW26044   2.305   3.864  16.942 -0.1528  0.6390 -0.7729
 4804SOL    HW126045   2.272   3.821  16.864  1.5370 -1.2826 -0.4406
 4804SOL    HW226046   2.355   3.933  16.899 -4.8911  1.6779 -4.5468
 4805SOL     OW26047   3.062   3.838  10.828  0.7098  0.7692  0.2457
 4805SOL    HW126048   3.018   3.908  10.876 -1.5336  1.8233 -3.4191
 4805SOL    HW226049   3.123   3.875  10.765  0.1727  0.0372 -0.7022
 4806SOL     OW26050   3.137   2.626   4.249  0.1875  0.0119  0.8007
 4806SOL    HW126051   3.193   2.649   4.176  1.4275 -1.4838  1.2730
 4806SOL    HW226052   3.139   2.531   4.254 -0.6246  0.0692  2.5448
 4807SOL     OW26053   0.350   1.035   5.000 -0.6714 -0.4802 -0.1002
 4807SOL    HW126054   0.260   1.016   4.973 -0.4214  0.5460 -1.6457
 4807SOL    HW226055   0.336   1.112   5.055  0.2535  0.1422 -0.7421
 4808SOL     OW26056   1.771   2.858  15.275  0.2913 -0.3438 -0.1447
 4808SOL    HW126057   1.769   2.947  15.241 -2.0589 -0.3357 -0.0128
 4808SOL    HW226058   1.798   2.809  15.197 -2.6489 -0.0550 -1.3472
 4809SOL     OW26059   1.918   2.276   2.093  0.5092 -0.2399 -0.3608
 4809SOL    HW126060   1.928   2.193   2.138  0.7211 -0.4943 -0.8794
 4809SOL    HW226061   1.858   2.248   2.024  1.1493  1.1607 -1.4988
 4810SOL     OW26062   1.372   2.863   9.387  0.1511 -0.2386  0.3039
 4810SOL    HW126063   1.291   2.905   9.356  0.7593  0.7100 -0.0105
 4810SOL    HW226064   1.433   2.927   9.350  2.1437 -3.1791 -1.5212
 4811SOL     OW26065   3.601   3.703   1.467  0.2310  0.1336 -0.1639
 4811SOL    HW126066   3.592   3.609   1.452  2.9986  0.1634 -1.9624
 4811SOL    HW226067   3.672   3.731   1.409  0.7140 -1.2999 -0.2722
 4812SOL     OW26068   2.889   4.731  14.780 -0.0092 -0.3398  0.8243
 4812SOL    HW126069   2.890   0.061  14.846 -1.6418  0.0005  0.4723
 4812SOL    HW226070   2.956   0.024  14.721 -0.6814 -1.3274 -0.4827
 4813SOL     OW26071   0.188   1.051   8.440 -0.1560  0.4551  0.5305
 4813SOL    HW126072   0.100   1.081   8.418  0.2150  1.6100  0.5999
 4813SOL    HW226073   0.252   1.102   8.390  0.0384  1.2097  1.5538
 4814SOL     OW26074   2.605   1.568   6.183  0.4183 -0.0053  0.5613
 4814SOL    HW126075   2.653   1.496   6.143  0.6943  0.6214 -0.2296
 4814SOL    HW226076   2.661   1.642   6.203  0.5818  0.0429 -0.0728
 4815SOL     OW26077   4.246   4.477   5.955 -0.1387  0.1891 -0.1049
 4815SOL    HW126078   4.317   4.507   5.898 -1.3695  2.3042 -0.5525
 4815SOL    HW226079   4.226   4.544   6.020 -0.6125 -2.8472  2.8205
 4816SOL     OW26080   0.212   2.901   8.327 -0.1397 -0.2248 -0.4751
 4816SOL    HW126081   0.166   2.823   8.359  1.6772 -0.6194  1.1929
 4816SOL    HW226082   0.153   2.937   8.261 -1.2716 -0.9799  0.1107
 4817SOL     OW26083   2.569   3.469   8.916  0.3663 -0.4541 -0.2165
 4817SOL    HW126084   2.557   3.374   8.918 -1.0171 -0.2944 -0.7758
 4817SOL    HW226085   2.655   3.467   8.875 -0.2197 -1.0653 -1.4100
 4818SOL     OW26086   3.567   4.175  12.415 -0.4434  0.0150  0.4729
 4818SOL    HW126087   3.611   4.156  12.332 -0.1421 -0.4795  0.7431
 4818SOL    HW226088   3.523   4.092  12.430 -1.5445  0.5442  0.1345
 4819SOL     OW26089   1.658   1.968  16.219  0.1626 -0.1508 -0.0548
 4819SOL    HW126090   1.629   1.990  16.308  0.6566  0.0752  0.0463
 4819SOL    HW226091   1.724   1.900  16.221  2.3176  1.9883  1.1915
 4820SOL     OW26092   0.060   2.765   6.419 -0.2079  0.2773 -0.6205
 4820SOL    HW126093   0.107   2.706   6.479  0.0276 -0.7177 -1.7676
 4820SOL    HW226094   0.046   2.844   6.471  0.8984  0.9052 -1.2732
 4821SOL     OW26095   1.469   0.019  17.354  0.0609  0.5150  0.1213
 4821SOL    HW126096   1.457   4.664  17.359 -1.6372  0.7004 -0.5002
 4821SOL    HW226097   1.489   0.039  17.446 -2.8726 -1.4160  1.1655
 4822SOL     OW26098   4.122   2.711   9.562 -0.0429 -0.1481  0.0399
 4822SOL    HW126099   4.215   2.734   9.559 -0.3491  1.1408  0.3548
 4822SOL    HW226100   4.135   2.619   9.541  1.2807  0.2605 -0.9132
 4823SOL     OW26101   2.953   4.325  16.769  0.4689  0.0042  0.4759
 4823SOL    HW126102   2.927   4.359  16.855  1.3194  0.6513  0.4736
 4823SOL    HW226103   2.880   4.268  16.746  0.2138  2.0047 -3.4723
 4824SOL     OW26104   3.359   1.366  11.131 -0.0619  0.6068  0.2169
 4824SOL    HW126105   3.271   1.400  11.117 -0.3002  0.8092  2.1707
 4824SOL    HW226106   3.394   1.438  11.184  1.3502  0.9248 -1.1542
 4825SOL     OW26107   4.431   2.644   8.086 -0.1519  0.1744  0.4109
 4825SOL    HW126108   4.374   2.568   8.078  1.0815 -0.7873  0.8860
 4825SOL    HW226109   4.454   2.667   7.995  0.7907  0.3166  0.6867
 4826SOL     OW26110   0.925   1.998   9.693  0.1479 -0.0377 -0.0401
 4826SOL    HW126111   0.836   2.026   9.670 -0.9376 -2.8206  0.8374
 4826SOL    HW226112   0.912   1.958   9.779 -0.6588  0.5818  0.1302
 4827SOL     OW26113   2.254   3.248   9.410  0.2911  0.1709  0.5939
 4827SOL    HW126114   2.303   3.261   9.491  0.6882  0.8313  0.2523
 4827SOL    HW226115   2.203   3.171   9.437  0.7189  0.3770  1.9757
 4828SOL     OW26116   1.372   2.965   0.033  0.6629 -0.1508  0.1224
 4828SOL    HW126117   1.447   2.965  17.732  0.1346 -0.9939 -0.5548
 4828SOL    HW226118   1.403   2.919   0.111  0.8895  1.3970  0.9374
 4829SOL     OW26119   4.126   4.264   0.399 -0.2546  0.7554  0.1122
 4829SOL    HW126120   4.171   4.243   0.317 -1.3020  0.0454 -0.2846
 4829SOL    HW226121   4.108   4.358   0.391 -0.1238  0.4791 -3.2973
 4830SOL     OW26122   0.376   1.357   3.768  0.2533 -0.2399  0.2607
 4830SOL    HW126123   0.283   1.334   3.778 -0.0175  0.3747 -0.9136
 4830SOL    HW226124   0.413   1.277   3.730 -0.3508  0.6567 -2.2234
 4831SOL     OW26125   0.609   4.608   9.529 -0.6729 -0.8557 -0.0720
 4831SOL    HW126126   0.688   4.623   9.581 -1.2484  2.5627 -0.1310
 4831SOL    HW226127   0.653   4.570   9.453 -2.5325 -3.3866  0.1447
 4832SOL     OW26128   2.062   1.226   5.217  0.0099  0.5346  0.3170
 4832SOL    HW126129   2.000   1.295   5.240  0.6921  1.3065 -0.2044
 4832SOL    HW226130   2.132   1.287   5.197 -1.6046  1.6146 -2.0426
 4833SOL     OW26131   0.693   0.754  11.996 -0.0173 -0.2825  0.1161
 4833SOL    HW126132   0.657   0.680  11.946  0.4010 -0.6515  0.3637
 4833SOL    HW226133   0.639   0.758  12.075 -0.0852  2.1659 -0.0492
 4834SOL     OW26134   2.453   4.108  11.536 -0.0207  0.2242  0.6645
 4834SOL    HW126135   2.460   4.119  11.630  2.5571 -1.1728  0.6203
 4834SOL    HW226136   2.537   4.142  11.505  0.6657  0.7367  3.1528
 4835SOL     OW26137   3.439   3.220   4.512  0.0282  0.7475  0.0561
 4835SOL    HW126138   3.373   3.264   4.458  0.8282 -0.3980 -1.8623
 4835SOL    HW226139   3.519   3.244   4.464  0.3794 -2.7996 -1.1355
 4836SOL     OW26140   1.973   3.895  11.292  0.0152  0.1194  0.1982
 4836SOL    HW126141   2.000   3.983  11.268  0.7352 -0.0010  0.5864
 4836SOL    HW226142   1.897   3.906  11.350  1.9116 -1.5509  2.9641
 4837SOL     OW26143   2.349   3.854  11.725  0.0433  0.3798 -0.3512
 4837SOL    HW126144   2.373   3.942  11.697  0.3829 -0.3312 -2.3341
 4837SOL    HW226145   2.322   3.875  11.814 -0.7616 -2.5753  0.0988
 4838SOL     OW26146   3.791   3.032   1.451 -0.3267 -0.0546 -0.1133
 4838SOL    HW126147   3.719   2.994   1.401  0.5834 -1.8525 -0.0397
 4838SOL    HW226148   3.732   3.088   1.503 -1.2527 -1.8682  0.8032
 4839SOL     OW26149   2.764   4.210   6.337  0.2612 -0.0396  0.4095
 4839SOL    HW126150   2.760   4.219   6.432 -0.6383 -0.6553  0.4254
 4839SOL    HW226151   2.755   4.116   6.330  0.3599  0.0094 -0.3302
 4840SOL     OW26152   1.414   3.889   5.811 -0.3368 -0.0462 -0.6038
 4840SOL    HW126153   1.351   3.954   5.844 -0.9009 -0.9951  0.1841
 4840SOL    HW226154   1.400   3.822   5.879  1.4203 -1.4262 -1.6059
 4841SOL     OW26155   0.477   3.546  14.967 -0.1413  0.0404  0.4071
 4841SOL    HW126156   0.512   3.513  14.884  0.4460 -3.1865  1.9437
 4841SOL    HW226157   0.501   3.475  15.027 -1.2474  1.3776  2.4132
 4842SOL     OW26158   2.718   0.047   1.703  0.2694 -0.1733  0.5519
 4842SOL    HW126159   2.680   0.093   1.777  1.4920  1.6708  0.0275
 4842SOL    HW226160   2.743   4.704   1.744  2.0416 -0.9273 -1.9809
 4843SOL     OW26161   0.083   0.614   7.832 -0.3461 -0.4121  0.3235
 4843SOL    HW126162   0.062   0.679   7.898 -2.2797  0.9974 -1.7217
 4843SOL    HW226163   4.738   0.608   7.788  0.0964  2.0247 -0.8584
 4844SOL     OW26164   4.227   3.073   8.385  0.2268  0.5232 -0.1841
 4844SOL    HW126165   4.264   3.126   8.455  2.1190 -0.0643 -0.7190
 4844SOL    HW226166   4.294   3.083   8.317 -0.2375 -0.2562 -0.7685
 4845SOL     OW26167   1.368   0.959   3.004 -0.2450  0.1938  0.2828
 4845SOL    HW126168   1.399   1.022   2.939 -1.0007 -0.0027 -0.2656
 4845SOL    HW226169   1.428   0.986   3.073  0.7938 -1.1369 -0.0998
 4846SOL     OW26170   0.949   3.781  13.159 -0.3301  0.0888  0.4059
 4846SOL    HW126171   0.892   3.790  13.236  0.2436 -0.3131  0.8762
 4846SOL    HW226172   1.035   3.805  13.191 -0.0708 -1.8795  1.2246
 4847SOL     OW26173   4.436   3.023  16.860 -0.0746  0.4436 -0.4756
 4847SOL    HW126174   4.486   3.105  16.852  0.7125 -0.1181 -1.3121
 4847SOL    HW226175   4.510   2.965  16.844 -0.1038  0.3273 -0.1740
 4848SOL     OW26176   3.066   2.394   0.617 -0.5320 -0.4970 -0.2183
 4848SOL    HW126177   3.101   2.373   0.531 -0.1182  1.2785 -0.4799
 4848SOL    HW226178   2.976   2.397   0.585  0.2342  1.0619 -2.2509
 4849SOL     OW26179   3.051   2.025  14.080  0.1181 -0.0225 -0.0329
 4849SOL    HW126180   3.058   1.935  14.113  1.3786  0.1254  0.0920
 4849SOL    HW226181   3.137   2.037  14.041  0.4644 -1.4473  0.2998
 4850SOL     OW26182   4.390   1.729  17.317  0.0915 -0.1831  0.3530
 4850SOL    HW126183   4.421   1.712  17.406  0.1117 -1.8166  0.0308
 4850SOL    HW226184   4.295   1.724  17.325  0.0406  0.1404 -0.0842
 4851SOL     OW26185   1.810   2.110  16.511  0.3796 -0.1792  0.2247
 4851SOL    HW126186   1.869   2.052  16.463 -1.1559 -1.1011 -0.5479
 4851SOL    HW226187   1.854   2.122  16.595 -1.0188  0.9712  0.7929
 4852SOL     OW26188   1.386   1.090  10.402  0.6173 -0.6282 -0.1926
 4852SOL    HW126189   1.312   1.031  10.390  0.2448 -0.4893  1.4435
 4852SOL    HW226190   1.416   1.093  10.312  0.2021 -0.7343 -0.3348
 4853SOL     OW26191   0.804   2.207   9.398 -0.1075  0.7632 -0.0574
 4853SOL    HW126192   0.873   2.150   9.366 -2.5971 -0.6580 -2.8931
 4853SOL    HW226193   0.795   2.274   9.330  1.1959  0.8000 -0.1854
 4854SOL     OW26194   3.679   1.503   5.936 -0.6261 -0.2084 -0.2305
 4854SOL    HW126195   3.630   1.581   5.909  0.1324  0.2553 -0.2903
 4854SOL    HW226196   3.762   1.532   5.897  0.2761  0.6470  2.3313
 4855SOL     OW26197   2.353   1.606   1.987  0.4396  0.4278 -0.2220
 4855SOL    HW126198   2.314   1.525   1.956  2.1633 -0.5742  0.1916
 4855SOL    HW226199   2.363   1.588   2.080 -0.3633  0.3932 -0.1437
 4856SOL     OW26200   0.130   0.284   6.308  0.4108 -0.6823  0.9987
 4856SOL    HW126201   0.048   0.255   6.347  0.3280  0.9930  2.0763
 4856SOL    HW226202   0.108   0.366   6.265  1.2508 -0.9356  0.0900
 4857SOL     OW26203   1.584   1.624   1.990  0.1535 -0.0499 -0.1795
 4857SOL    HW126204   1.619   1.602   2.076  1.0046  0.5790 -0.3685
 4857SOL    HW226205   1.550   1.536   1.971  0.7138 -0.6124  1.4609
 4858SOL     OW26206   0.707   1.102  14.716 -0.5245  0.0299 -0.4951
 4858SOL    HW126207   0.724   1.113  14.810 -1.4856 -1.8974 -0.0802
 4858SOL    HW226208   0.640   1.035  14.730  0.6457 -1.7107 -3.1505
 4859SOL     OW26209   2.787   0.042  16.889  0.3780  0.0802 -0.5512
 4859SOL    HW126210   2.789   0.058  16.794 -1.6128 -0.1976 -0.6523
 4859SOL    HW226211   2.697   0.016  16.908  0.0853  0.7932 -0.9802
 4860SOL     OW26212   2.865   1.969   6.492 -0.1973 -0.0888  0.7324
 4860SOL    HW126213   2.930   2.014   6.546  0.2495 -0.7305  0.7334
 4860SOL    HW226214   2.780   1.994   6.529 -1.2574  1.6831 -2.9008
 4861SOL     OW26215   0.783   3.962   3.029  0.9659 -0.6751 -0.4281
 4861SOL    HW126216   0.824   4.029   2.976 -0.3940  0.4352 -0.0800
 4861SOL    HW226217   0.860   3.939   3.080 -1.1930  1.1941  3.7070
 4862SOL     OW26218   3.275   2.888   1.270 -0.0950  0.0496  0.2189
 4862SOL    HW126219   3.331   2.837   1.212  1.0909  1.4853  0.0877
 4862SOL    HW226220   3.207   2.914   1.208 -2.0097 -1.7173  1.5870
 4863SOL     OW26221   3.254   0.881   1.994  0.1642  0.6183 -0.2642
 4863SOL    HW126222   3.235   0.970   1.964  1.4939  0.6362 -1.0344
 4863SOL    HW226223   3.284   0.846   1.911  0.3047 -1.5093  0.6691
 4864SOL     OW26224   4.438   1.772   4.216 -0.3994 -0.1130 -0.5263
 4864SOL    HW126225   4.445   1.720   4.136 -1.3931  1.0660 -1.3814
 4864SOL    HW226226   4.351   1.813   4.215 -0.1534  0.4037 -0.1100
 4865SOL     OW26227   1.855   4.456  16.572  0.0755  0.5060 -0.7333
 4865SOL    HW126228   1.820   4.460  16.661 -1.1420  0.6614 -1.2222
 4865SOL    HW226229   1.948   4.478  16.569 -0.2583  1.7707 -1.4079
 4866SOL     OW26230   2.060   2.152   3.699 -0.4835 -0.2571  0.7039
 4866SOL    HW126231   2.032   2.076   3.647 -0.6816  1.3315 -1.5303
 4866SOL    HW226232   2.153   2.163   3.678 -0.2575  0.6327  2.2232
 4867SOL     OW26233   4.238   2.226   7.841  0.4259 -0.3652 -0.4966
 4867SOL    HW126234   4.252   2.262   7.754  0.7062  1.0252  0.1227
 4867SOL    HW226235   4.328   2.199   7.854 -0.4237 -2.3208  1.1971
 4868SOL     OW26236   4.663   3.646  14.170  0.2407 -0.4955  0.3521
 4868SOL    HW126237   4.607   3.573  14.198 -0.8400  0.0568 -0.3636
 4868SOL    HW226238   4.589   3.703  14.148  0.2068 -1.2676 -1.5505
 4869SOL     OW26239   2.098   2.079   5.294  0.2726 -0.4025 -0.2889
 4869SOL    HW126240   2.103   2.153   5.233 -2.4352 -0.8197 -1.0352
 4869SOL    HW226241   2.005   2.090   5.317  0.8704  1.6296  1.1980
 4870SOL     OW26242   2.908   4.036   2.215  0.2264  0.3049  0.1417
 4870SOL    HW126243   2.941   4.043   2.305 -0.2456 -1.5874  0.4687
 4870SOL    HW226244   2.931   3.947   2.187 -0.5665  0.4711 -1.0326
 4871SOL     OW26245   1.951   3.993   4.475  0.4043  0.0886  0.4127
 4871SOL    HW126246   1.944   3.979   4.380  1.7465  2.3447 -0.0147
 4871SOL    HW226247   2.038   4.033   4.472 -0.0928  1.2183  1.1420
 4872SOL     OW26248   0.097   2.012   4.899 -0.5697 -0.3247  0.5888
 4872SOL    HW126249   0.147   2.067   4.839  2.0470 -2.6336  0.6269
 4872SOL    HW226250   0.161   1.985   4.966 -0.5822 -1.6152  0.0878
 4873SOL     OW26251   0.678   1.521   2.369 -0.1168 -0.4196  0.1725
 4873SOL    HW126252   0.754   1.519   2.427 -0.6713 -0.2170  0.9096
 4873SOL    HW226253   0.701   1.468   2.293 -2.1490 -1.0099 -0.0248
 4874SOL     OW26254   2.332   2.535  10.255 -0.1481 -0.4588 -1.1173
 4874SOL    HW126255   2.425   2.550  10.273  0.1554 -2.6360 -0.9224
 4874SOL    HW226256   2.304   2.589  10.329  0.0947 -0.0218 -1.3420
 4875SOL     OW26257   2.121   2.802  12.051 -0.2501  0.2285  0.3877
 4875SOL    HW126258   2.065   2.832  11.980  1.7020  1.4724 -0.6307
 4875SOL    HW226259   2.192   2.866  12.044  0.1747 -0.2256  0.5368
 4876SOL     OW26260   4.476   1.191  14.918 -0.4564  0.0185 -0.4921
 4876SOL    HW126261   4.519   1.117  14.876 -1.4177  1.3771 -3.8538
 4876SOL    HW226262   4.430   1.146  14.989  0.4994  1.8913  1.3279
 4877SOL     OW26263   3.097   4.541  11.833  0.4629  0.2026 -0.1440
 4877SOL    HW126264   3.009   4.546  11.872 -0.1350 -1.9183 -1.2534
 4877SOL    HW226265   3.136   4.602  11.895 -0.2357  0.7869 -0.2764
 4878SOL     OW26266   0.778   1.323  15.800  0.4295  0.4461  0.2633
 4878SOL    HW126267   0.715   1.316  15.728  1.0701 -0.5511 -0.1999
 4878SOL    HW226268   0.839   1.387  15.764 -0.9847  0.1471 -2.6788
 4879SOL     OW26269   0.387   0.422   9.572  0.4209 -0.4000 -0.4415
 4879SOL    HW126270   0.426   0.506   9.597 -1.3277  0.2385  0.0894
 4879SOL    HW226271   0.351   0.393   9.656  0.8344 -1.9182 -0.7721
 4880SOL     OW26272   1.867   2.656  12.385  0.2633  0.1589 -0.3069
 4880SOL    HW126273   1.861   2.731  12.325  1.2657  0.1952 -0.3625
 4880SOL    HW226274   1.807   2.687  12.453  0.9784 -0.9371  0.8144
 4881SOL     OW26275   2.705   1.040   5.294  0.6853  0.0838  0.2916
 4881SOL    HW126276   2.632   1.092   5.328  1.6808  2.4659 -1.2903
 4881SOL    HW226277   2.705   0.963   5.351  1.0772 -0.7149 -0.7833
 4882SOL     OW26278   4.674   1.103   2.099  0.0604 -0.2185 -0.1922
 4882SOL    HW126279   4.726   1.061   2.031 -2.6636 -0.4960 -2.0669
 4882SOL    HW226280   4.604   1.147   2.052  1.0243 -1.3582 -2.7027
 4883SOL     OW26281   2.515   0.180   4.652 -0.2516 -0.3643 -0.1749
 4883SOL    HW126282   2.582   0.144   4.595  1.1441 -0.1059  1.3269
 4883SOL    HW226283   2.446   0.114   4.643  0.8819 -1.3842 -1.4587
 4884SOL     OW26284   0.563   3.305   5.482  0.8335 -0.3961 -0.6660
 4884SOL    HW126285   0.576   3.282   5.390  1.4160  0.7337 -0.8742
 4884SOL    HW226286   0.490   3.245   5.498 -0.1303  0.9937  0.1454
 4885SOL     OW26287   3.590   0.493   3.312 -0.1849 -0.4897  0.3343
 4885SOL    HW126288   3.662   0.529   3.362 -1.8134 -0.0997  2.3985
 4885SOL    HW226289   3.599   0.400   3.334 -0.7787 -0.5518  0.3256
 4886SOL     OW26290   2.840   1.457   3.033 -0.0296 -0.5361  0.0569
 4886SOL    HW126291   2.801   1.465   2.946  2.3647  1.8012 -0.8250
 4886SOL    HW226292   2.763   1.454   3.090  0.2857  0.1197  0.5228
 4887SOL     OW26293   4.132   1.981   5.833 -0.0858  0.3616  0.2488
 4887SOL    HW126294   4.188   1.904   5.842 -1.6824 -0.9044 -0.4110
 4887SOL    HW226295   4.090   2.001   5.916 -1.2528  0.1732 -0.2846
 4888SOL     OW26296   2.478   0.266   7.937  0.2000 -0.3325  0.1218
 4888SOL    HW126297   2.453   0.246   7.846 -0.2323  2.5646 -0.4100
 4888SOL    HW226298   2.460   0.359   7.948  0.0009 -0.6807  2.7324
 4889SOL     OW26299   0.394   1.172  15.894  0.0459 -0.9617  0.1471
 4889SOL    HW126300   0.402   1.226  15.972 -2.3422  0.6626 -0.7369
 4889SOL    HW226301   0.308   1.206  15.869 -0.2636 -3.0255 -1.5633
 4890SOL     OW26302   0.492   1.713   6.242 -0.1826  0.1149 -0.5953
 4890SOL    HW126303   0.568   1.729   6.298 -0.3875  0.9914 -0.5676
 4890SOL    HW226304   0.419   1.710   6.305 -0.5111 -0.4233 -1.0063
 4891SOL     OW26305   0.315   2.662   0.467 -0.0187 -0.6915 -0.1401
 4891SOL    HW126306   0.276   2.611   0.538  2.0244 -0.8273  0.8792
 4891SOL    HW226307   0.268   2.644   0.386 -0.4868  1.8937 -0.4261
 4892SOL     OW26308   1.281   0.194   1.517 -0.2104 -0.0845  0.4882
 4892SOL    HW126309   1.224   0.236   1.452 -0.1977 -0.4863  0.2241
 4892SOL    HW226310   1.365   0.217   1.479 -0.9479  0.2967 -0.9156
 4893SOL     OW26311   0.235   3.574   4.889 -0.2444  0.1970 -0.2081
 4893SOL    HW126312   0.209   3.657   4.929 -0.5165  0.1063 -0.1924
 4893SOL    HW226313   0.149   3.546   4.856 -0.2096 -2.8064  2.3148
 4894SOL     OW26314   4.562   2.453   7.157 -0.1273 -0.2925 -0.0675
 4894SOL    HW126315   4.571   2.548   7.147 -1.9525 -0.0924  0.2940
 4894SOL    HW226316   4.480   2.452   7.205  0.6507 -0.0128  1.2625
 4895SOL     OW26317   4.000   2.782   1.387  0.0020 -0.5072  0.5768
 4895SOL    HW126318   3.975   2.691   1.371  2.6534 -0.8727 -1.5570
 4895SOL    HW226319   3.934   2.820   1.328 -1.1127  0.8944  2.7564
 4896SOL     OW26320   3.116   0.453  16.299  0.6108 -0.5293  0.4117
 4896SOL    HW126321   3.099   0.499  16.381  0.5250 -1.4001  0.8857
 4896SOL    HW226322   3.027   0.442  16.265  0.0752  1.1205  1.2982
 4897SOL     OW26323   2.783   3.088   7.299  0.6242  0.4033 -0.2927
 4897SOL    HW126324   2.818   3.090   7.388  0.5952  1.1121 -0.2954
 4897SOL    HW226325   2.811   3.175   7.269 -2.1188  0.9239 -1.4146
 4898SOL     OW26326   1.085   3.923  10.481 -0.0349 -0.1086  0.5310
 4898SOL    HW126327   1.160   3.983  10.482 -1.5333  1.7299  3.3804
 4898SOL    HW226328   1.118   3.876  10.558 -1.6444 -0.0766  1.2439
 4899SOL     OW26329   4.062   0.752  14.615 -0.3689 -0.0732 -0.2333
 4899SOL    HW126330   4.133   0.786  14.561 -1.0373  1.0030 -0.4152
 4899SOL    HW226331   3.981   0.787  14.580 -1.2377  0.4066  2.2788
 4900SOL     OW26332   3.027   2.433  13.605  0.8869 -0.1700 -0.4180
 4900SOL    HW126333   3.112   2.435  13.648  0.8641 -0.9000 -0.3339
 4900SOL    HW226334   3.022   2.341  13.577  2.4736 -0.4500  0.2595
 4901SOL     OW26335   3.163   0.370   8.089  0.5442 -0.1233 -0.0298
 4901SOL    HW126336   3.125   0.282   8.097  0.2423  0.2051  2.4057
 4901SOL    HW226337   3.185   0.372   7.996 -3.4124 -1.0996 -1.0158
 4902SOL     OW26338   1.812   2.355   8.554 -0.1421  0.1356 -0.3606
 4902SOL    HW126339   1.842   2.446   8.555 -0.6674  0.2913  1.7925
 4902SOL    HW226340   1.730   2.357   8.506  0.2100 -0.6630 -1.0006
 4903SOL     OW26341   4.023   0.890   4.778  0.1462  0.2458  0.4819
 4903SOL    HW126342   3.935   0.892   4.741  1.0496  0.1359 -1.7054
 4903SOL    HW226343   4.065   0.840   4.707 -1.8561  0.1354 -0.6100
 4904SOL     OW26344   2.815   3.939   6.131  0.1584 -0.2798  0.1519
 4904SOL    HW126345   2.911   3.934   6.126  0.3673  2.9721  1.3407
 4904SOL    HW226346   2.791   3.854   6.167 -0.7878 -0.0625  0.0386
 4905SOL     OW26347   0.179   1.104   9.396 -0.1607 -0.1980 -0.1431
 4905SOL    HW126348   0.234   1.032   9.429  0.3019  0.9366  1.5405
 4905SOL    HW226349   0.116   1.121   9.466 -0.8891  1.2182 -1.1565
 4906SOL     OW26350   1.938   1.471   5.209  0.0328  0.4133  0.1015
 4906SOL    HW126351   1.844   1.455   5.200  0.2034  0.2544 -1.4190
 4906SOL    HW226352   1.946   1.478   5.304  2.6579  2.0655 -0.2446
 4907SOL     OW26353   1.659   1.483   8.711 -0.1462  0.3588 -0.3670
 4907SOL    HW126354   1.716   1.535   8.767 -1.6555  1.6864 -0.0665
 4907SOL    HW226355   1.648   1.400   8.758  0.8394  0.5820  0.2633
 4908SOL     OW26356   2.714   1.732   7.412 -0.4426  0.4204 -0.1267
 4908SOL    HW126357   2.798   1.716   7.455 -0.9440  0.1727  0.7431
 4908SOL    HW226358   2.733   1.694   7.326 -3.8351 -0.1461 -0.6338
 4909SOL     OW26359   4.402   3.031   1.874 -0.2403  0.1851 -0.1831
 4909SOL    HW126360   4.497   3.040   1.875 -0.3032  0.7151  0.6781
 4909SOL    HW226361   4.396   2.947   1.920  0.4363  0.9455  1.2665
 4910SOL     OW26362   1.341   0.738   0.460  0.2837 -0.5987  0.3673
 4910SOL    HW126363   1.433   0.735   0.486  0.4831 -0.8121 -0.3750
 4910SOL    HW226364   1.320   0.670   0.524  2.8758  0.6853  2.5750
 4911SOL     OW26365   4.103   3.722   8.334 -0.1606 -0.1609 -0.1232
 4911SOL    HW126366   4.066   3.676   8.259 -1.0364  0.9277 -0.3477
 4911SOL    HW226367   4.073   3.674   8.412  0.5745 -0.4971 -0.0467
 4912SOL     OW26368   4.181   1.088   9.242 -0.5839  0.8101  0.1580
 4912SOL    HW126369   4.103   1.056   9.198  0.4240 -0.6992 -0.5343
 4912SOL    HW226370   4.243   1.061   9.174  0.7765 -0.4672  1.8891
 4913SOL     OW26371   1.969   2.799  17.125  0.0177  0.2830 -0.4120
 4913SOL    HW126372   1.922   2.826  17.046  0.2256  4.5431  0.8908
 4913SOL    HW226373   2.001   2.883  17.158 -1.4540  1.5438 -2.1832
 4914SOL     OW26374   4.601   2.779  16.567  0.0530 -0.3068  0.1761
 4914SOL    HW126375   4.567   2.748  16.651  0.8198 -0.0092  0.5952
 4914SOL    HW226376   4.530   2.754  16.508 -0.3686 -0.0726  0.5806
 4915SOL     OW26377   3.229   0.413   2.390 -0.4218 -0.4026  0.7651
 4915SOL    HW126378   3.237   0.384   2.481 -0.5907 -2.5706  0.0874
 4915SOL    HW226379   3.284   0.351   2.341  1.1129  0.7738  1.0180
 4916SOL     OW26380   4.011   1.948  17.209  0.0423 -0.5731 -0.3268
 4916SOL    HW126381   3.942   1.912  17.153 -0.1318  0.0229 -0.4876
 4916SOL    HW226382   4.070   1.872  17.215  0.0294 -0.4340  1.6136
 4917SOL     OW26383   3.294   4.693   0.279 -0.1951 -0.2648 -0.1267
 4917SOL    HW126384   3.285   4.683   0.184  0.4849  0.6235 -0.2867
 4917SOL    HW226385   3.309   0.047   0.282 -2.8062  0.1996 -0.9377
 4918SOL     OW26386   2.191   0.456   2.078  0.0883 -0.8513 -0.0213
 4918SOL    HW126387   2.142   0.452   1.996  0.0090 -2.4328  0.0972
 4918SOL    HW226388   2.247   0.382   2.057  0.8979 -0.8329  2.0330
 4919SOL     OW26389   4.204   1.149  14.333 -0.3313  0.1092 -0.0460
 4919SOL    HW126390   4.128   1.181  14.381 -1.0732 -0.5753 -0.7673
 4919SOL    HW226391   4.162   1.154  14.247 -1.5850 -1.5341  0.4699
 4920SOL     OW26392   1.100   3.451   3.726 -0.1194  0.2531 -0.5243
 4920SOL    HW126393   1.017   3.425   3.765  0.3819 -0.2439  0.2072
 4920SOL    HW226394   1.167   3.389   3.757  0.1755 -0.2330 -2.1069
 4921SOL     OW26395   3.874   3.499   1.578  0.0939  0.1477 -0.4434
 4921SOL    HW126396   3.837   3.428   1.526 -1.0925 -0.1390  0.8087
 4921SOL    HW226397   3.821   3.486   1.656 -1.5736  3.2045 -1.0492
 4922SOL     OW26398   4.519   2.232   7.921 -0.5963  0.4546  0.1458
 4922SOL    HW126399   4.596   2.180   7.943 -1.7846 -1.3941 -0.0901
 4922SOL    HW226400   4.486   2.251   8.009  0.2453  1.5675  0.2240
 4923SOL     OW26401   4.693   3.209   4.784  0.1067 -0.3749 -0.2055
 4923SOL    HW126402   0.005   3.168   4.715 -0.6111 -1.0968 -0.3214
 4923SOL    HW226403   4.607   3.209   4.742  0.3179 -0.8205 -0.6376
 4924SOL     OW26404   2.488   1.176   6.567 -0.0065 -0.2355  0.0104
 4924SOL    HW126405   2.552   1.117   6.527  0.5990 -0.0752  0.7421
 4924SOL    HW226406   2.507   1.155   6.659  0.4842  2.1332  0.4348
 4925SOL     OW26407   0.484   0.721   3.562 -0.1319  0.2944  0.1205
 4925SOL    HW126408   0.453   0.651   3.504 -1.7886  1.3477 -0.2584
 4925SOL    HW226409   0.443   0.695   3.644 -3.8065 -1.1306 -2.1616
 4926SOL     OW26410   2.362   0.734   8.984  0.8411 -0.0065 -0.0730
 4926SOL    HW126411   2.457   0.723   8.988  1.0708  1.8663 -0.6322
 4926SOL    HW226412   2.347   0.781   8.902 -1.6826  1.0667  1.0229
 4927SOL     OW26413   3.728   2.900   7.344 -0.3606 -0.1123  0.0393
 4927SOL    HW126414   3.739   2.995   7.355 -1.3145  0.0304 -0.2203
 4927SOL    HW226415   3.650   2.893   7.289 -1.3602  1.0423  1.3063
 4928SOL     OW26416   4.497   4.532   4.277  0.1375  0.2178 -0.5288
 4928SOL    HW126417   4.505   4.628   4.276 -2.3344  0.4305 -0.4226
 4928SOL    HW226418   4.588   4.508   4.263 -0.2402 -1.1894 -0.5413
 4929SOL     OW26419   1.041   3.697   3.422  0.0961  0.2015 -0.0071
 4929SOL    HW126420   0.949   3.724   3.413  0.5761  1.9575  0.3936
 4929SOL    HW226421   1.048   3.696   3.517 -1.3427 -2.3954  0.0608
 4930SOL     OW26422   0.902   1.492   2.509 -0.4057  0.0086  0.1884
 4930SOL    HW126423   0.871   1.403   2.524  0.3910 -0.4363 -0.7757
 4930SOL    HW226424   0.956   1.499   2.588  1.2411 -1.9845 -0.7464
 4931SOL     OW26425   1.256   3.740   1.991 -0.2165  0.2036 -0.5411
 4931SOL    HW126426   1.337   3.719   1.945  0.5568  0.0553  0.8918
 4931SOL    HW226427   1.267   3.832   2.013  0.6770  0.5044 -2.2589
 4932SOL     OW26428   4.686   2.665   3.689 -0.0786 -0.1997 -0.0988
 4932SOL    HW126429   0.031   2.628   3.665  0.8295  2.1586 -0.5463
 4932SOL    HW226430   4.651   2.672   3.600  0.5631  2.1863 -0.1714
 4933SOL     OW26431   1.608   3.269   2.531 -0.0747  0.8314  0.3575
 4933SOL    HW126432   1.675   3.216   2.487 -2.6865 -1.6472 -0.5885
 4933SOL    HW226433   1.599   3.347   2.477  0.0565  1.0283  0.6159
 4934SOL     OW26434   0.628   4.260  17.030  0.3275 -0.0342 -0.1293
 4934SOL    HW126435   0.666   4.188  17.081 -1.1306 -0.7145 -0.0003
 4934SOL    HW226436   0.702   4.290  16.978 -0.6079  4.9876  1.4548
 4935SOL     OW26437   3.999   0.157   4.501 -0.5133 -0.3196 -0.2626
 4935SOL    HW126438   4.073   0.117   4.456 -1.3222 -0.5914 -1.3515
 4935SOL    HW226439   3.977   0.099   4.574  1.1134 -0.5516  0.0435
 4936SOL     OW26440   2.437   4.217   9.578 -0.1694 -0.5917  0.0563
 4936SOL    HW126441   2.530   4.240   9.566 -0.2518 -0.9742 -1.2577
 4936SOL    HW226442   2.390   4.281   9.633  0.9255  0.4957 -0.2590
 4937SOL     OW26443   4.114   4.513   8.224 -0.3118 -0.7098  0.6265
 4937SOL    HW126444   4.097   4.449   8.293 -2.2487 -0.3855  0.4581
 4937SOL    HW226445   4.034   4.506   8.172  0.7258  0.2349 -1.1013
 4938SOL     OW26446   0.481   0.478   4.824 -0.0258 -0.1195 -0.2716
 4938SOL    HW126447   0.431   0.560   4.825 -0.1381 -0.1218 -3.6094
 4938SOL    HW226448   0.493   0.460   4.917  0.2504 -1.3762 -0.5550
 4939SOL     OW26449   3.523   0.414   3.006 -0.7010  0.2249  0.0073
 4939SOL    HW126450   3.441   0.365   2.991 -1.7198  1.7336  0.6539
 4939SOL    HW226451   3.491   0.485   3.061 -0.6461  0.8936 -0.8316
 4940SOL     OW26452   3.170   3.359   6.990 -0.2916 -0.2047 -0.0214
 4940SOL    HW126453   3.164   3.301   7.067  0.9156 -2.1852 -1.4173
 4940SOL    HW226454   3.184   3.292   6.923 -0.8495 -2.0857  1.6969
 4941SOL     OW26455   2.440   2.709   9.527 -0.4163  0.9011 -0.4974
 4941SOL    HW126456   2.429   2.792   9.573  1.3412  0.8642 -0.0174
 4941SOL    HW226457   2.385   2.656   9.586 -1.9519  3.9421  0.7979
 4942SOL     OW26458   3.694   3.583  14.262  0.2383 -0.7341 -0.1601
 4942SOL    HW126459   3.733   3.641  14.328 -2.5495  0.6562  0.2759
 4942SOL    HW226460   3.727   3.505  14.306 -1.1756 -1.9624 -1.2933
 4943SOL     OW26461   3.138   4.482   7.329 -0.6561 -0.1602 -0.2237
 4943SOL    HW126462   3.141   4.427   7.250 -2.2105 -0.6023  0.0200
 4943SOL    HW226463   3.164   4.564   7.286 -0.0015 -0.2651 -0.0184
 4944SOL     OW26464   2.080   4.083   5.105  0.1971 -0.2961 -0.2762
 4944SOL    HW126465   2.110   4.085   5.014 -1.3804  0.4372 -0.7898
 4944SOL    HW226466   2.156   4.035   5.139  0.3759 -1.4030 -2.2453
 4945SOL     OW26467   2.080   4.616  13.704 -0.0731  0.4409 -0.5191
 4945SOL    HW126468   2.173   4.611  13.722 -0.1652  0.7917  0.0596
 4945SOL    HW226469   2.080   4.711  13.697 -1.1656  0.4550 -0.3168
 4946SOL     OW26470   0.168   1.931   6.315 -0.0003 -0.4004 -0.1773
 4946SOL    HW126471   0.179   1.915   6.221 -1.5485  0.6148 -0.5521
 4946SOL    HW226472   0.255   1.959   6.341 -0.4063  0.2868  0.4579
 4947SOL     OW26473   2.875   3.345   7.269 -0.0557 -0.2025  0.1327
 4947SOL    HW126474   2.941   3.372   7.333  0.3321  1.2781 -0.9043
 4947SOL    HW226475   2.856   3.417   7.210  0.3237  1.3277  1.8688
 4948SOL     OW26476   2.240   1.664   8.574  0.4824 -0.3509 -0.4905
 4948SOL    HW126477   2.193   1.655   8.491  0.1407 -0.2100 -0.3123
 4948SOL    HW226478   2.221   1.751   8.608 -0.1615 -1.1435  1.1383
 4949SOL     OW26479   3.968   2.568   7.960 -0.7410 -0.0464 -0.2346
 4949SOL    HW126480   3.949   2.593   7.870 -2.2022  0.2213  0.1464
 4949SOL    HW226481   3.978   2.654   8.001 -2.6316  0.6002 -1.1261
 4950SOL     OW26482   2.842   0.448   8.165 -0.2184 -0.0901  0.2451
 4950SOL    HW126483   2.827   0.486   8.252  0.8983  4.2878 -1.4666
 4950SOL    HW226484   2.840   0.353   8.174 -1.6789 -0.0898 -0.0154
 4951SOL     OW26485   0.984   2.499   2.070 -0.0708 -0.2261  0.1805
 4951SOL    HW126486   1.047   2.431   2.048 -0.2320  0.7371 -3.1892
 4951SOL    HW226487   0.920   2.437   2.104 -0.1589  0.0051  0.4437
 4952SOL     OW26488   2.139   2.327   4.994 -0.0941 -0.2886 -0.2064
 4952SOL    HW126489   2.214   2.275   5.023  0.7898  0.7986 -0.5491
 4952SOL    HW226490   2.067   2.308   5.055  0.4299 -0.8750  0.2320
 4953SOL     OW26491   2.256   3.469   1.982 -0.1919 -0.0647  0.1883
 4953SOL    HW126492   2.333   3.509   2.023  0.0168 -1.1237  0.8553
 4953SOL    HW226493   2.243   3.392   2.038 -0.8379 -0.8359 -1.0307
 4954SOL     OW26494   0.659   3.619   3.664  0.0887  0.2021 -0.2792
 4954SOL    HW126495   0.716   3.691   3.639  0.1705  0.1964 -0.1055
 4954SOL    HW226496   0.592   3.658   3.721 -0.1063  0.7293 -0.8572
 4955SOL     OW26497   3.676   1.583  16.742 -0.0414  0.0182 -0.6878
 4955SOL    HW126498   3.710   1.620  16.823 -0.7705 -1.2097  0.1829
 4955SOL    HW226499   3.673   1.494  16.777  2.7056  1.2030  2.5440
 4956SOL     OW26500   2.925   2.778   8.070 -0.7517 -0.2065  0.1190
 4956SOL    HW126501   3.020   2.786   8.064 -0.7227  0.2998  1.4453
 4956SOL    HW226502   2.916   2.684   8.053  0.2780 -0.0729 -1.1473
 4957SOL     OW26503   3.771   4.140  11.289  0.4140 -0.5336 -0.6521
 4957SOL    HW126504   3.858   4.143  11.327  0.7646 -1.2432 -1.3995
 4957SOL    HW226505   3.753   4.231  11.266 -1.2392 -0.1453  2.1776
 4958SOL     OW26506   0.760   2.398   5.029  0.2318 -0.5070 -0.1613
 4958SOL    HW126507   0.834   2.414   4.970  0.7612  2.8209  1.4227
 4958SOL    HW226508   0.798   2.355   5.105 -0.6358 -2.0580 -0.6181
 4959SOL     OW26509   4.071   0.729   7.853 -0.1850  0.0358  0.7513
 4959SOL    HW126510   4.136   0.790   7.888  0.7720 -1.0322  0.8379
 4959SOL    HW226511   4.096   0.709   7.762  0.2665 -0.7945  1.0564
 4960SOL     OW26512   2.123   4.284   8.931  0.2965  0.1566 -0.3265
 4960SOL    HW126513   2.181   4.239   8.870 -2.1699  1.5686 -3.6825
 4960SOL    HW226514   2.132   4.375   8.904 -0.6716  0.5066  0.5326
 4961SOL     OW26515   2.552   0.402   1.693  0.0764 -0.2519  0.3827
 4961SOL    HW126516   2.628   0.410   1.635  0.5317  0.0664  1.0248
 4961SOL    HW226517   2.499   0.334   1.652  1.6566 -1.0769 -0.2987
 4962SOL     OW26518   2.415   3.167   5.182 -0.1625  0.4878 -0.5929
 4962SOL    HW126519   2.507   3.187   5.196 -0.6319  0.8501  1.9329
 4962SOL    HW226520   2.425   3.080   5.144  1.8437  0.1321  0.8056
 4963SOL     OW26521   0.967   3.760   6.809 -0.3084  0.3817  0.1927
 4963SOL    HW126522   0.956   3.723   6.897 -1.4225  2.4076  0.8887
 4963SOL    HW226523   1.047   3.809   6.827  0.7347 -1.9708  1.9458
 4964SOL     OW26524   0.436   4.675   3.930  0.4847 -0.4842 -0.4194
 4964SOL    HW126525   0.383   4.597   3.915 -1.8136  1.0429 -0.3455
 4964SOL    HW226526   0.496   4.636   3.993  0.1761 -0.8559 -0.3538
 4965SOL     OW26527   3.453   0.149   5.728  0.2708 -0.9209 -0.0747
 4965SOL    HW126528   3.412   0.231   5.700  0.5360 -0.4258  0.9857
 4965SOL    HW226529   3.418   0.168   5.816 -0.3163  1.6190 -0.8581
 4966SOL     OW26530   4.313   4.142   3.560 -0.1510  0.0077  0.0694
 4966SOL    HW126531   4.366   4.119   3.635 -0.6146 -0.5732  0.2133
 4966SOL    HW226532   4.383   4.144   3.495 -1.3640  0.1805 -1.2476
 4967SOL     OW26533   1.898   4.138   5.489 -0.1140  0.4591  0.3037
 4967SOL    HW126534   1.929   4.205   5.427 -2.3108  0.6611 -0.5576
 4967SOL    HW226535   1.816   4.174   5.524 -0.3957  2.1145 -2.0570
 4968SOL     OW26536   0.891   1.820   0.008 -0.1418  0.0122 -0.3023
 4968SOL    HW126537   0.824   1.752   0.005 -1.4412  1.1723  1.9382
 4968SOL    HW226538   0.862   1.877   0.080 -1.8702 -1.0216 -0.1789
 4969SOL     OW26539   3.630   3.042   2.358  0.5744  0.1860 -0.0097
 4969SOL    HW126540   3.653   3.134   2.345  2.1216  0.1959  2.9357
 4969SOL    HW226541   3.710   2.999   2.327 -0.2330 -0.1276 -1.6774
 4970SOL     OW26542   3.037   0.887  13.567  0.1628  0.4264  0.7027
 4970SOL    HW126543   3.033   0.861  13.475  0.9928  0.1933  0.7313
 4970SOL    HW226544   3.131   0.909  13.572 -0.0465  1.4588  0.1414
 4971SOL     OW26545   2.772   2.745  10.366  0.2510 -0.7032  0.0313
 4971SOL    HW126546   2.682   2.767  10.390  0.4261 -2.2092  2.0827
 4971SOL    HW226547   2.800   2.697  10.444  1.9665  0.6569  0.2302
 4972SOL     OW26548   1.185   0.767   2.431  0.1729 -0.0489 -0.1847
 4972SOL    HW126549   1.193   0.676   2.459 -0.3163 -0.5597 -1.6815
 4972SOL    HW226550   1.218   0.822   2.502 -0.7567  0.9549 -0.5247
 4973SOL     OW26551   2.593   2.841   0.769  0.2648 -0.0080 -0.3589
 4973SOL    HW126552   2.606   2.892   0.849  0.0058  0.1808 -0.4379
 4973SOL    HW226553   2.566   2.767   0.823  0.3274  0.0435 -0.2566
 4974SOL     OW26554   0.368   4.724   7.945 -0.5554 -0.2151 -0.2430
 4974SOL    HW126555   0.288   0.022   7.981 -0.4596  0.5716 -0.8521
 4974SOL    HW226556   0.347   4.644   7.897  0.0364 -0.9751  0.7788
 4975SOL     OW26557   3.356   2.270   4.330 -0.3034  0.0959  0.4199
 4975SOL    HW126558   3.387   2.358   4.350 -0.9583  0.0502  1.6332
 4975SOL    HW226559   3.266   2.303   4.322 -0.5082 -0.8620 -1.3379
 4976SOL     OW26560   1.831   0.070   9.404 -0.0792  0.6258 -0.2390
 4976SOL    HW126561   1.738   0.071   9.422 -0.5754 -0.4241 -2.6552
 4976SOL    HW226562   1.827   0.023   9.320  0.2129 -0.4787  0.3660
 4977SOL     OW26563   3.247   2.846  15.023  0.2697 -0.5768  0.0165
 4977SOL    HW126564   3.341   2.828  15.011  0.6365  0.5712  1.1265
 4977SOL    HW226565   3.232   2.883  14.937  1.6582 -0.2842 -0.1099
 4978SOL     OW26566   4.164   3.297   2.160  0.1345 -0.0152  0.3152
 4978SOL    HW126567   4.211   3.243   2.224 -1.1216 -0.8706  0.5220
 4978SOL    HW226568   4.228   3.309   2.089 -1.5150  0.9005 -1.0231
 4979SOL     OW26569   0.151   4.140   5.056  0.4661  0.4298  0.3241
 4979SOL    HW126570   0.148   4.097   5.142 -0.1952 -2.9112 -1.3605
 4979SOL    HW226571   0.178   4.076   4.990  3.0055  1.6594  0.1775
 4980SOL     OW26572   1.086   0.383   5.371  0.2226 -0.1164 -0.4665
 4980SOL    HW126573   1.002   0.348   5.341  0.8135 -1.1261 -0.9515
 4980SOL    HW226574   1.085   0.474   5.341 -2.0339  0.7683  2.2791
 4981SOL     OW26575   2.967   3.736   6.366 -0.1936  0.1987  0.2197
 4981SOL    HW126576   2.875   3.720   6.343 -0.5143  3.2196 -0.6763
 4981SOL    HW226577   2.998   3.646   6.373 -0.3371 -0.0424 -2.4493
 4982SOL     OW26578   4.370   1.232  12.222  0.5591  0.4777 -0.8585
 4982SOL    HW126579   4.440   1.254  12.282  0.1022  0.4371 -0.3098
 4982SOL    HW226580   4.312   1.196  12.289  0.5584 -0.5606 -1.4039
 4983SOL     OW26581   4.276   2.960   1.651 -0.1936  0.5206  0.0128
 4983SOL    HW126582   4.323   3.014   1.714  1.1952 -0.2211 -0.3832
 4983SOL    HW226583   4.309   2.876   1.682  2.0342 -0.0401 -3.8265
 4984SOL     OW26584   2.469   2.495   1.821  0.5058  0.0983  0.2761
 4984SOL    HW126585   2.483   2.438   1.745  1.0605 -2.1295  2.0374
 4984SOL    HW226586   2.467   2.582   1.782  2.0658  0.1192  0.2383
 4985SOL     OW26587   4.174   2.831   9.088  0.0220 -0.5398 -0.1416
 4985SOL    HW126588   4.215   2.784   9.161  0.4489  1.3590  0.8504
 4985SOL    HW226589   4.196   2.773   9.015  0.4745  0.1053 -0.5196
 4986SOL     OW26590   2.949   1.509   5.939 -0.2680  0.5586  0.6277
 4986SOL    HW126591   2.904   1.517   5.855 -0.3770 -1.0488  0.5427
 4986SOL    HW226592   3.041   1.499   5.915 -0.5299 -1.2095  0.4289
 4987SOL     OW26593   2.207   1.239   5.909  0.2878 -0.3062  0.1416
 4987SOL    HW126594   2.153   1.160   5.903 -0.6981  0.2131  2.2777
 4987SOL    HW226595   2.142   1.292   5.955 -1.1862 -0.7432 -1.4741
 4988SOL     OW26596   3.794   2.647   3.335  0.2003  0.2545 -0.0565
 4988SOL    HW126597   3.832   2.586   3.271 -1.8752 -0.0610 -1.0137
 4988SOL    HW226598   3.806   2.725   3.281  0.0610 -0.2671 -0.8392
 4989SOL     OW26599   0.859   2.720  14.808 -0.4282  0.2142 -0.0335
 4989SOL    HW126600   0.813   2.694  14.728  2.3674 -1.1008 -1.2277
 4989SOL    HW226601   0.919   2.645  14.817 -0.9525  0.1560  2.8396
 4990SOL     OW26602   1.387   0.969   1.923 -0.3380  0.2130  0.5278
 4990SOL    HW126603   1.335   0.941   1.848 -0.8625  0.5840  0.7543
 4990SOL    HW226604   1.475   0.945   1.892 -1.3983 -0.3447 -1.9955
 4991SOL     OW26605   0.674   1.282   3.576  0.5317  0.2071 -0.3769
 4991SOL    HW126606   0.615   1.355   3.594  0.1607 -1.1441  3.9396
 4991SOL    HW226607   0.659   1.258   3.485 -2.1448 -0.6354  0.2773
 4992SOL     OW26608   2.197   4.602   2.697 -0.0809 -0.5942  0.0134
 4992SOL    HW126609   2.150   4.579   2.777  2.6547 -0.7425  1.5747
 4992SOL    HW226610   2.150   4.545   2.636 -1.2687  0.3978 -0.0145
 4993SOL     OW26611   2.212   1.469  16.546 -0.0014  0.3214  0.2665
 4993SOL    HW126612   2.139   1.407  16.557  1.1873 -1.1282 -0.0138
 4993SOL    HW226613   2.255   1.452  16.630 -0.2031 -0.1624  0.2728
 4994SOL     OW26614   1.026   4.045   7.145 -0.5312 -0.5211  0.3304
 4994SOL    HW126615   1.027   4.043   7.049  0.1652  0.3158  0.3161
 4994SOL    HW226616   1.107   3.998   7.166  0.0158  0.5756  0.6910
 4995SOL     OW26617   3.623   3.122   4.712  0.3726 -0.1566 -0.4301
 4995SOL    HW126618   3.580   3.184   4.653  0.5433  0.4313  0.0660
 4995SOL    HW226619   3.715   3.135   4.691  1.3173 -0.5486  3.4024
 4996SOL     OW26620   2.568   4.516   6.220  0.3345  0.1874 -0.2918
 4996SOL    HW126621   2.604   4.581   6.160 -0.7787  1.7827  0.7755
 4996SOL    HW226622   2.637   4.451   6.207  0.4578  0.1394  0.6190
 4997SOL     OW26623   4.230   0.424   7.921  0.0443 -0.0899 -0.0981
 4997SOL    HW126624   4.280   0.347   7.892 -0.3812 -0.7478  0.9410
 4997SOL    HW226625   4.142   0.391   7.936 -0.3571 -1.6822 -5.8600
 4998SOL     OW26626   1.319   3.538   7.371  0.5820  0.1194 -0.1358
 4998SOL    HW126627   1.414   3.548   7.375  0.9212 -2.6738 -1.6836
 4998SOL    HW226628   1.294   3.592   7.446 -1.6520 -1.0978 -0.0009
 4999SOL     OW26629   1.683   1.926  10.206  0.1512 -0.1127 -0.3525
 4999SOL    HW126630   1.772   1.926  10.171 -0.6145 -0.0834 -2.3052
 4999SOL    HW226631   1.666   2.020  10.214  0.3810 -0.0779 -0.2775
 5000SOL     OW26632   2.420   2.878   5.476 -0.2364  0.3445  0.2178
 5000SOL    HW126633   2.468   2.796   5.464 -1.0145 -0.4208  2.4495
 5000SOL    HW226634   2.352   2.861   5.541  2.0727  0.8030  2.7530
 5001SOL     OW26635   2.350   3.313   4.761 -0.9288  0.4440 -0.6178
 5001SOL    HW126636   2.445   3.322   4.769 -1.1008 -0.1480  2.0650
 5001SOL    HW226637   2.314   3.357   4.837 -0.8493  0.6516 -0.6988
 5002SOL     OW26638   0.726   1.710   7.823 -0.3771 -0.3766  0.2585
 5002SOL    HW126639   0.656   1.647   7.842 -1.5357  0.4888 -1.1222
 5002SOL    HW226640   0.733   1.749   7.910  2.0207 -0.7630  0.2299
 5003SOL     OW26641   2.728   0.916   2.322  0.1922  0.1319  0.0864
 5003SOL    HW126642   2.685   0.837   2.355  0.0982  0.1343 -0.0299
 5003SOL    HW226643   2.724   0.902   2.228  0.5759 -2.1048  0.4104
 5004SOL     OW26644   3.528   2.604  14.782  0.3127 -0.3312  0.0579
 5004SOL    HW126645   3.541   2.509  14.777 -0.4523 -0.4658  0.7848
 5004SOL    HW226646   3.437   2.603  14.753 -0.3015 -0.2856  2.0537
 5005SOL     OW26647   1.415   2.131  11.202 -0.1145  0.2709  0.0034
 5005SOL    HW126648   1.389   2.222  11.213  0.0864  0.2556  0.6516
 5005SOL    HW226649   1.402   2.100  11.292 -1.2016 -2.0937 -0.9742
 5006SOL     OW26650   1.920   0.218  12.950  0.1136 -0.2891  0.1309
 5006SOL    HW126651   1.833   0.245  12.978  0.3227 -0.3608  0.8493
 5006SOL    HW226652   1.915   0.247  12.859 -1.5929 -0.7283  0.0852
 5007SOL     OW26653   0.333   2.544   6.907 -0.2161  0.0412  0.2570
 5007SOL    HW126654   0.263   2.589   6.955 -1.2313 -0.2219 -0.9725
 5007SOL    HW226655   0.401   2.562   6.971  2.3449 -0.9650 -2.1886
 5008SOL     OW26656   1.918   1.188   8.587 -0.0269 -0.1543 -0.0800
 5008SOL    HW126657   1.881   1.192   8.675 -1.8929  3.0493 -1.0027
 5008SOL    HW226658   1.940   1.279   8.565 -0.0694  0.2443  1.5539
 5009SOL     OW26659   1.042   4.296   2.578  0.4248  0.5559  0.2571
 5009SOL    HW126660   1.084   4.288   2.663 -0.4421 -0.4673  0.5925
 5009SOL    HW226661   1.097   4.354   2.526 -0.4696  0.4895 -0.7835
 5010SOL     OW26662   0.076   2.270   2.034 -0.1224 -0.3991  0.3741
 5010SOL    HW126663   0.092   2.363   2.019  1.3941 -0.7011  0.1946
 5010SOL    HW226664   4.723   2.261   2.057  0.2676  0.0837  2.1039
 5011SOL     OW26665   1.814   4.679   9.158  0.3174 -0.4985 -0.4321
 5011SOL    HW126666   1.881   4.732   9.115 -1.2271  0.7230 -1.3315
 5011SOL    HW226667   1.816   4.599   9.106  0.2920 -0.1462 -0.9773
 5012SOL     OW26668   4.204   1.023   7.433  0.0668  0.2677 -0.1475
 5012SOL    HW126669   4.234   0.957   7.371  0.5479  2.2417 -2.0134
 5012SOL    HW226670   4.119   1.051   7.397  0.4170 -0.6857 -1.6778
 5013SOL     OW26671   4.604   2.198   1.293 -0.3017  0.0798  0.5791
 5013SOL    HW126672   4.603   2.294   1.300  0.0487  0.2433 -1.6981
 5013SOL    HW226673   4.518   2.179   1.329  0.1318  0.2954  1.7356
 5014SOL     OW26674   0.208   1.374  10.420 -0.2292  0.1329 -0.0851
 5014SOL    HW126675   0.212   1.345  10.511  1.8687  0.7625  0.0259
 5014SOL    HW226676   0.288   1.344  10.375  0.3967 -1.0919  1.8781
 5015SOL     OW26677   4.734   4.655  10.224  0.2078  0.2311  0.3808
 5015SOL    HW126678   0.055   4.709  10.173 -2.2842  1.3998 -1.3773
 5015SOL    HW226679   4.656   4.669  10.169 -1.4992 -0.9694  2.5034
 5016SOL     OW26680   3.695   2.323   8.418  0.3602 -0.1043  0.3965
 5016SOL    HW126681   3.748   2.273   8.480  1.8930  0.4117 -0.4850
 5016SOL    HW226682   3.658   2.383   8.483  1.1865  1.3505 -0.4827
 5017SOL     OW26683   3.776   2.665   1.856 -0.4775 -0.1840  0.2209
 5017SOL    HW126684   3.808   2.706   1.936  1.2196  0.1857 -0.6550
 5017SOL    HW226685   3.817   2.712   1.783 -1.1804  2.1534  1.3016
 5018SOL     OW26686   1.601   3.793   7.425 -0.5224  0.3561 -0.1615
 5018SOL    HW126687   1.581   3.701   7.408 -0.4739  0.4676 -0.8305
 5018SOL    HW226688   1.563   3.817   7.509  0.6755 -2.1695  1.1143
 5019SOL     OW26689   0.079   3.553  14.800 -0.4424  0.0168  0.6550
 5019SOL    HW126690   0.159   3.593  14.767 -1.2187  0.3241 -0.8688
 5019SOL    HW226691   0.041   3.528  14.715  0.9920 -0.6191  0.2112
 5020SOL     OW26692   2.725   2.110   2.983 -0.1555 -0.0646  0.4349
 5020SOL    HW126693   2.800   2.084   2.929 -2.1580  0.0796 -2.3724
 5020SOL    HW226694   2.652   2.053   2.960  0.1600 -0.8197  1.2763
 5021SOL     OW26695   1.010   3.117   8.124  0.7460  0.0393  0.8576
 5021SOL    HW126696   1.085   3.080   8.171  0.1993 -0.8778  1.0086
 5021SOL    HW226697   1.050   3.163   8.050 -1.1358  1.7045  0.8769
 5022SOL     OW26698   2.668   1.314  10.952 -0.0295  0.7421 -0.2836
 5022SOL    HW126699   2.669   1.358  10.867  0.7775 -0.0545 -0.6842
 5022SOL    HW226700   2.586   1.267  10.934 -0.6679  1.3844  0.9548
 5023SOL     OW26701   1.125   2.070   5.464 -0.7832  0.3499  0.0827
 5023SOL    HW126702   1.084   1.984   5.467  1.3009 -0.5912  1.9695
 5023SOL    HW226703   1.150   2.074   5.372 -0.6060 -0.3013  0.1062
 5024SOL     OW26704   2.370   2.324  14.124 -0.0273  0.4720 -0.0061
 5024SOL    HW126705   2.402   2.271  14.198 -0.5174 -0.2125 -0.2847
 5024SOL    HW226706   2.390   2.256  14.060  0.0300  0.6736 -0.2040
 5025SOL     OW26707   2.323   0.233   7.720  1.1461 -0.3398  0.1461
 5025SOL    HW126708   2.236   0.256   7.754  0.7209 -1.0342 -0.4872
 5025SOL    HW226709   2.295   0.181   7.645 -0.2733  0.3985  0.1550
 5026SOL     OW26710   2.133   2.402   5.333 -0.1270 -0.2813  0.1375
 5026SOL    HW126711   2.039   2.405   5.350  0.1293  0.7222  1.4517
 5026SOL    HW226712   2.142   2.471   5.267  0.5857 -0.1809  0.3336
 5027SOL     OW26713   3.401   4.065   7.815 -0.2122  0.6088 -0.3061
 5027SOL    HW126714   3.322   4.017   7.791  0.1127  0.5928 -1.3438
 5027SOL    HW226715   3.439   4.010   7.883 -1.0616  0.5825  0.1414
 5028SOL     OW26716   1.170   1.015   1.252  0.1718  0.0568 -0.0488
 5028SOL    HW126717   1.093   1.014   1.196 -0.9702  0.8330  1.5001
 5028SOL    HW226718   1.202   0.930   1.221 -0.5640 -0.5371  0.8298
 5029SOL     OW26719   1.088   2.364  13.005  0.0502 -0.2948 -0.0783
 5029SOL    HW126720   1.156   2.385  12.942  1.2398 -1.4686  0.8057
 5029SOL    HW226721   1.011   2.370  12.949  1.1888  1.9337 -1.3965
 5030SOL     OW26722   1.074   1.781   2.872 -0.3552 -0.0531 -0.8381
 5030SOL    HW126723   1.067   1.782   2.776  2.6598  0.4918 -1.0518
 5030SOL    HW226724   0.980   1.773   2.887 -0.1492 -0.8034  0.0390
 5031SOL     OW26725   0.090   3.855   6.969  0.0374  0.0840 -0.3252
 5031SOL    HW126726   0.046   3.876   7.051 -1.0568  0.2759 -0.9641
 5031SOL    HW226727   0.065   3.762   6.961 -0.7992  0.2713  0.0865
 5032SOL     OW26728   3.235   2.368   0.098 -0.0358 -0.2247 -0.0684
 5032SOL    HW126729   3.180   2.405   0.029  0.7104 -0.8622 -1.0122
 5032SOL    HW226730   3.298   2.325   0.040  0.2145 -0.5180  0.4200
 5033SOL     OW26731   4.079   2.659  10.222 -0.1578  0.2274  0.3236
 5033SOL    HW126732   4.031   2.641  10.141 -2.8518  0.8525  1.7803
 5033SOL    HW226733   4.001   2.680  10.273  0.5841 -1.3254  2.0613
 5034SOL     OW26734   0.277   1.670   5.359  0.6945 -0.1527  0.0765
 5034SOL    HW126735   0.317   1.755   5.376  1.3376 -0.4534  0.0710
 5034SOL    HW226736   0.359   1.628   5.333 -1.2984 -2.1815 -2.9852
 5035SOL     OW26737   2.057   0.041   4.543 -0.0558 -0.0477  0.2224
 5035SOL    HW126738   1.983   0.043   4.605  0.1231 -1.2814  0.4903
 5035SOL    HW226739   2.039   0.111   4.481 -0.9034  1.0201  1.6655
 5036SOL     OW26740   4.041   1.374   2.506  0.1466 -0.1305 -0.4504
 5036SOL    HW126741   3.951   1.406   2.506 -1.1146 -3.6015  0.2051
 5036SOL    HW226742   4.082   1.427   2.574 -2.8164  1.7755 -0.1578
 5037SOL     OW26743   2.298   2.657  15.532  0.2862  0.7213 -0.0442
 5037SOL    HW126744   2.225   2.650  15.469  0.7026 -0.6842 -0.3760
 5037SOL    HW226745   2.249   2.652  15.614 -1.0209  1.5140 -0.7769
 5038SOL     OW26746   4.286   3.537   5.677 -0.0921  0.1830  0.3941
 5038SOL    HW126747   4.226   3.513   5.606 -0.3664  2.9056 -0.3062
 5038SOL    HW226748   4.307   3.630   5.665 -2.5192  0.8903  1.6833
 5039SOL     OW26749   1.554   4.657   9.951 -0.1103  0.1008  0.2302
 5039SOL    HW126750   1.529   4.565   9.964 -1.4112  0.5883  1.2282
 5039SOL    HW226751   1.477   4.703   9.986 -0.9225  0.8909 -2.6198
 5040SOL     OW26752   4.529   0.701   3.605 -0.2655 -0.0465 -0.0870
 5040SOL    HW126753   4.538   0.632   3.538  0.7845  1.1454 -1.1744
 5040SOL    HW226754   4.623   0.712   3.618 -0.2598 -0.6646  0.3878
 5041SOL     OW26755   2.883   3.586   1.654  0.1226 -0.4516  0.4573
 5041SOL    HW126756   2.920   3.601   1.741 -1.2108 -0.2966  0.9895
 5041SOL    HW226757   2.826   3.511   1.672 -0.4053 -0.2375 -0.3017
 5042SOL     OW26758   2.340   2.228   0.610 -0.2303  0.5309 -0.0454
 5042SOL    HW126759   2.369   2.304   0.560 -1.2497  1.3250  0.5662
 5042SOL    HW226760   2.380   2.253   0.694  1.3778 -1.1139 -0.3120
 5043SOL     OW26761   1.904   1.189   6.833  0.5337 -0.1009 -0.9520
 5043SOL    HW126762   1.925   1.137   6.755 -1.7668  0.5274 -1.9705
 5043SOL    HW226763   1.962   1.265   6.833 -0.2094  0.4602  0.7962
 5044SOL     OW26764   0.205   4.317   3.967 -0.5235 -0.5750  0.1624
 5044SOL    HW126765   0.110   4.311   3.965 -0.4981 -0.4483 -1.4134
 5044SOL    HW226766   0.236   4.242   4.017 -1.6844 -1.4942 -0.5141
 5045SOL     OW26767   3.024   4.120  12.895  0.4334  0.0096 -0.1738
 5045SOL    HW126768   3.026   4.102  12.801  1.2062  3.2970 -0.7737
 5045SOL    HW226769   3.094   4.063  12.928  0.4397 -0.0102 -0.2209
 5046SOL     OW26770   1.104   3.979  12.159  0.1416 -1.1020 -0.7356
 5046SOL    HW126771   1.013   3.986  12.186  0.6624  2.6657 -0.0196
 5046SOL    HW226772   1.147   3.942  12.237  0.3557 -0.0430 -0.3603
 5047SOL     OW26773   1.369   1.983   2.642 -0.3657  0.0583  0.1881
 5047SOL    HW126774   1.353   2.051   2.708  0.9890  1.3248 -0.7968
 5047SOL    HW226775   1.352   1.911   2.703 -1.6036 -0.5709 -0.8916
 5048SOL     OW26776   1.530   0.846   9.655 -0.0785  0.7494 -0.1051
 5048SOL    HW126777   1.619   0.882   9.655  0.1698  0.1617 -1.1240
 5048SOL    HW226778   1.530   0.820   9.747  0.2928  1.9936  0.2422
 5049SOL     OW26779   2.579   3.788   9.004 -0.0829  0.6291 -0.2892
 5049SOL    HW126780   2.665   3.814   9.035  1.0767 -0.6094 -2.4998
 5049SOL    HW226781   2.609   3.759   8.918 -1.0336  1.7793 -1.0219
 5050SOL     OW26782   2.061   1.486  14.994 -0.7143  1.0388  0.0781
 5050SOL    HW126783   2.141   1.490  15.047 -0.2003 -1.2529 -0.5246
 5050SOL    HW226784   2.093   1.520  14.910  0.2061  2.2697  0.9415
 5051SOL     OW26785   4.640   2.347   8.482  0.1188  0.1341  0.0594
 5051SOL    HW126786   4.733   2.350   8.460 -0.3022 -3.1922 -2.0917
 5051SOL    HW226787   4.601   2.410   8.421 -0.3208 -1.6838 -1.5246
 5052SOL     OW26788   3.684   3.541  13.598  0.6717 -0.1122  0.0260
 5052SOL    HW126789   3.716   3.458  13.633  1.0110 -0.3881 -0.9545
 5052SOL    HW226790   3.703   3.613  13.658  5.0946  0.3354 -1.8954
 5053SOL     OW26791   2.654   2.271   6.406  0.7455  0.1454  0.4287
 5053SOL    HW126792   2.618   2.211   6.472 -1.0547 -0.0044 -0.7018
 5053SOL    HW226793   2.581   2.269   6.344  2.0148 -0.3473 -1.0602
 5054SOL     OW26794   3.527   4.111   5.491 -0.3667 -0.0365  0.1392
 5054SOL    HW126795   3.526   4.194   5.445 -0.0852  0.8515  1.7266
 5054SOL    HW226796   3.493   4.140   5.576 -0.7601 -3.9741  1.3401
 5055SOL     OW26797   4.415   2.702   3.088 -0.8217  0.4658 -0.5712
 5055SOL    HW126798   4.450   2.741   3.168  0.2885 -0.7320 -0.4695
 5055SOL    HW226799   4.485   2.644   3.059 -0.4820  1.1176 -1.0509
 5056SOL     OW26800   4.693   3.760  17.742 -0.4495 -0.2779  0.4508
 5056SOL    HW126801   0.017   3.831  17.736 -2.6475  1.6086 -0.3900
 5056SOL    HW226802   4.718   3.726   0.071  2.7157 -2.0990 -1.1737
 5057SOL     OW26803   0.762   4.086  10.528 -0.2202  0.3827 -0.3387
 5057SOL    HW126804   0.735   4.129  10.609 -1.3936  1.8728 -1.5405
 5057SOL    HW226805   0.752   3.993  10.550  0.5691  0.0856 -1.2404
 5058SOL     OW26806   1.900   3.175   8.090 -0.4002  0.4950 -0.0893
 5058SOL    HW126807   1.846   3.110   8.134 -1.8481  1.3329 -0.6199
 5058SOL    HW226808   1.988   3.139   8.093 -0.5586 -0.0257 -1.5923
 5059SOL     OW26809   3.807   4.339   2.765  0.0452 -0.0532 -1.1106
 5059SOL    HW126810   3.901   4.324   2.754  0.0885 -1.2740  0.8102
 5059SOL    HW226811   3.772   4.251   2.781 -1.0280  0.4771 -0.5325
 5060SOL     OW26812   1.911   2.007  14.063 -0.0327 -0.2971  0.0023
 5060SOL    HW126813   1.843   1.994  13.996 -2.0856 -0.3810  2.0993
 5060SOL    HW226814   1.964   2.072  14.017 -1.2679  0.5745 -0.1966
 5061SOL     OW26815   0.325   0.057  17.667  0.4844 -0.4003  0.1409
 5061SOL    HW126816   0.246   0.080  17.619  0.4262  0.8811  0.8672
 5061SOL    HW226817   0.313   4.704  17.648  0.9907 -0.3647 -0.3814
 5062SOL     OW26818   3.819   1.073   1.989 -0.0891  0.2730 -0.1409
 5062SOL    HW126819   3.903   1.104   1.957  0.6810 -0.3732  1.2431
 5062SOL    HW226820   3.791   1.031   1.907 -2.2677 -0.0564  0.7818
 5063SOL     OW26821   4.134   4.269   5.770  0.2595 -0.4658 -0.1081
 5063SOL    HW126822   4.049   4.305   5.747 -0.5131 -0.8937  2.0504
 5063SOL    HW226823   4.168   4.343   5.820  0.4390  0.9654 -2.3685
 5064SOL     OW26824   2.608   3.998  11.070 -0.8776 -0.3664  0.1358
 5064SOL    HW126825   2.642   3.915  11.105  0.4551  0.9827  2.0602
 5064SOL    HW226826   2.669   4.058  11.114 -1.3548  0.8041 -0.7951
 5065SOL     OW26827   3.655   1.975  10.781 -0.5100  0.3830 -0.1668
 5065SOL    HW126828   3.722   2.021  10.832  0.5150 -0.7394 -0.4915
 5065SOL    HW226829   3.697   1.956  10.697 -2.0666 -0.5843 -0.7144
 5066SOL     OW26830   2.693   4.723   0.782  0.5719 -0.1827  0.0651
 5066SOL    HW126831   2.755   0.054   0.799  1.8894 -1.3723  0.2561
 5066SOL    HW226832   2.665   0.010   0.694  0.0401  0.0893  0.3164
 5067SOL     OW26833   4.129   1.149   8.466 -0.6461  0.6823  0.4214
 5067SOL    HW126834   4.184   1.110   8.534 -1.3143  1.2697  1.2890
 5067SOL    HW226835   4.055   1.187   8.513 -0.3472  0.4182  1.1164
 5068SOL     OW26836   3.995   2.256   2.616  0.3361  0.1178  0.2798
 5068SOL    HW126837   4.036   2.267   2.702 -1.7946  0.6115  1.2291
 5068SOL    HW226838   3.951   2.171   2.622  1.6438 -0.6217 -0.5021
 5069SOL     OW26839   4.069   3.189   7.351 -0.0607 -0.3176 -0.1222
 5069SOL    HW126840   4.158   3.223   7.364 -0.2882  0.4956 -0.7201
 5069SOL    HW226841   4.024   3.272   7.336 -1.0022 -0.7778  0.1642
 5070SOL     OW26842   2.300   0.834   9.226 -0.2815  0.3548  0.4522
 5070SOL    HW126843   2.300   0.791   9.141 -3.7488  0.3919  0.4491
 5070SOL    HW226844   2.278   0.925   9.209 -0.1002  0.4279  0.6088
 5071SOL     OW26845   2.941   3.895   8.204  0.2438 -0.5413 -0.0179
 5071SOL    HW126846   2.912   3.942   8.126 -0.0300  1.4507  1.2997
 5071SOL    HW226847   2.861   3.849   8.227  0.2678 -0.5033  0.1374
 5072SOL     OW26848   2.599   3.134   8.121 -0.5941 -0.2476  0.3401
 5072SOL    HW126849   2.650   3.060   8.154  0.8601  0.2735 -0.7329
 5072SOL    HW226850   2.547   3.133   8.201  0.2107  2.1112  0.8793
 5073SOL     OW26851   1.778   4.677   8.016 -0.1239  0.3545  0.1373
 5073SOL    HW126852   1.821   4.715   7.939  0.6776 -0.7012  0.0616
 5073SOL    HW226853   1.721   4.609   7.981  1.2443 -0.3922 -0.6427
 5074SOL     OW26854   1.451   4.007   3.908 -0.3112 -0.4805 -0.6383
 5074SOL    HW126855   1.486   4.096   3.908 -1.1814 -0.1510  1.4616
 5074SOL    HW226856   1.485   3.981   3.822 -1.2556 -1.1325 -0.8151
 5075SOL     OW26857   2.571   1.566  14.916 -0.2832 -0.3144  0.3808
 5075SOL    HW126858   2.488   1.591  14.957  0.9683 -0.8082  3.2614
 5075SOL    HW226859   2.591   1.639  14.858  2.1990 -0.5105  0.9835
 5076SOL     OW26860   2.617   4.253   7.129 -0.1349  0.0297 -0.2243
 5076SOL    HW126861   2.597   4.300   7.210 -1.8261 -0.3260 -0.4373
 5076SOL    HW226862   2.534   4.248   7.081 -0.4604  3.2864  0.0001
 5077SOL     OW26863   3.451   3.977   7.452 -0.0484 -0.1186 -0.2671
 5077SOL    HW126864   3.449   3.886   7.479 -1.4034  0.9759  3.3621
 5077SOL    HW226865   3.356   3.990   7.442 -0.1514 -0.7532 -0.0677
 5078SOL     OW26866   4.607   0.891   9.171  0.1137 -0.2809  0.5665
 5078SOL    HW126867   4.694   0.916   9.140 -0.1991 -1.2960 -1.1646
 5078SOL    HW226868   4.553   0.965   9.144  0.6150  1.2523  3.7773
 5079SOL     OW26869   3.770   4.073   5.313  0.2917 -0.7633  0.0854
 5079SOL    HW126870   3.807   4.146   5.362  0.7704 -0.3228 -0.9486
 5079SOL    HW226871   3.762   4.112   5.226  0.7965 -0.3939  0.2080
 5080SOL     OW26872   1.960   2.212   5.658 -0.3302  0.0799 -0.1107
 5080SOL    HW126873   2.040   2.177   5.618 -0.4870  1.0101 -1.2311
 5080SOL    HW226874   2.000   2.226   5.744 -0.0125 -0.6959 -0.1290
 5081SOL     OW26875   3.645   4.450  17.526 -0.4902  0.1566  0.0233
 5081SOL    HW126876   3.711   4.520  17.526 -0.0070 -0.3033 -1.6457
 5081SOL    HW226877   3.597   4.482  17.602  0.6841 -0.1762  0.8999
 5082SOL     OW26878   1.638   1.973   3.509 -0.1603  0.9194 -0.0411
 5082SOL    HW126879   1.638   2.058   3.464  3.1514 -0.1692 -2.0921
 5082SOL    HW226880   1.727   1.980   3.543 -0.9774  2.3601  1.7915
 5083SOL     OW26881   3.089   2.200   3.329  0.2022 -0.8226 -0.5190
 5083SOL    HW126882   3.037   2.142   3.273 -0.4792 -0.6643 -0.0617
 5083SOL    HW226883   3.119   2.158   3.409 -0.2775 -0.4561 -0.1425
 5084SOL     OW26884   3.293   2.130   2.809 -1.0588 -0.2022 -0.0190
 5084SOL    HW126885   3.285   2.224   2.823  2.4064 -0.0538  1.1138
 5084SOL    HW226886   3.355   2.102   2.876 -0.6692 -0.6552 -0.5722
 5085SOL     OW26887   3.223   4.071  16.269 -0.0145 -0.3071 -0.5692
 5085SOL    HW126888   3.186   4.150  16.229  2.5604  1.7312  1.1006
 5085SOL    HW226889   3.212   4.083  16.364 -0.0472  1.8523 -0.8458
 5086SOL     OW26890   3.152   2.545   5.836 -0.5366  0.3706 -0.5596
 5086SOL    HW126891   3.246   2.560   5.827 -0.3558 -2.2214 -2.9919
 5086SOL    HW226892   3.144   2.497   5.919  2.2099  3.2078  1.3386
 5087SOL     OW26893   0.932   2.929   6.020 -0.4270  0.2740 -0.3163
 5087SOL    HW126894   0.982   3.004   5.985  0.2148 -0.3480 -0.7435
 5087SOL    HW226895   0.963   2.918   6.110  1.8999 -0.2908 -1.1850
 5088SOL     OW26896   2.381   1.674   0.983 -0.0881 -0.3141  0.4651
 5088SOL    HW126897   2.465   1.716   0.966  0.6760 -1.4118  1.6048
 5088SOL    HW226898   2.360   1.717   1.065 -0.5891  1.4128 -0.5620
 5089SOL     OW26899   0.437   4.596  16.172 -0.1111  0.2633 -0.0174
 5089SOL    HW126900   0.442   4.575  16.079  1.2748  2.4863 -0.4577
 5089SOL    HW226901   0.388   4.679  16.178 -1.0875 -0.2881 -0.3610
 5090SOL     OW26902   3.842   2.197   4.270 -0.1619 -0.3330 -0.5381
 5090SOL    HW126903   3.873   2.108   4.289 -0.8827 -0.3619  0.4911
 5090SOL    HW226904   3.879   2.250   4.340 -0.7610 -1.0954  0.3595
 5091SOL     OW26905   3.108   4.108  16.846 -0.1967 -0.4712 -0.1841
 5091SOL    HW126906   3.144   4.143  16.928 -0.5411  1.4982 -0.8713
 5091SOL    HW226907   3.062   4.186  16.814  2.3982  1.0515 -0.1705
 5092SOL     OW26908   2.222   2.318   6.412  0.6763  0.0968 -0.1651
 5092SOL    HW126909   2.183   2.238   6.447 -0.1637  0.6339  0.1228
 5092SOL    HW226910   2.256   2.348   6.496  0.2568  0.4173 -0.1122
 5093SOL     OW26911   0.119   4.674   5.794  0.8875  0.0836  0.4289
 5093SOL    HW126912   0.068   4.622   5.856 -1.7006 -0.2725 -2.0406
 5093SOL    HW226913   0.067   4.696   5.717  0.3269  0.1449  0.8226
 5094SOL     OW26914   1.634   1.702   9.596  0.0653 -0.0141  0.2285
 5094SOL    HW126915   1.624   1.709   9.501  1.2053 -2.0034 -0.0280
 5094SOL    HW226916   1.730   1.704   9.597  0.0596 -0.1454  1.2571
 5095SOL     OW26917   2.969   2.822   2.919  0.4382 -0.1896 -0.0429
 5095SOL    HW126918   2.935   2.794   3.003 -0.5440  3.0345  0.6392
 5095SOL    HW226919   3.037   2.885   2.944  0.4336  0.1571 -0.8748
 5096SOL     OW26920   4.458   2.167  10.222  0.1964  0.2391 -0.0245
 5096SOL    HW126921   4.445   2.196  10.313  0.2864  0.8487 -0.2051
 5096SOL    HW226922   4.486   2.249  10.181  1.9007  0.0692  0.7917
 5097SOL     OW26923   0.477   3.127  13.737  0.1627  0.1805  0.3700
 5097SOL    HW126924   0.426   3.048  13.756  2.3742 -1.6925 -1.4933
 5097SOL    HW226925   0.490   3.112  13.644  1.1747 -1.3321  0.7414
 5098SOL     OW26926   3.018   0.813  11.379 -1.1100 -0.1151  0.1808
 5098SOL    HW126927   2.969   0.820  11.298 -1.2892 -0.8583  0.2270
 5098SOL    HW226928   3.079   0.887  11.376 -0.5026 -0.5930  0.8514
 5099SOL     OW26929   3.195   0.731  16.147 -0.0871 -0.0822 -0.2794
 5099SOL    HW126930   3.140   0.674  16.201 -1.4312 -0.6338 -2.2296
 5099SOL    HW226931   3.279   0.709  16.187 -0.1664 -1.6613 -0.9604
 5100SOL     OW26932   4.531   2.275   9.478 -0.3083 -0.4811 -0.2381
 5100SOL    HW126933   4.485   2.260   9.396  0.2952  1.5742 -0.9519
 5100SOL    HW226934   4.616   2.305   9.448 -1.1696  0.2527 -1.8893
 5101SOL     OW26935   0.559   2.713   9.158  0.4169  1.5916  0.6265
 5101SOL    HW126936   0.560   2.796   9.110  4.4590  0.5475 -1.0271
 5101SOL    HW226937   0.653   2.700   9.165  0.0295 -1.5539 -0.0104
 5102SOL     OW26938   1.896   2.913  15.496  0.5405  0.7964  0.0703
 5102SOL    HW126939   1.836   2.892  15.425  2.0900 -0.9349 -0.7435
 5102SOL    HW226940   1.956   2.838  15.499  0.5625  0.9375  3.5342
 5103SOL     OW26941   2.430   4.260   4.536  0.4940  0.2581  0.1916
 5103SOL    HW126942   2.414   4.196   4.467  2.2045  1.3296 -1.1832
 5103SOL    HW226943   2.498   4.319   4.504  1.7330 -0.3784  1.6346
 5104SOL     OW26944   1.156   4.454   5.010 -0.1177  0.0751 -0.6775
 5104SOL    HW126945   1.226   4.470   5.074 -0.3859  0.9254 -0.5976
 5104SOL    HW226946   1.115   4.540   5.003  0.3229  0.4282  1.1821
 5105SOL     OW26947   3.048   0.922   5.303 -0.3132  0.3778  0.1339
 5105SOL    HW126948   3.059   1.002   5.354 -1.2971  0.2193  0.5990
 5105SOL    HW226949   3.006   0.959   5.225 -2.7579  0.0831  1.2987
 5106SOL     OW26950   1.514   0.915   8.825  0.3426 -0.2441  0.1082
 5106SOL    HW126951   1.510   0.934   8.732 -0.8184 -0.3935  0.1218
 5106SOL    HW226952   1.606   0.931   8.846  0.7054 -0.1955 -1.5528
 5107SOL     OW26953   2.391   3.526   2.419  0.1721  0.5719 -0.0072
 5107SOL    HW126954   2.395   3.510   2.513 -2.0416 -2.3908 -0.4393
 5107SOL    HW226955   2.296   3.531   2.408  0.1405 -0.0659 -0.0127
 5108SOL     OW26956   2.115   0.898  14.364 -0.5172  0.3098  0.3995
 5108SOL    HW126957   2.105   0.807  14.336 -0.6156 -0.5685  3.2982
 5108SOL    HW226958   2.109   0.886  14.459 -3.6044 -0.2509  0.1171
 5109SOL     OW26959   3.689   3.341  17.648  0.2549  0.2595 -0.4962
 5109SOL    HW126960   3.721   3.250  17.655 -0.0462  0.2988  1.4883
 5109SOL    HW226961   3.670   3.352  17.555 -0.2524 -0.5548 -0.4960
 5110SOL     OW26962   0.504   1.353   3.148  0.1697  0.5985  0.1873
 5110SOL    HW126963   0.434   1.412   3.119 -0.5971 -0.5520 -0.3092
 5110SOL    HW226964   0.509   1.294   3.072 -0.4457 -0.2475  0.8014
 5111SOL     OW26965   1.196   2.350   3.743 -0.7468  0.7830  0.5428
 5111SOL    HW126966   1.166   2.431   3.783  0.5572  0.8754  1.3379
 5111SOL    HW226967   1.160   2.355   3.655 -3.2996 -0.1720  1.5378
 5112SOL     OW26968   1.067   2.995   2.450 -0.4359  0.0114  0.2069
 5112SOL    HW126969   1.131   2.973   2.382 -1.0685 -1.3582  0.0496
 5112SOL    HW226970   1.111   3.021   2.530  1.0286 -0.5924 -0.3996
 5113SOL     OW26971   1.108   2.049  14.175 -0.1086 -0.0120  0.0662
 5113SOL    HW126972   1.111   2.139  14.208  0.6011 -0.0861  0.2108
 5113SOL    HW226973   1.099   2.070  14.082 -1.8208  0.6411  0.3749
 5114SOL     OW26974   2.828   2.488  15.845  0.2434  0.3837 -0.4568
 5114SOL    HW126975   2.785   2.504  15.929  4.1452 -0.6104  1.7268
 5114SOL    HW226976   2.773   2.527  15.777 -0.3297 -0.6343 -0.5689
 5115SOL     OW26977   0.899   4.639   5.836  0.2737  0.0867  0.2434
 5115SOL    HW126978   0.870   4.729   5.853  0.7668  0.3959 -0.5574
 5115SOL    HW226979   0.925   4.612   5.925  0.6598 -1.1154 -0.2332
 5116SOL     OW26980   0.926   2.607   7.111  0.3196  0.8472  0.0258
 5116SOL    HW126981   0.905   2.561   7.031  0.4589  2.9718 -1.2408
 5116SOL    HW226982   0.894   2.545   7.176 -1.1316 -1.5332 -2.9966
 5117SOL     OW26983   3.311   1.136   5.048 -0.2017 -0.3767  0.6125
 5117SOL    HW126984   3.369   1.133   4.973  2.5702 -1.5156  2.7905
 5117SOL    HW226985   3.224   1.145   5.009  0.4517  1.5361 -0.3510
 5118SOL     OW26986   3.210   3.568   5.328  0.2098 -0.2741  0.5467
 5118SOL    HW126987   3.239   3.486   5.369  0.8786  0.0723  0.7597
 5118SOL    HW226988   3.237   3.632   5.394 -0.8450  1.4901 -0.7497
 5119SOL     OW26989   3.642   2.228   5.455  0.6362 -0.4395 -0.1641
 5119SOL    HW126990   3.725   2.272   5.437 -0.7121  2.6107  1.0070
 5119SOL    HW226991   3.580   2.275   5.399  0.6395  1.3991  1.3871
 5120SOL     OW26992   1.923   0.769   8.741  0.4268 -0.1062  0.5744
 5120SOL    HW126993   1.882   0.746   8.658  1.8255  0.0054 -0.1439
 5120SOL    HW226994   1.956   0.686   8.775  1.0381 -0.2297 -0.3452
 5121SOL     OW26995   4.687   2.885   9.690 -1.2395 -0.0848 -0.4496
 5121SOL    HW126996   0.029   2.844   9.718 -0.3242  0.4102 -2.4229
 5121SOL    HW226997   4.673   2.855   9.600 -2.7907  0.8297 -0.5034
 5122SOL     OW26998   0.447   1.768   6.756  0.0733 -0.0517 -0.2338
 5122SOL    HW126999   0.355   1.792   6.767 -0.9896 -3.5050 -1.7265
 5122SOL    HW227000   0.478   1.783   6.846 -2.4653 -0.7386  0.7539
 5123SOL     OW27001   2.838   3.459   6.172  0.6070 -0.6184  0.3443
 5123SOL    HW127002   2.879   3.497   6.094 -0.4691  0.8497  0.4921
 5123SOL    HW227003   2.776   3.528   6.196  0.1807 -0.6924 -0.5378
 5124SOL     OW27004   1.274   4.608   0.730  0.0945 -0.3592 -0.2166
 5124SOL    HW127005   1.238   4.624   0.817 -2.1656  0.8453 -1.3879
 5124SOL    HW227006   1.317   4.524   0.749 -2.4419 -1.4124  0.7760
 5125SOL     OW27007   3.325   0.513   7.897  0.1602  0.1157  0.0380
 5125SOL    HW127008   3.284   0.553   7.973 -0.9706 -0.6569 -0.1797
 5125SOL    HW227009   3.300   0.578   7.830  1.7050  0.1613 -0.4966
 5126SOL     OW27010   0.606   2.371   1.798 -0.7381 -0.1229  0.3313
 5126SOL    HW127011   0.524   2.404   1.833 -0.6193 -0.4236  0.8903
 5126SOL    HW227012   0.665   2.415   1.859  1.3510 -3.1211  0.4835
 5127SOL     OW27013   2.146   0.951   5.201  0.4479 -0.0392  0.2694
 5127SOL    HW127014   2.203   0.925   5.128 -2.6938 -1.2822 -1.7117
 5127SOL    HW227015   2.138   1.046   5.191  0.0954 -0.3412 -2.1797
 5128SOL     OW27016   3.653   1.669   9.278 -0.1743 -0.2804 -0.5889
 5128SOL    HW127017   3.738   1.687   9.318  0.5577 -1.9814 -1.3879
 5128SOL    HW227018   3.671   1.713   9.195  1.7539 -3.9822 -2.1740
 5129SOL     OW27019   3.686   3.960   6.981 -0.0275 -0.0979 -0.2764
 5129SOL    HW127020   3.768   3.928   7.019 -1.6660  0.0465  3.3312
 5129SOL    HW227021   3.690   3.928   6.891  0.5656  0.0599 -0.3076
 5130SOL     OW27022   1.502   3.235   6.752 -0.5134  0.2738 -0.5328
 5130SOL    HW127023   1.478   3.163   6.693 -0.7497 -0.3181  0.2925
 5130SOL    HW227024   1.577   3.267   6.701  1.2031 -0.0949  1.8040
 5131SOL     OW27025   2.788   2.151   6.795 -0.5461 -0.1179  0.1012
 5131SOL    HW127026   2.732   2.101   6.855 -2.2940  0.2734 -1.1820
 5131SOL    HW227027   2.875   2.134   6.831 -0.6252  1.2017  0.9274
 5132SOL     OW27028   2.940   1.439  16.822  0.5285 -0.7574  0.0696
 5132SOL    HW127029   2.942   1.436  16.726  0.7403  0.3105  0.0438
 5132SOL    HW227030   3.029   1.468  16.841  0.5130 -0.8691  0.3084
 5133SOL     OW27031   3.848   3.622  11.412  0.1829  0.1702 -0.0165
 5133SOL    HW127032   3.761   3.597  11.382 -0.4329 -0.1321  2.0512
 5133SOL    HW227033   3.884   3.533  11.413 -1.8837 -0.6874 -1.6125
 5134SOL     OW27034   3.125   0.852   3.948 -0.4602  0.7500 -0.7361
 5134SOL    HW127035   3.131   0.861   3.853 -1.2806 -0.8500 -0.9446
 5134SOL    HW227036   3.033   0.828   3.961 -0.1283  0.1645  0.5481
 5135SOL     OW27037   1.456   4.663  12.949 -0.2996  0.2301 -0.0808
 5135SOL    HW127038   1.372   4.619  12.960  0.1016 -0.1196  1.5463
 5135SOL    HW227039   1.475   4.719  13.024  0.1670 -0.0053 -0.0198
 5136SOL     OW27040   3.620   3.734  15.841 -0.1768 -0.1370 -0.6676
 5136SOL    HW127041   3.707   3.756  15.875  0.4628 -0.6446 -1.9672
 5136SOL    HW227042   3.599   3.806  15.782  0.7292  0.2313 -0.5353
 5137SOL     OW27043   0.739   0.259   4.310  0.0043 -0.3095  0.1388
 5137SOL    HW127044   0.811   0.202   4.338 -1.4063 -2.5096 -0.7092
 5137SOL    HW227045   0.677   0.243   4.382  0.9276  0.3850  1.0889
 5138SOL     OW27046   2.706   1.038   4.950 -0.9789 -0.3191 -1.1942
 5138SOL    HW127047   2.648   1.114   4.946 -2.3614 -1.3547 -1.0278
 5138SOL    HW227048   2.655   0.974   4.999 -0.9035  0.8559  0.4112
 5139SOL     OW27049   2.236   2.919   7.330 -0.3242 -0.3025 -0.2334
 5139SOL    HW127050   2.266   2.919   7.421 -0.7953 -0.9220 -0.0835
 5139SOL    HW227051   2.309   2.966   7.289 -0.6340  1.1640  0.8863
 5140SOL     OW27052   3.718   1.734   0.226  0.4261 -0.5548 -0.5536
 5140SOL    HW127053   3.758   1.656   0.266 -0.7745 -0.7313  0.3054
 5140SOL    HW227054   3.705   1.783   0.307  0.6041 -2.3470  0.5504
 5141SOL     OW27055   4.099   3.775   4.553 -0.1778 -0.1708 -0.2657
 5141SOL    HW127056   4.155   3.729   4.616 -2.0410 -0.7616  0.9788
 5141SOL    HW227057   4.161   3.782   4.481  0.8012  1.0021  0.6980
 5142SOL     OW27058   1.357   2.372   6.242  0.0862 -0.8640  0.4986
 5142SOL    HW127059   1.272   2.345   6.278  0.1006 -1.9329 -0.2714
 5142SOL    HW227060   1.417   2.331   6.303  0.6634 -1.8864 -0.7608
 5143SOL     OW27061   0.488   2.196   2.957  0.0804 -0.2997  0.3409
 5143SOL    HW127062   0.568   2.249   2.962  0.6832 -0.9920 -2.0484
 5143SOL    HW227063   0.492   2.164   2.867  1.8039  0.5760  0.0836
 5144SOL     OW27064   1.105   3.829   4.156  0.2885 -0.2451  0.2387
 5144SOL    HW127065   1.046   3.759   4.126  0.2052  0.5033 -1.3336
 5144SOL    HW227066   1.185   3.786   4.186 -0.2580 -2.3138 -1.2392
 5145SOL     OW27067   1.845   0.806   2.116 -0.0164 -0.0436  0.3292
 5145SOL    HW127068   1.925   0.754   2.124 -0.2418 -0.1094  2.1678
 5145SOL    HW227069   1.874   0.877   2.174  4.8363 -2.5336  0.9312
 5146SOL     OW27070   4.040   4.069   4.672 -0.1515  0.3107 -0.0042
 5146SOL    HW127071   3.981   3.995   4.657 -0.7299  0.7586  0.0812
 5146SOL    HW227072   3.992   4.129   4.728  1.8686  1.1345  0.8380
 5147SOL     OW27073   2.751   2.579  16.512  0.5665  0.3111  0.3214
 5147SOL    HW127074   2.703   2.633  16.575 -0.2914 -0.8339  0.6671
 5147SOL    HW227075   2.831   2.626  16.490  1.8257 -2.5560 -1.2906
 5148SOL     OW27076   3.855   0.719  12.413  0.1069  0.6387  0.2512
 5148SOL    HW127077   3.893   0.687  12.495  2.2750 -1.6550 -1.6306
 5148SOL    HW227078   3.818   0.645  12.364  1.7031  0.3265 -0.4820
 5149SOL     OW27079   3.263   3.472   3.652  0.2203 -0.3701  0.1116
 5149SOL    HW127080   3.220   3.399   3.608  1.6566 -0.0053 -1.9287
 5149SOL    HW227081   3.189   3.533   3.661  1.2172  1.0041 -0.9035
 5150SOL     OW27082   4.567   3.087   0.868  0.1805  0.5181 -0.1772
 5150SOL    HW127083   4.564   2.996   0.897 -0.0093  0.7015  0.3823
 5150SOL    HW227084   4.545   3.078   0.775  1.4722 -0.7302 -0.3479
 5151SOL     OW27085   4.170   0.855  10.582  0.4869  0.3211 -0.1070
 5151SOL    HW127086   4.116   0.929  10.611 -1.5683 -0.2621 -2.4533
 5151SOL    HW227087   4.175   0.807  10.665 -1.4799 -1.3671 -0.9488
 5152SOL     OW27088   1.544   2.036   8.340 -0.4405 -0.0732 -0.0895
 5152SOL    HW127089   1.531   1.955   8.389 -0.0783  0.0530  0.2162
 5152SOL    HW227090   1.590   2.003   8.263  1.5792 -0.6183  1.3488
 5153SOL     OW27091   1.581   3.539   7.341 -0.1377  0.0811 -0.0826
 5153SOL    HW127092   1.640   3.466   7.359 -0.9154 -0.8129 -1.1990
 5153SOL    HW227093   1.564   3.529   7.247 -1.4737 -1.4839  0.3428
 5154SOL     OW27094   2.158   3.039   8.422  0.0492  0.1167  0.3738
 5154SOL    HW127095   2.135   3.091   8.499  3.6013  2.2919 -0.0133
 5154SOL    HW227096   2.074   3.016   8.382  0.0880  0.7834 -0.0929
 5155SOL     OW27097   2.260   4.173   3.252 -0.0165  0.0014 -1.0768
 5155SOL    HW127098   2.317   4.162   3.175  0.0018  1.0332 -1.2127
 5155SOL    HW227099   2.252   4.086   3.291  0.4643 -1.0555 -3.2722
 5156SOL     OW27100   4.296   3.708  12.197 -0.8472  0.1657  0.1010
 5156SOL    HW127101   4.295   3.782  12.137 -0.9129  1.3498  1.5774
 5156SOL    HW227102   4.222   3.657  12.162  0.5809 -2.0938  0.3907
 5157SOL     OW27103   2.071   1.618   4.928 -0.1038  0.6159  0.5707
 5157SOL    HW127104   2.125   1.550   4.888 -1.5769  0.1343 -0.6082
 5157SOL    HW227105   1.984   1.598   4.895  1.2129 -5.6602  0.9330
 5158SOL     OW27106   1.009   2.805   5.586 -0.3482  0.4755 -0.0359
 5158SOL    HW127107   0.921   2.827   5.557 -0.5844 -0.5474 -0.1269
 5158SOL    HW227108   1.039   2.764   5.504 -1.3102 -1.1615  0.4143
 5159SOL     OW27109   3.658   1.286   6.839  0.0038 -0.1312 -0.4253
 5159SOL    HW127110   3.722   1.251   6.777  1.4450  1.4395  0.2011
 5159SOL    HW227111   3.594   1.330   6.783  1.7551  1.1876 -1.3894
 5160SOL     OW27112   1.593   4.222   1.971 -0.1029 -1.2864 -0.3841
 5160SOL    HW127113   1.540   4.279   1.916  1.0896  1.3651  1.1877
 5160SOL    HW227114   1.561   4.249   2.057 -1.4330 -2.6227 -0.4598
 5161SOL     OW27115   0.693   1.156  13.645  0.0377  0.4415  0.2053
 5161SOL    HW127116   0.723   1.126  13.731  1.4261 -0.0146 -0.4400
 5161SOL    HW227117   0.780   1.159  13.603 -0.5650  0.1606 -1.0678
 5162SOL     OW27118   3.166   0.383   6.072 -0.7038  0.9591  0.2325
 5162SOL    HW127119   3.183   0.473   6.102 -4.8118  1.3190  1.5047
 5162SOL    HW227120   3.085   0.391   6.022  0.1475  1.0620 -1.1163
 5163SOL     OW27121   0.405   2.841  16.569 -0.1208  0.1263  0.3004
 5163SOL    HW127122   0.410   2.933  16.542 -2.0574  0.1455 -0.0029
 5163SOL    HW227123   0.325   2.817  16.522  0.2405 -0.9371  0.2312
 5164SOL     OW27124   3.740   3.260   2.157 -0.0065 -0.8252 -0.1002
 5164SOL    HW127125   3.735   3.222   2.069  1.1298 -1.2677  0.0285
 5164SOL    HW227126   3.658   3.310   2.165  0.3123 -0.1133 -1.3349
 5165SOL     OW27127   2.026   4.197   8.646  0.0196  0.5622  0.1846
 5165SOL    HW127128   2.110   4.190   8.692 -0.3977 -0.6802  0.7466
 5165SOL    HW227129   1.976   4.139   8.704 -1.7204  3.0310  1.1642
 5166SOL     OW27130   4.049   1.306  17.659  0.4408  0.1876  0.2595
 5166SOL    HW127131   4.124   1.257  17.626  0.6556 -0.8510  2.3135
 5166SOL    HW227132   4.072   1.312  17.752 -0.0884 -0.4331  0.4269
 5167SOL     OW27133   0.537   1.421  16.516 -0.5436  0.0178  0.1486
 5167SOL    HW127134   0.487   1.470  16.581 -1.2920  0.2976 -0.6428
 5167SOL    HW227135   0.558   1.342  16.567 -1.0084  0.7953  1.5416
 5168SOL     OW27136   4.735   0.809   3.053 -0.3522  0.9625  0.3195
 5168SOL    HW127137   0.056   0.863   3.102  2.4881 -2.1471  0.2078
 5168SOL    HW227138   4.660   0.867   3.040 -1.7883 -0.4607  2.3338
 5169SOL     OW27139   1.147   3.977  16.552 -0.0638  0.3208  0.0715
 5169SOL    HW127140   1.147   3.898  16.605  1.2072  1.2395  1.4148
 5169SOL    HW227141   1.210   3.944  16.489 -0.9785  0.4852 -0.9372
 5170SOL     OW27142   2.228   4.535   4.295 -0.3434 -0.5218  0.2377
 5170SOL    HW127143   2.174   4.599   4.248  0.9915  1.1945  1.0694
 5170SOL    HW227144   2.257   4.582   4.373 -0.5184 -1.1859  0.7000
 5171SOL     OW27145   2.988   1.676   6.141  0.1297 -0.2301  0.1845
 5171SOL    HW127146   2.948   1.633   6.066  1.1208 -1.5821  0.4481
 5171SOL    HW227147   3.076   1.645   6.161  0.4197  0.5235  0.0950
 5172SOL     OW27148   4.036   0.790   0.742  0.2857  0.4166  0.6283
 5172SOL    HW127149   4.062   0.713   0.692  2.2381  1.6002 -0.1807
 5172SOL    HW227150   4.116   0.842   0.742  1.1368 -0.8381  3.5953
 5173SOL     OW27151   1.475   3.597   3.257  0.2993 -0.0251  0.0685
 5173SOL    HW127152   1.443   3.655   3.326 -1.3297  0.0933 -0.7875
 5173SOL    HW227153   1.554   3.642   3.227  0.9344 -1.0862  0.1583
 5174SOL     OW27154   3.077   1.071   6.864  0.0581 -0.1692  0.0962
 5174SOL    HW127155   3.109   1.035   6.946  0.2092  1.4430  0.7454
 5174SOL    HW227156   2.988   1.096   6.889 -0.9881 -3.8312  0.0142
 5175SOL     OW27157   1.451   1.459   6.013 -0.1337 -0.1295 -0.2728
 5175SOL    HW127158   1.397   1.383   5.990  0.9561 -1.1489  0.5073
 5175SOL    HW227159   1.464   1.447   6.107 -0.0824 -2.4295 -0.5823
 5176SOL     OW27160   1.895   2.311   4.614  0.6805  0.9683 -0.3922
 5176SOL    HW127161   1.828   2.326   4.681 -1.1497 -0.3740 -1.9393
 5176SOL    HW227162   1.855   2.338   4.531 -0.0690  0.7260 -0.1087
 5177SOL     OW27163   0.914   1.517   0.856 -0.6066  0.0824  0.2478
 5177SOL    HW127164   0.870   1.435   0.881  0.8501 -0.5683  0.6640
 5177SOL    HW227165   0.990   1.519   0.915  1.1560 -1.7481 -1.9580
 5178SOL     OW27166   4.678   0.394   2.519 -0.1742 -0.6350  0.5271
 5178SOL    HW127167   4.668   0.407   2.425  1.0725 -2.5818  0.1112
 5178SOL    HW227168   4.596   0.348   2.536 -0.4999  0.5680  2.1552
 5179SOL     OW27169   3.692   0.046   7.388 -0.7032  1.0068  0.2277
 5179SOL    HW127170   3.642   0.109   7.439 -0.9457  0.5198  0.5930
 5179SOL    HW227171   3.617   4.740   7.351 -0.2536  1.1179 -0.8354
 5180SOL     OW27172   3.604   1.726   0.871  0.3219  0.2228 -0.7852
 5180SOL    HW127173   3.639   1.810   0.841 -1.2812  1.3133  0.3615
 5180SOL    HW227174   3.611   1.749   0.964  0.1116  0.7430 -0.8959
 5181SOL     OW27175   2.084   1.318   9.925 -0.3221  0.1568 -0.2559
 5181SOL    HW127176   2.078   1.405   9.963  0.6180 -0.1761  0.6566
 5181SOL    HW227177   2.060   1.337   9.834  2.4751 -1.3430 -1.2940
 5182SOL     OW27178   3.204   3.882   7.754 -0.4921  0.2853  0.1553
 5182SOL    HW127179   3.226   3.792   7.778  0.8268  0.1200 -1.5917
 5182SOL    HW227180   3.165   3.871   7.667  1.4894 -2.3538 -0.3835
 5183SOL     OW27181   2.097   2.544  12.305 -0.1648  0.2244 -0.1301
 5183SOL    HW127182   2.025   2.587  12.351  0.1971 -0.3853  0.9832
 5183SOL    HW227183   2.063   2.455  12.315  2.6054 -1.2865 -3.9475
 5184SOL     OW27184   2.036   4.203   9.877 -0.0148  0.0737 -0.0419
 5184SOL    HW127185   2.028   4.253   9.958  0.6885 -2.0963  1.3729
 5184SOL    HW227186   1.954   4.229   9.835 -0.2340  2.1839  1.7185
 5185SOL     OW27187   0.915   4.306   4.370 -0.4197  0.0227  0.4724
 5185SOL    HW127188   0.992   4.280   4.421  0.4621  1.0801 -0.3180
 5185SOL    HW227189   0.935   4.267   4.285 -0.3601 -1.1260  1.0152
 5186SOL     OW27190   3.448   3.230   8.048  0.1047  0.6583 -0.0359
 5186SOL    HW127191   3.390   3.288   7.999 -0.3957  1.4671  1.5219
 5186SOL    HW227192   3.407   3.148   8.019  0.7696 -0.1206  1.1986
 5187SOL     OW27193   2.614   2.078   6.601 -0.2851 -0.1316  0.0235
 5187SOL    HW127194   2.593   2.002   6.656  1.5289 -1.7835 -1.5408
 5187SOL    HW227195   2.677   2.127   6.654  0.7090  0.4105 -1.6633
 5188SOL     OW27196   0.263   1.838   4.285  0.2149 -0.4013  0.0864
 5188SOL    HW127197   0.194   1.792   4.333 -1.1870  2.7312  1.0581
 5188SOL    HW227198   0.224   1.844   4.197 -1.4114  1.2396  0.9153
 5189SOL     OW27199   1.235   2.839   7.455  0.1163  0.0790  0.1190
 5189SOL    HW127200   1.190   2.812   7.375 -2.5450  2.8873  0.6836
 5189SOL    HW227201   1.218   2.933   7.449  1.0004  0.2077 -0.3490
 5190SOL     OW27202   2.636   4.694   5.729  0.5635  0.0866 -0.0267
 5190SOL    HW127203   2.586   4.613   5.741  1.9044 -0.8113 -0.5323
 5190SOL    HW227204   2.645   4.705   5.635 -2.7598 -3.0188 -0.7180
 5191SOL     OW27205   1.573   1.913   6.970 -0.6015  0.2110  0.3389
 5191SOL    HW127206   1.652   1.963   6.946  0.6822 -2.0104 -0.0862
 5191SOL    HW227207   1.570   1.935   7.063  2.5882  1.3664  0.1942
 5192SOL     OW27208   0.741   4.462   9.931 -0.3564  0.0847  0.0052
 5192SOL    HW127209   0.652   4.433   9.950 -0.7107  0.3516 -1.2811
 5192SOL    HW227210   0.765   4.497  10.017 -1.8163  2.3472 -0.5295
 5193SOL     OW27211   1.837   0.842  10.081  0.1883 -0.0094  0.5202
 5193SOL    HW127212   1.768   0.907  10.070  1.0712  0.8692  0.2498
 5193SOL    HW227213   1.907   0.893  10.120  1.6903 -0.1152 -2.0311
 5194SOL     OW27214   4.045   0.116   1.911 -0.1154  0.0351  0.1240
 5194SOL    HW127215   4.133   0.146   1.935  0.3766 -0.5931 -0.8426
 5194SOL    HW227216   4.001   0.134   1.994 -1.3391 -0.6090 -0.3780
 5195SOL     OW27217   4.074   0.583   6.614 -0.1879  0.4909  0.2357
 5195SOL    HW127218   4.079   0.525   6.537  1.0986 -1.0585  1.4874
 5195SOL    HW227219   4.165   0.613   6.619  0.0215 -0.0985  0.0010
 5196SOL     OW27220   4.008   2.419  10.826  0.1547 -1.0886 -0.0952
 5196SOL    HW127221   3.914   2.416  10.811  0.2044 -3.1491  0.0674
 5196SOL    HW227222   4.040   2.329  10.826  0.2036 -1.0731 -1.0787
 5197SOL     OW27223   3.457   4.316   6.298  0.1447  0.1270  0.2989
 5197SOL    HW127224   3.523   4.265   6.346  1.6487 -1.5958 -3.6003
 5197SOL    HW227225   3.377   4.266   6.318  1.0186 -1.1026  0.7255
 5198SOL     OW27226   0.446   0.770   0.749 -0.5153 -0.1803  0.4764
 5198SOL    HW127227   0.371   0.828   0.753 -0.8561 -0.5118 -1.1553
 5198SOL    HW227228   0.416   0.681   0.763 -0.7009 -0.4635 -1.7355
 5199SOL     OW27229   0.069   3.560  13.937 -0.1171  0.0523 -0.0342
 5199SOL    HW127230   0.005   3.489  13.933  0.5340 -0.4189 -1.7253
 5199SOL    HW227231   0.030   3.590  14.020  0.7047  0.2174  0.2968
 5200SOL     OW27232   2.649   4.623   5.252 -0.6141  0.1247  0.0596
 5200SOL    HW127233   2.589   4.548   5.249 -0.5952  0.0978  0.3407
 5200SOL    HW227234   2.584   4.686   5.281 -0.8638 -0.9334  1.8627
 5201SOL     OW27235   2.444   3.905   9.250  0.0485 -0.1260  0.4041
 5201SOL    HW127236   2.495   3.839   9.203 -0.6901  1.1501 -2.1653
 5201SOL    HW227237   2.474   3.896   9.341 -0.5829  1.4724  0.7592
 5202SOL     OW27238   0.145   3.413   3.338  0.1560 -0.0690 -0.7283
 5202SOL    HW127239   0.134   3.507   3.323  1.2418  0.2007  0.1432
 5202SOL    HW227240   0.219   3.400   3.279 -1.7552 -0.5343 -3.0454
 5203SOL     OW27241   3.802   0.017   5.128  0.0712 -0.1495 -0.3740
 5203SOL    HW127242   3.765   4.669   5.125  0.0849 -0.2620  2.3661
 5203SOL    HW227243   3.755   0.057   5.201  4.4852  0.6516  2.0109
 5204SOL     OW27244   1.017   2.173   2.361 -0.1520 -0.8942  0.1811
 5204SOL    HW127245   1.053   2.261   2.361 -1.2120 -0.4699  1.4379
 5204SOL    HW227246   1.100   2.124   2.368  0.1539 -0.6662 -1.7302
 5205SOL     OW27247   4.309   1.308   4.666 -0.1028 -0.2135  0.3457
 5205SOL    HW127248   4.330   1.324   4.574 -1.3993  2.1523  0.4658
 5205SOL    HW227249   4.329   1.388   4.714 -0.2859  1.6072 -2.6718
 5206SOL     OW27250   3.279   0.515  12.044  0.3000  0.9479 -0.0581
 5206SOL    HW127251   3.267   0.577  11.973 -0.0812 -1.1697 -1.8203
 5206SOL    HW227252   3.356   0.555  12.086  0.2072  0.1577  0.8709
 5207SOL     OW27253   3.639   0.015   2.027  0.1612 -0.0796  0.1918
 5207SOL    HW127254   3.707   0.080   2.045 -0.4264  0.3351  0.9429
 5207SOL    HW227255   3.677   4.701   1.958  0.7542  0.2418  0.2732
 5208SOL     OW27256   3.271   1.009  13.669  0.1462  0.2033 -0.2900
 5208SOL    HW127257   3.326   1.063  13.612  2.2757  0.4182  1.9560
 5208SOL    HW227258   3.280   1.053  13.753 -0.5796 -0.1111 -0.0513
 5209SOL     OW27259   3.799   0.021   3.746  0.3034 -0.4646  0.0647
 5209SOL    HW127260   3.885   0.053   3.717  0.3707 -1.0623 -0.3812
 5209SOL    HW227261   3.827   4.671   3.765  0.0862 -0.9231 -1.8429
 5210SOL     OW27262   1.483   1.009   0.667  0.2529  0.4740  0.7311
 5210SOL    HW127263   1.549   1.065   0.625 -0.5103  0.7460 -0.1072
 5210SOL    HW227264   1.507   0.936   0.610  0.1377  0.6963  0.3999
 5211SOL     OW27265   2.019   4.020   2.913  0.0847 -0.0086 -0.4759
 5211SOL    HW127266   2.087   3.960   2.942  0.5664  1.2167  0.9299
 5211SOL    HW227267   2.071   4.101   2.912  0.8482 -0.5129 -1.9640
 5212SOL     OW27268   0.507   0.568  14.382 -0.0932  0.4275  0.3201
 5212SOL    HW127269   0.555   0.636  14.429 -0.6096  0.5995  0.5996
 5212SOL    HW227270   0.512   0.489  14.437  0.2605 -0.7705 -1.4483
 5213SOL     OW27271   0.926   3.834  11.951 -0.0195  0.3048 -0.6201
 5213SOL    HW127272   0.836   3.837  11.983 -0.0189  0.7731 -0.6602
 5213SOL    HW227273   0.984   3.863  12.021 -0.5587 -0.4538  0.1461
 5214SOL     OW27274   1.744   2.312   1.868  0.7029  0.2210 -0.5819
 5214SOL    HW127275   1.822   2.357   1.835  0.1269  1.4708 -0.2643
 5214SOL    HW227276   1.720   2.260   1.792  1.3478  0.2763 -0.8242
 5215SOL     OW27277   2.771   4.664   4.566  0.1327  0.2080  0.7011
 5215SOL    HW127278   2.847   4.641   4.513 -0.1824  2.7788 -0.8464
 5215SOL    HW227279   2.726   4.732   4.516 -1.8404 -0.4440  1.5659
 5216SOL     OW27280   4.405   2.382   2.583 -0.3974  0.4731 -0.0423
 5216SOL    HW127281   4.335   2.376   2.518 -0.4273 -1.9137  0.2112
 5216SOL    HW227282   4.454   2.445   2.530 -1.8407  1.2920 -0.3907
 5217SOL     OW27283   1.464   3.598   1.854 -0.4278  0.5200  0.4367
 5217SOL    HW127284   1.503   3.586   1.941  3.0490  1.0305 -1.0576
 5217SOL    HW227285   1.544   3.602   1.801  0.1531 -1.4955  1.1552
 5218SOL     OW27286   3.912   2.324   9.780  0.2765  0.0935  0.1658
 5218SOL    HW127287   3.845   2.340   9.847  0.6613  0.5747  0.4347
 5218SOL    HW227288   3.869   2.351   9.699 -0.8756 -2.8533 -0.2095
 5219SOL     OW27289   1.831   3.915  12.728 -0.5695  0.5111  0.4480
 5219SOL    HW127290   1.841   4.010  12.730 -0.8057  0.5344  0.5342
 5219SOL    HW227291   1.917   3.876  12.710 -0.7087  0.0040  0.8716
 5220SOL     OW27292   1.265   0.744   6.908 -0.2177  0.0977 -0.0890
 5220SOL    HW127293   1.299   0.781   6.989  1.0381 -2.6332  0.6235
 5220SOL    HW227294   1.316   0.663   6.898  1.4421  1.2508 -0.9027
 5221SOL     OW27295   3.191   3.042  11.502  0.3018 -0.3210 -0.1855
 5221SOL    HW127296   3.287   3.042  11.500  0.3202  1.7111  0.1029
 5221SOL    HW227297   3.167   3.076  11.415  2.3195 -0.5460 -0.8389
 5222SOL     OW27298   4.365   4.087  16.495  0.1140  0.1521 -0.0804
 5222SOL    HW127299   4.381   4.170  16.539 -0.2047  0.5770 -0.7816
 5222SOL    HW227300   4.404   4.038  16.568 -2.8775 -2.5135 -0.2982
 5223SOL     OW27301   4.656   1.260  15.223  0.3688  0.3855  0.1599
 5223SOL    HW127302   4.708   1.189  15.183  1.0018 -0.1033  1.8297
 5223SOL    HW227303   4.581   1.209  15.253  0.6779  0.4593  1.0681
 5224SOL     OW27304   2.098   3.926   5.965  0.2071  0.5320  0.0482
 5224SOL    HW127305   2.068   3.972   5.887 -1.2772 -1.3700 -0.5088
 5224SOL    HW227306   2.130   3.993   6.026  0.2396  0.3548  0.2258
 5225SOL     OW27307   3.562   4.372  14.603 -0.3620  0.4365  0.5625
 5225SOL    HW127308   3.611   4.302  14.560 -1.2180  1.0267 -1.4002
 5225SOL    HW227309   3.483   4.333  14.640  0.1155 -0.7606  0.3128
 5226SOL     OW27310   3.562   4.257   8.159 -0.7760  0.2519 -0.4076
 5226SOL    HW127311   3.645   4.213   8.141 -0.7699  0.6618 -1.4221
 5226SOL    HW227312   3.561   4.320   8.087 -0.8093 -0.1836 -0.7888
 5227SOL     OW27313   0.910   3.548   6.615  0.2164 -0.3721 -0.1360
 5227SOL    HW127314   0.908   3.573   6.523  0.2412 -1.5782 -0.4640
 5227SOL    HW227315   0.933   3.625   6.667 -3.0674  0.4444  0.1010
 5228SOL     OW27316   1.906   0.527  17.035 -0.1469 -0.6319  0.3998
 5228SOL    HW127317   1.845   0.504  17.105 -0.2017  0.7857  0.8072
 5228SOL    HW227318   1.984   0.482  17.068  0.6908 -0.3889 -1.2454
 5229SOL     OW27319   1.648   1.143   5.587  0.0645 -0.2402  0.0731
 5229SOL    HW127320   1.602   1.214   5.631  1.2142  0.4325  0.1661
 5229SOL    HW227321   1.575   1.084   5.568  0.3270 -0.5478  0.0151
 5230SOL     OW27322   3.679   3.034   2.771  0.7471  0.2738  0.3047
 5230SOL    HW127323   3.765   3.073   2.755  0.6477 -0.0180 -0.9183
 5230SOL    HW227324   3.683   2.948   2.728 -2.0815 -0.4286  1.4547
 5231SOL     OW27325   0.875   3.424  17.152 -0.8887  0.5803 -0.4389
 5231SOL    HW127326   0.899   3.335  17.125 -1.5894 -0.4858  2.4636
 5231SOL    HW227327   0.864   3.401  17.244  0.8190  1.1747 -0.0867
 5232SOL     OW27328   3.911   1.693   3.248  0.2456  0.1162 -0.8599
 5232SOL    HW127329   3.843   1.744   3.202  1.3718  1.5360 -0.9522
 5232SOL    HW227330   3.948   1.763   3.302 -3.6158 -0.2789  2.2348
 5233SOL     OW27331   1.875   3.225   8.580  0.2989 -0.0268 -0.0138
 5233SOL    HW127332   1.956   3.223   8.631  0.1690  0.1964  0.2018
 5233SOL    HW227333   1.892   3.286   8.509  1.0853 -1.8591 -1.3868
 5234SOL     OW27334   2.290   1.882   3.326 -0.1137 -0.2562 -0.3077
 5234SOL    HW127335   2.205   1.838   3.333 -1.0056  1.4004 -0.8225
 5234SOL    HW227336   2.317   1.861   3.416 -0.3683 -0.1133 -0.1971
 5235SOL     OW27337   0.261   2.829   9.476  0.1350 -0.0116  0.9645
 5235SOL    HW127338   0.342   2.875   9.497  1.4060 -1.8645  0.1753
 5235SOL    HW227339   0.282   2.794   9.389  0.5183 -0.3980  1.2067
 5236SOL     OW27340   4.113   1.591   4.240  0.2055 -0.4740  0.1972
 5236SOL    HW127341   4.196   1.554   4.270  0.3298 -1.2952 -1.1538
 5236SOL    HW227342   4.095   1.518   4.181 -2.5125  0.7106 -0.3982
 5237SOL     OW27343   1.612   3.658   8.519 -0.6453 -0.0169  0.1441
 5237SOL    HW127344   1.565   3.741   8.529  1.8607  1.2103  1.7302
 5237SOL    HW227345   1.692   3.677   8.567 -0.0371 -0.6208 -0.6431
 5238SOL     OW27346   1.910   1.886   9.249 -0.1377 -0.1642  1.0858
 5238SOL    HW127347   2.004   1.907   9.250  0.0632 -0.9674 -0.1355
 5238SOL    HW227348   1.891   1.873   9.341 -0.6363  1.2193  1.1792
 5239SOL     OW27349   4.245   0.280   2.683  0.1319 -0.3747 -0.2707
 5239SOL    HW127350   4.197   0.213   2.732 -1.4760  1.2767  0.4223
 5239SOL    HW227351   4.172   0.311   2.628 -1.1139  0.2844  1.7472
 5240SOL     OW27352   2.860   1.130   1.246  0.2409  0.3285  0.4662
 5240SOL    HW127353   2.890   1.206   1.296  0.0411 -0.3974  1.7009
 5240SOL    HW227354   2.902   1.055   1.290  1.5510  0.5980 -0.3361
 5241SOL     OW27355   0.714   0.860  11.540 -0.1859 -0.3483 -0.2929
 5241SOL    HW127356   0.804   0.845  11.571  0.5033 -0.9048 -2.5591
 5241SOL    HW227357   0.693   0.779  11.494  1.5861 -1.3203  0.5744
 5242SOL     OW27358   2.988   4.516   7.728  0.1528  0.2565  0.3843
 5242SOL    HW127359   3.031   4.580   7.785 -0.5512  1.6070 -0.5966
 5242SOL    HW227360   2.946   4.567   7.659  1.1733  0.3480 -0.1666
 5243SOL     OW27361   0.243   2.245  11.745 -0.1091 -0.5968  0.4474
 5243SOL    HW127362   0.274   2.317  11.691  0.8336 -2.1706 -1.1256
 5243SOL    HW227363   0.323   2.232  11.795  0.5385 -0.9735 -0.6868
 5244SOL     OW27364   2.994   1.195  12.521  0.0749 -0.0834  0.2628
 5244SOL    HW127365   2.915   1.242  12.496 -0.1278 -0.0573  0.9452
 5244SOL    HW227366   2.953   1.136  12.584 -3.9166  0.0419 -2.2698
 5245SOL     OW27367   4.662   2.290   4.164 -0.1160 -0.4590  0.4089
 5245SOL    HW127368   4.586   2.232   4.168 -0.8885  0.4414 -1.1094
 5245SOL    HW227369   4.620   2.375   4.149 -1.4819 -0.8585  2.0407
 5246SOL     OW27370   1.171   0.499   7.171  0.0761 -0.0733  0.3259
 5246SOL    HW127371   1.092   0.460   7.133 -0.3408 -1.1672  2.2958
 5246SOL    HW227372   1.209   0.534   7.091  0.8620 -1.5932  0.0307
 5247SOL     OW27373   1.574   2.999   1.375  0.4932 -0.0613  0.2622
 5247SOL    HW127374   1.532   2.982   1.291 -1.2724 -1.3694  1.4162
 5247SOL    HW227375   1.659   2.977   1.336  0.1756 -0.7219 -0.0623
 5248SOL     OW27376   1.440   1.604   5.570 -0.3395 -0.3355  0.7764
 5248SOL    HW127377   1.401   1.606   5.483  2.3959 -0.3673 -0.4540
 5248SOL    HW227378   1.430   1.695   5.598  0.5587 -0.8685  2.8616
 5249SOL     OW27379   1.695   3.193   2.799 -0.0251  0.5407  0.5240
 5249SOL    HW127380   1.600   3.191   2.811 -0.2011  2.3704 -0.5821
 5249SOL    HW227381   1.706   3.226   2.710 -0.2426  1.2216  0.7518
 5250SOL     OW27382   2.306   2.444   5.908  0.1014  0.1127 -0.1108
 5250SOL    HW127383   2.295   2.538   5.922  1.1501 -0.1391  2.4508
 5250SOL    HW227384   2.353   2.421   5.988  1.2765 -1.3075 -1.2039
 5251SOL     OW27385   3.071   3.281  16.451  0.2904  0.4372  0.4909
 5251SOL    HW127386   3.043   3.373  16.458  1.0705  0.5818  1.6595
 5251SOL    HW227387   3.070   3.271  16.356 -0.0432 -1.8330  0.7332
 5252SOL     OW27388   1.691   0.510   5.374 -0.3305  0.7238 -0.4018
 5252SOL    HW127389   1.779   0.544   5.384  0.2772 -1.0699  0.4329
 5252SOL    HW227390   1.688   0.508   5.278 -1.0291  0.6184 -0.3754
 5253SOL     OW27391   3.020   1.055  15.575  0.0142 -0.2685 -0.2163
 5253SOL    HW127392   3.018   1.042  15.670 -1.8104 -0.5392 -0.2892
 5253SOL    HW227393   2.976   1.140  15.565  0.4721 -0.3536 -2.9248
 5254SOL     OW27394   1.452   0.496   7.068  0.0508 -0.0242  0.3112
 5254SOL    HW127395   1.378   0.470   7.014  0.3528 -0.6166  0.1832
 5254SOL    HW227396   1.515   0.437   7.026 -0.7079 -0.6337  0.0347
 5255SOL     OW27397   3.892   3.159   4.709  0.0693  0.3398  0.6167
 5255SOL    HW127398   3.913   3.246   4.677  1.2234  0.1553  0.8878
 5255SOL    HW227399   3.913   3.111   4.629 -0.8292 -0.2524  0.7288
 5256SOL     OW27400   2.743   1.825   9.497 -0.4859  0.1074  0.4309
 5256SOL    HW127401   2.748   1.800   9.405  1.3524  0.6912  0.3655
 5256SOL    HW227402   2.731   1.739   9.538 -1.7499 -0.2690 -0.7272
 5257SOL     OW27403   2.611   3.415  13.466 -0.7260  0.3942  0.2615
 5257SOL    HW127404   2.522   3.411  13.432 -0.7497  0.2870  0.3398
 5257SOL    HW227405   2.645   3.357  13.398 -0.1658  1.8202 -0.6740
 5258SOL     OW27406   4.716   1.301   9.615 -0.4264 -0.3425  0.7836
 5258SOL    HW127407   4.715   1.210   9.644 -1.4784  0.0318  1.9398
 5258SOL    HW227408   0.016   1.338   9.694 -0.6307  0.9581  0.2869
 5259SOL     OW27409   3.281   0.371   5.617 -0.0353  0.4340 -0.1512
 5259SOL    HW127410   3.279   0.437   5.548  0.8045 -1.2190 -1.7672
 5259SOL    HW227411   3.332   0.430   5.674 -0.7397  0.7206  0.1776
 5260SOL     OW27412   3.905   0.041  10.159  0.2484  0.9765 -0.2053
 5260SOL    HW127413   3.828   0.098  10.167  0.2470  0.7608  1.3572
 5260SOL    HW227414   3.944   0.074  10.240 -0.5787  0.0654  0.5612
 5261SOL     OW27415   1.924   1.849   6.509 -0.3690  0.6178 -0.1442
 5261SOL    HW127416   2.016   1.828   6.518 -0.8841 -2.0730 -1.0702
 5261SOL    HW227417   1.906   1.876   6.599 -1.7381  0.9189 -0.4932
 5262SOL     OW27418   0.071   4.050   5.307 -0.0864 -0.3640 -0.2554
 5262SOL    HW127419   4.725   4.012   5.325 -0.1207  0.3729  1.1370
 5262SOL    HW227420   0.106   4.077   5.392  1.5249 -3.2636  0.0002
 5263SOL     OW27421   2.315   2.910  16.577  0.0073 -0.7610  0.3779
 5263SOL    HW127422   2.374   2.963  16.631  1.7584 -0.5856 -1.7025
 5263SOL    HW227423   2.304   2.840  16.641 -0.5068 -0.8112  0.2381
 5264SOL     OW27424   3.967   3.707  16.816  0.1877 -0.4206 -0.8357
 5264SOL    HW127425   3.919   3.687  16.735 -0.5659 -1.4590 -0.1219
 5264SOL    HW227426   4.033   3.643  16.841  0.3758  0.3485  0.6485
 5265SOL     OW27427   1.602   3.355   9.494 -0.1974  0.0040 -0.7633
 5265SOL    HW127428   1.693   3.382   9.506 -0.3029  0.1340 -0.2833
 5265SOL    HW227429   1.557   3.434   9.465  1.1261  0.3452 -1.8623
 5266SOL     OW27430   1.652   0.460   9.585 -0.0784 -0.4967 -0.1217
 5266SOL    HW127431   1.725   0.523   9.592  0.1721 -0.9151  0.9861
 5266SOL    HW227432   1.671   0.424   9.498  1.8776 -0.7241  0.4051
 5267SOL     OW27433   2.646   0.270   5.198 -0.4002  0.2646  0.0250
 5267SOL    HW127434   2.667   0.194   5.144 -0.4249  0.8097 -0.7520
 5267SOL    HW227435   2.641   0.231   5.285 -1.9563 -3.6579 -1.8401
 5268SOL     OW27436   4.410   4.170   6.295  0.7417 -0.0839 -0.1504
 5268SOL    HW127437   4.331   4.201   6.250  1.4721  1.7259 -0.1953
 5268SOL    HW227438   4.424   4.083   6.257  2.3910  0.8381 -1.6458
 5269SOL     OW27439   2.423   0.556   8.534  0.0143 -0.4506 -0.5114
 5269SOL    HW127440   2.449   0.647   8.545  0.2514 -0.5711 -0.1008
 5269SOL    HW227441   2.422   0.527   8.625  0.9096  1.9659  0.2746
 5270SOL     OW27442   2.638   2.498  16.065  0.1779 -0.3554  0.1643
 5270SOL    HW127443   2.558   2.477  16.016  2.0940 -0.2519 -2.9533
 5270SOL    HW227444   2.680   2.414  16.084 -2.1956 -1.3053  1.3094
 5271SOL     OW27445   4.416   1.538   5.238  0.0004  0.2935  0.1380
 5271SOL    HW127446   4.322   1.519   5.246 -0.4472  2.7733  0.6618
 5271SOL    HW227447   4.430   1.624   5.278  0.8910 -0.0282  0.5222
 5272SOL     OW27448   2.662   4.441   7.411 -0.1307  0.1075 -0.2005
 5272SOL    HW127449   2.617   4.471   7.332  0.4558  1.2319 -0.1095
 5272SOL    HW227450   2.748   4.482   7.402 -0.7236  0.8855 -2.3981
 5273SOL     OW27451   1.182   0.140   9.121  0.5848  0.4156 -0.2635
 5273SOL    HW127452   1.262   0.095   9.149 -1.3053 -1.6576  1.7534
 5273SOL    HW227453   1.122   0.066   9.116  0.3729  0.6858 -1.7123
 5274SOL     OW27454   2.690   2.269   7.561  0.2382  0.5889  0.1788
 5274SOL    HW127455   2.667   2.254   7.652 -1.3967 -1.1510 -0.5104
 5274SOL    HW227456   2.718   2.179   7.544  0.1385  0.9195 -1.8062
 5275SOL     OW27457   3.174   3.056  15.420 -0.5752 -0.3873  0.7155
 5275SOL    HW127458   3.219   3.026  15.499 -0.4838 -1.4313  0.2615
 5275SOL    HW227459   3.105   3.095  15.474 -0.4302 -2.1048  2.1543
 5276SOL     OW27460   4.417   1.125   1.095 -0.1900  0.0852  0.3321
 5276SOL    HW127461   4.342   1.106   1.151  0.6647 -4.2647 -0.0336
 5276SOL    HW227462   4.465   1.043   1.086  1.2397  1.1730 -2.0611
 5277SOL     OW27463   4.379   2.010   2.307  0.1157  0.4825 -0.0064
 5277SOL    HW127464   4.376   1.916   2.322  5.1401  0.1937 -0.7983
 5277SOL    HW227465   4.287   2.026   2.284 -0.5896 -0.9024  1.8238
 5278SOL     OW27466   2.080   3.849  12.656  0.5048 -0.2277  0.1108
 5278SOL    HW127467   2.133   3.887  12.726  3.6168 -1.0160 -1.8004
 5278SOL    HW227468   2.138   3.838  12.581  0.8282  0.3499  0.2775
 5279SOL     OW27469   0.036   1.657   8.754 -0.0025  0.0516 -0.3747
 5279SOL    HW127470   4.734   1.661   8.840 -1.6119 -2.2274 -1.0603
 5279SOL    HW227471   4.700   1.637   8.700  1.5654 -2.0003 -1.8592
 5280SOL     OW27472   4.730   0.987   5.134 -0.4789  0.3289  0.5602
 5280SOL    HW127473   0.019   0.967   5.045  1.2843 -1.2143  1.4952
 5280SOL    HW227474   4.693   1.075   5.126  2.9033  1.7836  1.2390
 5281SOL     OW27475   1.318   1.616   7.646  0.6228  0.6492  0.0740
 5281SOL    HW127476   1.284   1.687   7.700 -0.1136 -0.4242  1.0080
 5281SOL    HW227477   1.366   1.662   7.577 -0.6498  0.6423 -0.8187
 5282SOL     OW27478   2.057   0.342   6.168  0.4891 -0.8638  0.1295
 5282SOL    HW127479   2.118   0.416   6.166  0.8298 -1.2837 -4.0640
 5282SOL    HW227480   2.004   0.355   6.089  1.4866 -1.0225 -0.5608
 5283SOL     OW27481   4.362   4.521  16.134 -0.0026  0.6145  0.2069
 5283SOL    HW127482   4.391   4.473  16.212 -2.2627 -0.2992  0.4682
 5283SOL    HW227483   4.410   4.605  16.136  0.9944 -0.0242  2.7797
 5284SOL     OW27484   4.622   0.526  14.800 -0.0719 -0.2161 -0.6120
 5284SOL    HW127485   4.649   0.437  14.821  2.9155  0.8633  0.0956
 5284SOL    HW227486   4.538   0.503  14.761 -0.6429  0.0299  0.4762
 5285SOL     OW27487   1.016   1.159   5.378 -0.4599 -0.2223 -0.1550
 5285SOL    HW127488   1.030   1.172   5.472  0.3662 -1.9996 -0.0306
 5285SOL    HW227489   0.928   1.197   5.377 -0.6392 -0.6249  0.3569
 5286SOL     OW27490   3.792   0.656   3.873  0.2929 -0.4024  0.5426
 5286SOL    HW127491   3.735   0.677   3.800  1.1343  1.4299  0.4214
 5286SOL    HW227492   3.740   0.587   3.914  0.1383 -0.9551 -0.5919
 5287SOL     OW27493   0.920   4.015   9.007 -0.3395  0.0240  0.3987
 5287SOL    HW127494   0.890   4.092   8.959  0.5228  0.8312  1.1459
 5287SOL    HW227495   0.842   3.978   9.049 -1.3349  2.9326  1.1263
 5288SOL     OW27496   2.310   0.720   8.214 -0.2318  0.1693 -0.1292
 5288SOL    HW127497   2.297   0.791   8.152 -0.5996 -0.2775 -0.5622
 5288SOL    HW227498   2.252   0.757   8.280  0.0427 -0.0734  0.2549
 5289SOL     OW27499   0.848   1.037   2.852  0.6285 -0.1446 -0.1277
 5289SOL    HW127500   0.936   1.001   2.861  0.8566  0.1095 -1.3508
 5289SOL    HW227501   0.805   0.956   2.824  0.9045 -0.2701 -0.1867
 5290SOL     OW27502   0.652   0.813   6.841 -0.0721 -0.2128 -0.2424
 5290SOL    HW127503   0.688   0.847   6.923 -0.1583  1.2608 -0.8216
 5290SOL    HW227504   0.715   0.863   6.789 -0.6349  0.5479 -0.1938
 5291SOL     OW27505   0.276   0.491   3.221  0.0592  0.2634  0.4670
 5291SOL    HW127506   0.331   0.521   3.148 -0.6893 -0.5649 -0.4230
 5291SOL    HW227507   0.196   0.487   3.170  1.3798 -1.5387 -1.4337
 5292SOL     OW27508   0.272   0.743   5.766  0.1093 -0.5771 -0.4623
 5292SOL    HW127509   0.218   0.783   5.698 -0.1179  0.6522  0.4556
 5292SOL    HW227510   0.301   0.668   5.713  0.9134  0.1126 -1.0038
 5293SOL     OW27511   1.409   4.630   5.840  0.1965 -0.2816 -0.9516
 5293SOL    HW127512   1.417   4.716   5.882  1.3065 -0.1269 -1.4996
 5293SOL    HW227513   1.438   4.571   5.909  0.4688  0.4425 -0.4493
 5294SOL     OW27514   1.321   1.071   6.870  0.6635  0.4732 -0.0174
 5294SOL    HW127515   1.407   1.107   6.849  1.7345 -1.5195  0.9719
 5294SOL    HW227516   1.302   1.092   6.962  1.7075 -1.1449  0.5661
 5295SOL     OW27517   2.491   3.362   4.477  0.7614  0.4147  0.7316
 5295SOL    HW127518   2.464   3.387   4.389  0.6366 -0.5231  0.5011
 5295SOL    HW227519   2.518   3.270   4.482 -0.3042  0.0495 -0.3378
 5296SOL     OW27520   1.017   2.727  12.839 -0.0783 -0.4873  0.1317
 5296SOL    HW127521   0.926   2.753  12.828 -0.5039 -2.0697 -0.0644
 5296SOL    HW227522   1.045   2.738  12.749 -0.4549 -0.9034 -0.0352
 5297SOL     OW27523   3.182   0.642   1.355  0.3442 -0.3154  0.5704
 5297SOL    HW127524   3.196   0.734   1.329  2.4668 -0.7007  0.3991
 5297SOL    HW227525   3.087   0.643   1.363  0.6189 -0.1801  3.4947
 5298SOL     OW27526   1.797   3.463   2.658 -0.1691  0.3859  0.0146
 5298SOL    HW127527   1.739   3.464   2.734 -1.5734 -1.2201 -1.0216
 5298SOL    HW227528   1.738   3.423   2.594 -0.7666 -0.0658  0.8510
 5299SOL     OW27529   2.940   4.452   5.411 -0.2393 -0.2356 -0.0695
 5299SOL    HW127530   2.967   4.485   5.326  1.2827 -1.7536 -0.1843
 5299SOL    HW227531   3.015   4.473   5.467 -1.3268  0.6338  1.0530
 5300SOL     OW27532   2.451   2.796   5.869  0.1336  0.4066 -0.4283
 5300SOL    HW127533   2.521   2.821   5.929 -0.4454  0.5739  0.1813
 5300SOL    HW227534   2.382   2.778   5.933  0.8964  1.6173  0.7312
 5301SOL     OW27535   3.820   2.018   1.116  0.2633 -0.3297 -0.1618
 5301SOL    HW127536   3.812   2.057   1.029  1.9872 -0.2818 -0.3033
 5301SOL    HW227537   3.810   2.091   1.177  0.3007 -0.9718  0.6193
 5302SOL     OW27538   3.379   0.826   5.539 -0.4171 -0.4622 -0.6925
 5302SOL    HW127539   3.434   0.762   5.494  1.2238  0.0221  0.6002
 5302SOL    HW227540   3.343   0.873   5.464  0.8797  2.6089  0.5915
 5303SOL     OW27541   2.943   2.400   8.814  0.3709  0.3014  0.3074
 5303SOL    HW127542   2.942   2.309   8.786  3.2747  0.7780 -1.3579
 5303SOL    HW227543   2.884   2.403   8.889 -0.1767  0.3449 -0.1301
 5304SOL     OW27544   2.710   2.814   7.308 -0.6278 -0.3349  0.0370
 5304SOL    HW127545   2.701   2.796   7.401 -0.3530  0.4055  0.2102
 5304SOL    HW227546   2.760   2.895   7.317 -0.6794 -0.4837  1.5300
 5305SOL     OW27547   2.762   2.013  16.862 -0.4366 -0.3554 -0.0762
 5305SOL    HW127548   2.695   1.952  16.830  1.6855 -1.4082 -2.5579
 5305SOL    HW227549   2.713   2.094  16.865 -2.3583 -1.5784  1.2753
 5306SOL     OW27550   0.527   4.674   4.394 -0.5030  0.1081  0.0352
 5306SOL    HW127551   0.586   4.602   4.416  0.6031  1.4028  1.3123
 5306SOL    HW227552   0.445   4.633   4.422  0.0188 -0.6116  0.5067
 5307SOL     OW27553   2.998   2.862   5.427 -0.4937 -0.0117 -0.1416
 5307SOL    HW127554   3.087   2.886   5.398 -1.1267  2.5161 -0.0336
 5307SOL    HW227555   3.026   2.802   5.496 -2.7211 -1.1276 -0.2116
 5308SOL     OW27556   0.838   4.308   4.738  0.2362 -0.6776  0.3453
 5308SOL    HW127557   0.749   4.293   4.768 -0.0497  1.6951  0.6511
 5308SOL    HW227558   0.845   4.404   4.738 -1.9664 -0.5294  1.1297
 5309SOL     OW27559   0.445   2.239  11.951 -0.2369 -0.4806  0.1138
 5309SOL    HW127560   0.446   2.232  12.046 -0.8079 -3.3995 -0.1135
 5309SOL    HW227561   0.540   2.239  11.942 -0.2178 -1.4098  0.3409
 5310SOL     OW27562   0.391   2.188   5.185  0.6215  0.4867  0.0266
 5310SOL    HW127563   0.467   2.179   5.243  0.7020  2.1707  0.1849
 5310SOL    HW227564   0.336   2.247   5.236  0.8278 -1.8249  2.9119
 5311SOL     OW27565   3.051   1.813   2.634  0.5242 -0.1838 -0.1395
 5311SOL    HW127566   3.062   1.729   2.677 -1.2199  0.1207  0.9042
 5311SOL    HW227567   2.955   1.822   2.633  0.8143  3.2644  0.4381
 5312SOL     OW27568   2.286   3.750   7.106  0.1233 -0.1786  0.5358
 5312SOL    HW127569   2.342   3.755   7.029 -0.3812  2.2884  0.3248
 5312SOL    HW227570   2.199   3.725   7.076  0.2851 -2.3979  1.9217
 5313SOL     OW27571   2.674   0.343   9.549  0.6330 -0.4893 -0.4608
 5313SOL    HW127572   2.759   0.372   9.581 -0.3748  1.6465  0.2947
 5313SOL    HW227573   2.691   0.250   9.561 -3.8050 -1.5531 -2.3959
 5314SOL     OW27574   0.427   2.121   2.691  0.1908  0.3310 -0.1604
 5314SOL    HW127575   0.336   2.139   2.668  0.6328  0.0918 -2.0758
 5314SOL    HW227576   0.451   2.068   2.615  0.7936 -1.7313  1.4752
 5315SOL     OW27577   4.013   1.055   5.414  0.5945  0.3255  0.2094
 5315SOL    HW127578   4.108   1.057   5.429  0.4622 -1.9549  1.3999
 5315SOL    HW227579   4.011   1.017   5.327 -0.6088 -1.3271  0.9557
 5316SOL     OW27580   3.737   3.514   4.017  0.3453 -0.6583 -0.0840
 5316SOL    HW127581   3.688   3.551   3.944  3.1304 -2.7144 -3.0021
 5316SOL    HW227582   3.688   3.432   4.024  0.5548 -0.7883 -0.1235
 5317SOL     OW27583   0.841   2.419   7.308  0.0282  0.0006 -0.1942
 5317SOL    HW127584   0.783   2.454   7.376  0.9173 -2.0929  1.6205
 5317SOL    HW227585   0.922   2.407   7.357  0.8488 -0.4405 -1.6739
 5318SOL     OW27586   3.067   0.712   8.433  0.5144 -0.2444  0.4631
 5318SOL    HW127587   3.086   0.805   8.444 -1.7082  0.4634 -1.4338
 5318SOL    HW227588   3.149   0.667   8.418  2.0605  1.8819  2.5600
 5319SOL     OW27589   2.867   4.285  16.057 -0.4588 -0.0450 -0.4590
 5319SOL    HW127590   2.824   4.366  16.084  0.3766  0.5754 -0.9947
 5319SOL    HW227591   2.811   4.219  16.097  0.2307 -1.4962 -1.9070
 5320SOL     OW27592   0.952   0.469   0.808 -0.7055 -0.8100  0.1433
 5320SOL    HW127593   0.940   0.519   0.889 -1.1334 -1.3388  0.4019
 5320SOL    HW227594   0.879   0.497   0.753 -1.6799  0.2914  2.0048
 5321SOL     OW27595   3.789   3.656   2.325 -0.2029  0.3738  0.5632
 5321SOL    HW127596   3.703   3.616   2.318  0.5013 -0.7355 -1.8333
 5321SOL    HW227597   3.781   3.714   2.400 -1.5725 -0.5049  1.0768
 5322SOL     OW27598   2.422   3.814  12.169 -0.1124 -0.3616  0.6144
 5322SOL    HW127599   2.499   3.870  12.162 -0.4216 -0.2297 -1.9708
 5322SOL    HW227600   2.435   3.791  12.261 -0.2419  0.2847  0.7916
 5323SOL     OW27601   2.647   3.492   6.646  0.7522  0.4221  0.3251
 5323SOL    HW127602   2.710   3.471   6.714  1.0510  3.0369  0.8708
 5323SOL    HW227603   2.572   3.442   6.678  0.5002  0.7081  0.1798
 5324SOL     OW27604   4.450   2.915   4.084  0.0574 -0.6141  0.1762
 5324SOL    HW127605   4.465   2.823   4.062 -0.7568 -1.0013  1.2358
 5324SOL    HW227606   4.362   2.928   4.049 -0.1070  0.6444  1.0485
 5325SOL     OW27607   0.835   4.679  11.417  0.2824 -0.4164 -0.8041
 5325SOL    HW127608   0.835   4.583  11.417  0.8191 -0.4182 -1.2504
 5325SOL    HW227609   0.749   4.688  11.460  0.4874  1.3935 -0.7715
 5326SOL     OW27610   3.842   2.899   7.854 -0.1493  0.0747 -0.0883
 5326SOL    HW127611   3.900   2.865   7.923 -1.4550 -1.8435  0.0858
 5326SOL    HW227612   3.896   2.963   7.809  1.8359 -0.2969  1.7851
 5327SOL     OW27613   1.330   0.091  14.392 -0.6260  0.3168  0.3969
 5327SOL    HW127614   1.343   0.060  14.303 -1.7389  0.6273  0.1154
 5327SOL    HW227615   1.395   0.161  14.397  0.2020 -0.4326 -0.0968
 5328SOL     OW27616   2.823   3.315   4.100  0.4313  0.1652  0.0465
 5328SOL    HW127617   2.814   3.253   4.028 -3.2382  0.4110  0.2852
 5328SOL    HW227618   2.738   3.305   4.143 -0.2377 -0.9205 -1.5333
 5329SOL     OW27619   3.779   3.080   4.219 -0.0851  0.2474 -0.0741
 5329SOL    HW127620   3.753   3.036   4.138 -2.1483  0.5934  0.3846
 5329SOL    HW227621   3.867   3.111   4.199 -0.3982  1.8003  0.9004
 5330SOL     OW27622   1.684   2.438   7.218  0.1112  0.4108  0.0743
 5330SOL    HW127623   1.681   2.425   7.124  2.3453 -0.5508  0.1197
 5330SOL    HW227624   1.718   2.526   7.233  0.0118  0.5700 -0.6646
 5331SOL     OW27625   3.146   3.080   2.778 -0.3444 -0.4070  0.0766
 5331SOL    HW127626   3.174   3.083   2.870  1.5446  2.7943 -0.6083
 5331SOL    HW227627   3.050   3.082   2.785 -0.4525 -1.3083 -1.1241
 5332SOL     OW27628   1.118   2.311   3.494  0.0606  0.0560 -0.5446
 5332SOL    HW127629   1.131   2.368   3.419  0.7236  1.8213  0.9171
 5332SOL    HW227630   1.147   2.229   3.452  0.9088 -0.8718  1.8357
 5333SOL     OW27631   1.440   1.011  14.466 -0.0436 -0.1564 -0.7468
 5333SOL    HW127632   1.346   1.000  14.455 -0.1807  1.0654 -0.8096
 5333SOL    HW227633   1.457   1.059  14.385  2.4620 -1.4072 -0.9796
 5334SOL     OW27634   1.044   1.849   9.283 -0.5326  0.1888  0.2301
 5334SOL    HW127635   1.075   1.805   9.203 -1.0814  1.7389 -0.8381
 5334SOL    HW227636   1.127   1.840   9.330 -0.1948 -1.2780 -0.6299
 5335SOL     OW27637   1.214   1.656   8.629  0.5145  0.2114  0.0169
 5335SOL    HW127638   1.278   1.646   8.700 -0.2794  0.8671  0.8219
 5335SOL    HW227639   1.180   1.568   8.617  1.5121 -0.2001  0.2075
 5336SOL     OW27640   3.517   2.076   6.224  0.2736 -0.4035  0.1732
 5336SOL    HW127641   3.472   2.013   6.168  0.1200 -0.2296  0.1024
 5336SOL    HW227642   3.457   2.081   6.298  0.9712 -0.3081  0.7328
 5337SOL     OW27643   1.553   4.471   4.351  0.2630 -0.2605  0.1315
 5337SOL    HW127644   1.551   4.388   4.398 -0.4547 -0.7423 -0.7562
 5337SOL    HW227645   1.547   4.534   4.423 -0.7663 -0.4328  0.2003
 5338SOL     OW27646   4.523   2.288   6.297 -0.3319 -0.5253  0.1580
 5338SOL    HW127647   4.607   2.248   6.319 -0.0103 -0.9306 -1.8143
 5338SOL    HW227648   4.495   2.325   6.380  1.9496  0.8394  0.3397
 5339SOL     OW27649   1.378   4.137   4.784 -0.5824 -0.1279 -0.0987
 5339SOL    HW127650   1.346   4.162   4.870  0.1677 -1.1982  0.4898
 5339SOL    HW227651   1.402   4.048   4.809  1.2946  0.8159  1.4046
 5340SOL     OW27652   0.748   0.813   5.738 -0.0103 -0.1385 -0.3312
 5340SOL    HW127653   0.771   0.727   5.774 -1.9802 -0.3466  0.4152
 5340SOL    HW227654   0.776   0.873   5.807  0.0193 -1.7727  1.0859
 5341SOL     OW27655   3.800   2.918  14.554 -0.2116 -0.1749  0.4738
 5341SOL    HW127656   3.804   2.944  14.646  1.1260  3.1638 -0.5015
 5341SOL    HW227657   3.736   2.847  14.552 -0.2185 -0.1489 -0.3552
 5342SOL     OW27658   2.025   0.992  10.208  0.5896  0.1044  0.1363
 5342SOL    HW127659   2.076   0.981  10.288  2.1750  4.2577 -0.2894
 5342SOL    HW227660   2.082   1.029  10.141 -0.7276 -0.2216 -1.1546
 5343SOL     OW27661   3.001   0.250   2.678 -0.1438  0.2132  0.6260
 5343SOL    HW127662   2.973   0.340   2.695 -0.7101 -0.0600  1.1408
 5343SOL    HW227663   3.002   0.245   2.582  1.9510  1.1152  0.6054
 5344SOL     OW27664   4.722   2.596   9.187 -0.3258 -0.0362  0.3919
 5344SOL    HW127665   0.029   2.514   9.176  1.3342  1.0466 -0.6319
 5344SOL    HW227666   0.000   2.637   9.103 -0.2551  1.5133  1.1632
 5345SOL     OW27667   3.263   1.228   6.201  0.5508 -0.4788 -0.4451
 5345SOL    HW127668   3.322   1.293   6.164 -0.4281  0.6544 -0.0203
 5345SOL    HW227669   3.313   1.200   6.278  0.2319 -2.2192 -0.8604
 5346SOL     OW27670   0.728   1.014   6.642 -0.3866 -0.3913 -0.0064
 5346SOL    HW127671   0.736   1.106   6.617 -0.7361 -0.5824 -0.7859
 5346SOL    HW227672   0.765   0.969   6.566 -1.6308  0.8218 -1.3234
 5347SOL     OW27673   3.232   3.717  14.738  0.3989 -0.6494 -0.6395
 5347SOL    HW127674   3.235   3.625  14.766  0.4009 -0.4672 -0.0522
 5347SOL    HW227675   3.316   3.744  14.776 -0.5557  0.2030  0.8272
 5348SOL     OW27676   1.934   1.469   5.483 -0.1880 -0.1477 -0.4597
 5348SOL    HW127677   1.998   1.464   5.554 -1.0722  2.6575  0.5082
 5348SOL    HW227678   1.885   1.387   5.492  1.5625 -1.4286 -2.5434
 5349SOL     OW27679   4.248   2.201   2.965 -0.0542 -0.3155  0.7848
 5349SOL    HW127680   4.289   2.200   2.878 -1.4983  1.1094  0.0846
 5349SOL    HW227681   4.231   2.293   2.985 -1.0197 -0.7711  2.0595
 5350SOL     OW27682   1.959   2.022   4.878  0.1006 -0.4058  0.1028
 5350SOL    HW127683   2.054   2.027   4.886 -0.1320  3.4087  0.4905
 5350SOL    HW227684   1.939   2.098   4.823  0.9922 -0.3447 -0.1408
 5351SOL     OW27685   4.263   2.268   4.290  0.4787  0.3148  0.2781
 5351SOL    HW127686   4.308   2.216   4.224 -1.5613 -0.8572 -0.1844
 5351SOL    HW227687   4.278   2.215   4.369 -4.4280 -0.6142  0.6142
 5352SOL     OW27688   1.971   3.389   3.777 -0.2572 -0.2985  0.3551
 5352SOL    HW127689   2.047   3.425   3.733  0.3711  0.1251  1.7755
 5352SOL    HW227690   1.909   3.439   3.724  0.3019  0.3095  0.2786
 5353SOL     OW27691   4.632   2.712   3.947  0.1891 -0.2705  0.2367
 5353SOL    HW127692   4.643   2.807   3.939  1.9309 -0.5938 -0.9628
 5353SOL    HW227693   4.651   2.678   3.860  0.0744  1.5763 -0.5284
 5354SOL     OW27694   3.107   3.165  11.278 -0.0764 -0.4425 -0.8889
 5354SOL    HW127695   3.098   3.172  11.183  0.4839  0.3544 -0.8764
 5354SOL    HW227696   3.133   3.254  11.301 -0.9531 -0.7905  1.4432
 5355SOL     OW27697   2.339   2.642   9.284  0.1351 -0.0201  0.1078
 5355SOL    HW127698   2.362   2.666   9.374 -0.4259 -0.4590  0.3681
 5355SOL    HW227699   2.421   2.601   9.254  0.6527  1.7181 -0.8820
 5356SOL     OW27700   0.950   0.275  12.816 -0.3760  0.1857 -0.6962
 5356SOL    HW127701   0.865   0.253  12.853  0.2739  1.0707  1.3377
 5356SOL    HW227702   0.916   0.286  12.728 -0.6585  1.3850 -0.4468
 5357SOL     OW27703   0.444   0.241  12.977 -0.7410  0.0522 -0.0910
 5357SOL    HW127704   0.373   0.210  12.920 -0.2987 -1.8509  0.3937
 5357SOL    HW227705   0.391   0.295  13.035 -1.5483 -1.7190  0.7980
 5358SOL     OW27706   2.581   0.775   8.506 -0.4432  0.6571 -0.2511
 5358SOL    HW127707   2.602   0.858   8.462 -0.5958  1.3416  0.9618
 5358SOL    HW227708   2.593   0.712   8.436  1.4427  2.4544 -1.5479
 5359SOL     OW27709   2.497   4.571   4.511 -0.2812  0.0542 -0.2604
 5359SOL    HW127710   2.589   4.588   4.529  0.1040 -0.6226 -1.5999
 5359SOL    HW227711   2.449   4.600   4.589  0.7208 -0.0837  0.4056
 5360SOL     OW27712   0.768   0.037   9.192 -0.5663  0.2631  0.1233
 5360SOL    HW127713   0.863   0.030   9.204 -0.9843 -1.7841  2.3510
 5360SOL    HW227714   0.738   4.701   9.243 -1.0661 -1.5070 -2.7880
 5361SOL     OW27715   1.448   4.408  14.253 -0.1000  0.1488  0.0413
 5361SOL    HW127716   1.483   4.454  14.177  1.7618 -1.6610 -0.2007
 5361SOL    HW227717   1.362   4.449  14.248 -0.0734  0.1877 -0.0990
 5362SOL     OW27718   0.661   2.311   3.777  0.4306 -0.2075 -0.0286
 5362SOL    HW127719   0.719   2.279   3.846  0.2704  1.9703  1.1309
 5362SOL    HW227720   0.663   2.406   3.793  3.0519  0.1674 -2.5841
 5363SOL     OW27721   1.147   2.730   7.214  0.4635 -0.0430  0.2968
 5363SOL    HW127722   1.074   2.687   7.171  0.4848  0.5418 -0.3258
 5363SOL    HW227723   1.214   2.718   7.147 -0.8245  2.3117 -1.4217
 5364SOL     OW27724   1.936   3.006   1.894 -0.2803 -0.0172  0.3732
 5364SOL    HW127725   1.884   3.052   1.959 -0.4378 -1.4668  1.2498
 5364SOL    HW227726   2.010   3.067   1.894  1.0580 -1.6496  0.5734
 5365SOL     OW27727   2.265   1.888  13.017  0.0230 -0.1235 -0.1295
 5365SOL    HW127728   2.251   1.965  12.962 -1.9226 -0.5955 -0.3158
 5365SOL    HW227729   2.360   1.889  13.008  0.3029 -2.9247  2.3502
 5366SOL     OW27730   3.539   2.456   7.476 -0.2526  0.4180  0.3351
 5366SOL    HW127731   3.627   2.439   7.442 -0.3807 -1.7609  1.1429
 5366SOL    HW227732   3.554   2.540   7.520 -1.3784  0.3030  0.9206
 5367SOL     OW27733   4.491   1.793  14.888  0.4038  0.0227 -0.0800
 5367SOL    HW127734   4.486   1.879  14.845 -0.4541  0.1634  0.2969
 5367SOL    HW227735   4.582   1.784  14.917 -0.2066 -0.6245  1.6472
 5368SOL     OW27736   3.638   2.685   9.489 -0.5839 -0.4309 -0.1316
 5368SOL    HW127737   3.717   2.669   9.436 -0.1586 -0.2298  0.4377
 5368SOL    HW227738   3.615   2.773   9.458  1.3735 -0.2767 -1.1980
 5369SOL     OW27739   4.256   0.223   7.342 -0.2023  0.4464  0.2917
 5369SOL    HW127740   4.240   0.129   7.334  0.6498  0.3943 -0.7514
 5369SOL    HW227741   4.255   0.246   7.435  2.2292  0.0610  0.4085
 5370SOL     OW27742   0.155   0.714   4.349  0.2522  0.3575 -0.3277
 5370SOL    HW127743   0.120   0.801   4.370  0.2696  0.3035 -0.0691
 5370SOL    HW227744   0.243   0.730   4.384  0.8778  0.2064 -1.8256
 5371SOL     OW27745   0.818   3.012   3.090  0.2308 -0.2104  0.5029
 5371SOL    HW127746   0.891   2.956   3.118  1.2839  1.1563  0.5426
 5371SOL    HW227747   0.751   3.008   3.157 -0.5412 -1.1609 -0.3276
 5372SOL     OW27748   1.128   2.839   4.299 -0.5376  0.3226 -0.8624
 5372SOL    HW127749   1.160   2.748   4.299 -1.6680 -0.0711 -0.3383
 5372SOL    HW227750   1.096   2.842   4.208 -0.0135  1.4064 -1.0051
 5373SOL     OW27751   3.204   1.939   8.802  0.0160 -0.3605 -0.1140
 5373SOL    HW127752   3.229   1.902   8.887 -0.5094  1.5894  0.8965
 5373SOL    HW227753   3.291   1.962   8.769 -0.2864 -1.8133 -1.8985
 5374SOL     OW27754   1.220   0.002   5.655 -0.0300  0.0257 -0.1771
 5374SOL    HW127755   1.278   4.715   5.726  0.2459 -0.9287 -0.7677
 5374SOL    HW227756   1.180   0.078   5.697 -2.8443 -1.1511 -0.7160
 5375SOL     OW27757   1.595   2.836   3.832 -0.4702 -0.0140 -0.2653
 5375SOL    HW127758   1.568   2.923   3.801 -0.9330 -0.4782 -1.1643
 5375SOL    HW227759   1.593   2.841   3.927 -2.3216  1.5025 -0.3656
 5376SOL     OW27760   3.590   1.115   4.565  0.5645  0.4419  0.1402
 5376SOL    HW127761   3.541   1.141   4.487 -0.1967  0.2689  0.5649
 5376SOL    HW227762   3.666   1.171   4.548  0.0090  1.4739  1.0448
 5377SOL     OW27763   1.779   2.043  14.836 -0.3954  0.4693  0.8856
 5377SOL    HW127764   1.767   2.019  14.744  1.1692  0.2652  0.7386
 5377SOL    HW227765   1.742   2.131  14.846  1.2183  1.2509 -0.0360
 5378SOL     OW27766   2.687   4.200   2.478 -0.1463  0.0650 -0.0621
 5378SOL    HW127767   2.753   4.152   2.428  0.1218  2.2036 -1.7431
 5378SOL    HW227768   2.638   4.253   2.414 -1.0809  0.5861  1.0880
 5379SOL     OW27769   2.636   0.812  15.794  0.0021 -0.0416  0.3529
 5379SOL    HW127770   2.677   0.727  15.812  1.7823  0.6354 -0.4727
 5379SOL    HW227771   2.661   0.829  15.703 -1.1606  0.6307  0.1585
 5380SOL     OW27772   2.114   3.797  16.036  0.2052  0.1402  0.2152
 5380SOL    HW127773   2.083   3.821  15.948  1.5012  1.7394  0.1880
 5380SOL    HW227774   2.037   3.758  16.076 -1.2279  0.1760 -2.5048
 5381SOL     OW27775   0.169   3.046   4.211 -0.3739 -0.2174 -0.1641
 5381SOL    HW127776   0.241   3.065   4.271 -0.3614  0.3588 -0.3595
 5381SOL    HW227777   0.096   3.028   4.270 -0.4729 -1.0430 -0.5452
 5382SOL     OW27778   0.925   0.461   6.932  0.1432 -0.5398 -0.4032
 5382SOL    HW127779   0.968   0.543   6.908 -0.1681 -0.2466  0.0550
 5382SOL    HW227780   0.837   0.482   6.901  0.3694 -0.5160 -1.0251
 5383SOL     OW27781   4.546   1.969  17.321  0.1106 -0.1912  0.0928
 5383SOL    HW127782   4.499   2.046  17.353 -0.8588 -1.1391  0.9319
 5383SOL    HW227783   4.474   1.908  17.306 -0.3935  0.3761  0.1972
 5384SOL     OW27784   4.135   2.776   3.078  0.4003 -0.7597  0.7926
 5384SOL    HW127785   4.223   2.739   3.069  0.4357 -0.4882 -0.0202
 5384SOL    HW227786   4.135   2.785   3.173 -0.9963 -2.7480  0.9764
 5385SOL     OW27787   1.095   0.627   3.984  0.0458  0.2248  0.0696
 5385SOL    HW127788   1.153   0.623   3.908  1.0532 -1.7064  0.9282
 5385SOL    HW227789   1.110   0.716   4.016  2.8564 -0.4177  0.5490
 5386SOL     OW27790   4.517   2.216   2.754  0.1249 -0.4455 -0.1778
 5386SOL    HW127791   4.484   2.285   2.696  1.4987 -0.3549 -0.8696
 5386SOL    HW227792   4.490   2.150   2.691 -0.1429  0.6312 -1.1828
 5387SOL     OW27793   3.748   1.536   4.872  0.5477  0.0834  0.0745
 5387SOL    HW127794   3.670   1.488   4.844  2.0875 -1.1687 -2.0598
 5387SOL    HW227795   3.767   1.577   4.787 -1.2508 -0.0589 -0.4028
 5388SOL     OW27796   3.308   1.846   4.904 -0.1818 -0.7963  0.1809
 5388SOL    HW127797   3.309   1.941   4.900  1.2194 -0.7802  1.0236
 5388SOL    HW227798   3.401   1.824   4.912 -0.4738 -1.1487  2.4391
 5389SOL     OW27799   3.957   2.470   8.570  0.2974  0.3297 -0.1132
 5389SOL    HW127800   3.937   2.501   8.482  0.6365 -0.2748 -0.3997
 5389SOL    HW227801   3.920   2.383   8.557  1.4631  0.1258 -2.0086
 5390SOL     OW27802   4.616   0.558   2.740 -0.4349  0.5561 -0.3793
 5390SOL    HW127803   4.603   0.623   2.671  0.5437 -0.2090 -1.2784
 5390SOL    HW227804   4.655   0.484   2.694  0.7974 -0.0246  1.5756
 5391SOL     OW27805   0.281   2.849   7.555 -0.3167  0.5717  0.3758
 5391SOL    HW127806   0.329   2.779   7.511 -1.9975 -0.4285  0.1546
 5391SOL    HW227807   0.320   2.926   7.514 -0.4737  2.1061  3.0961
 5392SOL     OW27808   1.403   2.132  10.772 -0.4290 -0.2674 -0.1391
 5392SOL    HW127809   1.309   2.146  10.763 -0.4019 -0.1975 -0.3092
 5392SOL    HW227810   1.441   2.166  10.692  2.4157 -3.0600  0.0246
 5393SOL     OW27811   3.529   0.705   7.173  0.1516 -0.9126  0.4812
 5393SOL    HW127812   3.579   0.643   7.226  0.7207 -0.0063  1.0176
 5393SOL    HW227813   3.540   0.665   7.087  0.0728  1.9337 -0.8283
 5394SOL     OW27814   2.635   3.186   0.360 -0.0463  0.3027 -0.0311
 5394SOL    HW127815   2.618   3.155   0.448  0.6313  0.5840  0.1980
 5394SOL    HW227816   2.586   3.123   0.307 -0.7518  1.4639 -0.7766
 5395SOL     OW27817   0.323   3.487  11.889 -0.2355 -0.3697  0.7569
 5395SOL    HW127818   0.408   3.514  11.855 -0.9735  2.1875  0.8798
 5395SOL    HW227819   0.336   3.495  11.984  1.3066  2.0802  0.3344
 5396SOL     OW27820   1.367   3.367   2.743  0.4853  0.2715  0.0475
 5396SOL    HW127821   1.295   3.428   2.759 -0.5176 -0.9759  0.2599
 5396SOL    HW227822   1.384   3.327   2.828  0.7522 -0.8824 -0.5468
 5397SOL     OW27823   2.740   3.195   3.861 -0.1207  0.0796  0.6173
 5397SOL    HW127824   2.661   3.249   3.862  0.4786  0.9719 -0.6955
 5397SOL    HW227825   2.706   3.113   3.824 -0.8583 -0.0118  1.5087
 5398SOL     OW27826   3.425   1.581   0.730 -0.4653  0.5602  0.0877
 5398SOL    HW127827   3.373   1.555   0.806 -1.2344  1.1138 -0.2492
 5398SOL    HW227828   3.488   1.635   0.778  1.1264 -0.8681 -0.3917
 5399SOL     OW27829   1.004   4.136   6.603 -0.3256 -0.5047 -0.1161
 5399SOL    HW127830   0.944   4.073   6.562 -0.3022 -1.4095  1.2600
 5399SOL    HW227831   1.049   4.164   6.523 -0.3306  0.5463  0.2574
 5400SOL     OW27832   2.287   1.981   1.422  0.0564  0.0661 -0.1854
 5400SOL    HW127833   2.242   2.054   1.381  2.5127  1.9610  0.4782
 5400SOL    HW227834   2.327   2.012   1.504 -0.4859 -2.2772  0.9899
 5401SOL     OW27835   0.922   3.366   2.458  0.0592  0.8667 -0.6896
 5401SOL    HW127836   0.959   3.296   2.404 -0.1822  1.8945 -2.1796
 5401SOL    HW227837   0.979   3.362   2.535  1.4764  1.9637 -1.6812
 5402SOL     OW27838   3.158   1.314   6.531  0.2671 -0.1368  0.5324
 5402SOL    HW127839   3.129   1.357   6.450  0.3450  0.9163  1.0705
 5402SOL    HW227840   3.134   1.379   6.596 -1.1305  0.9010 -1.0265
 5403SOL     OW27841   1.242   1.617   9.366  0.0792 -0.3274 -0.3070
 5403SOL    HW127842   1.219   1.552   9.299 -0.0900 -1.9358  1.3056
 5403SOL    HW227843   1.223   1.576   9.450  0.1064  0.1158 -0.0835
 5404SOL     OW27844   0.566   2.053  13.043 -0.2736  0.1034 -0.0174
 5404SOL    HW127845   0.569   2.085  12.952 -0.8319 -0.3686 -0.1968
 5404SOL    HW227846   0.656   2.020  13.041 -0.6621 -1.0250  1.3628
 5405SOL     OW27847   0.082   2.612   8.893  0.3770 -0.2530 -0.2379
 5405SOL    HW127848   0.044   2.668   8.825 -0.0702  0.2747  0.4452
 5405SOL    HW227849   0.142   2.553   8.848 -1.6670 -1.9350 -0.7436
 5406SOL     OW27850   2.063   2.708  15.406 -0.0384  0.2052 -0.3665
 5406SOL    HW127851   2.092   2.748  15.324 -2.3397  0.9692 -0.7963
 5406SOL    HW227852   2.004   2.636  15.385 -1.1449  1.1481 -0.4515
 5407SOL     OW27853   3.359   0.409   3.961  0.1402  0.2342 -0.4044
 5407SOL    HW127854   3.300   0.462   3.907  1.7020  4.5306  2.0867
 5407SOL    HW227855   3.318   0.428   4.045  1.1210 -0.5156  0.2483
 5408SOL     OW27856   2.842   0.372   6.200 -0.3306  0.2093  0.5578
 5408SOL    HW127857   2.902   0.384   6.274  0.2084  1.3960 -0.0772
 5408SOL    HW227858   2.867   0.286   6.168  1.1290  0.7180  0.3453
 5409SOL     OW27859   1.986   3.305   8.992 -0.3026 -1.0699 -0.0183
 5409SOL    HW127860   1.952   3.216   9.000 -0.8734 -0.4756  3.9641
 5409SOL    HW227861   2.064   3.288   8.939  0.9198  2.3031  0.6545
 5410SOL     OW27862   0.689   4.469   8.714 -0.7241  0.0488  0.3383
 5410SOL    HW127863   0.704   4.375   8.724 -0.0440  0.1888  0.6974
 5410SOL    HW227864   0.687   4.478   8.619  0.2685  2.3999  0.5294
 5411SOL     OW27865   1.400   4.263   2.617 -0.2064  0.1397 -0.7171
 5411SOL    HW127866   1.451   4.233   2.691 -2.3059  0.4275  0.8433
 5411SOL    HW227867   1.340   4.190   2.604  0.2497 -0.4307  0.4112
 5412SOL     OW27868   0.258   2.949   3.714  0.2990 -0.8537  0.2760
 5412SOL    HW127869   0.314   3.008   3.764 -1.2453  0.5624  0.3231
 5412SOL    HW227870   0.316   2.873   3.703 -0.4714 -1.5270  0.8681
 5413SOL     OW27871   3.766   2.911   5.800  0.6933  0.2435  0.0390
 5413SOL    HW127872   3.812   2.841   5.754  1.2455  1.7248 -1.6585
 5413SOL    HW227873   3.682   2.871   5.824  0.6762  0.6976  0.7153
 5414SOL     OW27874   1.342   0.821   9.449  0.1461 -0.8514 -0.1778
 5414SOL    HW127875   1.371   0.872   9.525 -0.1588  0.2019 -0.7785
 5414SOL    HW227876   1.418   0.833   9.392 -0.6455  1.6375 -0.6811
 5415SOL     OW27877   3.809   2.823  13.216 -0.5624 -0.1978  0.2371
 5415SOL    HW127878   3.838   2.778  13.137  0.5498  0.5204  0.2306
 5415SOL    HW227879   3.753   2.887  13.173 -0.5870  0.4013  1.1600
 5416SOL     OW27880   3.149   2.474  17.639 -0.1215 -0.1368  0.0181
 5416SOL    HW127881   3.217   2.415  17.606 -0.0139  1.4512 -2.6232
 5416SOL    HW227882   3.116   2.510  17.556 -1.2125  0.6495  0.8024
 5417SOL     OW27883   4.662   3.077   8.473  0.2733  0.4259  0.0114
 5417SOL    HW127884   4.578   3.114   8.447 -0.0197  0.4843  1.0225
 5417SOL    HW227885   4.633   2.986   8.479 -0.8331  0.7136 -0.9326
 5418SOL     OW27886   3.813   3.348  14.937 -0.2656 -0.3529 -0.0384
 5418SOL    HW127887   3.832   3.287  15.008 -1.4772  0.8368  1.3139
 5418SOL    HW227888   3.757   3.408  14.987  1.4956  1.3837 -0.1347
 5419SOL     OW27889   2.905   3.118   4.748 -0.1187 -0.0013  0.3222
 5419SOL    HW127890   3.000   3.111   4.745 -0.0566  0.3324  1.5790
 5419SOL    HW227891   2.899   3.208   4.780 -0.0440 -0.5910  2.0218
 5420SOL     OW27892   4.108   1.402   2.227  0.2188  0.7761  0.7893
 5420SOL    HW127893   4.051   1.404   2.304 -1.0204 -2.2583 -0.0512
 5420SOL    HW227894   4.185   1.350   2.251  0.4947  0.3632 -0.9891
 5421SOL     OW27895   2.105   2.885   8.832  0.3468  0.0269 -0.0079
 5421SOL    HW127896   2.060   2.801   8.842  0.0165  0.3724  1.4205
 5421SOL    HW227897   2.087   2.902   8.739 -0.0195 -0.9382 -0.1108
 5422SOL     OW27898   4.688   0.169   6.702 -0.0689  0.0609  0.2106
 5422SOL    HW127899   4.729   0.127   6.626 -1.4396 -3.1166  1.2158
 5422SOL    HW227900   4.597   0.154   6.676 -0.5647 -0.8516  2.5119
 5423SOL     OW27901   2.225   1.803   6.474 -0.2335  0.1346  0.2950
 5423SOL    HW127902   2.309   1.759   6.480 -1.2361 -1.6416  1.0950
 5423SOL    HW227903   2.210   1.803   6.379  1.8487  1.9829 -0.0380
 5424SOL     OW27904   0.623   2.179  11.608 -0.2128  0.0245 -0.1565
 5424SOL    HW127905   0.688   2.188  11.678  1.8287  0.9690 -2.1934
 5424SOL    HW227906   0.626   2.089  11.577  1.4928 -0.2244  0.6987
 5425SOL     OW27907   0.402   1.479   2.215  0.0854  0.0053  0.4075
 5425SOL    HW127908   0.379   1.389   2.235 -0.5561 -0.5029 -2.5347
 5425SOL    HW227909   0.491   1.492   2.247 -0.2974  0.1794  1.3886
 5426SOL     OW27910   1.696   1.594   2.702  0.0237 -0.1418  1.0300
 5426SOL    HW127911   1.770   1.537   2.680 -0.2001 -0.3944  0.9279
 5426SOL    HW227912   1.628   1.556   2.646  1.1634  1.7501 -1.6452
 5427SOL     OW27913   3.128   3.284   2.474  0.0994 -0.7529  1.0371
 5427SOL    HW127914   3.155   3.308   2.563 -0.8006  2.0588  0.5770
 5427SOL    HW227915   3.142   3.190   2.461 -1.9433 -0.9244  0.0955
 5428SOL     OW27916   1.628   2.756   1.099  0.0278 -0.4998 -0.7077
 5428SOL    HW127917   1.610   2.669   1.064  0.6777 -0.5916 -0.8055
 5428SOL    HW227918   1.720   2.746   1.124 -0.3776 -0.0417  0.9652
 5429SOL     OW27919   2.252   1.085   1.918  0.1150  0.0899  0.2625
 5429SOL    HW127920   2.179   1.083   1.980 -1.1102  3.1846 -1.0727
 5429SOL    HW227921   2.323   1.076   1.981 -0.5475 -2.3530  0.6762
 5430SOL     OW27922   2.999   2.301   3.022  0.2880  0.4247 -0.2251
 5430SOL    HW127923   2.925   2.331   3.074 -0.4851  1.7041 -2.0448
 5430SOL    HW227924   3.069   2.364   3.035  1.0014  0.2449 -3.0922
 5431SOL     OW27925   1.471   0.816   6.384 -0.4860 -0.1226 -0.6866
 5431SOL    HW127926   1.480   0.908   6.408  0.4634 -0.3986  0.0400
 5431SOL    HW227927   1.414   0.779   6.451  1.0820 -1.7731 -0.2392
 5432SOL     OW27928   3.681   2.963   3.038  0.5614 -0.1745 -0.3550
 5432SOL    HW127929   3.714   3.050   3.059 -0.8549  0.0291  1.0344
 5432SOL    HW227930   3.684   2.973   2.943  0.0517 -0.5898 -0.4203
 5433SOL     OW27931   2.292   2.523   6.906 -0.1914  0.3869  0.2891
 5433SOL    HW127932   2.270   2.609   6.940  0.3259  1.5598 -2.2992
 5433SOL    HW227933   2.364   2.492   6.960 -0.6892 -0.4431  0.4892
 5434SOL     OW27934   2.784   3.147   9.550  0.2607 -0.0969  0.7956
 5434SOL    HW127935   2.699   3.118   9.518  0.2784 -0.4039  1.0298
 5434SOL    HW227936   2.824   3.188   9.473  0.2121 -2.9018 -0.7182
 5435SOL     OW27937   3.140   2.367   5.334 -0.1995  0.0129  0.8642
 5435SOL    HW127938   3.141   2.369   5.430 -0.6243 -0.1741  0.8686
 5435SOL    HW227939   3.146   2.460   5.311  2.1013 -0.4794 -0.5367
 5436SOL     OW27940   1.167   1.821   4.570 -0.0792  0.2533 -0.2108
 5436SOL    HW127941   1.073   1.800   4.569 -0.1307  0.4497  0.6090
 5436SOL    HW227942   1.190   1.748   4.627  1.1736  1.7122  1.1529
 5437SOL     OW27943   0.507   3.107  16.258 -0.9274 -0.2851  0.3271
 5437SOL    HW127944   0.433   3.159  16.226 -1.4951 -1.8829 -0.9476
 5437SOL    HW227945   0.487   3.096  16.351 -0.4388 -0.2697  0.4353
 5438SOL     OW27946   3.636   4.444   4.341 -0.3577 -0.3783  0.4610
 5438SOL    HW127947   3.705   4.481   4.396  0.8695 -2.8401  0.5653
 5438SOL    HW227948   3.648   4.509   4.271 -4.1041  0.0762  0.2431
 5439SOL     OW27949   3.022   3.818   2.693  0.5117  0.5031  0.5540
 5439SOL    HW127950   3.037   3.898   2.744  1.2285 -0.3647  1.7047
 5439SOL    HW227951   3.041   3.754   2.761 -4.4385 -1.2127  0.3261
 5440SOL     OW27952   1.094   0.427   2.876 -0.1949  0.3630  0.0014
 5440SOL    HW127953   1.008   0.388   2.859  0.0439  0.4646 -1.3913
 5440SOL    HW227954   1.082   0.476   2.958  1.4858  2.4240 -1.0069
 5441SOL     OW27955   3.570   4.625   1.323  0.4582  0.0602 -0.0614
 5441SOL    HW127956   3.522   4.706   1.309  0.2624  0.0835  0.7468
 5441SOL    HW227957   3.584   4.600   1.231 -0.8628  0.4852 -0.3716
 5442SOL     OW27958   3.219   2.559  15.480  0.4289  0.4004 -0.6811
 5442SOL    HW127959   3.145   2.504  15.503  1.1248 -0.0723  0.4230
 5442SOL    HW227960   3.206   2.558  15.385  1.7678 -1.7695 -0.8374
 5443SOL     OW27961   1.991   3.379   6.552 -0.0968 -0.0473  0.3186
 5443SOL    HW127962   2.001   3.383   6.457  0.4327  0.4036  0.3872
 5443SOL    HW227963   1.934   3.304   6.568  0.2682 -0.4273 -0.1656
 5444SOL     OW27964   2.103   4.197   4.028  0.2279 -0.3307  0.3169
 5444SOL    HW127965   2.166   4.184   4.098  0.0805  0.3557  0.5792
 5444SOL    HW227966   2.081   4.106   4.012  0.5648 -0.3940  0.2185
 5445SOL     OW27967   2.860   1.326  16.106 -0.0246  0.0581 -0.2081
 5445SOL    HW127968   2.940   1.372  16.080  0.2614 -0.7420 -0.7221
 5445SOL    HW227969   2.862   1.326  16.202 -0.1735  2.9752 -0.2096
 5446SOL     OW27970   3.874   2.803   1.650 -0.0326  0.2390  0.3826
 5446SOL    HW127971   3.840   2.891   1.632 -2.2465 -0.6248  0.4785
 5446SOL    HW227972   3.944   2.804   1.584 -1.9112  0.3597 -1.6061
 5447SOL     OW27973   0.246   4.127   8.208  0.2993  0.3432 -0.1501
 5447SOL    HW127974   0.315   4.091   8.151  1.1184 -0.3264  1.2420
 5447SOL    HW227975   0.170   4.083   8.171  0.8229 -0.2791 -0.5053
 5448SOL     OW27976   1.680   1.138   1.232 -0.2620 -0.1026 -0.0524
 5448SOL    HW127977   1.671   1.054   1.275  0.3213 -1.5110 -2.6845
 5448SOL    HW227978   1.773   1.153   1.252 -0.2437  0.6214 -0.6431
 5449SOL     OW27979   1.534   2.313   5.013  0.0479  0.0117  0.0740
 5449SOL    HW127980   1.562   2.257   5.086  1.0646  1.6906  0.9882
 5449SOL    HW227981   1.456   2.349   5.056  1.1306 -0.8541  2.7841
 5450SOL     OW27982   0.005   4.491   7.287  0.7025  0.7244 -0.3357
 5450SOL    HW127983   4.675   4.501   7.222  1.9230  2.5416 -1.3740
 5450SOL    HW227984   0.062   4.566   7.273  4.5406 -1.6248  2.6290
 5451SOL     OW27985   2.738   2.652  15.629  0.3580 -0.0663  0.1814
 5451SOL    HW127986   2.810   2.683  15.574 -0.4190  1.9924  0.3337
 5451SOL    HW227987   2.671   2.706  15.587 -0.1120 -0.4756  0.3911
 5452SOL     OW27988   2.652   3.454  15.327  0.5332  0.2165 -0.4764
 5452SOL    HW127989   2.593   3.386  15.293  1.2714 -0.8654  0.4185
 5452SOL    HW227990   2.714   3.463  15.254 -0.1699 -0.9705 -1.2158
 5453SOL     OW27991   3.105   2.381   4.296  0.2116  0.4005  0.0419
 5453SOL    HW127992   3.086   2.340   4.211  1.0356  0.5742 -0.2202
 5453SOL    HW227993   3.027   2.425   4.330 -0.1663  0.4590 -0.8975
 5454SOL     OW27994   0.971   4.440  10.936 -0.1688  0.4938  0.2711
 5454SOL    HW127995   0.929   4.354  10.932  0.0933  0.3578  0.4378
 5454SOL    HW227996   1.057   4.424  10.974 -0.9943  0.2392  2.0561
 5455SOL     OW27997   1.718   3.155   4.675  0.0498  0.5069 -0.3113
 5455SOL    HW127998   1.682   3.243   4.686 -0.0607  0.3832  0.3252
 5455SOL    HW227999   1.671   3.099   4.737 -0.9740  0.9186 -0.7076
 5456SOL     OW28000   2.189   0.853   2.966  0.2725 -0.6101  0.5230
 5456SOL    HW128001   2.203   0.806   3.048  0.0574  0.9822  1.4548
 5456SOL    HW228002   2.213   0.781   2.907  1.4457 -1.1839  1.7048
 5457SOL     OW28003   1.878   0.525  13.032  0.7657  0.5075 -0.6641
 5457SOL    HW128004   1.961   0.478  13.030  0.9998  0.9092 -0.3637
 5457SOL    HW228005   1.820   0.449  13.027  0.8991  0.5353 -2.9114
 5458SOL     OW28006   3.489   3.144   0.991  0.1904  0.1299  0.0718
 5458SOL    HW128007   3.535   3.215   0.947 -0.1698  0.7756  0.7485
 5458SOL    HW228008   3.499   3.169   1.082  1.4488 -1.6430  0.4215
 5459SOL     OW28009   2.746   0.767   6.605 -0.7395 -0.0186 -0.1981
 5459SOL    HW128010   2.783   0.686   6.640  0.2732  0.4432 -0.2079
 5459SOL    HW228011   2.788   0.828   6.666 -1.1040 -0.4999  0.5357
 5460SOL     OW28012   2.563   2.471   4.890 -0.1010 -0.1322  0.0435
 5460SOL    HW128013   2.657   2.461   4.870  0.6405 -1.0673  3.9362
 5460SOL    HW228014   2.535   2.468   4.798  0.3406 -0.3298 -0.0900
 5461SOL     OW28015   4.634   2.670  12.396 -0.1763 -0.5073  0.0347
 5461SOL    HW128016   4.726   2.646  12.382 -0.6366 -2.2279 -0.0256
 5461SOL    HW228017   4.636   2.763  12.419 -2.9196 -0.4251 -0.0117
 5462SOL     OW28018   1.109   2.845   6.742 -0.2392 -0.4720 -0.0280
 5462SOL    HW128019   1.101   2.774   6.679 -2.7027  0.8489 -1.2103
 5462SOL    HW228020   1.021   2.847   6.781 -1.2231 -2.9737 -2.1091
 5463SOL     OW28021   2.076   4.197   8.380 -0.1974  0.1610 -0.1460
 5463SOL    HW128022   2.046   4.195   8.471 -1.3152 -0.4666 -0.5226
 5463SOL    HW228023   1.990   4.194   8.338  0.5357 -0.5968 -1.5770
 5464SOL     OW28024   2.694   1.902  16.101  0.5425  0.1149 -0.6798
 5464SOL    HW128025   2.685   1.834  16.035  0.0285 -0.5312  0.0638
 5464SOL    HW228026   2.789   1.911  16.103  0.4928  0.2949  1.0883
 5465SOL     OW28027   0.886   0.493  11.088 -0.0817 -0.0442 -0.2763
 5465SOL    HW128028   0.860   0.469  10.999  1.1278  0.3992 -0.7493
 5465SOL    HW228029   0.811   0.539  11.126  0.4350  1.0043 -0.5352
 5466SOL     OW28030   3.274   3.155  12.045 -0.2564  0.2969  0.1928
 5466SOL    HW128031   3.260   3.132  12.137  0.6437 -1.1242 -0.0361
 5466SOL    HW228032   3.366   3.178  12.037  0.1685 -1.9743 -1.2648
 5467SOL     OW28033   3.696   0.683  14.901 -0.1642  0.3594 -0.1660
 5467SOL    HW128034   3.693   0.601  14.852  2.2243  0.0484  0.2194
 5467SOL    HW228035   3.779   0.725  14.879 -0.6239  1.2832 -0.1327
 5468SOL     OW28036   0.072   4.605   6.804  0.0416  0.2814  0.9565
 5468SOL    HW128037   0.007   4.542   6.835 -1.2071  1.7670  1.3186
 5468SOL    HW228038   0.037   4.635   6.720  1.6137 -0.0897  0.1707
 5469SOL     OW28039   0.595   2.450   1.524 -0.0466  0.4266  0.2743
 5469SOL    HW128040   0.519   2.395   1.546 -0.3466  0.9289  0.4884
 5469SOL    HW228041   0.671   2.405   1.561 -1.7216 -1.1089  1.8294
 5470SOL     OW28042   1.500   3.801  12.412 -0.3231  0.2332  0.5522
 5470SOL    HW128043   1.465   3.712  12.418  4.1337 -1.5332  0.3350
 5470SOL    HW228044   1.589   3.784  12.441 -1.1815 -1.9842  1.8241
 5471SOL     OW28045   0.224   4.515   3.376  0.0974  0.3058 -0.1559
 5471SOL    HW128046   0.252   4.599   3.412  0.7963 -0.3047  0.6983
 5471SOL    HW228047   0.267   4.513   3.290  3.1590 -0.2619  1.3772
 5472SOL     OW28048   2.417   4.518   1.715  0.1719 -0.4442  0.3284
 5472SOL    HW128049   2.494   4.536   1.770 -1.6942 -0.5375  2.9391
 5472SOL    HW228050   2.427   4.588   1.651 -1.3377 -0.1259  0.4447
 5473SOL     OW28051   0.676   3.647   8.290 -0.4750  0.1341  0.1569
 5473SOL    HW128052   0.759   3.650   8.337  1.1243  0.7011 -2.7160
 5473SOL    HW228053   0.628   3.574   8.329 -0.8319 -0.1763 -0.8675
 5474SOL     OW28054   4.023   2.809   8.049 -0.5125 -0.2543 -0.1685
 5474SOL    HW128055   4.117   2.819   8.069 -0.6229  1.2544 -0.3732
 5474SOL    HW228056   3.985   2.881   8.099 -1.2813 -0.9405  0.2368
 5475SOL     OW28057   3.838   0.095   8.102 -0.0553 -0.6892  0.2612
 5475SOL    HW128058   3.904   0.163   8.091  0.6816 -1.3500  0.5850
 5475SOL    HW228059   3.831   0.104   8.197  0.1888 -0.1523  0.2261
 5476SOL     OW28060   3.900   2.797  12.373  0.1089 -0.2098 -0.1836
 5476SOL    HW128061   3.987   2.820  12.405  0.6227  0.3119 -1.9585
 5476SOL    HW228062   3.866   2.887  12.368  0.0057 -0.3927 -2.7305
 5477SOL     OW28063   1.159   4.156  10.170 -0.0971 -0.0212  0.5221
 5477SOL    HW128064   1.086   4.100  10.195 -1.5110  0.6939 -1.9926
 5477SOL    HW228065   1.144   4.174  10.077 -2.5970 -1.7937  0.5670
 5478SOL     OW28066   1.198   2.362  16.482  1.4576  0.2741  0.9877
 5478SOL    HW128067   1.228   2.452  16.470  0.3747  0.5909  0.6516
 5478SOL    HW228068   1.273   2.308  16.458  0.0962  0.3217 -3.3374
 5479SOL     OW28069   4.585   3.640   5.545 -0.4851 -0.5125 -0.6004
 5479SOL    HW128070   4.651   3.644   5.476 -0.0127  0.0283 -0.1201
 5479SOL    HW228071   4.605   3.720   5.594 -1.7543 -0.7958  0.3721
 5480SOL     OW28072   0.127   2.388   1.688  0.0568 -0.3009  0.4321
 5480SOL    HW128073   0.132   2.325   1.616 -0.4137 -0.7391  0.7829
 5480SOL    HW228074   0.052   2.443   1.663  0.1411  0.1836  1.2445
 5481SOL     OW28075   2.829   1.695   9.269 -0.0097  0.5435  0.5253
 5481SOL    HW128076   2.809   1.601   9.269  1.7704  0.1707 -0.0224
 5481SOL    HW228077   2.924   1.700   9.259  0.0581 -0.9801  0.4054
 5482SOL     OW28078   4.739   2.031   5.250 -0.2345 -0.5738  0.0903
 5482SOL    HW128079   0.002   2.046   5.344  1.8162  1.1392 -0.2543
 5482SOL    HW228080   4.729   2.123   5.225  2.6751  0.2298  1.8921
 5483SOL     OW28081   1.226   2.481   3.274 -0.0746 -0.5276 -0.1728
 5483SOL    HW128082   1.201   2.440   3.191  0.7153 -0.3517 -0.4965
 5483SOL    HW228083   1.254   2.569   3.248  0.9699 -0.5317  0.9304
 5484SOL     OW28084   1.577   4.638   4.144 -0.3200  0.3436 -0.0426
 5484SOL    HW128085   1.595   4.723   4.184  1.3276  0.2198 -0.5360
 5484SOL    HW228086   1.574   4.580   4.219 -1.1464 -0.2192 -0.5170
 5485SOL     OW28087   2.764   2.575   2.154  0.1936 -0.1217  0.2043
 5485SOL    HW128088   2.759   2.541   2.065  2.7389 -0.4926  0.2137
 5485SOL    HW228089   2.816   2.653   2.138  1.6416 -1.1343  0.0551
 5486SOL     OW28090   3.811   2.747   6.472  0.2530 -0.0083  0.0241
 5486SOL    HW128091   3.749   2.802   6.520  0.0403 -0.0460 -0.2076
 5486SOL    HW228092   3.753   2.694   6.416 -0.7118  0.7985  0.2608
 5487SOL     OW28093   2.884   2.515   9.761  0.4043  0.0786  0.7688
 5487SOL    HW128094   2.970   2.507   9.803  0.5831  0.7485  0.5378
 5487SOL    HW228095   2.865   2.437   9.710  0.1609  0.5403  0.1529
 5488SOL     OW28096   0.796   2.352  14.659  0.2068 -0.0429  0.1067
 5488SOL    HW128097   0.760   2.439  14.643  3.0709  0.8357 -1.4967
 5488SOL    HW228098   0.715   2.302  14.671  0.5240 -1.1253 -2.1894
 5489SOL     OW28099   0.330   0.601   2.684 -0.4950 -0.0522  0.3022
 5489SOL    HW128100   0.276   0.581   2.760 -2.1328 -2.2310 -1.4438
 5489SOL    HW228101   0.263   0.607   2.616  1.3611  0.8436 -1.4575
 5490SOL     OW28102   0.921   1.121   8.390 -0.4879 -0.4808  0.0911
 5490SOL    HW128103   0.839   1.153   8.351 -0.1650  1.2264  0.7944
 5490SOL    HW228104   0.882   1.058   8.450  0.9894 -1.4481  0.0312
 5491SOL     OW28105   2.090   0.564   2.626 -0.6091  0.5353  0.2114
 5491SOL    HW128106   2.090   0.577   2.721 -1.8293 -2.6286  0.6507
 5491SOL    HW228107   2.184   0.556   2.612 -0.8760 -0.6491 -0.9276
 5492SOL     OW28108   0.912   2.774  11.868 -0.2810 -0.0559 -0.0083
 5492SOL    HW128109   0.900   2.853  11.816  0.6629  0.0203 -0.1176
 5492SOL    HW228110   0.877   2.808  11.950  1.8321 -0.4179  1.0493
 5493SOL     OW28111   2.740   4.084   4.995 -0.3040 -0.3236 -0.0092
 5493SOL    HW128112   2.752   4.031   5.074  2.5599 -0.2496 -0.4174
 5493SOL    HW228113   2.722   4.169   5.034 -0.0971 -1.3681  2.3891
 5494SOL     OW28114   0.526   1.282   9.490 -0.4124 -0.8088  0.1957
 5494SOL    HW128115   0.536   1.309   9.398  0.9907  1.6041  1.0620
 5494SOL    HW228116   0.496   1.364   9.529  1.0609 -0.8157  1.3451
 5495SOL     OW28117   1.160   3.550   5.660 -0.0241 -0.2862 -0.6869
 5495SOL    HW128118   1.174   3.520   5.750 -0.3208  1.2094 -0.1424
 5495SOL    HW228119   1.244   3.592   5.642 -0.4435  0.3184 -1.2083
 5496SOL     OW28120   3.071   4.359   4.487  0.0788  0.0893 -0.8817
 5496SOL    HW128121   3.099   4.322   4.403 -0.2660  0.4078 -1.1346
 5496SOL    HW228122   3.051   4.450   4.468 -3.2553 -0.2045  1.2005
 5497SOL     OW28123   2.428   2.233   4.970 -0.3261  0.0246  0.6587
 5497SOL    HW128124   2.416   2.306   4.910  2.1934 -1.6685 -1.9453
 5497SOL    HW228125   2.522   2.239   4.988 -0.3026  1.1818  0.1254
 5498SOL     OW28126   0.771   1.630  14.027 -0.1699 -0.4499  0.3896
 5498SOL    HW128127   0.686   1.667  14.051 -0.3297  0.2634 -1.2523
 5498SOL    HW228128   0.794   1.680  13.948 -0.1007 -3.1831 -1.3260
 5499SOL     OW28129   3.319   4.623   7.620 -0.4342  0.1834 -0.0514
 5499SOL    HW128130   3.408   4.611   7.587 -0.8764 -2.1697 -0.3486
 5499SOL    HW228131   3.267   4.623   7.539 -2.2430 -1.7568  1.1213
 5500SOL     OW28132   0.130   3.559  10.908 -0.0730 -0.5531  0.0766
 5500SOL    HW128133   0.148   3.651  10.888  0.4430 -0.4361  1.0513
 5500SOL    HW228134   0.214   3.555  10.954 -0.5844 -0.2147  1.0415
 5501SOL     OW28135   0.538   0.135   4.805 -0.1422  0.0591 -0.2856
 5501SOL    HW128136   0.501   0.049   4.787  2.5603 -1.1875  0.0196
 5501SOL    HW228137   0.534   0.144   4.900  0.4636 -2.3697 -0.0390
 5502SOL     OW28138   0.233   1.093   8.741  0.2025  0.0922  0.4622
 5502SOL    HW128139   0.214   1.183   8.714  1.4586 -0.3525 -1.9430
 5502SOL    HW228140   0.250   1.061   8.652 -1.9892  2.0538 -0.6720
 5503SOL     OW28141   2.066   1.515   3.330  0.2373 -0.6488 -0.0100
 5503SOL    HW128142   2.160   1.530   3.318  0.1752  2.6293  3.5900
 5503SOL    HW228143   2.062   1.422   3.307 -0.1988 -1.1478  2.1094
 5504SOL     OW28144   2.462   2.422   0.757  0.2678  0.1716 -0.2874
 5504SOL    HW128145   2.483   2.497   0.812 -1.4165  0.8318 -0.5332
 5504SOL    HW228146   2.529   2.426   0.689  2.1631 -1.8663  1.4592
 5505SOL     OW28147   0.279   0.275   2.742 -0.2962  0.1640  0.3042
 5505SOL    HW128148   0.216   0.211   2.711  0.7286 -0.2407 -0.9174
 5505SOL    HW228149   0.234   0.331   2.806 -0.1319 -0.4007  0.9140
 5506SOL     OW28150   2.225   3.399   4.546  0.3980 -0.3524 -0.7100
 5506SOL    HW128151   2.312   3.428   4.517 -0.4364  0.1058 -2.8252
 5506SOL    HW228152   2.248   3.355   4.627  2.6834  2.0230 -0.0603
 5507SOL     OW28153   4.036   3.284   9.699 -0.7235  0.3630 -0.4700
 5507SOL    HW128154   4.108   3.326   9.744  0.0092  0.1231 -1.4147
 5507SOL    HW228155   4.052   3.196   9.733  0.8376  0.5125 -0.8369
 5508SOL     OW28156   1.131   1.868   3.117 -0.2978  0.0870  1.0741
 5508SOL    HW128157   1.096   1.783   3.144  0.2631 -0.2035  0.8934
 5508SOL    HW228158   1.134   1.856   3.022 -0.7120 -2.3704  1.3586
 5509SOL     OW28159   0.403   0.306   5.236 -0.1160 -0.4034 -0.1656
 5509SOL    HW128160   0.418   0.298   5.330 -0.4269  0.7976 -0.0077
 5509SOL    HW228161   0.308   0.300   5.227 -0.1784 -1.4732  1.2028
 5510SOL     OW28162   0.914   3.583   4.214  0.1008 -0.1254  0.0562
 5510SOL    HW128163   0.833   3.630   4.197  1.7484  1.9751 -2.0019
 5510SOL    HW228164   0.890   3.545   4.299  1.9337  0.3883  0.8218
 5511SOL     OW28165   1.051   2.044   1.808 -0.2847  0.1084 -0.3713
 5511SOL    HW128166   1.057   1.991   1.729  0.3325  0.0955 -0.3171
 5511SOL    HW228167   1.120   2.002   1.859  0.8857  0.7008 -1.4429
 5512SOL     OW28168   2.827   4.020  10.859  0.2499 -0.6029  0.0171
 5512SOL    HW128169   2.827   4.115  10.847 -0.1079 -0.8015 -1.5166
 5512SOL    HW228170   2.761   4.015  10.928 -0.8576 -2.9017 -1.2211
 5513SOL     OW28171   3.809   4.248   8.221 -0.1398 -0.5202 -0.4914
 5513SOL    HW128172   3.849   4.250   8.134  0.1203 -0.3200 -0.3646
 5513SOL    HW228173   3.861   4.321   8.252 -2.5724  0.8281  0.4117
 5514SOL     OW28174   2.628   2.468   4.198 -0.2773 -0.0885 -0.0154
 5514SOL    HW128175   2.555   2.414   4.227 -1.1769  0.1163 -1.9111
 5514SOL    HW228176   2.586   2.530   4.139 -1.5968 -0.1201  0.9033
 5515SOL     OW28177   1.527   1.934   2.939  0.3203 -0.0274 -0.3691
 5515SOL    HW128178   1.482   1.868   2.992 -2.6607  1.4742 -1.0620
 5515SOL    HW228179   1.448   1.981   2.914 -0.1563 -1.5136 -1.6811
 5516SOL     OW28180   0.222   1.871   3.998 -0.2095  0.3949  0.3704
 5516SOL    HW128181   0.192   1.961   3.999  1.6772  1.0271 -0.7379
 5516SOL    HW228182   0.137   1.827   3.995 -1.1662  2.3712 -0.9570
 5517SOL     OW28183   4.108   1.132  16.149 -0.1701  0.5132  0.4325
 5517SOL    HW128184   4.137   1.044  16.125 -0.5185  0.2772  0.8665
 5517SOL    HW228185   4.040   1.110  16.214 -1.1808 -1.0822 -1.1921
 5518SOL     OW28186   1.705   3.614   7.775  0.2136 -0.1123 -0.0846
 5518SOL    HW128187   1.681   3.528   7.810  0.8753 -0.3900 -0.3000
 5518SOL    HW228188   1.770   3.581   7.712 -0.6118  0.4758 -1.2510
 5519SOL     OW28189   2.585   2.818  14.499 -0.2863 -0.5806 -0.1548
 5519SOL    HW128190   2.615   2.889  14.557  0.5716 -0.9723 -0.1224
 5519SOL    HW228191   2.559   2.758  14.569 -1.9186  0.1987 -0.0866
 5520SOL     OW28192   4.489   1.533   2.152 -0.1865  0.2423  0.6234
 5520SOL    HW128193   4.488   1.523   2.247  1.7553  0.1589  0.6365
 5520SOL    HW228194   4.406   1.581   2.145 -0.2628  0.1275  0.7315
 5521SOL     OW28195   0.408   0.431   0.463 -0.4524 -0.1848  0.2762
 5521SOL    HW128196   0.360   0.475   0.393  3.4414 -0.5595 -2.6165
 5521SOL    HW228197   0.465   0.380   0.407 -0.1690 -0.0590  0.4515
 5522SOL     OW28198   3.933   3.816   7.063  0.1495  0.1660  0.0203
 5522SOL    HW128199   3.889   3.731   7.060  0.8687 -0.1481 -1.5064
 5522SOL    HW228200   3.945   3.826   7.157  2.1362 -0.0384 -0.2141
 5523SOL     OW28201   3.564   3.525   1.966 -0.3328 -0.0341 -0.2827
 5523SOL    HW128202   3.550   3.573   1.885 -0.0365 -0.1114 -0.3791
 5523SOL    HW228203   3.633   3.581   2.002 -1.1070  0.6398  0.1645
 5524SOL     OW28204   1.598   0.580   6.014 -0.3745  0.1724  0.3796
 5524SOL    HW128205   1.625   0.645   5.949  0.9509 -1.6604 -0.8910
 5524SOL    HW228206   1.533   0.641   6.048 -0.0207  0.9653 -0.3628
 5525SOL     OW28207   0.114   2.938  17.138  0.2139 -0.2437  0.0943
 5525SOL    HW128208   0.042   2.983  17.182 -0.9090 -1.2824 -0.6959
 5525SOL    HW228209   0.191   2.989  17.166 -0.0771  0.9846 -1.3492
 5526SOL     OW28210   3.502   1.963   6.722 -0.3195 -0.0332 -0.3891
 5526SOL    HW128211   3.543   1.893   6.671 -1.0890  0.1888 -1.3055
 5526SOL    HW228212   3.409   1.945   6.711 -0.1954  1.8452 -4.6690
 5527SOL     OW28213   0.907   0.812  11.183  0.6370  0.5197  0.2588
 5527SOL    HW128214   0.817   0.839  11.164  0.9990  0.0598 -2.1128
 5527SOL    HW228215   0.949   0.767  11.109  0.1947 -1.8767  1.4581
 5528SOL     OW28216   0.357   4.164   7.752  0.3070 -0.0270 -0.4014
 5528SOL    HW128217   0.422   4.179   7.683  0.8163 -1.1291 -0.1582
 5528SOL    HW228218   0.402   4.102   7.809 -0.2117 -0.5528 -0.5613
 5529SOL     OW28219   0.304   4.626   2.493 -0.2225  0.1718  0.4573
 5529SOL    HW128220   0.230   4.574   2.524  0.8711 -0.7334  1.5347
 5529SOL    HW228221   0.251   4.686   2.441 -0.1431 -1.8369 -1.8881
 5530SOL     OW28222   1.232   1.698   3.369  0.2521  0.1534  0.0911
 5530SOL    HW128223   1.296   1.633   3.398 -1.6301 -1.5697  0.3789
 5530SOL    HW228224   1.297   1.767   3.367  0.6341 -0.2468 -1.7631
 5531SOL     OW28225   2.061   1.812   7.607  0.5089  0.0157  0.1870
 5531SOL    HW128226   2.140   1.821   7.661  0.4608  0.9949  0.0976
 5531SOL    HW228227   2.102   1.809   7.520  0.7549 -1.8633  0.3616
 5532SOL     OW28228   2.002   2.744   9.415 -0.7251 -0.4300  0.3788
 5532SOL    HW128229   2.077   2.802   9.429 -1.2711  0.1183  1.0057
 5532SOL    HW228230   1.978   2.773   9.327  1.6752  0.8774  0.1426
 5533SOL     OW28231   2.002   3.652   5.843 -0.3893 -0.0088  0.0164
 5533SOL    HW128232   1.941   3.584   5.813  0.3244 -0.1445 -1.1122
 5533SOL    HW228233   1.952   3.731   5.826 -0.1306  0.4282  1.2219
 5534SOL     OW28234   4.489   2.073  14.818  0.2220  0.3138 -0.6835
 5534SOL    HW128235   4.441   2.094  14.738  0.5206  1.9179 -0.4441
 5534SOL    HW228236   4.568   2.112  14.781  1.7225 -1.2509  0.8435
 5535SOL     OW28237   4.379   2.792   5.187  0.2432  0.0213  0.1775
 5535SOL    HW128238   4.356   2.848   5.260 -1.3447 -1.2668  0.6553
 5535SOL    HW228239   4.318   2.831   5.125 -2.8078 -2.8713  1.3979
 5536SOL     OW28240   3.821   1.513   1.065 -0.4683 -0.1096  0.8434
 5536SOL    HW128241   3.728   1.491   1.076 -0.8981  1.1991 -0.1573
 5536SOL    HW228242   3.818   1.510   0.969  0.2083 -1.0996  0.8496
 5537SOL     OW28243   1.433   2.343   7.198 -0.3094  0.2345 -0.6442
 5537SOL    HW128244   1.520   2.348   7.238  0.1784 -2.3848 -1.3792
 5537SOL    HW228245   1.436   2.437   7.177 -0.3122  0.6912  1.4495
 5538SOL     OW28246   4.157   2.460   9.258 -0.0254  0.2098 -0.3742
 5538SOL    HW128247   4.144   2.417   9.343 -1.2183 -1.1687 -1.2775
 5538SOL    HW228248   4.233   2.517   9.272  1.2159 -0.9850 -2.3863
 5539SOL     OW28249   1.302   1.780  14.594 -0.9310  0.6934  0.4548
 5539SOL    HW128250   1.226   1.818  14.551 -0.0007 -1.3476 -2.9919
 5539SOL    HW228251   1.369   1.843  14.567 -0.6376  0.3545  0.3921
 5540SOL     OW28252   4.412   3.037   4.850 -0.3474 -0.0048 -0.5110
 5540SOL    HW128253   4.358   2.970   4.891  0.2379 -1.6754 -2.5079
 5540SOL    HW228254   4.457   2.992   4.779  0.9075 -0.3218  0.4754
 5541SOL     OW28255   2.574   0.061   3.434 -0.4683  0.3185 -0.1134
 5541SOL    HW128256   2.669   0.070   3.440 -0.7771  2.2926  2.0245
 5541SOL    HW228257   2.546   0.060   3.525  1.2860 -1.0422  0.4078
 5542SOL     OW28258   1.700   2.144   8.078 -0.4046 -0.1808  0.2514
 5542SOL    HW128259   1.633   2.076   8.068  0.0438 -0.4473 -0.9531
 5542SOL    HW228260   1.776   2.086   8.083 -1.0178 -1.0617 -0.7049
 5543SOL     OW28261   2.624   0.087   6.312 -0.3052 -0.2530 -0.1301
 5543SOL    HW128262   2.541   0.063   6.270  0.0731  1.5216 -1.9085
 5543SOL    HW228263   2.686   0.046   6.252 -0.6018  0.9445 -1.2632
 5544SOL     OW28264   3.895   2.410   4.468  0.2951  0.2075  0.7304
 5544SOL    HW128265   3.967   2.432   4.527 -0.9866  3.5686  1.0152
 5544SOL    HW228266   3.819   2.411   4.525  0.3511 -0.4002  0.8208
 5545SOL     OW28267   1.945   1.463   2.678 -0.4446 -0.3060 -0.1939
 5545SOL    HW128268   1.996   1.394   2.719  1.8651  1.7949  0.4343
 5545SOL    HW228269   1.989   1.546   2.695  1.2066 -1.4090  0.8760
 5546SOL     OW28270   2.711   0.038   5.485  0.2190 -0.0342  0.2617
 5546SOL    HW128271   2.725   4.696   5.438 -1.7716 -0.3247  0.1665
 5546SOL    HW228272   2.768   0.089   5.427 -0.1222 -1.9089 -1.7153
 5547SOL     OW28273   4.413   1.464   9.070  0.5785 -0.8082  0.7083
 5547SOL    HW128274   4.384   1.552   9.093 -0.7177 -0.8197 -0.9173
 5547SOL    HW228275   4.370   1.417   9.142 -2.3628 -0.6643 -0.9699
 5548SOL     OW28276   4.202   1.271  12.988  0.1954 -0.0513  0.0646
 5548SOL    HW128277   4.114   1.308  12.985 -0.0892 -0.8242 -1.3920
 5548SOL    HW228278   4.245   1.324  13.054  2.8061 -0.3791 -1.3690
 5549SOL     OW28279   3.691   3.889  11.290  0.2433  0.2567 -0.3054
 5549SOL    HW128280   3.700   3.984  11.284 -1.6497  0.3587 -1.4883
 5549SOL    HW228281   3.597   3.880  11.274  0.3545 -2.5485  0.5982
 5550SOL     OW28282   0.186   4.363   4.687 -0.2035 -0.4704 -0.6566
 5550SOL    HW128283   0.166   4.328   4.773  2.2825 -0.1940  0.0342
 5550SOL    HW228284   0.099   4.373   4.647 -0.2079 -0.0744 -0.5421
 5551SOL     OW28285   3.592   3.616  14.656  0.3149 -0.0969  0.5921
 5551SOL    HW128286   3.535   3.560  14.603 -0.9168  0.8627  0.9040
 5551SOL    HW228287   3.551   3.621  14.743 -0.1629  0.7410  0.3138
 5552SOL     OW28288   4.255   2.066  12.611  0.2794 -0.3329  0.0299
 5552SOL    HW128289   4.247   2.109  12.526 -1.5359  1.5540  1.1503
 5552SOL    HW228290   4.271   2.142  12.667 -1.2891 -1.1155  1.5110
 5553SOL     OW28291   1.273   1.212   7.127 -0.0361 -0.1477 -0.1629
 5553SOL    HW128292   1.306   1.177   7.210  0.9915  1.2006 -0.0119
 5553SOL    HW228293   1.184   1.239   7.150  0.7806  0.7492  1.8684
 5554SOL     OW28294   0.728   1.398   8.913 -0.3033  0.1289 -0.0776
 5554SOL    HW128295   0.682   1.323   8.876  2.8140 -0.9730 -1.7080
 5554SOL    HW228296   0.702   1.381   9.003 -1.0793 -1.6045 -0.6298
 5555SOL     OW28297   3.980   2.850  16.244  0.3637 -0.2248  0.0962
 5555SOL    HW128298   3.988   2.759  16.273 -0.7458  0.8454  3.6716
 5555SOL    HW228299   4.074   2.863  16.226 -0.2966  1.3733 -2.1811
 5556SOL     OW28300   0.227   3.563  16.689  0.8542 -0.2030  0.1325
 5556SOL    HW128301   0.228   3.581  16.595  0.4859 -1.4461 -0.1100
 5556SOL    HW228302   0.297   3.616  16.727 -0.5497  1.2845  0.6438
 5557SOL     OW28303   4.576   0.720   1.767  0.0906  0.1040  0.1349
 5557SOL    HW128304   4.535   0.806   1.758 -1.2898 -0.3994  1.5334
 5557SOL    HW228305   4.583   0.693   1.676  0.3220 -0.1380  0.2254
 5558SOL     OW28306   4.293   0.258   3.971 -0.4368  0.0478  0.1761
 5558SOL    HW128307   4.286   0.316   3.896  1.4116  2.3942  1.8062
 5558SOL    HW228308   4.348   0.308   4.031 -0.6278  0.5240 -0.0474
 5559SOL     OW28309   4.347   1.576  14.805  0.4762 -0.0274  0.4588
 5559SOL    HW128310   4.270   1.632  14.796  1.6572  1.5258  0.0766
 5559SOL    HW228311   4.402   1.645  14.841  0.9079 -0.4450  0.5948
 5560SOL     OW28312   2.473   1.060  10.687 -0.2780  0.7590  0.6644
 5560SOL    HW128313   2.516   1.010  10.618 -0.5026  0.7063  0.5627
 5560SOL    HW228314   2.472   1.140  10.634 -0.3292  1.9244  2.4187
 5561SOL     OW28315   2.440   2.783   1.697  0.3845 -0.8328 -0.3703
 5561SOL    HW128316   2.495   2.819   1.766 -1.5513  0.9297  0.2405
 5561SOL    HW228317   2.354   2.803   1.732  0.7617 -2.0691  1.2388
 5562SOL     OW28318   2.411   4.170  11.197 -1.1431  0.4649 -0.1360
 5562SOL    HW128319   2.420   4.228  11.272  0.3176  0.4277 -0.2724
 5562SOL    HW228320   2.466   4.093  11.214  0.5617  1.9190  0.9204
 5563SOL     OW28321   0.158   4.256   2.598 -0.1697  0.4234 -0.3779
 5563SOL    HW128322   0.123   4.314   2.530 -2.9491  1.2392  1.7496
 5563SOL    HW228323   0.246   4.241   2.563  0.3452  0.8964  0.7345
 5564SOL     OW28324   4.094   1.527   0.358 -0.0682 -0.1555  0.9458
 5564SOL    HW128325   4.080   1.506   0.450 -0.4424  0.0238  0.9288
 5564SOL    HW228326   4.076   1.621   0.365  2.0016  0.2684  0.4365
 5565SOL     OW28327   2.479   3.578   3.632  0.2511 -0.0932  0.0848
 5565SOL    HW128328   2.471   3.498   3.579  1.9699  0.9723 -1.8238
 5565SOL    HW228329   2.523   3.534   3.704 -0.6922 -2.4829 -0.7884
 5566SOL     OW28330   3.123   2.477   8.308  0.0553  0.2910  0.1390
 5566SOL    HW128331   3.064   2.457   8.379  1.2218 -0.0820  1.0029
 5566SOL    HW228332   3.127   2.399   8.252  1.0885  1.4106 -1.3533
 5567SOL     OW28333   1.377   3.030   6.623 -0.2752  0.3915 -0.3246
 5567SOL    HW128334   1.319   2.985   6.685  0.0219 -1.3276 -1.3245
 5567SOL    HW228335   1.328   3.038   6.541 -0.4940 -0.2848 -0.2530
 5568SOL     OW28336   1.830   0.423   2.380 -0.0077  0.4653  0.9167
 5568SOL    HW128337   1.870   0.340   2.404  0.7326  0.3788 -0.6156
 5568SOL    HW228338   1.780   0.443   2.459 -1.1216 -1.1374  0.6223
 5569SOL     OW28339   3.306   3.188   6.789 -0.1261 -0.7460  0.4437
 5569SOL    HW128340   3.249   3.113   6.772  0.2591 -0.9232 -0.0772
 5569SOL    HW228341   3.296   3.228   6.702 -0.2856 -2.5874 -0.4054
 5570SOL     OW28342   3.784   1.190   8.350  0.0945 -0.0662  0.4093
 5570SOL    HW128343   3.707   1.146   8.386  0.5135  0.1374  1.5368
 5570SOL    HW228344   3.844   1.119   8.327 -0.8053 -1.2995  1.9111
 5571SOL     OW28345   1.320   2.782   2.320  0.9973 -0.4750  0.1122
 5571SOL    HW128346   1.403   2.785   2.368  0.9110 -1.2966  0.3201
 5571SOL    HW228347   1.337   2.702   2.270  1.7634  0.4419 -1.1045
 5572SOL     OW28348   0.361   1.867  14.318 -0.6130  0.3296 -0.3536
 5572SOL    HW128349   0.404   1.784  14.294 -0.4943 -0.4682  2.5614
 5572SOL    HW228350   0.292   1.872  14.252 -0.4568  0.3835 -0.5150
 5573SOL     OW28351   0.860   3.628  13.759 -0.0435 -0.4528 -0.2086
 5573SOL    HW128352   0.810   3.579  13.825  1.1621 -0.6260  0.5689
 5573SOL    HW228353   0.913   3.559  13.719  1.8173  1.7591 -1.5326
 5574SOL     OW28354   2.356   0.042   7.272  0.1481 -0.0271 -0.0181
 5574SOL    HW128355   2.268   0.065   7.244 -0.5668 -1.4798  1.0634
 5574SOL    HW228356   2.394   4.737   7.197  1.3161  0.0044  0.5382
 5575SOL     OW28357   4.291   2.509  10.349  0.3149 -0.1101  0.0086
 5575SOL    HW128358   4.375   2.556  10.355  0.5248 -0.4908  0.0492
 5575SOL    HW228359   4.250   2.569  10.287  1.5475 -1.2395 -1.8924
 5576SOL     OW28360   1.002   2.105   3.086  0.4275 -0.5310 -0.0804
 5576SOL    HW128361   1.046   2.028   3.122  1.8705 -0.5490 -1.8634
 5576SOL    HW228362   1.063   2.179   3.076 -0.4042  0.2352  0.5688
 5577SOL     OW28363   3.311   3.041   0.804  0.1738  0.0687 -0.2169
 5577SOL    HW128364   3.364   3.080   0.874 -2.3661 -0.2335  1.8800
 5577SOL    HW228365   3.339   2.949   0.807 -1.2914 -0.4522 -2.2481
 5578SOL     OW28366   1.688   1.095   8.416 -0.6089  0.0377 -0.3368
 5578SOL    HW128367   1.767   1.133   8.456 -0.0957 -1.3227 -0.0338
 5578SOL    HW228368   1.639   1.051   8.486 -0.0882 -0.6813 -0.4188
 5579SOL     OW28369   2.917   4.125   3.311  0.4751  0.0290  0.4796
 5579SOL    HW128370   2.933   4.165   3.226  0.8760 -2.3527 -0.5698
 5579SOL    HW228371   2.857   4.179   3.364  0.2771 -0.2667  0.5588
 5580SOL     OW28372   3.220   0.448   8.358  0.4778 -0.3912  0.2958
 5580SOL    HW128373   3.151   0.408   8.411  1.9175  0.9131  3.1551
 5580SOL    HW228374   3.189   0.450   8.268 -1.1017  2.5031  0.9270
 5581SOL     OW28375   0.047   1.635   8.116  0.3983  0.1136  0.0911
 5581SOL    HW128376   0.067   1.613   8.025 -0.2110  0.2721 -0.0833
 5581SOL    HW228377   4.724   1.568   8.140  1.1988 -0.1552  1.4262
 5582SOL     OW28378   3.621   4.198  15.467 -0.7379 -0.4693  0.0090
 5582SOL    HW128379   3.597   4.279  15.423  1.6704  1.8366  2.9224
 5582SOL    HW228380   3.658   4.158  15.388 -1.4847 -0.4125 -0.3681
 5583SOL     OW28381   2.717   3.488   3.027  0.1879  0.4685 -0.1902
 5583SOL    HW128382   2.775   3.519   3.097 -1.3808 -0.3318  1.4748
 5583SOL    HW228383   2.662   3.564   3.009 -1.8284 -1.0434 -0.3466
 5584SOL     OW28384   3.146   2.989  17.527  0.4716 -0.3245 -0.4565
 5584SOL    HW128385   3.096   2.980  17.446 -1.1741  2.0311  0.2696
 5584SOL    HW228386   3.075   2.995  17.591  0.2411 -0.6853 -0.6797
 5585SOL     OW28387   1.114   0.003   8.224  0.6309 -0.1889  0.3958
 5585SOL    HW128388   1.031   4.701   8.204  0.6349 -0.0172  0.0198
 5585SOL    HW228389   1.125   4.738   8.319 -0.0220 -1.5894  0.3999
 5586SOL     OW28390   3.684   3.852   3.855  0.1034  0.3481 -0.3834
 5586SOL    HW128391   3.642   3.769   3.832  0.1425  0.7626 -1.9700
 5586SOL    HW228392   3.632   3.878   3.931  1.0808  3.4773 -0.7951
 5587SOL     OW28393   0.360   1.263   6.338 -0.1200  0.8433 -0.7792
 5587SOL    HW128394   0.448   1.299   6.327  0.6133 -0.2900  1.4007
 5587SOL    HW228395   0.315   1.328   6.392 -1.5753 -0.7816 -0.0179
 5588SOL     OW28396   0.961   3.941  11.697  0.0158  0.2915 -0.7364
 5588SOL    HW128397   0.942   3.919  11.788 -0.3749  0.5611 -0.7499
 5588SOL    HW228398   1.043   3.894  11.679  0.6052  0.9165  0.3597
 5589SOL     OW28399   2.432   2.432   4.658  0.2503 -0.3811  0.0919
 5589SOL    HW128400   2.436   2.504   4.595 -1.9840 -1.6320 -1.4247
 5589SOL    HW228401   2.338   2.439   4.676 -0.0881 -0.1941 -1.7854
 5590SOL     OW28402   4.305   3.377  16.731 -0.1338 -0.4026  0.0322
 5590SOL    HW128403   4.387   3.341  16.765  0.7796 -0.5004 -2.2869
 5590SOL    HW228404   4.253   3.299  16.714 -2.0870  0.6810  0.9568
 5591SOL     OW28405   2.315   4.058   2.359  0.0276  0.1968  0.1270
 5591SOL    HW128406   2.364   4.132   2.324 -0.8739  0.4121 -0.6643
 5591SOL    HW228407   2.323   3.999   2.284 -0.7779 -1.9172  1.6791
 5592SOL     OW28408   2.683   3.437   5.826  0.0877  0.9769 -0.6787
 5592SOL    HW128409   2.615   3.503   5.836 -1.3323 -0.5881  0.1430
 5592SOL    HW228410   2.748   3.484   5.879  1.4923 -1.0839 -0.5607
 5593SOL     OW28411   0.839   1.954   6.996 -0.2177 -0.3565 -0.7339
 5593SOL    HW128412   0.792   1.901   7.059 -0.4118  0.4617 -0.1888
 5593SOL    HW228413   0.765   1.977   6.940 -0.3159 -1.3815 -1.0260
 5594SOL     OW28414   2.285   0.874  14.082  0.0477  0.2903 -0.2622
 5594SOL    HW128415   2.204   0.916  14.109  0.9679  1.0648  1.3057
 5594SOL    HW228416   2.267   0.781  14.094  0.1139  0.2772 -0.2624
 5595SOL     OW28417   2.851   3.028   2.776  0.0594  0.2846 -0.3198
 5595SOL    HW128418   2.909   2.967   2.821 -0.2297  0.3439  0.1348
 5595SOL    HW228419   2.828   3.091   2.845  1.3692  0.3344  0.0729
 5596SOL     OW28420   2.750   2.457  12.377 -0.1592 -0.3808  0.2627
 5596SOL    HW128421   2.822   2.511  12.345  0.3055 -0.7873  0.6236
 5596SOL    HW228422   2.777   2.368  12.353  2.7225  0.1206  1.7116
 5597SOL     OW28423   4.312   3.769   9.044  0.0856 -0.2740  0.5918
 5597SOL    HW128424   4.333   3.707   9.114 -2.4129 -0.8918  0.7873
 5597SOL    HW228425   4.394   3.785   8.997  0.5112 -4.7089 -0.1900
 5598SOL     OW28426   1.539   1.576  16.273  0.3749  0.1466  0.1935
 5598SOL    HW128427   1.541   1.602  16.365  1.0369  1.4067 -0.1755
 5598SOL    HW228428   1.601   1.636  16.232 -0.2466  1.0433  0.5502
 5599SOL     OW28429   3.681   0.116   3.993  0.2742 -0.0556  0.3551
 5599SOL    HW128430   3.701   0.084   4.081 -2.1294  0.1928  0.9680
 5599SOL    HW228431   3.734   0.046   3.954  3.2539  1.9404  0.7903
 5600SOL     OW28432   0.036   0.865  13.533 -0.3109 -0.0679 -0.0115
 5600SOL    HW128433   4.716   0.938  13.517 -0.0392 -0.2091 -1.6499
 5600SOL    HW228434   0.114   0.911  13.564 -0.0085 -0.3461 -0.3604
 5601SOL     OW28435   2.541   3.072   9.469  0.0027  0.2271 -0.2705
 5601SOL    HW128436   2.471   3.032   9.521 -1.1203  1.5534 -0.7791
 5601SOL    HW228437   2.530   3.028   9.385 -0.6523 -2.2607  1.1148
 5602SOL     OW28438   3.439   0.569   6.607  0.2404 -0.3004  0.1412
 5602SOL    HW128439   3.464   0.661   6.603  0.5340 -0.2610  2.6560
 5602SOL    HW228440   3.491   0.527   6.539  1.3738 -0.8033  1.3193
 5603SOL     OW28441   2.299   2.090   1.071  0.6025 -0.1296 -0.4746
 5603SOL    HW128442   2.388   2.121   1.085  0.0655  0.5183  1.3976
 5603SOL    HW228443   2.264   2.124   1.153  1.0876  0.8893 -0.6964
 5604SOL     OW28444   2.367   1.320   3.376 -0.2398  0.0635  0.0558
 5604SOL    HW128445   2.359   1.380   3.302 -0.9450 -0.4121 -0.2526
 5604SOL    HW228446   2.393   1.383   3.443  0.2615 -0.2650  0.1709
 5605SOL     OW28447   0.887   3.476   2.206  0.3005  0.7196  0.1160
 5605SOL    HW128448   0.884   3.460   2.300  1.6219  1.5488  0.3120
 5605SOL    HW228449   0.982   3.485   2.192  0.1359 -0.5876 -1.8928
 5606SOL     OW28450   4.146   2.156  10.780  0.0781 -0.3885 -0.3287
 5606SOL    HW128451   4.150   2.064  10.806  2.1379 -0.5731 -1.2828
 5606SOL    HW228452   4.223   2.196  10.823 -0.6171 -1.1601  1.6388
 5607SOL     OW28453   4.455   2.750   4.665  0.4421  0.5264  0.0265
 5607SOL    HW128454   4.499   2.728   4.583 -1.8027 -0.2699 -0.9674
 5607SOL    HW228455   4.362   2.764   4.647  0.5625  2.1421  0.7205
 5608SOL     OW28456   4.465   1.289   4.421 -0.2521 -0.3328 -0.6330
 5608SOL    HW128457   4.523   1.255   4.353  1.2154 -2.1356  1.5117
 5608SOL    HW228458   4.429   1.368   4.381 -1.0831 -0.7201 -0.6560
 5609SOL     OW28459   0.021   2.527  17.598 -0.6580  0.0865  0.2923
 5609SOL    HW128460   0.086   2.589  17.631 -0.9900  0.4272  0.3006
 5609SOL    HW228461   0.075   2.458  17.559  1.8209  2.8123 -1.1688
 5610SOL     OW28462   1.587   2.102   4.686  0.3899 -0.8488 -0.4362
 5610SOL    HW128463   1.512   2.154   4.657 -0.7532 -1.2263  1.8591
 5610SOL    HW228464   1.639   2.165   4.737 -0.5620 -0.6627  0.2902
 5611SOL     OW28465   4.400   0.298   8.304  0.6735 -0.0805 -0.0319
 5611SOL    HW128466   4.423   0.356   8.231 -2.3733  1.0137 -0.1110
 5611SOL    HW228467   4.425   0.357   8.375 -0.4727  0.5953 -0.2003
 5612SOL     OW28468   1.168   1.803   7.097  0.0932  0.3403  0.4880
 5612SOL    HW128469   1.102   1.812   7.165 -0.2381  0.7952  0.1077
 5612SOL    HW228470   1.235   1.755   7.145  2.6313  0.4720 -2.8704
 5613SOL     OW28471   0.844   2.725   0.535  1.2200  0.2248 -0.0204
 5613SOL    HW128472   0.752   2.736   0.558 -0.0038 -3.0423 -3.5008
 5613SOL    HW228473   0.871   2.817   0.527  1.0319  0.1386 -1.5968
 5614SOL     OW28474   2.322   0.478   7.040  0.6799 -0.1134  0.0179
 5614SOL    HW128475   2.228   0.470   7.052  0.3966  0.8581 -1.5429
 5614SOL    HW228476   2.316   0.553   6.980 -2.8298  0.1745  0.7781
 5615SOL     OW28477   0.809   3.656   9.189 -0.4187 -0.9159  0.6091
 5615SOL    HW128478   0.782   3.612   9.270 -1.6119  0.6269  1.0455
 5615SOL    HW228479   0.895   3.682   9.221 -1.6953  3.6299  0.2509
 5616SOL     OW28480   4.520   2.402  10.102 -0.5639 -0.2788  0.0338
 5616SOL    HW128481   4.496   2.495  10.103 -0.5504 -0.2905  1.2417
 5616SOL    HW228482   4.615   2.407  10.090 -0.6048 -3.0805 -1.5910
 5617SOL     OW28483   1.673   4.403   9.709  0.2312  0.1819 -0.0393
 5617SOL    HW128484   1.732   4.476   9.692 -2.3374  1.2358 -4.1780
 5617SOL    HW228485   1.709   4.387   9.797 -0.2327  0.2568  0.1595
 5618SOL     OW28486   0.843   4.431   8.089  0.3388  0.4027 -0.2112
 5618SOL    HW128487   0.876   4.501   8.032 -1.1047  0.2620 -1.2144
 5618SOL    HW228488   0.748   4.436   8.079  0.3613  0.0502 -0.6035
 5619SOL     OW28489   4.378   0.652   7.900  0.5192  0.8902 -0.2040
 5619SOL    HW128490   4.308   0.595   7.934  0.3004  0.9182 -0.5996
 5619SOL    HW228491   4.362   0.742   7.929  0.4029  0.3875  1.2985
 5620SOL     OW28492   1.221   3.809  16.126  0.0978 -0.4735  0.6908
 5620SOL    HW128493   1.282   3.849  16.189  3.7683 -2.1384 -1.7906
 5620SOL    HW228494   1.225   3.865  16.049 -2.8837  0.9202  1.5491
 5621SOL     OW28495   1.961   4.537   4.022  0.7001  0.2293  0.2230
 5621SOL    HW128496   1.946   4.503   4.110  2.2064  2.2920  1.2586
 5621SOL    HW228497   1.879   4.546   3.972  1.2375  2.5553 -0.2191
 5622SOL     OW28498   2.494   0.457   5.008 -0.0500 -0.0917 -0.4616
 5622SOL    HW128499   2.573   0.415   5.041 -1.5033 -1.7176  0.9654
 5622SOL    HW228500   2.514   0.444   4.916 -1.7418  0.5125 -0.9072
 5623SOL     OW28501   0.913   1.536  15.703  0.3309 -0.3040 -0.3358
 5623SOL    HW128502   0.931   1.574  15.617 -0.6608  1.9279  0.4621
 5623SOL    HW228503   1.002   1.519  15.735  1.0291  1.9664 -1.1147
 5624SOL     OW28504   1.616   1.097   4.125 -0.1053  0.4735 -0.8901
 5624SOL    HW128505   1.665   1.079   4.045 -0.6345  0.8707 -1.2965
 5624SOL    HW228506   1.665   1.172   4.158  0.1130 -0.6398  1.3604
 5625SOL     OW28507   3.617   4.737   5.355  0.3481  0.2572  0.4442
 5625SOL    HW128508   3.544   0.059   5.356  1.2400  1.3129  0.7187
 5625SOL    HW228509   3.593   4.673   5.421 -2.3947  2.2882  1.4069
 5626SOL     OW28510   0.145   1.278   5.573  0.4288  0.0105 -0.6739
 5626SOL    HW128511   0.167   1.370   5.582 -0.2847  0.2537 -1.4341
 5626SOL    HW228512   0.216   1.243   5.519  0.6163 -0.9653  0.1958
 5627SOL     OW28513   4.730   0.827  16.512 -0.0267  0.3082 -0.4797
 5627SOL    HW128514   0.080   0.795  16.521 -1.1414 -2.2114  1.8344
 5627SOL    HW228515   4.681   0.751  16.542  1.3760 -0.8837 -1.1945
 5628SOL     OW28516   3.523   3.466  13.094  0.3484  0.1498 -0.2309
 5628SOL    HW128517   3.586   3.470  13.166 -0.0403  0.3380  0.1015
 5628SOL    HW228518   3.486   3.377  13.099  0.3732  0.1579  0.1226
 5629SOL     OW28519   3.566   1.635   1.647  0.4620 -0.3988  0.5723
 5629SOL    HW128520   3.653   1.657   1.681 -0.4365  1.0263  1.9802
 5629SOL    HW228521   3.524   1.564   1.696 -1.4730  1.5011  1.7023
 5630SOL     OW28522   1.777   0.427   3.626  0.1782 -0.1008  0.2802
 5630SOL    HW128523   1.694   0.456   3.589  0.9614  1.7279 -0.0073
 5630SOL    HW228524   1.831   0.505   3.637 -2.6076  1.8806 -0.2107
 5631SOL     OW28525   3.304   1.449   1.510 -0.1508  0.4286 -0.4494
 5631SOL    HW128526   3.370   1.419   1.573  1.7199  0.7531 -2.2384
 5631SOL    HW228527   3.273   1.530   1.548 -0.2852  0.2711 -0.2260
 5632SOL     OW28528   1.613   2.117  17.102 -0.4273  0.0351 -0.2119
 5632SOL    HW128529   1.641   2.167  17.026  0.1782 -1.8239 -1.2155
 5632SOL    HW228530   1.521   2.143  17.095 -0.5509 -0.6886 -1.3625
 5633SOL     OW28531   3.735   3.764   7.485  0.2682 -0.2218 -0.6176
 5633SOL    HW128532   3.669   3.817   7.530  0.4397  2.7644 -3.9219
 5633SOL    HW228533   3.813   3.763   7.541 -0.3800  0.7862  0.2960
 5634SOL     OW28534   0.402   2.504   7.961 -0.1731 -0.1006 -0.1245
 5634SOL    HW128535   0.376   2.493   7.870 -1.9984  0.7221  0.2923
 5634SOL    HW228536   0.417   2.599   7.959  2.0590 -0.4024  1.8415
 5635SOL     OW28537   0.794   3.765   5.235  0.1012 -0.3815  0.9504
 5635SOL    HW128538   0.774   3.745   5.143 -0.4867 -1.7603  1.3756
 5635SOL    HW228539   0.885   3.735   5.240 -0.0168 -1.4551 -3.0374
 5636SOL     OW28540   1.771   1.759  13.115  0.1985 -0.1338  0.6774
 5636SOL    HW128541   1.677   1.762  13.134 -0.3203  0.3398 -1.9070
 5636SOL    HW228542   1.792   1.666  13.105  2.8623  0.4820  0.6597
 5637SOL     OW28543   0.391   1.407   2.571 -0.4636  0.0402 -0.1048
 5637SOL    HW128544   0.458   1.474   2.589  0.1595 -0.3725 -0.8563
 5637SOL    HW228545   0.320   1.465   2.544 -2.3112 -2.3155 -0.2498
 5638SOL     OW28546   3.158   1.632  10.378  0.5097 -0.2817 -0.3988
 5638SOL    HW128547   3.133   1.724  10.391 -1.8948 -1.0934  0.6990
 5638SOL    HW228548   3.253   1.631  10.374  0.5412  0.2506  0.1807
 5639SOL     OW28549   2.113   0.028  13.005  0.1510 -0.0223 -0.2792
 5639SOL    HW128550   2.065   4.732  13.080  2.0587  0.0204  0.9546
 5639SOL    HW228551   2.050   0.090  12.969 -1.8597 -1.8582  0.0453
 5640SOL     OW28552   1.299   2.583   7.921 -0.2490 -0.4306  0.0985
 5640SOL    HW128553   1.373   2.561   7.865  0.1336 -1.2366  0.9296
 5640SOL    HW228554   1.321   2.537   8.002  0.9918  1.0015  0.5734
 5641SOL     OW28555   3.645   2.236   7.811  0.4642 -0.0320 -0.1196
 5641SOL    HW128556   3.562   2.274   7.784 -0.5077 -1.3521  1.0073
 5641SOL    HW228557   3.627   2.176   7.883  1.5384 -1.9027 -1.4050
 5642SOL     OW28558   2.997   2.067  11.366  0.1110 -0.1493  0.1502
 5642SOL    HW128559   2.911   2.026  11.380 -0.6549  0.5794 -2.3991
 5642SOL    HW228560   3.056   2.009  11.414  1.2820  2.0107  1.3332
 5643SOL     OW28561   1.804   2.589   5.141  0.1136  0.4570  1.7607
 5643SOL    HW128562   1.880   2.644   5.158  1.0105  0.6056 -2.7716
 5643SOL    HW228563   1.832   2.554   5.057 -0.9640  1.5240  0.9564
 5644SOL     OW28564   1.277   4.501   7.292 -0.2296 -0.7265  0.6186
 5644SOL    HW128565   1.326   4.558   7.233  0.7628 -0.9622  1.2215
 5644SOL    HW228566   1.288   4.425   7.235 -0.1385  0.9925 -1.6753
 5645SOL     OW28567   3.491   1.503   1.294 -0.4330  0.5376  0.0050
 5645SOL    HW128568   3.545   1.572   1.332 -0.0983 -0.8587  2.0583
 5645SOL    HW228569   3.428   1.490   1.365  1.2371 -1.5594  1.1056
 5646SOL     OW28570   3.275   4.024   3.997 -0.3155  0.6888  0.2821
 5646SOL    HW128571   3.201   3.979   4.039  0.6587  0.0293  1.3004
 5646SOL    HW228572   3.244   4.114   4.000  1.2976  1.2201  0.8620
 5647SOL     OW28573   2.165   3.821   2.677 -0.1641  0.3215  0.2821
 5647SOL    HW128574   2.204   3.886   2.735 -0.1669  0.9705 -0.4359
 5647SOL    HW228575   2.148   3.881   2.604  2.1723  3.1249  2.0674
 5648SOL     OW28576   2.243   0.124   9.858 -0.2639  0.0111  0.3841
 5648SOL    HW128577   2.326   0.170   9.873 -1.0206  1.5543 -0.1762
 5648SOL    HW228578   2.179   0.188   9.828  0.7370  0.9546  0.2613
 5649SOL     OW28579   0.643   4.237   5.913  0.6168 -0.2977 -0.2554
 5649SOL    HW128580   0.716   4.236   5.851 -1.4481 -2.7378 -2.6409
 5649SOL    HW228581   0.565   4.222   5.860 -0.5426 -0.3133  1.4593
 5650SOL     OW28582   2.712   2.247   6.086 -0.2539  0.1990 -0.1442
 5650SOL    HW128583   2.632   2.214   6.045  0.4790 -0.0427 -1.3702
 5650SOL    HW228584   2.698   2.341   6.093 -1.2421 -0.0153  0.6754
 5651SOL     OW28585   0.356   2.812   4.675  0.7535  0.5099  0.4252
 5651SOL    HW128586   0.371   2.830   4.582  0.8450 -1.0645  0.1378
 5651SOL    HW228587   0.296   2.738   4.671  0.4365  0.6835  1.8825
 5652SOL     OW28588   4.352   1.669   6.465  0.1083 -0.0843  0.0202
 5652SOL    HW128589   4.421   1.617   6.422 -2.1828 -1.9840 -1.3378
 5652SOL    HW228590   4.396   1.707   6.541  0.3451  3.1795 -1.7620
 5653SOL     OW28591   1.918   1.014  16.658 -0.7370  0.1341 -0.1932
 5653SOL    HW128592   1.877   0.987  16.576  3.5556 -2.0260 -1.5976
 5653SOL    HW228593   1.841   1.006  16.714 -0.6197  3.8082  0.5076
 5654SOL     OW28594   4.194   0.239   5.020  0.3829 -0.0072 -0.3265
 5654SOL    HW128595   4.160   0.316   5.066  0.8888  0.0311 -0.0139
 5654SOL    HW228596   4.213   0.182   5.095  0.8458 -0.9258 -1.1381
 5655SOL     OW28597   3.922   2.379   3.815 -0.0911  0.2717 -0.9189
 5655SOL    HW128598   3.948   2.365   3.906 -2.6599 -2.1667 -0.5333
 5655SOL    HW228599   3.898   2.471   3.820  0.8811  0.4932 -0.3926
 5656SOL     OW28600   0.192   3.549   5.684 -0.1347 -0.6649 -0.0679
 5656SOL    HW128601   0.283   3.521   5.671 -0.0066 -1.4578  2.4925
 5656SOL    HW228602   0.218   3.621   5.741  0.3705 -0.0067 -1.1379
 5657SOL     OW28603   0.051   3.168   3.241 -0.3690 -0.3266 -0.4442
 5657SOL    HW128604   0.061   3.103   3.311  1.0299 -0.9557 -1.2285
 5657SOL    HW228605   0.085   3.249   3.280  2.5316 -1.5333 -0.4447
 5658SOL     OW28606   0.023   3.131   2.241 -0.0531  0.3433 -0.2056
 5658SOL    HW128607   0.078   3.207   2.256  0.6424 -0.1448 -0.3185
 5658SOL    HW228608   4.680   3.161   2.203 -1.0174  1.5221  2.9052
 5659SOL     OW28609   3.968   0.564   8.019  0.5812  0.0192  0.2226
 5659SOL    HW128610   4.038   0.550   8.083  1.2562  2.2384 -0.0582
 5659SOL    HW228611   4.013   0.607   7.946  1.5415  2.3202  2.1765
 5660SOL     OW28612   0.085   1.918   2.711 -0.8169  0.3561 -0.0299
 5660SOL    HW128613   0.144   1.905   2.637 -0.9730  0.5725 -0.1926
 5660SOL    HW228614   0.066   2.011   2.694 -1.5896 -0.0088 -1.1781
 5661SOL     OW28615   3.692   4.624   6.468  1.0153  0.1493  0.3055
 5661SOL    HW128616   3.668   4.707   6.427  1.5079  0.3269  0.3837
 5661SOL    HW228617   3.634   4.633   6.544  1.0330 -0.5259  0.4035
 5662SOL     OW28618   4.116   2.770  15.001 -0.5032  0.3052 -0.0854
 5662SOL    HW128619   4.060   2.700  15.034 -3.0722  2.0231 -0.7665
 5662SOL    HW228620   4.152   2.739  14.918 -0.7365  0.1073 -0.1132
 5663SOL     OW28621   3.239   4.713  11.973 -0.0036  0.4767  0.3500
 5663SOL    HW128622   3.221   0.064  11.998  1.5871  0.5770  1.1465
 5663SOL    HW228623   3.334   4.714  11.987  0.2364 -2.9344 -1.0424
 5664SOL     OW28624   3.357   0.799   4.799 -0.2776 -0.2707 -0.2638
 5664SOL    HW128625   3.268   0.836   4.800 -0.4657 -0.7381  2.3293
 5664SOL    HW228626   3.385   0.819   4.710 -0.3792 -0.7071 -0.3916
 5665SOL     OW28627   2.060   4.100   5.748 -0.0405 -0.0210 -0.3041
 5665SOL    HW128628   2.142   4.064   5.714  0.9758  3.3663 -1.4937
 5665SOL    HW228629   2.014   4.125   5.668 -1.1195 -1.4128 -0.1012
 5666SOL     OW28630   3.382   3.013   2.274 -0.4508 -0.1163  0.0146
 5666SOL    HW128631   3.334   3.016   2.357 -1.6166  1.5344 -0.7191
 5666SOL    HW228632   3.474   3.015   2.302 -0.3663 -0.8685 -0.1947
 5667SOL     OW28633   1.102   0.197   8.816  0.0099  0.0644  0.4740
 5667SOL    HW128634   1.198   0.192   8.814 -0.1027 -1.8583 -1.2712
 5667SOL    HW228635   1.088   0.109   8.852 -0.7781  0.8739  2.1180
 5668SOL     OW28636   4.283   0.098   5.587  0.5288  0.2064  0.3544
 5668SOL    HW128637   4.358   0.158   5.595 -0.1694  1.2391 -0.7769
 5668SOL    HW228638   4.283   0.078   5.493 -0.5876 -0.4050  0.4944
 5669SOL     OW28639   1.730   3.740   8.802  0.0489 -0.1773 -0.5421
 5669SOL    HW128640   1.794   3.678   8.836  1.8492  2.3985  0.7043
 5669SOL    HW228641   1.778   3.787   8.733  0.5936  0.6639  0.4110
 5670SOL     OW28642   2.470   1.867   4.753 -0.3202  0.5336  0.1171
 5670SOL    HW128643   2.425   1.828   4.677 -0.2605 -0.4716  0.5914
 5670SOL    HW228644   2.507   1.783   4.783 -1.9201  0.7162  2.5514
 5671SOL     OW28645   3.164   2.776   8.918  0.1716 -0.7919 -0.5501
 5671SOL    HW128646   3.206   2.708   8.866 -1.7402 -0.9723 -1.8675
 5671SOL    HW228647   3.153   2.846   8.854 -0.2692  1.1209  1.6258
 5672SOL     OW28648   1.971   3.781   3.734  0.0198  0.3797  0.0820
 5672SOL    HW128649   1.877   3.766   3.721 -0.5256  2.0579  1.9654
 5672SOL    HW228650   2.009   3.744   3.654  0.7723 -2.0902  1.5868
 5673SOL     OW28651   2.823   3.097   2.420  0.0352 -0.2718  0.3981
 5673SOL    HW128652   2.906   3.083   2.375  0.8142 -1.1490  2.0928
 5673SOL    HW228653   2.841   3.169   2.481  1.5173  0.1327 -0.5280
 5674SOL     OW28654   2.987   3.510  14.568  0.0925 -0.4710  0.2290
 5674SOL    HW128655   2.999   3.446  14.498  1.2274  1.4264 -1.3181
 5674SOL    HW228656   3.062   3.492  14.625 -0.1749 -1.2725  0.3255
 5675SOL     OW28657   2.222   0.277   9.557 -0.0467  0.0828 -0.1620
 5675SOL    HW128658   2.266   0.341   9.502  1.1318  1.3806  2.2898
 5675SOL    HW228659   2.284   0.206   9.541  1.4067  1.3667 -0.1889
 5676SOL     OW28660   4.458   2.773   1.733 -0.0389 -0.2668  0.1751
 5676SOL    HW128661   4.441   2.765   1.827  1.2072 -0.5605  0.3814
 5676SOL    HW228662   4.538   2.825   1.739  0.2603 -0.8684  1.5561
 5677SOL     OW28663   3.241   3.613   6.501 -0.7732  0.5974 -0.0512
 5677SOL    HW128664   3.170   3.551   6.482 -1.4934  1.3691  0.1157
 5677SOL    HW228665   3.317   3.575   6.456  0.5836  0.5883  2.2823
 5678SOL     OW28666   3.410   4.207  13.512  0.2521  0.6717 -0.3059
 5678SOL    HW128667   3.492   4.158  13.517 -1.5558 -2.3633 -0.2250
 5678SOL    HW228668   3.420   4.260  13.434 -1.4888 -0.2876 -1.1777
 5679SOL     OW28669   4.525   1.948  15.215  0.6944  0.5107 -0.1457
 5679SOL    HW128670   4.450   1.889  15.222  0.7098  0.4430 -0.5820
 5679SOL    HW228671   4.588   1.896  15.166  0.9703  0.7588 -0.0490
 5680SOL     OW28672   1.331   3.501   6.488 -0.1556 -0.0933 -0.4899
 5680SOL    HW128673   1.265   3.445   6.529 -0.4065 -0.0811 -0.8802
 5680SOL    HW228674   1.400   3.502   6.554  0.5679  2.4662 -1.2772
 5681SOL     OW28675   0.201   1.576   2.461  0.3337 -0.1394 -0.0856
 5681SOL    HW128676   0.194   1.607   2.370  2.2946  1.5666  0.3327
 5681SOL    HW228677   0.216   1.664   2.495 -0.1519 -0.8770  2.0173
 5682SOL     OW28678   3.569   4.506  14.850 -0.0224 -0.8587  0.1689
 5682SOL    HW128679   3.582   4.457  14.769  0.1551 -2.6996  1.2935
 5682SOL    HW228680   3.478   4.525  14.829  0.3042 -0.3799 -0.7722
 5683SOL     OW28681   2.659   2.273   8.209 -1.1875 -0.5274 -0.2657
 5683SOL    HW128682   2.566   2.278   8.233 -1.4648 -0.2992 -1.3632
 5683SOL    HW228683   2.660   2.290   8.114 -1.0858  2.0851  0.1815
 5684SOL     OW28684   3.609   3.560   5.998  0.3885 -0.0958 -0.0092
 5684SOL    HW128685   3.629   3.539   6.089 -0.3134 -0.0778  0.1478
 5684SOL    HW228686   3.549   3.634   6.000  0.1680 -0.2986  0.6800
 5685SOL     OW28687   0.186   1.922  10.196 -0.1449 -0.0488 -0.0818
 5685SOL    HW128688   0.137   1.852  10.239 -1.4366  1.5684  1.0688
 5685SOL    HW228689   0.130   1.997  10.216 -0.5467  0.2163 -2.1191
 5686SOL     OW28690   4.331   4.220  14.641  0.4081 -0.0006  0.3685
 5686SOL    HW128691   4.287   4.153  14.693 -0.2286 -0.2025 -0.4170
 5686SOL    HW228692   4.294   4.199  14.555 -1.2561  0.8910  0.8762
 5687SOL     OW28693   0.009   1.995   9.211 -0.0831  0.4205 -0.3270
 5687SOL    HW128694   0.039   1.904   9.211 -0.8711  0.1939  3.9001
 5687SOL    HW228695   0.010   2.008   9.116  0.5253  2.0695 -0.1000
 5688SOL     OW28696   0.595   2.029   1.780 -0.0579 -0.1431 -0.2011
 5688SOL    HW128697   0.666   1.996   1.836  0.0757  0.7353  0.1596
 5688SOL    HW228698   0.622   2.120   1.764 -0.8305  0.2348  0.6363
 5689SOL     OW28699   1.108   1.496  16.214 -0.3467 -0.7989 -0.7810
 5689SOL    HW128700   1.021   1.468  16.241 -0.3101  0.5471  0.7648
 5689SOL    HW228701   1.119   1.462  16.125 -3.2849 -1.6200 -0.8141
 5690SOL     OW28702   4.556   0.223   5.627  0.2828 -0.0737  0.8032
 5690SOL    HW128703   4.602   0.139   5.619 -0.5569 -0.4807  0.1960
 5690SOL    HW228704   4.630   0.269   5.664 -0.3323  0.1392  1.7521
 5691SOL     OW28705   3.521   2.998  14.925 -0.0771  0.4248  0.4077
 5691SOL    HW128706   3.541   3.043  15.007 -1.9175  0.1937  0.9866
 5691SOL    HW228707   3.577   3.048  14.865 -1.1336  1.3746  0.2135
 5692SOL     OW28708   3.757   3.585   3.634  0.1870  0.1221 -0.9881
 5692SOL    HW128709   3.752   3.637   3.714  1.0029 -1.1645 -0.0745
 5692SOL    HW228710   3.794   3.651   3.576  1.1352 -1.4249 -2.1606
 5693SOL     OW28711   3.508   2.356   5.254 -0.2007 -0.2170 -0.2473
 5693SOL    HW128712   3.532   2.434   5.205 -1.7669  1.2236  1.3082
 5693SOL    HW228713   3.442   2.320   5.194 -1.4654 -0.2901  1.2156
 5694SOL     OW28714   3.124   4.023   1.387  1.1757  0.5538 -0.2710
 5694SOL    HW128715   3.101   4.111   1.415 -0.2894  0.1463 -0.1850
 5694SOL    HW228716   3.201   4.002   1.441  0.4543  2.5687  1.5349
 5695SOL     OW28717   1.487   0.422   2.844  0.4718  0.5846  0.0511
 5695SOL    HW128718   1.486   0.423   2.940 -0.1864  1.8540  0.0282
 5695SOL    HW228719   1.430   0.493   2.816  0.0668  0.4493  0.5253
 5696SOL     OW28720   1.366   1.027   3.397  0.0575  0.3331 -0.3096
 5696SOL    HW128721   1.390   0.935   3.410  0.5484  0.5648  0.4610
 5696SOL    HW228722   1.422   1.031   3.320  0.0623  3.5572 -0.1341
 5697SOL     OW28723   4.490   4.294  17.396  1.0150 -0.5625 -0.5381
 5697SOL    HW128724   4.458   4.381  17.371  0.7778 -0.1465  1.2654
 5697SOL    HW228725   4.473   4.247  17.314 -3.9861  1.8818 -0.8894
 5698SOL     OW28726   3.886   1.296   7.650  0.0971  0.4790  0.5854
 5698SOL    HW128727   3.977   1.279   7.675 -0.1604  0.3828  1.4733
 5698SOL    HW228728   3.883   1.269   7.558 -1.0858  2.0360  0.1595
 5699SOL     OW28729   0.514   1.666   4.235 -0.3428  0.0853 -0.1221
 5699SOL    HW128730   0.439   1.717   4.267 -0.4417 -0.8750  1.1972
 5699SOL    HW228731   0.579   1.667   4.305 -0.8162  1.7317  0.2926
 5700SOL     OW28732   1.533   2.571  14.392  0.1597 -0.1057  0.4056
 5700SOL    HW128733   1.555   2.603  14.480  0.3091 -1.7445  0.9719
 5700SOL    HW228734   1.511   2.481  14.417  3.0199 -0.5341  1.4590
 5701SOL     OW28735   3.328   0.069   8.379  0.2076  0.3156 -0.1124
 5701SOL    HW128736   3.260   0.107   8.434  0.3934  0.9029 -0.2901
 5701SOL    HW228737   3.285   4.725   8.364 -0.6701  0.8588 -0.6138
 5702SOL     OW28738   0.578   3.420  16.085  0.7621 -0.1116 -0.0883
 5702SOL    HW128739   0.543   3.439  16.172 -2.8498  1.8550 -1.9729
 5702SOL    HW228740   0.673   3.431  16.089  0.4203  2.0408  1.9477
 5703SOL     OW28741   0.927   2.964   3.815 -0.1505  0.4079 -0.1764
 5703SOL    HW128742   0.851   3.016   3.841 -1.5800 -0.5898 -2.3374
 5703SOL    HW228743   0.924   2.964   3.720 -0.7521 -1.7039 -0.1716
 5704SOL     OW28744   2.181   2.051   9.682 -0.4843 -0.2870  0.1130
 5704SOL    HW128745   2.232   2.083   9.608  0.2459  0.3486  0.8829
 5704SOL    HW228746   2.141   2.133   9.710 -1.0142 -1.0656  1.6281
 5705SOL     OW28747   0.418   4.197  14.825 -0.2436  0.1983  0.2703
 5705SOL    HW128748   0.415   4.241  14.910  0.0076 -0.5628  0.6733
 5705SOL    HW228749   0.325   4.174  14.817 -1.0663  2.2830  3.9504
 5706SOL     OW28750   1.584   2.662   4.826 -0.1122  0.5045 -0.4272
 5706SOL    HW128751   1.517   2.609   4.784  0.3818 -0.3874 -0.0879
 5706SOL    HW228752   1.547   2.682   4.912 -1.8151 -1.9124 -0.6128
 5707SOL     OW28753   3.443   4.217  16.918  0.0425  0.6475 -0.3138
 5707SOL    HW128754   3.394   4.253  16.844  1.4091  0.6951 -1.2034
 5707SOL    HW228755   3.373   4.212  16.983  1.1182 -1.2828  0.6909
 5708SOL     OW28756   2.880   1.299  15.517 -0.2530 -0.9287  0.2223
 5708SOL    HW128757   2.790   1.279  15.543 -0.5037 -0.3913 -0.2532
 5708SOL    HW228758   2.886   1.391  15.544  0.3589 -0.6143 -1.0169
 5709SOL     OW28759   4.674   3.821   8.440 -0.9685  0.4964 -0.1261
 5709SOL    HW128760   4.699   3.771   8.518  0.6567 -0.2564 -1.1039
 5709SOL    HW228761   4.595   3.773   8.418 -1.7095  1.2658  0.8553
 5710SOL     OW28762   1.633   1.535   2.970 -0.6406 -0.0590 -0.4262
 5710SOL    HW128763   1.635   1.546   2.875 -0.9484  4.3177  0.0801
 5710SOL    HW228764   1.703   1.471   2.981  0.3420  1.3742  1.7495
 5711SOL     OW28765   1.243   4.600   6.916 -0.4665 -0.2155 -0.2488
 5711SOL    HW128766   1.321   4.570   6.964 -2.2576 -1.0579  2.1480
 5711SOL    HW228767   1.207   4.653   6.987  1.0792 -0.3181  0.6129
 5712SOL     OW28768   2.097   1.406   9.032 -0.7682 -0.5289  0.3648
 5712SOL    HW128769   2.156   1.450   8.970 -0.4476  0.0737  1.0941
 5712SOL    HW228770   2.092   1.476   9.097 -1.4658  0.1007 -0.3682
 5713SOL     OW28771   1.362   2.260   4.594 -0.0695  0.0464  0.1826
 5713SOL    HW128772   1.398   2.297   4.513  2.0634  1.1965  1.6450
 5713SOL    HW228773   1.282   2.223   4.557  0.2541 -0.1364 -0.3376
 5714SOL     OW28774   3.692   2.339   8.820  0.0996 -0.5620 -0.1861
 5714SOL    HW128775   3.700   2.380   8.734  0.5739  0.5990  0.4195
 5714SOL    HW228776   3.612   2.289   8.802 -0.3080  1.3753 -3.8496
 5715SOL     OW28777   2.349   3.892  11.400 -0.1965 -0.2052  0.3604
 5715SOL    HW128778   2.386   3.975  11.429 -0.3357  0.7667 -2.2340
 5715SOL    HW228779   2.354   3.838  11.478 -0.7299  0.0536  0.5711
 5716SOL     OW28780   0.474   3.035   3.963 -0.1063 -0.5203  0.0670
 5716SOL    HW128781   0.496   2.973   4.032  0.0609 -0.7124 -0.1586
 5716SOL    HW228782   0.448   3.108   4.019  0.4822 -0.8951  0.8229
 5717SOL     OW28783   1.902   4.722   0.722 -0.4195 -0.2677 -0.0358
 5717SOL    HW128784   1.832   4.717   0.788  1.6933 -0.2214  2.2054
 5717SOL    HW228785   1.961   4.654   0.753  1.2791  1.3903  0.3480
 5718SOL     OW28786   3.427   3.406   1.620  0.1575  0.6072 -0.0331
 5718SOL    HW128787   3.491   3.395   1.550  1.4757 -1.3334  1.4615
 5718SOL    HW228788   3.462   3.492   1.643  2.1971  0.3348 -2.0912
 5719SOL     OW28789   4.439   1.925   8.073 -0.9364 -0.7747  0.1385
 5719SOL    HW128790   4.349   1.956   8.060 -1.1386 -2.1357 -1.6641
 5719SOL    HW228791   4.483   1.988   8.130  0.6639  2.2197 -4.3880
 5720SOL     OW28792   3.429   2.251   8.157  0.2635  0.1830  0.1150
 5720SOL    HW128793   3.407   2.319   8.093 -0.3429  0.9864  1.1718
 5720SOL    HW228794   3.524   2.254   8.151  0.2450  0.3569 -0.0908
 5721SOL     OW28795   0.433   1.845   7.409 -0.6891 -0.2083  0.0857
 5721SOL    HW128796   0.444   1.758   7.447  0.6128  0.8293  2.1024
 5721SOL    HW228797   0.347   1.872   7.441 -0.9329 -0.1825 -0.5873
 5722SOL     OW28798   3.303   3.043   2.551  0.0387 -0.1697 -0.4769
 5722SOL    HW128799   3.343   3.119   2.592  0.1935 -0.2398 -0.4981
 5722SOL    HW228800   3.264   3.015   2.634  0.3873 -0.1516 -0.3088
 5723SOL     OW28801   3.969   2.524   5.423  0.0736 -0.4448  0.6133
 5723SOL    HW128802   4.057   2.488   5.416 -0.8510 -2.4187 -0.7485
 5723SOL    HW228803   3.916   2.448   5.400  1.0211 -1.2090  0.9402
 5724SOL     OW28804   1.852   0.598  13.724 -0.3684 -0.2586 -0.0908
 5724SOL    HW128805   1.818   0.582  13.636  0.0123  0.4933 -0.3775
 5724SOL    HW228806   1.789   0.552  13.780 -1.9691 -1.2650 -2.6974
 5725SOL     OW28807   3.254   3.381   7.935 -0.5215 -0.1199  0.3366
 5725SOL    HW128808   3.220   3.333   7.859 -0.4362  0.3086  0.0262
 5725SOL    HW228809   3.185   3.362   7.999  1.9984 -0.9404  2.7983
 5726SOL     OW28810   0.267   0.068   3.366  0.1178 -0.2375 -0.2359
 5726SOL    HW128811   0.242   0.065   3.459 -0.8767  0.7976 -0.4717
 5726SOL    HW228812   0.326   0.143   3.365  0.0494 -0.1685  0.5407
 5727SOL     OW28813   3.535   4.590  13.928  0.4708  0.5616 -0.2583
 5727SOL    HW128814   3.509   4.680  13.907 -0.0382  0.1874 -1.2136
 5727SOL    HW228815   3.478   4.557  13.997  0.8916 -1.6441 -0.9517
 5728SOL     OW28816   0.376   4.586   9.670 -0.6146 -0.4730  0.0295
 5728SOL    HW128817   0.468   4.576   9.645 -0.3675 -1.8733  1.4816
 5728SOL    HW228818   0.334   4.524   9.611 -1.7881 -1.1641  1.5938
 5729SOL     OW28819   1.468   3.657   7.660  0.7896  0.8518  0.3518
 5729SOL    HW128820   1.410   3.671   7.734 -0.4395  0.3085 -0.5006
 5729SOL    HW228821   1.555   3.642   7.697  0.6927 -2.5457 -0.7792
 5730SOL     OW28822   1.595   2.300   8.397 -0.2092  0.2159 -0.1098
 5730SOL    HW128823   1.565   2.213   8.371  0.0092  0.1974 -0.2954
 5730SOL    HW228824   1.531   2.316   8.467  0.0480  0.5578  0.0513
 5731SOL     OW28825   2.133   0.804  15.907 -0.3211 -0.3235  0.2026
 5731SOL    HW128826   2.180   0.808  15.824  0.7881  0.5320  0.8809
 5731SOL    HW228827   2.051   0.770  15.869  0.4797 -0.8983 -1.0152
 5732SOL     OW28828   4.172   3.851   7.844  0.3588  0.0286  0.0636
 5732SOL    HW128829   4.126   3.853   7.928  0.9127 -0.6784  0.3863
 5732SOL    HW228830   4.254   3.897   7.864  0.7958 -0.5924 -0.2977
 5733SOL     OW28831   2.551   0.419   6.212 -0.1058  0.9453 -0.4149
 5733SOL    HW128832   2.641   0.396   6.190 -0.6877 -2.2606  0.5196
 5733SOL    HW228833   2.514   0.393   6.128 -1.1023  1.8449 -0.2524
 5734SOL     OW28834   4.587   0.213   3.273  0.3812 -0.6642 -0.4703
 5734SOL    HW128835   4.631   0.161   3.340  3.5913  2.5436 -0.1439
 5734SOL    HW228836   4.626   0.186   3.190  0.3134 -1.2149 -0.3231
 5735SOL     OW28837   0.411   2.686   6.177  0.4900  0.3466  0.2792
 5735SOL    HW128838   0.478   2.631   6.135 -2.2940 -3.8342  1.3199
 5735SOL    HW228839   0.472   2.743   6.224 -1.8497  1.7085  1.6206
 5736SOL     OW28840   4.170   1.087  12.095 -0.0554  0.0867 -0.1761
 5736SOL    HW128841   4.224   1.027  12.044 -1.4990 -1.1217 -0.2770
 5736SOL    HW228842   4.236   1.147  12.130  0.8873 -0.2598 -1.3941
 5737SOL     OW28843   3.587   0.989   7.257 -0.3009  0.1215 -0.0047
 5737SOL    HW128844   3.535   1.060   7.220 -1.6891 -1.0800 -0.3870
 5737SOL    HW228845   3.598   0.925   7.186  0.8623 -1.6719  1.7866
 5738SOL     OW28846   1.004   1.353   9.575  0.1656  0.0426  0.5682
 5738SOL    HW128847   0.945   1.428   9.566 -1.6975 -1.5983 -1.0412
 5738SOL    HW228848   1.014   1.331   9.668  0.2375  0.8095  0.7393
 5739SOL     OW28849   3.746   4.129  10.996  0.4435  0.0565 -0.3327
 5739SOL    HW128850   3.764   4.113  11.088 -2.1169 -0.8876  0.0302
 5739SOL    HW228851   3.693   4.052  10.973  1.6465 -0.3830 -1.6369
 5740SOL     OW28852   2.041   2.916   5.972  0.4234  0.0202  0.6667
 5740SOL    HW128853   2.119   2.860   5.974 -1.1950 -2.2463  0.2765
 5740SOL    HW228854   1.988   2.868   5.909  0.7061  1.0285 -0.3272
 5741SOL     OW28855   4.337   3.380  17.177 -0.2602 -0.2490 -0.4791
 5741SOL    HW128856   4.432   3.386  17.169 -0.0462 -1.9910  0.6772
 5741SOL    HW228857   4.317   3.302  17.124 -1.1867 -0.4008  0.0783
 5742SOL     OW28858   3.206   1.817   1.843  0.1871 -0.5796  0.3595
 5742SOL    HW128859   3.227   1.911   1.839  0.3017 -0.4823  2.8749
 5742SOL    HW228860   3.136   1.812   1.908  2.0371  0.4484  2.4397
 5743SOL     OW28861   4.298   4.276   8.545  0.5932 -0.0148  0.1487
 5743SOL    HW128862   4.366   4.307   8.485  0.9383  2.9102  2.0444
 5743SOL    HW228863   4.230   4.342   8.534 -1.8947 -2.5451  0.4047
 5744SOL     OW28864   0.783   0.752   5.242 -0.2775  0.8204  0.0250
 5744SOL    HW128865   0.714   0.808   5.206 -0.9857 -1.5659 -2.3618
 5744SOL    HW228866   0.791   0.800   5.325  1.1632 -1.6531  1.3106
 5745SOL     OW28867   1.544   1.223  12.078 -0.7006  0.0167  0.1518
 5745SOL    HW128868   1.639   1.227  12.088 -0.8534 -0.9251  1.9057
 5745SOL    HW228869   1.526   1.132  12.099  0.6015 -0.5196 -1.0604
 5746SOL     OW28870   1.314   0.430   5.932 -0.4511 -0.3606 -0.4111
 5746SOL    HW128871   1.223   0.456   5.918  0.1076  2.2162  0.5950
 5746SOL    HW228872   1.351   0.452   5.846 -1.3732  1.5853 -0.3272
 5747SOL     OW28873   4.168   2.374  11.266  0.1369 -0.1841 -0.2754
 5747SOL    HW128874   4.117   2.440  11.219  0.4095 -0.7311 -1.3493
 5747SOL    HW228875   4.138   2.290  11.230  1.6161 -1.4151  1.4250
 5748SOL     OW28876   0.282   2.378   7.495 -0.1517 -0.9899  0.4144
 5748SOL    HW128877   0.244   2.433   7.426 -0.8329  1.0719  2.4546
 5748SOL    HW228878   0.308   2.304   7.441  2.1412 -1.2554  1.8883
 5749SOL     OW28879   4.066   3.816   5.447 -0.3439 -0.1310  0.0639
 5749SOL    HW128880   4.151   3.819   5.490  0.1460 -2.6763 -0.7385
 5749SOL    HW228881   4.014   3.764   5.507 -0.5293 -0.4852 -0.4003
 5750SOL     OW28882   3.788   2.044   7.668  0.1314  0.4710 -0.0558
 5750SOL    HW128883   3.738   2.107   7.719 -1.6226 -1.4062  0.5626
 5750SOL    HW228884   3.827   2.109   7.610  1.0365 -0.8274 -0.9084
 5751SOL     OW28885   1.604   4.085  10.764  0.3641  0.0801 -0.1225
 5751SOL    HW128886   1.646   4.027  10.700 -1.7153 -0.8980 -0.5730
 5751SOL    HW228887   1.669   4.079  10.835 -1.5462  2.0509  1.8229
 5752SOL     OW28888   2.618   0.023   8.763 -0.2543 -0.0893 -0.3633
 5752SOL    HW128889   2.682   0.000   8.695 -0.0290  1.0079 -0.5195
 5752SOL    HW228890   2.670   0.019   8.843 -0.4925  2.3717 -0.0810
 5753SOL     OW28891   1.244   3.735   7.532 -0.0518  0.1165  0.0212
 5753SOL    HW128892   1.330   3.729   7.573 -0.0449  1.4792  0.1939
 5753SOL    HW228893   1.220   3.827   7.520 -0.6833 -0.0831 -0.2553
 5754SOL     OW28894   1.094   1.533   2.315  0.6455  0.5313 -0.3540
 5754SOL    HW128895   1.094   1.450   2.267 -1.6368 -0.3320  1.0821
 5754SOL    HW228896   1.024   1.515   2.379  0.9310  2.9127  0.6368
 5755SOL     OW28897   1.899   1.448  12.440  0.0177  0.4848 -0.1749
 5755SOL    HW128898   1.900   1.401  12.523 -1.1872  0.2593 -0.2945
 5755SOL    HW228899   1.918   1.535  12.473  1.3725  1.1128 -2.5276
 5756SOL     OW28900   2.781   1.789  17.541 -0.6651 -0.2492  0.1541
 5756SOL    HW128901   2.803   1.738  17.619  0.4635 -0.6640 -0.4424
 5756SOL    HW228902   2.853   1.852  17.538 -2.2399  1.5640  0.7654
 5757SOL     OW28903   0.959   2.559  17.308 -0.2640  0.1091 -0.2186
 5757SOL    HW128904   1.025   2.534  17.243  2.1247 -2.0957  3.0353
 5757SOL    HW228905   0.959   2.485  17.369  0.3982  3.3534  3.6661
 5758SOL     OW28906   1.900   3.617  16.164 -0.0836 -0.1892  0.0585
 5758SOL    HW128907   1.808   3.621  16.139 -0.2409  0.2122  0.6923
 5758SOL    HW228908   1.896   3.572  16.248  1.1699  2.5470  1.5784
 5759SOL     OW28909   2.599   1.111  14.699 -0.2820 -0.4889  0.4068
 5759SOL    HW128910   2.686   1.147  14.685  0.5468 -3.1381 -1.2561
 5759SOL    HW228911   2.533   1.168  14.661 -1.7564 -2.4800 -0.0523
 5760SOL     OW28912   2.199   1.506   9.327  0.0767 -0.1185  0.4372
 5760SOL    HW128913   2.203   1.586   9.274  0.4163 -1.1406 -1.0943
 5760SOL    HW228914   2.283   1.463   9.312 -1.2070 -2.3281 -0.4716
 5761SOL     OW28915   1.984   1.580  12.855  0.2793 -0.0495  0.1816
 5761SOL    HW128916   1.974   1.673  12.875 -0.1552 -0.1326  0.3534
 5761SOL    HW228917   2.010   1.580  12.764  0.0919 -0.3657  0.1298
 5762SOL     OW28918   2.929   1.211   2.557  0.2455  0.0486  0.1793
 5762SOL    HW128919   2.903   1.161   2.634  0.2301  0.8307  0.6704
 5762SOL    HW228920   2.971   1.145   2.501  1.0807  1.0769 -0.3930
 5763SOL     OW28921   0.319   0.198   8.580 -0.0381  0.4426 -0.0098
 5763SOL    HW128922   0.251   0.258   8.610  0.1962  1.3237 -1.2446
 5763SOL    HW228923   0.384   0.221   8.647  0.9832 -0.9663 -0.5132
 5764SOL     OW28924   1.246   3.811  10.676  0.6387  0.1651 -0.2718
 5764SOL    HW128925   1.256   3.832  10.769 -0.0541  0.0502 -0.1696
 5764SOL    HW228926   1.337   3.807  10.649  0.4441  2.3802 -1.2374
 5765SOL     OW28927   0.111   3.833   4.833 -0.7363  0.0128 -0.3272
 5765SOL    HW128928   0.075   3.909   4.788 -1.7995  0.8189  1.8757
 5765SOL    HW228929   0.034   3.778   4.848 -0.1235 -0.4535  1.1056
 5766SOL     OW28930   2.685   4.699   6.053  0.0545  0.0034  0.2894
 5766SOL    HW128931   2.660   4.703   5.960 -1.4209 -2.8997  0.5486
 5766SOL    HW228932   2.776   4.727   6.053 -0.2254  0.9237 -0.5939
 5767SOL     OW28933   1.802   3.187  13.630 -0.1373  0.7307  0.0013
 5767SOL    HW128934   1.853   3.107  13.646  0.4014  0.9265 -0.7440
 5767SOL    HW228935   1.874   3.250  13.618 -1.4734  2.2632  0.1159
 5768SOL     OW28936   0.552   4.674  14.818 -0.3417 -0.1155  0.3254
 5768SOL    HW128937   0.578   4.583  14.803 -1.5542 -0.4657  0.3293
 5768SOL    HW228938   0.572   4.720  14.737  0.6859 -0.4791  0.3773
 5769SOL     OW28939   0.168   2.534   3.600 -0.0720 -0.4558  0.3497
 5769SOL    HW128940   0.111   2.471   3.556  1.2982 -0.0013 -2.0520
 5769SOL    HW228941   0.219   2.482   3.662  1.7894 -0.7651 -1.4322
 5770SOL     OW28942   0.419   1.440   9.263  0.5459  0.0749 -0.1284
 5770SOL    HW128943   0.324   1.441   9.280  0.5833  0.5541  0.0623
 5770SOL    HW228944   0.441   1.531   9.244  0.2990  0.3595  0.8948
 5771SOL     OW28945   0.288   4.055   7.421  0.3509 -0.4172 -0.5501
 5771SOL    HW128946   0.246   4.083   7.339 -2.6770  0.8185  1.4436
 5771SOL    HW228947   0.362   4.116   7.424 -0.2438  0.1065  3.1120
 5772SOL     OW28948   1.253   0.173   6.208  0.5815  0.8640  0.1426
 5772SOL    HW128949   1.247   0.099   6.268  2.2976  1.7928  1.4513
 5772SOL    HW228950   1.162   0.204   6.215  0.1712 -0.4105  0.3604
 5773SOL     OW28951   4.230   0.310  11.161  0.1185 -0.0127 -0.0076
 5773SOL    HW128952   4.279   0.352  11.091  0.9611  0.5244  0.8965
 5773SOL    HW228953   4.254   0.217  11.153  1.8140  0.5945 -1.7716
 5774SOL     OW28954   0.887   3.582   9.629  0.1821 -0.2513 -0.1228
 5774SOL    HW128955   0.931   3.622   9.554 -0.7353  1.7292  0.3913
 5774SOL    HW228956   0.896   3.491   9.601  0.9220 -0.3448  0.4568
 5775SOL     OW28957   4.204   3.039   6.936 -0.1419  0.4130 -0.1087
 5775SOL    HW128958   4.117   3.078   6.929 -0.2976  0.2315  0.7536
 5775SOL    HW228959   4.193   2.956   6.889 -0.6899 -0.5901  1.7533
 5776SOL     OW28960   2.462   0.287   3.739 -0.3499 -0.1267  0.1204
 5776SOL    HW128961   2.490   0.196   3.740 -1.0491 -0.3342  0.2663
 5776SOL    HW228962   2.368   0.281   3.750 -0.1975 -1.5428  0.5712
 5777SOL     OW28963   3.925   1.989   2.624  0.5529 -0.2028 -0.2854
 5777SOL    HW128964   3.887   1.967   2.709  0.9525  0.8759  0.1717
 5777SOL    HW228965   4.016   1.984   2.652  0.8120  0.5624 -1.0049
 5778SOL     OW28966   2.530   3.666   2.884  0.3657 -0.0612  0.2682
 5778SOL    HW128967   2.578   3.647   2.803 -1.1439  1.1244 -0.9083
 5778SOL    HW228968   2.450   3.617   2.865  1.2207 -1.1724 -0.5165
 5779SOL     OW28969   2.183   0.202   3.769  0.4799  0.4166 -0.1905
 5779SOL    HW128970   2.116   0.214   3.701 -1.2887 -0.5868  1.3914
 5779SOL    HW228971   2.158   0.114   3.797  0.3292 -0.0424 -1.7473
 5780SOL     OW28972   3.525   1.126   8.476 -0.5832  0.3504  0.0429
 5780SOL    HW128973   3.459   1.145   8.410  0.4157  0.4455 -0.9355
 5780SOL    HW228974   3.487   1.153   8.560  1.8768  1.0839  0.9322
 5781SOL     OW28975   1.831   1.145  11.080 -0.3195 -0.2334  0.4795
 5781SOL    HW128976   1.845   1.077  11.147  0.0687 -0.9566 -0.3360
 5781SOL    HW228977   1.896   1.107  11.022  0.4885  0.4825  0.9225
 5782SOL     OW28978   0.942   4.172   8.025  0.4102  0.3093 -0.1519
 5782SOL    HW128979   0.886   4.168   7.947 -1.8387  2.0302  1.3769
 5782SOL    HW228980   0.905   4.248   8.070  2.3164  0.6823  0.8059
 5783SOL     OW28981   2.537   4.309  15.958 -0.8430  0.1057 -0.0736
 5783SOL    HW128982   2.591   4.387  15.970  0.4702 -0.6147 -1.2726
 5783SOL    HW228983   2.571   4.261  15.882  0.4452  1.1298 -0.1369
 5784SOL     OW28984   4.539   1.368   7.600  0.4962 -0.0209 -0.2542
 5784SOL    HW128985   4.457   1.327   7.571  0.2326 -0.8183  1.6722
 5784SOL    HW228986   4.505   1.457   7.614  2.1297  0.5759 -0.1038
 5785SOL     OW28987   0.066   4.091  12.163  0.4474 -0.5202 -0.1502
 5785SOL    HW128988   0.032   4.045  12.240 -1.0152  0.9628  0.0715
 5785SOL    HW228989   0.102   4.018  12.112  0.5379 -1.3524  1.1053
 5786SOL     OW28990   4.504   1.320   5.397 -0.0690  0.3153  0.2087
 5786SOL    HW128991   4.437   1.327   5.466 -0.2651  1.7394 -0.1102
 5786SOL    HW228992   4.501   1.408   5.358  1.1381  0.2926  0.0829
 5787SOL     OW28993   4.435   1.141   8.602 -0.2732 -0.2765 -0.1935
 5787SOL    HW128994   4.526   1.120   8.623 -0.8135 -0.7161  1.7531
 5787SOL    HW228995   4.387   1.089   8.666 -0.6347  1.6523  1.1008
 5788SOL     OW28996   2.607   1.837   4.275  0.6406  1.5346  0.1170
 5788SOL    HW128997   2.620   1.919   4.323 -0.4650  1.0798  1.1961
 5788SOL    HW228998   2.512   1.839   4.258  0.4087 -1.2982  1.0451
 5789SOL     OW28999   3.609   0.931   6.365  0.0829 -0.2738 -0.3345
 5789SOL    HW129000   3.527   0.909   6.319 -0.3763 -1.4173  1.0275
 5789SOL    HW229001   3.656   0.990   6.307 -0.4170 -0.1370 -0.6063
 5790SOL     OW29002   3.204   3.168  14.280  0.6080  1.0841 -0.8476
 5790SOL    HW129003   3.169   3.120  14.205 -3.1289 -0.0519  1.5934
 5790SOL    HW229004   3.267   3.225  14.237  0.4493  0.2853 -2.1411
 5791SOL     OW29005   1.095   4.412  12.720 -0.7737  0.2782  0.0898
 5791SOL    HW129006   1.072   4.367  12.639  0.5692  0.3880 -0.3495
 5791SOL    HW229007   1.114   4.331  12.767  2.0181  1.1735  0.5246
 5792SOL     OW29008   0.622   2.658  16.511  0.5749  0.0095 -0.0119
 5792SOL    HW129009   0.678   2.690  16.582  1.1228 -0.9071 -0.0439
 5792SOL    HW229010   0.541   2.705  16.532  1.0583 -0.1675  2.2020
 5793SOL     OW29011   3.031   2.135   1.773 -0.2931  0.6311  0.1266
 5793SOL    HW129012   2.982   2.055   1.755 -0.4733  0.5254  1.0458
 5793SOL    HW229013   3.109   2.121   1.720  1.1093  1.9207  1.8275
 5794SOL     OW29014   4.007   1.590   6.176 -0.2569  0.0574 -0.3144
 5794SOL    HW129015   3.936   1.650   6.154 -1.8678 -2.4500 -2.0257
 5794SOL    HW229016   4.083   1.639   6.145 -1.0025  2.5424  1.8308
 5795SOL     OW29017   0.048   4.386   5.427 -0.3910 -0.4154  0.2092
 5795SOL    HW129018   4.722   4.324   5.458 -1.1051 -0.0147 -0.5270
 5795SOL    HW229019   0.041   4.374   5.333  0.4568  1.1151 -0.0440
 5796SOL     OW29020   4.072   3.502   6.720 -0.3496 -0.0748 -0.3949
 5796SOL    HW129021   4.067   3.505   6.815  1.4711  2.2498 -0.3828
 5796SOL    HW229022   3.981   3.472   6.713  0.4557 -2.5245 -0.0655
 5797SOL     OW29023   3.779   0.905   3.249 -0.2207  0.4473 -0.0075
 5797SOL    HW129024   3.868   0.869   3.256  0.2169  1.5442  0.0185
 5797SOL    HW229025   3.803   0.965   3.179 -1.7311 -0.0762 -0.9574
 5798SOL     OW29026   1.965   4.425   4.908 -0.0379  0.2140  0.0524
 5798SOL    HW129027   2.029   4.488   4.873  0.4889  0.1582  0.9152
 5798SOL    HW229028   1.903   4.433   4.835 -0.4081  1.5588  0.5109
 5799SOL     OW29029   1.994   3.102   3.851  0.3607  0.8337 -0.2785
 5799SOL    HW129030   1.971   3.191   3.822 -1.6177 -0.2937 -2.2290
 5799SOL    HW229031   2.042   3.078   3.772  0.4220 -1.0377  0.3493
 5800SOL     OW29032   2.255   1.881   5.841  0.2800  0.1105  0.3776
 5800SOL    HW129033   2.174   1.875   5.791  1.4543 -1.8387 -1.3132
 5800SOL    HW229034   2.301   1.922   5.768  0.7161 -0.9133  0.0839
 5801SOL     OW29035   2.369   4.677   4.743  0.4661 -0.4041  0.2894
 5801SOL    HW129036   2.387   4.592   4.782 -1.6552 -1.0524 -0.1333
 5801SOL    HW229037   2.275   4.679   4.761  0.0757  1.2104 -1.8719
 5802SOL     OW29038   0.298   2.469  11.621  0.2728 -0.5840 -0.2895
 5802SOL    HW129039   0.228   2.531  11.639  1.5928  0.0454  2.5689
 5802SOL    HW229040   0.303   2.490  11.528  0.0489 -0.0988 -0.1899
 5803SOL     OW29041   0.134   3.113   5.150 -0.5992 -0.2802  0.0427
 5803SOL    HW129042   0.150   3.207   5.148 -0.4008 -0.2766  1.5108
 5803SOL    HW229043   0.227   3.095   5.164 -0.9832 -0.3760  2.4319
 5804SOL     OW29044   4.139   1.627   8.466 -0.2598 -0.1394 -0.7468
 5804SOL    HW129045   4.201   1.555   8.458 -0.6874 -0.6230  0.3081
 5804SOL    HW229046   4.158   1.662   8.378  0.0421  0.3862 -0.4735
 5805SOL     OW29047   0.433   0.938   5.964 -0.2771  0.8514  0.1609
 5805SOL    HW129048   0.357   0.901   5.918  0.1050  0.5371 -0.2158
 5805SOL    HW229049   0.379   1.012   5.994  0.2514  0.9930  0.7453
 5806SOL     OW29050   3.743   1.853   4.235 -0.8121  0.0003  0.2682
 5806SOL    HW129051   3.820   1.863   4.180 -0.6798  1.7966  0.7853
 5806SOL    HW229052   3.762   1.774   4.285  0.9245  0.6869  0.6783
 5807SOL     OW29053   0.720   4.223   9.794 -0.3567 -0.8919  1.4615
 5807SOL    HW129054   0.760   4.294   9.844  1.6839 -1.2979  0.4188
 5807SOL    HW229055   0.736   4.150   9.854  0.4565  0.1902  2.5629
 5808SOL     OW29056   4.389   1.370   7.198 -0.0142 -0.5254 -0.4064
 5808SOL    HW129057   4.428   1.456   7.186  1.5175 -1.1103  0.3287
 5808SOL    HW229058   4.470   1.322   7.218 -0.4546 -2.3480 -2.9997
 5809SOL     OW29059   0.015   2.169   6.386  0.0320  0.3971  0.5139
 5809SOL    HW129060   0.082   2.102   6.372  0.2736  0.2552  2.3902
 5809SOL    HW229061   4.723   2.147   6.473  0.9119 -0.5700  0.5922
 5810SOL     OW29062   4.660   0.418   9.044  0.0834 -0.0713  0.3756
 5810SOL    HW129063   4.621   0.343   9.089 -4.0754  0.7909 -1.7830
 5810SOL    HW229064   4.629   0.494   9.093  0.2947  0.0788  0.2804
 5811SOL     OW29065   3.794   1.435   3.286  0.5820  0.4225  0.1008
 5811SOL    HW129066   3.726   1.479   3.337 -0.3180  0.0852 -0.8035
 5811SOL    HW229067   3.849   1.511   3.267  0.5058  0.4456 -0.0296
 5812SOL     OW29068   3.615   1.263   7.811 -0.0941  0.1311 -0.0144
 5812SOL    HW129069   3.571   1.333   7.860 -0.4194 -1.1093  1.4628
 5812SOL    HW229070   3.699   1.308   7.807  2.0257 -3.7056  1.3939
 5813SOL     OW29071   2.608   1.543   1.295  0.2644  0.3769  0.8306
 5813SOL    HW129072   2.581   1.576   1.380 -2.4805  1.1285 -0.3334
 5813SOL    HW229073   2.591   1.623   1.246  1.3882 -0.2080 -0.5184
 5814SOL     OW29074   1.502   3.768   6.693  0.5301 -0.3277 -0.7169
 5814SOL    HW129075   1.580   3.781   6.746 -0.3332 -0.2158  0.5476
 5814SOL    HW229076   1.462   3.693   6.739 -0.4636  2.2090  2.5777
 5815SOL     OW29077   2.852   4.006   1.647  0.8190  0.0992  0.1768
 5815SOL    HW129078   2.797   4.061   1.703  0.6535 -0.4377  0.5434
 5815SOL    HW229079   2.900   4.079   1.609  1.4261  0.2558  1.2485
 5816SOL     OW29080   1.670   2.670   1.823  0.3536  0.0965 -0.5436
 5816SOL    HW129081   1.722   2.619   1.761  0.6755  2.2755 -2.0785
 5816SOL    HW229082   1.670   2.752   1.772 -0.1531  1.3116  1.4296
 5817SOL     OW29083   3.044   3.759   8.434  0.3732 -0.7287 -0.3185
 5817SOL    HW129084   3.030   3.806   8.352 -1.6318 -0.7350  0.0079
 5817SOL    HW229085   3.138   3.769   8.427  0.6468 -3.0782 -0.1423
 5818SOL     OW29086   2.360   0.853   8.749 -0.4486 -0.1407 -0.0997
 5818SOL    HW129087   2.276   0.871   8.707 -0.6870 -0.2795  0.3174
 5818SOL    HW229088   2.422   0.873   8.679 -1.0433 -1.3546 -0.9843
 5819SOL     OW29089   3.730   1.502   0.809 -0.0292  0.3754 -0.8354
 5819SOL    HW129090   3.674   1.572   0.842  1.2086  0.6325  0.7452
 5819SOL    HW229091   3.751   1.537   0.722 -0.7724  1.4019 -0.5996
 5820SOL     OW29092   1.851   0.648   1.596 -0.3193  0.1192 -0.0361
 5820SOL    HW129093   1.884   0.737   1.586  0.0486  0.3414  3.0639
 5820SOL    HW229094   1.853   0.628   1.690  1.0319 -0.1443 -0.1306
 5821SOL     OW29095   4.223   2.396  16.779  0.3879  0.2569 -0.0035
 5821SOL    HW129096   4.193   2.373  16.867 -1.3235  0.7846 -0.4365
 5821SOL    HW229097   4.316   2.393  16.798  0.6824  1.4515 -1.2323
 5822SOL     OW29098   4.569   2.445  14.344 -0.2084 -0.4432 -0.4560
 5822SOL    HW129099   4.561   2.518  14.283  0.8325  1.0634  1.2116
 5822SOL    HW229100   4.651   2.403  14.314  0.5381  1.6131 -1.2669
 5823SOL     OW29101   0.815   4.731  12.635  0.7245 -0.4734 -0.2432
 5823SOL    HW129102   0.802   0.081  12.605  0.1230 -0.2856  0.5631
 5823SOL    HW229103   0.762   4.684  12.571 -1.6577  0.4357  1.0538
 5824SOL     OW29104   4.669   1.001  15.097 -0.2544  0.4690 -0.3193
 5824SOL    HW129105   4.721   0.945  15.154 -0.4189 -1.1446 -1.7614
 5824SOL    HW229106   4.739   1.032  15.041  0.4319  2.1128  1.4128
 5825SOL     OW29107   3.232   2.309   1.279  0.6133 -0.4013 -0.2081
 5825SOL    HW129108   3.165   2.266   1.226  0.0465 -1.1973  1.1488
 5825SOL    HW229109   3.264   2.370   1.213 -0.8809  0.6437  0.0319
 5826SOL     OW29110   4.231   2.453   4.896  0.5037 -0.2047 -0.4109
 5826SOL    HW129111   4.235   2.362   4.924  0.4726 -0.1107 -0.0928
 5826SOL    HW229112   4.323   2.478   4.904  0.4449 -0.6239  1.7791
 5827SOL     OW29113   1.390   2.165   6.679 -0.4376 -0.5294  0.0727
 5827SOL    HW129114   1.408   2.079   6.640  1.3567  0.7960 -2.0123
 5827SOL    HW229115   1.438   2.163   6.762  1.6386  0.3397 -1.1007
 5828SOL     OW29116   3.244   3.309   1.022  0.2843 -0.0958 -0.1897
 5828SOL    HW129117   3.201   3.368   1.084  0.0105 -1.0365  0.5073
 5828SOL    HW229118   3.321   3.297   1.077  0.5188 -3.2149 -1.2098
 5829SOL     OW29119   3.008   3.775  14.608 -0.2443  0.2973 -0.2949
 5829SOL    HW129120   3.088   3.772  14.661 -1.0591 -2.0429  0.7758
 5829SOL    HW229121   2.994   3.687  14.572 -2.0077 -0.2825  1.8497
 5830SOL     OW29122   2.473   4.687  16.383  0.0680  0.2547 -0.1627
 5830SOL    HW129123   2.421   0.026  16.370  0.6340  0.4977 -0.8912
 5830SOL    HW229124   2.466   4.662  16.291 -0.4810 -1.6667  0.3920
 5831SOL     OW29125   4.631   1.332   4.799 -0.3376  0.0242 -0.2659
 5831SOL    HW129126   4.600   1.384   4.873 -1.3219 -0.5747 -0.2565
 5831SOL    HW229127   4.578   1.254   4.814 -0.4036  0.4827  1.9184
 5832SOL     OW29128   0.192   1.716  15.023  0.9831 -0.1241  0.1871
 5832SOL    HW129129   0.192   1.621  15.036 -1.1880 -0.1790 -0.3450
 5832SOL    HW229130   0.158   1.723  14.933  0.4384  0.9659  0.4721
 5833SOL     OW29131   1.426   1.309   1.210  0.0883 -0.4708 -0.4809
 5833SOL    HW129132   1.502   1.251   1.202 -1.1601 -1.7291 -3.0159
 5833SOL    HW229133   1.463   1.391   1.175 -2.1471 -0.2604 -2.3020
 5834SOL     OW29134   1.932   1.024  14.628  0.5314 -0.9140 -0.0665
 5834SOL    HW129135   1.955   1.094  14.689 -3.4902  0.2240  0.1304
 5834SOL    HW229136   2.015   0.976  14.623  0.0002 -1.9401  0.9253
 5835SOL     OW29137   0.908   3.140  13.183 -0.2673  0.2555  0.5174
 5835SOL    HW129138   0.982   3.158  13.241 -2.1714  0.6668  2.7926
 5835SOL    HW229139   0.947   3.076  13.122  0.1639 -0.0863  1.1525
 5836SOL     OW29140   1.697   1.781   1.478  0.3492  0.0171  0.4332
 5836SOL    HW129141   1.671   1.740   1.395  2.2916  0.7283 -0.5418
 5836SOL    HW229142   1.624   1.840   1.497 -0.7701 -1.9158  2.1293
 5837SOL     OW29143   0.913   2.629   0.280 -0.5470  0.4213 -0.3176
 5837SOL    HW129144   0.989   2.579   0.309 -0.5378  0.1381 -0.8201
 5837SOL    HW229145   0.889   2.691   0.348 -0.2504 -2.2154  2.1820
 5838SOL     OW29146   3.041   1.721  11.333 -0.5605 -0.4019  0.0713
 5838SOL    HW129147   2.976   1.652  11.348  0.3290 -0.7245  2.3809
 5838SOL    HW229148   3.000   1.770  11.261  1.7981 -1.2932 -1.8434
 5839SOL     OW29149   4.065   0.329   8.398  0.1440  0.4774 -0.1724
 5839SOL    HW129150   4.131   0.278   8.445 -1.1719 -1.0633  0.0234
 5839SOL    HW229151   3.982   0.302   8.438  1.6809 -1.1587  1.9414
 5840SOL     OW29152   2.828   0.642   7.071  0.3016 -0.4649  0.2976
 5840SOL    HW129153   2.747   0.681   7.105  1.3053  2.3789 -0.5366
 5840SOL    HW229154   2.865   0.618   7.156  1.5151  1.8640  0.4190
 5841SOL     OW29155   0.684   0.067   3.217 -0.1871 -0.5137  0.4871
 5841SOL    HW129156   0.628   0.073   3.139 -0.9638 -1.9166  0.9265
 5841SOL    HW229157   0.679   0.160   3.235  0.7571 -0.5322  0.8509
 5842SOL     OW29158   0.028   2.433  17.242  0.1657  0.2968 -0.1048
 5842SOL    HW129159   0.068   2.396  17.321 -0.0596  0.3211  0.0228
 5842SOL    HW229160   4.735   2.514  17.281  1.0452  0.3381  0.5646
 5843SOL     OW29161   3.302   3.869   3.066  0.7513 -0.0917 -0.5580
 5843SOL    HW129162   3.387   3.827   3.084  1.9273  1.9361 -1.3597
 5843SOL    HW229163   3.299   3.912   3.151  0.7043 -1.3588  0.0875
 5844SOL     OW29164   0.558   2.829  15.396  0.1879 -1.0310  0.4402
 5844SOL    HW129165   0.468   2.858  15.411  0.8793  0.5098  1.5084
 5844SOL    HW229166   0.577   2.856  15.306 -1.3787 -0.0130  0.4134
 5845SOL     OW29167   0.179   4.719   7.313 -0.1233  0.0786  0.1151
 5845SOL    HW129168   0.260   4.668   7.322 -0.4932 -0.9690 -2.4365
 5845SOL    HW229169   0.211   0.068   7.300  0.8533  0.2552  3.8711
 5846SOL     OW29170   4.236   3.130   7.949  0.1651 -0.0362  0.3354
 5846SOL    HW129171   4.272   3.053   7.905  0.3998  0.7924 -0.9326
 5846SOL    HW229172   4.198   3.173   7.872  1.0610 -0.3145 -0.2597
 5847SOL     OW29173   4.658   2.192   7.273  0.6031  0.1497  0.2211
 5847SOL    HW129174   4.649   2.109   7.228  1.2624  1.0271 -1.5304
 5847SOL    HW229175   4.617   2.249   7.208  0.8402  0.5132  0.3893
 5848SOL     OW29176   4.205   1.985   2.688 -0.5678 -0.2794 -0.5271
 5848SOL    HW129177   4.237   1.946   2.769 -0.9296  1.9743  0.7138
 5848SOL    HW229178   4.287   2.013   2.647 -0.7861  0.6047 -0.3714
 5849SOL     OW29179   1.704   2.916   5.471 -0.2998 -0.3049  0.0270
 5849SOL    HW129180   1.733   3.003   5.497 -1.7269  0.0311  0.4833
 5849SOL    HW229181   1.789   2.882   5.443  0.7413  1.7973  0.6184
 5850SOL     OW29182   1.297   1.035   9.080  0.1599  0.0266  0.6161
 5850SOL    HW129183   1.264   1.067   8.996 -2.4211 -1.6212  1.0061
 5850SOL    HW229184   1.389   1.060   9.087 -0.1112  0.9057  1.0702
 5851SOL     OW29185   4.500   4.162   4.123 -0.0290  0.2008 -0.6464
 5851SOL    HW129186   4.480   4.081   4.170  0.4820  1.0571  1.0632
 5851SOL    HW229187   4.460   4.228   4.181  0.7484 -0.0130  0.1348
 5852SOL     OW29188   0.103   4.144   5.611 -0.3618  0.3164  0.0736
 5852SOL    HW129189   0.078   4.195   5.688  0.3076  0.5321  0.1480
 5852SOL    HW229190   0.151   4.072   5.652 -0.0857  0.9232  0.8033
 5853SOL     OW29191   2.565   1.203   7.190 -0.5341  0.4299  0.2463
 5853SOL    HW129192   2.544   1.296   7.180  0.2348  0.6346  0.5656
 5853SOL    HW229193   2.617   1.187   7.268 -1.6933 -1.9778  0.5231
 5854SOL     OW29194   0.953   3.144  16.006 -0.0653 -0.3309 -0.2835
 5854SOL    HW129195   0.949   3.235  16.035  0.6546  0.5781 -3.0475
 5854SOL    HW229196   1.043   3.150  15.977 -0.3461  2.4669 -0.6342
 5855SOL     OW29197   4.668   3.954  12.409  0.3225 -0.4706  0.3075
 5855SOL    HW129198   4.721   3.880  12.379 -0.7392 -1.6110  1.2241
 5855SOL    HW229199   4.581   3.915  12.398 -0.0149  0.0867  1.0008
 5856SOL     OW29200   0.254   3.492   3.867  0.0496  0.3656  0.1318
 5856SOL    HW129201   0.271   3.424   3.801  0.2498 -0.7158  1.2895
 5856SOL    HW229202   0.217   3.565   3.817  0.1821  0.9477  0.8988
 5857SOL     OW29203   0.567   4.655   1.810 -0.8399 -0.0613  0.4276
 5857SOL    HW129204   0.495   4.596   1.786  1.6085 -2.2967 -1.4385
 5857SOL    HW229205   0.516   4.734   1.824 -1.8135 -0.6128 -0.0090
 5858SOL     OW29206   2.213   1.127  10.062  0.1130 -0.1381  0.2044
 5858SOL    HW129207   2.158   1.194  10.021  0.2137 -0.7644 -0.9549
 5858SOL    HW229208   2.268   1.183  10.116  0.6702 -0.0227 -0.4853
 5859SOL     OW29209   2.865   2.534   5.554 -0.0028 -0.7186  0.3533
 5859SOL    HW129210   2.846   2.550   5.462 -3.2933  2.1169  1.5287
 5859SOL    HW229211   2.938   2.596   5.561 -0.9709  0.5631 -0.8902
 5860SOL     OW29212   2.817   1.288   8.206  0.2180 -0.5434 -0.0741
 5860SOL    HW129213   2.767   1.367   8.186  0.8360  1.0293  4.5989
 5860SOL    HW229214   2.853   1.327   8.286 -2.0991  2.3149 -0.4283
 5861SOL     OW29215   2.269   4.711   2.046  0.0696 -0.3091 -0.0300
 5861SOL    HW129216   2.191   4.732   2.098 -0.4231 -1.5282 -0.2715
 5861SOL    HW229217   2.231   4.705   1.958  0.1330  2.0007 -0.2008
 5862SOL     OW29218   2.718   3.586   9.826  0.2737 -0.3850  0.0085
 5862SOL    HW129219   2.641   3.638   9.802  0.0175 -0.5791  0.4125
 5862SOL    HW229220   2.684   3.541   9.903  1.4201  2.2181  2.0356
 5863SOL     OW29221   2.876   0.468   3.509 -0.1850 -1.0373  0.2881
 5863SOL    HW129222   2.863   0.451   3.416  2.0956 -0.0987 -0.1974
 5863SOL    HW229223   2.829   0.551   3.518  0.6963 -0.5091  0.0048
 5864SOL     OW29224   2.953   0.040   6.549  0.0495 -0.8033 -0.0734
 5864SOL    HW129225   2.949   4.729   6.468 -0.0248 -0.7213 -0.1223
 5864SOL    HW229226   2.918   0.119   6.507  0.4846 -0.5394  0.0610
 5865SOL     OW29227   1.375   0.778   7.675  0.2290 -0.8796 -0.4206
 5865SOL    HW129228   1.300   0.721   7.693 -0.2179 -0.4359 -0.8737
 5865SOL    HW229229   1.343   0.820   7.595 -1.2889  1.5663  1.4706
 5866SOL     OW29230   1.768   1.203  13.840 -0.0266  0.3588 -0.1820
 5866SOL    HW129231   1.754   1.273  13.776 -0.1027  1.2973  0.8573
 5866SOL    HW229232   1.685   1.156  13.849  0.0599  0.0950 -0.8584
 5867SOL     OW29233   2.490   0.786   9.862 -0.5992  0.3692 -0.0656
 5867SOL    HW129234   2.499   0.802   9.956 -0.4217 -2.2013  0.3784
 5867SOL    HW229235   2.455   0.868   9.830 -0.5438  0.1799 -0.6165
 5868SOL     OW29236   4.251   3.302   5.121  0.0256 -0.2495 -0.0975
 5868SOL    HW129237   4.294   3.235   5.069  1.1522 -0.1166  0.6786
 5868SOL    HW229238   4.248   3.261   5.207 -2.2011 -0.5662 -0.3115
 5869SOL     OW29239   1.446   2.340   2.652  0.5266  0.3881 -0.1055
 5869SOL    HW129240   1.534   2.377   2.646  0.3996  0.9102  1.2246
 5869SOL    HW229241   1.449   2.301   2.739 -0.4564  0.6161  0.0346
 5870SOL     OW29242   0.672   1.820   0.809 -0.0323  0.3546 -0.3997
 5870SOL    HW129243   0.598   1.865   0.851  0.0905  0.6679 -0.5208
 5870SOL    HW229244   0.738   1.823   0.878  0.7361  4.1273 -1.3059
 5871SOL     OW29245   2.837   1.686   0.037 -0.3104 -0.2226 -0.2123
 5871SOL    HW129246   2.843   1.753   0.105 -1.0277  0.7422 -1.0975
 5871SOL    HW229247   2.898   1.621   0.071  1.7778  1.6868 -0.3592
 5872SOL     OW29248   1.000   0.744   9.312 -0.5085  0.7431 -0.4533
 5872SOL    HW129249   1.022   0.802   9.385  1.7524 -0.9431  0.1907
 5872SOL    HW229250   1.059   0.783   9.248  3.5338 -3.7947  0.5377
 5873SOL     OW29251   3.380   4.520   4.430  0.1494  0.1618  0.1551
 5873SOL    HW129252   3.458   4.475   4.396  1.0051 -0.6647  3.2535
 5873SOL    HW229253   3.391   4.608   4.394 -1.0575 -0.1786 -1.0684
 5874SOL     OW29254   1.660   1.660   3.798 -0.1320  0.5547 -0.0813
 5874SOL    HW129255   1.611   1.742   3.801 -3.1488 -1.2727  0.2773
 5874SOL    HW229256   1.597   1.607   3.846  1.0039  0.2324  1.0466
 5875SOL     OW29257   1.820   2.737   8.230  0.0203  0.3793  0.1671
 5875SOL    HW129258   1.783   2.653   8.258  0.5771 -0.9841 -3.1580
 5875SOL    HW229259   1.746   2.774   8.184  0.2009 -0.7347 -1.0195
 5876SOL     OW29260   4.001   0.197  16.348 -0.3942  0.0480 -0.1136
 5876SOL    HW129261   4.090   0.163  16.338 -1.9291 -3.4436 -1.9260
 5876SOL    HW229262   4.012   0.274  16.404  0.1837 -0.9494  1.1351
 5877SOL     OW29263   1.967   2.817   5.444  0.3103 -0.0919  0.5453
 5877SOL    HW129264   1.961   2.896   5.389  0.9332 -2.0352 -2.3275
 5877SOL    HW229265   2.052   2.790   5.410  1.0814  0.2754  2.1976
 5878SOL     OW29266   3.039   3.369   8.939 -0.3215 -0.2459  0.2680
 5878SOL    HW129267   3.088   3.385   9.020 -0.9814  2.2349  0.1788
 5878SOL    HW229268   3.085   3.415   8.869 -0.2876 -0.7675 -0.0414
 5879SOL     OW29269   3.256   3.820  12.826 -0.2421  0.5753  0.3646
 5879SOL    HW129270   3.214   3.870  12.896 -0.1771 -1.2913  1.7382
 5879SOL    HW229271   3.315   3.769  12.881 -0.6102  0.0612  0.2832
 5880SOL     OW29272   2.493   3.228  15.236 -0.6948 -0.4183  0.0946
 5880SOL    HW129273   2.503   3.161  15.304 -0.8358 -0.8582 -0.3110
 5880SOL    HW229274   2.422   3.189  15.184 -0.0038 -2.1564  0.4342
 5881SOL     OW29275   2.657   0.597  11.401 -0.4892  0.1277  0.2745
 5881SOL    HW129276   2.590   0.594  11.470 -1.0194  0.4089 -0.2212
 5881SOL    HW229277   2.717   0.663  11.434 -1.0255  0.5035  0.5047
 5882SOL     OW29278   2.132   2.714   4.864  0.3442  0.3158 -0.6028
 5882SOL    HW129279   2.093   2.785   4.814  1.2260  1.3909  0.2546
 5882SOL    HW229280   2.216   2.754   4.885 -0.7186  1.4329  1.4677
 5883SOL     OW29281   1.428   4.542  10.309  0.1309 -0.0285 -0.4348
 5883SOL    HW129282   1.519   4.523  10.331 -0.4242 -1.0764  0.9884
 5883SOL    HW229283   1.421   4.625  10.356 -2.5401  0.2113 -1.2301
 5884SOL     OW29284   4.085   3.847   2.348  0.5853 -0.0234 -0.3071
 5884SOL    HW129285   4.094   3.836   2.253 -1.0313 -2.2547 -0.1962
 5884SOL    HW229286   3.990   3.857   2.357  0.7168  0.4957  0.4762
 5885SOL     OW29287   1.920   2.061   7.458  0.1362 -0.2458  0.3096
 5885SOL    HW129288   1.945   2.124   7.527  0.9565  0.2543 -0.4422
 5885SOL    HW229289   1.951   1.974   7.481  2.6776  0.3627 -0.8011
 5886SOL     OW29290   4.060   0.252   6.177  0.5366 -0.0871  0.0923
 5886SOL    HW129291   3.980   0.201   6.189  0.4313  0.3379  1.2510
 5886SOL    HW229292   4.090   0.229   6.089  0.4984 -0.0633  0.0730
 5887SOL     OW29293   2.495   1.031  10.399  0.2407  0.2312  0.5566
 5887SOL    HW129294   2.541   0.965  10.450 -1.1494 -0.5307  0.8313
 5887SOL    HW229295   2.491   0.989  10.313  2.8376  1.9266 -0.4026
 5888SOL     OW29296   0.398   2.576  16.908  0.4828 -0.0450 -0.0189
 5888SOL    HW129297   0.419   2.665  16.878  3.7953  0.3970  3.6050
 5888SOL    HW229298   0.330   2.596  16.973  0.0559 -1.5729 -0.0075
 5889SOL     OW29299   1.324   4.229   8.525  0.4216 -0.2765  0.1727
 5889SOL    HW129300   1.379   4.167   8.573  0.8923  0.1771  0.2187
 5889SOL    HW229301   1.239   4.202   8.559  0.6319 -2.3148 -0.9033
 5890SOL     OW29302   0.017   3.443  14.527 -0.1688 -0.0996  0.8265
 5890SOL    HW129303   4.700   3.490  14.466  1.5593 -0.4838 -1.1184
 5890SOL    HW229304   0.100   3.442  14.479 -1.5691 -2.3856 -1.6225
 5891SOL     OW29305   1.974   1.541   7.851  0.0553 -0.2578 -0.0836
 5891SOL    HW129306   1.914   1.473   7.880 -0.9031  0.3773 -0.5807
 5891SOL    HW229307   2.007   1.510   7.767  0.5514 -1.5785  0.5974
 5892SOL     OW29308   2.797   3.460   8.759  0.2084 -0.0177  0.4601
 5892SOL    HW129309   2.803   3.444   8.665 -0.1724  1.0784  0.2552
 5892SOL    HW229310   2.871   3.410   8.794  0.6636  0.3985  0.0737
 5893SOL     OW29311   2.750   3.408   8.466 -0.0338  0.3581 -0.0852
 5893SOL    HW129312   2.658   3.428   8.484  0.0664  0.2581  0.5628
 5893SOL    HW229313   2.750   3.316   8.494  0.8045  0.5089  0.4435
 5894SOL     OW29314   1.837   0.844   6.455  0.2178  0.1556 -0.7478
 5894SOL    HW129315   1.927   0.822   6.428  0.7248  0.2113  0.9318
 5894SOL    HW229316   1.801   0.875   6.372 -2.5438  0.5436  0.6254
 5895SOL     OW29317   3.877   2.261   5.327 -0.7377 -0.1958  0.7241
 5895SOL    HW129318   3.937   2.208   5.378 -0.6184  0.4898  1.2901
 5895SOL    HW229319   3.855   2.213   5.247 -0.9220  0.1236  0.5781
 5896SOL     OW29320   4.389   1.591   6.759 -0.2487  0.0613 -0.4195
 5896SOL    HW129321   4.331   1.618   6.831 -0.6842 -0.3792 -0.6064
 5896SOL    HW229322   4.468   1.562   6.804  1.3686  2.0803 -1.9789
 5897SOL     OW29323   2.642   1.839   2.811 -0.5214 -0.0495 -0.1908
 5897SOL    HW129324   2.686   1.857   2.727  0.9783  0.7513  0.7603
 5897SOL    HW229325   2.551   1.865   2.795 -0.3670 -0.4886 -1.7852
 5898SOL     OW29326   2.266   2.150  12.826 -0.2704 -0.0088 -0.2001
 5898SOL    HW129327   2.238   2.228  12.779  0.0046  0.1997 -0.0218
 5898SOL    HW229328   2.356   2.170  12.853 -0.8493 -2.0332  3.2709
 5899SOL     OW29329   0.664   1.190  16.702 -0.4813 -0.0514 -0.0011
 5899SOL    HW129330   0.643   1.135  16.778  0.4621 -0.7805 -0.2751
 5899SOL    HW229331   0.670   1.276  16.743  2.9491 -0.3217  0.0698
 5900SOL     OW29332   0.512   1.691   8.233  0.6371 -0.4628  0.5645
 5900SOL    HW129333   0.531   1.732   8.317  0.4021  2.6109 -0.9013
 5900SOL    HW229334   0.496   1.598   8.250 -0.0436  0.0874  2.8532
 5901SOL     OW29335   0.309   3.469  16.250  0.1959 -0.3922 -0.0249
 5901SOL    HW129336   0.218   3.450  16.274  0.0518  0.0249 -0.2365
 5901SOL    HW229337   0.322   3.559  16.279  0.4755 -0.2003 -0.7527
 5902SOL     OW29338   1.480   3.213   1.071  0.3079  0.0226  0.5716
 5902SOL    HW129339   1.401   3.216   1.125 -0.0333 -0.4297  0.0987
 5902SOL    HW229340   1.496   3.119   1.077 -1.5364 -0.5431 -2.9283
 5903SOL     OW29341   1.236   1.996   2.424  0.2641 -0.2329  0.1413
 5903SOL    HW129342   1.255   1.902   2.421 -0.5302 -0.3416 -1.4183
 5903SOL    HW229343   1.290   2.017   2.501  0.3509 -2.1154  0.6014
 5904SOL     OW29344   0.873   3.258   4.250 -0.4149  0.2699 -0.2779
 5904SOL    HW129345   0.814   3.316   4.201  0.3498  3.4645  2.5563
 5904SOL    HW229346   0.871   3.183   4.191 -0.4113 -0.4414  0.6300
 5905SOL     OW29347   3.917   1.058  16.346 -0.0660  0.3301  0.0350
 5905SOL    HW129348   3.905   1.041  16.439 -0.7165 -0.1655 -0.1353
 5905SOL    HW229349   3.828   1.053  16.313 -0.4304 -0.5917  1.1560
 5906SOL     OW29350   0.035   3.118   1.188  0.0832  0.0516  0.4604
 5906SOL    HW129351   4.681   3.106   1.204  0.1414  1.0786  1.5628
 5906SOL    HW229352   0.063   3.110   1.279 -0.6533  0.2856  0.7143
 5907SOL     OW29353   2.357   0.772   7.267 -0.3542 -0.2657  0.0790
 5907SOL    HW129354   2.432   0.768   7.207 -2.0525 -4.0063 -1.8547
 5907SOL    HW229355   2.317   0.687   7.248  1.2885 -0.6759 -1.6135
 5908SOL     OW29356   3.737   2.386  10.845  0.6982  0.1048  0.0514
 5908SOL    HW129357   3.736   2.334  10.926  0.4011  0.3862  0.2291
 5908SOL    HW229358   3.670   2.453  10.861  1.4928  1.1940 -1.1629
 5909SOL     OW29359   3.817   1.582   2.742 -0.3195  0.2988 -0.4488
 5909SOL    HW129360   3.795   1.577   2.649 -0.2010  0.4416 -0.4845
 5909SOL    HW229361   3.839   1.491   2.761  0.1984  0.3789 -0.6471
 5910SOL     OW29362   0.773   1.235   2.470  0.2113  0.1656 -0.1033
 5910SOL    HW129363   0.689   1.197   2.497  0.8919 -0.7744  0.7128
 5910SOL    HW229364   0.801   1.163   2.413  0.0112  0.9420 -1.1820
 5911SOL     OW29365   1.890   1.495   2.399 -0.2068 -0.1801  0.3551
 5911SOL    HW129366   1.972   1.502   2.350 -0.5612  1.9343  0.1038
 5911SOL    HW229367   1.914   1.509   2.491  0.9942  2.0558 -0.3016
 5912SOL     OW29368   2.310   2.177   7.737  0.1393  0.6150 -1.0817
 5912SOL    HW129369   2.228   2.175   7.687 -1.0871 -0.7908  0.9747
 5912SOL    HW229370   2.357   2.116   7.680 -0.9643 -1.0333 -0.2441
 5913SOL     OW29371   3.008   1.784   5.814  0.2816  0.3693 -0.2619
 5913SOL    HW129372   3.037   1.827   5.894 -0.4474  2.2115 -0.9914
 5913SOL    HW229373   2.914   1.805   5.817 -0.0303 -0.8396 -1.3228
 5914SOL     OW29374   1.045   4.341   1.750 -0.5812 -0.3708 -0.1253
 5914SOL    HW129375   1.111   4.367   1.686  1.3849 -3.5349  0.6538
 5914SOL    HW229376   0.996   4.422   1.762  2.4321  1.8389 -2.8458
 5915SOL     OW29377   4.639   2.980   1.461  0.1281 -0.0989 -0.4331
 5915SOL    HW129378   4.595   3.033   1.394 -0.7031  0.2298  0.3716
 5915SOL    HW229379   4.574   2.909   1.462  0.5027 -0.5227 -4.6060
 5916SOL     OW29380   1.069   2.801   2.875 -0.8272  0.2720  0.4264
 5916SOL    HW129381   1.116   2.882   2.893 -1.1121  0.5308  0.0275
 5916SOL    HW229382   1.058   2.770   2.965  1.7822 -0.3920  0.5161
 5917SOL     OW29383   3.043   0.655   8.065  0.0673 -0.1363 -0.1646
 5917SOL    HW129384   2.978   0.698   8.121  0.2910  1.0087 -0.7844
 5917SOL    HW229385   3.047   0.564   8.097  0.6484 -0.0209  0.0826
 5918SOL     OW29386   0.436   2.137   3.735  0.3465  0.0223 -0.0499
 5918SOL    HW129387   0.498   2.207   3.715 -1.3218  1.0278 -1.8102
 5918SOL    HW229388   0.451   2.073   3.665 -1.8494  0.4383 -0.9050
 5919SOL     OW29389   0.824   2.860   1.892  0.4013  0.0486 -0.6036
 5919SOL    HW129390   0.849   2.802   1.963 -1.7350 -1.8223 -1.3689
 5919SOL    HW229391   0.909   2.885   1.855  0.8168 -1.4237 -0.6305
 5920SOL     OW29392   4.021   2.304   4.106 -0.4832  0.1260  0.0710
 5920SOL    HW129393   4.099   2.292   4.160  0.4445  0.4251 -1.2026
 5920SOL    HW229394   3.961   2.257   4.164 -1.1180  0.2827 -0.4555
 5921SOL     OW29395   1.221   0.246   4.525  0.4813 -0.2580  0.3784
 5921SOL    HW129396   1.232   0.240   4.620  0.9298 -0.4915  0.3118
 5921SOL    HW229397   1.153   0.182   4.505  0.2480  0.3185 -0.6653
 5922SOL     OW29398   4.636   4.397   4.591 -0.0006 -0.7964 -0.0744
 5922SOL    HW129399   4.658   4.343   4.515  2.0250 -2.4691  1.6890
 5922SOL    HW229400   4.667   4.482   4.561 -1.5397  0.2179  1.2216
 5923SOL     OW29401   0.523   4.693   5.262 -0.7983  0.2017 -0.2428
 5923SOL    HW129402   0.463   4.623   5.285 -0.3472 -0.0791  0.1025
 5923SOL    HW229403   0.561   4.718   5.347 -1.8980  1.5374 -0.1554
 5924SOL     OW29404   2.159   3.674   9.045  0.0998 -0.3448 -0.7635
 5924SOL    HW129405   2.089   3.703   9.102  0.9791 -1.1300  0.7134
 5924SOL    HW229406   2.191   3.758   9.013 -0.6898  0.6507  1.0966
 5925SOL     OW29407   2.157   3.689   6.077  0.6522  0.3536 -0.0402
 5925SOL    HW129408   2.139   3.775   6.040  1.5355 -0.7428 -3.0034
 5925SOL    HW229409   2.093   3.642   6.023  2.6904  0.7253 -2.7536
 5926SOL     OW29410   0.304   4.036   8.476  0.2168 -0.1378  0.4030
 5926SOL    HW129411   0.308   4.089   8.397  0.2222 -0.6080  0.0890
 5926SOL    HW229412   0.210   4.034   8.493  0.4515 -0.0369  1.7276
 5927SOL     OW29413   3.031   0.989  11.629 -0.0191  0.1578  0.5271
 5927SOL    HW129414   3.009   1.043  11.553 -0.2204 -0.2325  0.3042
 5927SOL    HW229415   3.042   0.901  11.591 -0.0942 -0.3986  1.7975
 5928SOL     OW29416   4.572   3.728   9.166 -0.0019  0.1945 -0.2039
 5928SOL    HW129417   4.587   3.783   9.089 -3.3907 -0.9153 -1.6959
 5928SOL    HW229418   4.630   3.653   9.152 -0.5525 -0.6345  1.9408
 5929SOL     OW29419   4.698   4.028   1.965  0.2079  0.4410 -0.1197
 5929SOL    HW129420   4.717   4.110   1.920 -1.2136 -0.2623 -2.0054
 5929SOL    HW229421   4.720   4.066   2.050  1.8600  0.8097 -0.7302
 5930SOL     OW29422   4.282   4.653   8.989  1.0979 -0.1351 -0.2003
 5930SOL    HW129423   4.191   4.642   8.960  1.0846 -2.6181  0.7646
 5930SOL    HW229424   4.313   4.563   8.995 -0.2532 -0.6152 -0.2670
 5931SOL     OW29425   3.274   1.026   3.443  0.3418  0.1482 -0.1373
 5931SOL    HW129426   3.251   1.094   3.380 -0.5693  0.9156  1.0315
 5931SOL    HW229427   3.370   1.029   3.442  0.3414  0.1727 -0.0801
 5932SOL     OW29428   4.013   2.904   3.571 -0.3501  0.3031  0.7172
 5932SOL    HW129429   3.934   2.850   3.570 -1.0161  1.3020 -1.4197
 5932SOL    HW229430   3.972   2.978   3.527 -0.4673 -0.3368 -0.2521
 5933SOL     OW29431   1.720   1.779   3.219 -0.5846  0.0364  0.3141
 5933SOL    HW129432   1.770   1.727   3.156 -0.9080 -2.1213  1.8300
 5933SOL    HW229433   1.683   1.712   3.276 -1.1479  0.6864  0.7038
 5934SOL     OW29434   2.419   4.422   4.781  1.2685 -0.2851 -0.3964
 5934SOL    HW129435   2.494   4.391   4.832  1.2719  0.3132 -0.0310
 5934SOL    HW229436   2.398   4.352   4.720  2.3046 -1.7950  0.9933
 5935SOL     OW29437   2.828   3.117   1.924  0.5269  0.0472  0.3193
 5935SOL    HW129438   2.854   3.199   1.883  0.7418 -1.0663 -1.7639
 5935SOL    HW229439   2.761   3.137   1.990 -2.1524 -4.2184 -1.0650
 5936SOL     OW29440   2.772   2.818  14.780  0.2131  0.1691  0.2889
 5936SOL    HW129441   2.679   2.817  14.802  0.8288 -1.9185  2.7180
 5936SOL    HW229442   2.821   2.808  14.861  0.1306  1.2763  0.4728
 5937SOL     OW29443   0.432   4.469   0.076  0.9674 -0.1966  0.0860
 5937SOL    HW129444   0.361   4.420   0.118  0.3219 -1.2529 -2.2085
 5937SOL    HW229445   0.389   4.498  17.754  0.5645 -1.4574 -0.1512
 5938SOL     OW29446   3.120   2.665   3.204  0.7337  0.2680  0.3552
 5938SOL    HW129447   3.156   2.585   3.241  0.0913  0.4957  1.4423
 5938SOL    HW229448   3.176   2.690   3.130 -0.3416 -0.2248 -0.6179
 5939SOL     OW29449   2.320   1.945   8.634 -0.5374  0.3861 -0.5854
 5939SOL    HW129450   2.309   1.946   8.729  0.6406  1.3353 -0.4712
 5939SOL    HW229451   2.299   2.035   8.611  1.1462  0.8183 -0.3847
 5940SOL     OW29452   2.271   0.952   2.674 -0.3558  0.1870 -0.3047
 5940SOL    HW129453   2.297   0.867   2.709 -1.5510  0.2475  0.7304
 5940SOL    HW229454   2.177   0.938   2.683 -0.5880  2.1711  0.5478
 5941SOL     OW29455   2.857   2.957  11.396  0.1049 -0.4706 -0.1255
 5941SOL    HW129456   2.861   3.021  11.325  2.5682 -0.6148 -0.1241
 5941SOL    HW229457   2.910   2.890  11.354  0.3526  0.1377 -0.7866
 5942SOL     OW29458   0.067   3.357  16.172  0.4982 -0.1766  0.3044
 5942SOL    HW129459   0.041   3.391  16.087 -0.1493 -0.3592  0.4285
 5942SOL    HW229460   4.723   3.338  16.214  0.6169 -0.8409  0.2433
 5943SOL     OW29461   0.770   4.297   7.292  0.2264 -0.3523  0.0420
 5943SOL    HW129462   0.816   4.327   7.370 -1.0718  0.9451  0.3006
 5943SOL    HW229463   0.809   4.362   7.234 -1.5710 -0.7179 -1.5854
 5944SOL     OW29464   0.990   1.797  17.513  0.4355 -0.3512 -0.4948
 5944SOL    HW129465   0.906   1.771  17.476  0.4607 -0.2736 -0.6092
 5944SOL    HW229466   0.969   1.799  17.606  0.0310  1.8577 -0.6231
 5945SOL     OW29467   1.482   1.950   1.587 -0.1530 -0.1014 -0.8756
 5945SOL    HW129468   1.486   1.874   1.646 -1.8980 -0.2394 -0.9535
 5945SOL    HW229469   1.397   1.992   1.599 -0.0305  0.2887 -1.3736
 5946SOL     OW29470   1.248   2.780   0.738 -0.0137 -0.1923 -0.0592
 5946SOL    HW129471   1.258   2.786   0.833  2.0001  0.8673 -0.3386
 5946SOL    HW229472   1.172   2.721   0.736  0.9704 -1.4287 -1.0055
 5947SOL     OW29473   0.906   0.499   6.393 -0.1758  0.5183 -0.3448
 5947SOL    HW129474   0.853   0.559   6.340  1.2108 -0.1509 -2.5270
 5947SOL    HW229475   0.887   0.524   6.483 -0.7443  0.3960 -0.4326
 5948SOL     OW29476   1.197   3.692   2.435 -0.0631 -0.2701  0.0483
 5948SOL    HW129477   1.266   3.734   2.382 -0.4232  2.9077  2.0884
 5948SOL    HW229478   1.153   3.635   2.373 -2.9305  0.9003  1.0225
 5949SOL     OW29479   3.540   2.665   7.844 -0.2027  0.4586  0.2066
 5949SOL    HW129480   3.618   2.621   7.809 -0.8106  0.8879 -1.6854
 5949SOL    HW229481   3.567   2.756   7.854  2.0727 -0.3161  1.2584
 5950SOL     OW29482   4.719   4.162   3.633  0.2128 -0.1191 -0.3923
 5950SOL    HW129483   4.672   4.170   3.550  0.0096 -0.2731 -0.2926
 5950SOL    HW229484   4.653   4.200   3.692 -0.2624  2.6402 -2.6862
 5951SOL     OW29485   3.973   2.188  17.371 -0.5350  0.3095 -0.9802
 5951SOL    HW129486   3.923   2.129  17.428  0.4540 -1.2850 -1.7600
 5951SOL    HW229487   4.004   2.116  17.316 -0.9536  0.0091 -0.8247
 5952SOL     OW29488   2.797   0.567   5.982  0.1954  0.3728 -0.1804
 5952SOL    HW129489   2.837   0.653   5.975  0.3118  0.4903  1.7883
 5952SOL    HW229490   2.824   0.531   6.067 -2.0773 -0.9377 -0.0244
 5953SOL     OW29491   4.184   2.186   6.161 -0.1087 -0.5134  0.1407
 5953SOL    HW129492   4.267   2.180   6.112 -0.6599  0.3338 -0.8938
 5953SOL    HW229493   4.213   2.149   6.244 -1.7316 -2.5119 -0.1709
 5954SOL     OW29494   2.219   0.765   4.252 -0.1221  0.5648  0.0908
 5954SOL    HW129495   2.229   0.745   4.346 -1.2613 -0.8970 -0.1063
 5954SOL    HW229496   2.211   0.860   4.257  0.4288  0.6204 -0.0151
 5955SOL     OW29497   4.223   3.469   5.929  0.2062  0.4276  0.1670
 5955SOL    HW129498   4.305   3.436   5.964  0.7891  0.6379 -1.0011
 5955SOL    HW229499   4.263   3.497   5.846  1.0344  2.4375  1.2511
 5956SOL     OW29500   1.217   2.120  11.876 -0.2172  0.1424  0.1218
 5956SOL    HW129501   1.225   2.085  11.965 -0.5868  0.3597  0.2458
 5956SOL    HW229502   1.218   2.214  11.896 -1.5946 -0.3758  2.6433
 5957SOL     OW29503   2.399   3.043  13.008 -0.0014 -1.0018  0.3595
 5957SOL    HW129504   2.365   2.978  13.070 -1.3849 -0.9461 -0.3396
 5957SOL    HW229505   2.397   2.991  12.927 -0.2591 -0.9472  0.3319
 5958SOL     OW29506   0.729   0.355   3.316 -0.0506  0.1166 -0.0865
 5958SOL    HW129507   0.701   0.360   3.408  2.6657  1.1674  0.6813
 5958SOL    HW229508   0.797   0.420   3.303  0.6029 -0.6624 -0.5214
 5959SOL     OW29509   1.275   4.488   2.694 -0.0561 -0.3028  0.3896
 5959SOL    HW129510   1.326   4.409   2.677  1.2829  0.2281  1.9626
 5959SOL    HW229511   1.224   4.449   2.765 -0.7099 -1.7339 -0.8864
 5960SOL     OW29512   4.587   2.647  17.042  0.1653 -0.1772  0.2078
 5960SOL    HW129513   4.599   2.709  17.115 -0.0183 -1.2042  1.1030
 5960SOL    HW229514   4.523   2.594  17.089 -0.3991 -0.1820 -0.5907
 5961SOL     OW29515   4.521   1.419   9.459  0.1418 -0.0457  0.4117
 5961SOL    HW129516   4.577   1.463   9.395 -0.3849 -1.2995 -0.8943
 5961SOL    HW229517   4.587   1.359   9.494  0.7000  0.5487  0.3788
 5962SOL     OW29518   0.477   4.331   4.311  0.4188 -0.7952  0.0858
 5962SOL    HW129519   0.415   4.390   4.355 -0.1882 -1.7429  0.4813
 5962SOL    HW229520   0.553   4.371   4.354 -0.3604  1.2491 -0.4017
 5963SOL     OW29521   2.727   2.031   5.366 -0.2152 -0.0154 -0.0301
 5963SOL    HW129522   2.747   2.044   5.459 -1.7931  0.2907  0.2784
 5963SOL    HW229523   2.785   1.964   5.331 -2.2298 -1.8035  0.0377
 5964SOL     OW29524   3.000   1.677   7.443 -0.1643 -0.1069 -0.2816
 5964SOL    HW129525   3.013   1.610   7.510  2.9913 -1.3985 -2.2543
 5964SOL    HW229526   3.052   1.753   7.469  0.4619 -0.4039 -0.6818
 5965SOL     OW29527   1.315   1.368  12.153 -0.0578 -0.4121 -0.2345
 5965SOL    HW129528   1.405   1.335  12.150 -0.1924 -0.9414  1.3976
 5965SOL    HW229529   1.303   1.356  12.247 -3.3308 -0.6575 -0.6862
 5966SOL     OW29530   2.250   0.313  13.739  0.0447  0.3039  0.4962
 5966SOL    HW129531   2.273   0.251  13.808  1.6105  2.5889  2.0058
 5966SOL    HW229532   2.333   0.360  13.731  0.5164 -0.8662 -1.5918
 5967SOL     OW29533   1.472   0.308   3.486 -0.3107 -0.1282  1.1254
 5967SOL    HW129534   1.388   0.293   3.443  0.7767  2.8397 -2.0314
 5967SOL    HW229535   1.489   0.217   3.510  2.0786  0.3976  1.4200
 5968SOL     OW29536   4.108   0.536  14.969 -0.4568  0.2682 -0.5903
 5968SOL    HW129537   4.068   0.608  14.921 -1.3852 -0.7278 -1.3127
 5968SOL    HW229538   4.158   0.582  15.036 -1.5846 -1.2817  1.3123
 5969SOL     OW29539   0.414   3.040   5.145 -0.2232 -0.4112 -0.0963
 5969SOL    HW129540   0.400   3.003   5.232 -3.4783  2.2431  0.5094
 5969SOL    HW229541   0.441   2.967   5.089  0.5732 -0.5397  0.4534
 5970SOL     OW29542   3.962   3.464   1.018 -0.2264 -0.2431  0.6196
 5970SOL    HW129543   3.886   3.412   0.993  1.8337 -2.7059 -0.4104
 5970SOL    HW229544   4.011   3.401   1.070 -2.7214 -1.9218  0.9570
 5971SOL     OW29545   2.962   2.492   8.528 -0.0855  0.0812  0.6026
 5971SOL    HW129546   2.884   2.498   8.472 -1.5729 -2.6997  2.4305
 5971SOL    HW229547   2.911   2.502   8.608 -0.7040 -0.3475  0.2569
 5972SOL     OW29548   3.118   0.492  13.407 -0.1991  0.4941  0.5282
 5972SOL    HW129549   3.202   0.476  13.364 -0.0761  1.7862  0.2985
 5972SOL    HW229550   3.097   0.401  13.431  1.4346  0.3130  1.2544
 5973SOL     OW29551   1.750   1.838   2.789  0.2338  0.9915  0.2481
 5973SOL    HW129552   1.735   1.750   2.756  0.1562  1.2184 -0.3256
 5973SOL    HW229553   1.679   1.856   2.850 -1.0111  1.3295 -1.3124
 5974SOL     OW29554   0.702   3.262   2.727  0.2895  0.4210  0.0087
 5974SOL    HW129555   0.685   3.169   2.745  0.0375  0.2486 -1.0951
 5974SOL    HW229556   0.625   3.311   2.755 -1.8104 -1.3359 -2.7258
 5975SOL     OW29557   0.250   4.560  12.846  0.8790  0.0476  0.9058
 5975SOL    HW129558   0.213   4.510  12.772  2.3505 -1.0026  0.8754
 5975SOL    HW229559   0.342   4.534  12.839 -0.2438 -2.5617 -4.2946
 5976SOL     OW29560   4.106   2.279  17.634  0.1584 -0.2206  0.0615
 5976SOL    HW129561   4.084   2.215  17.566 -2.1030  2.0169 -1.2903
 5976SOL    HW229562   4.189   2.312  17.600 -1.4123  0.8720 -2.6860
 5977SOL     OW29563   1.682   3.347   1.202 -1.1481 -0.1876 -0.1085
 5977SOL    HW129564   1.672   3.252   1.196  1.1807 -0.4160 -0.4448
 5977SOL    HW229565   1.599   3.377   1.164 -0.1007  1.4470 -1.1193
 5978SOL     OW29566   4.665   3.603   6.981  0.1684 -0.1949 -0.4609
 5978SOL    HW129567   4.578   3.639   6.998  1.4414  3.1977 -1.1517
 5978SOL    HW229568   4.655   3.524   7.033  2.1146 -0.8781 -1.1122
 5979SOL     OW29569   2.211   2.878   1.793 -0.8577  0.1060 -0.7275
 5979SOL    HW129570   2.130   2.885   1.742 -0.1366 -2.0607 -2.1514
 5979SOL    HW229571   2.195   2.808   1.856 -0.6908 -0.7581 -1.6436
 5980SOL     OW29572   3.898   3.031   8.124 -0.0718  0.4365  0.2903
 5980SOL    HW129573   3.943   3.114   8.111 -1.6929  0.9944 -1.7250
 5980SOL    HW229574   3.822   3.063   8.173 -0.4280  2.4902 -1.6025
 5981SOL     OW29575   2.598   3.285   2.694 -0.2335 -0.0088 -0.4427
 5981SOL    HW129576   2.622   3.360   2.640  1.0459 -0.1291 -0.0280
 5981SOL    HW229577   2.675   3.261   2.745 -0.4921 -0.6137 -0.3288
 5982SOL     OW29578   3.821   1.150   6.654 -0.3282  0.0218  0.3799
 5982SOL    HW129579   3.893   1.092   6.632 -1.4335 -0.9138 -0.7509
 5982SOL    HW229580   3.789   1.166   6.565 -0.5172 -3.4503 -0.1860
 5983SOL     OW29581   2.041   2.409   7.096  0.2324 -0.0191 -0.4604
 5983SOL    HW129582   2.057   2.445   7.184  1.2051 -1.8111  0.0992
 5983SOL    HW229583   1.974   2.342   7.110 -0.9553  1.3438  0.3615
 5984SOL     OW29584   2.921   1.899   4.082 -0.3739 -0.0740 -0.4522
 5984SOL    HW129585   2.917   1.919   4.175 -0.5848 -1.1630 -0.2216
 5984SOL    HW229586   2.956   1.810   4.084  1.3745  0.5525 -2.3804
 5985SOL     OW29587   4.165   1.330   0.144 -0.1951 -0.4527 -0.2990
 5985SOL    HW129588   4.138   1.378   0.223  0.6568  1.0343 -0.9131
 5985SOL    HW229589   4.259   1.334   0.162 -0.3295 -1.4607  0.5710
 5986SOL     OW29590   2.174   0.437   3.233  0.0341  0.0434 -0.2137
 5986SOL    HW129591   2.155   0.370   3.167  1.3255 -0.3518 -0.1908
 5986SOL    HW229592   2.107   0.425   3.300  0.5099  2.7502  0.7475
 5987SOL     OW29593   4.250   2.863  10.191  0.1062 -0.6085 -0.4352
 5987SOL    HW129594   4.263   2.832  10.101  0.6497  0.6515 -0.7929
 5987SOL    HW229595   4.194   2.792  10.223  0.5950  0.2677  2.2930
 5988SOL     OW29596   0.161   3.681   3.678  0.4133  0.5671 -0.2446
 5988SOL    HW129597   0.119   3.723   3.603  0.0393 -1.0095 -0.9078
 5988SOL    HW229598   0.083   3.646   3.721  1.2773 -0.0565  0.8147
 5989SOL     OW29599   0.641   0.259  16.830  0.1808 -0.4510 -0.0959
 5989SOL    HW129600   0.568   0.311  16.795 -0.9792 -0.0124  3.0203
 5989SOL    HW229601   0.662   0.325  16.896  0.5516  0.0001 -0.6581
 5990SOL     OW29602   3.722   2.182  17.163 -0.0629  0.0940  0.4341
 5990SOL    HW129603   3.805   2.203  17.207  0.2879  1.4545 -0.8877
 5990SOL    HW229604   3.675   2.139  17.235 -2.2611  1.8774  0.0643
 5991SOL     OW29605   1.946   0.672   3.333 -0.5875 -0.4998  0.6499
 5991SOL    HW129606   1.954   0.595   3.391 -1.0805  0.9414  2.6448
 5991SOL    HW229607   2.028   0.668   3.284 -0.0057 -0.6267  1.6137
 5992SOL     OW29608   2.283   2.636   2.816 -0.3060  0.9524 -0.7287
 5992SOL    HW129609   2.219   2.635   2.745  0.5464 -3.3128 -1.4601
 5992SOL    HW229610   2.330   2.715   2.792 -0.3054  0.9590 -0.7062
 5993SOL     OW29611   2.716   4.718   7.995  0.6691 -0.0277  0.0325
 5993SOL    HW129612   2.621   4.725   8.008  0.4669 -0.4972 -1.2261
 5993SOL    HW229613   2.727   4.625   7.974  0.6996  0.2884 -1.3790
 5994SOL     OW29614   2.829   1.411   9.208 -0.7360  0.1748  0.2760
 5994SOL    HW129615   2.820   1.316   9.211 -0.3053  0.1160 -0.2276
 5994SOL    HW229616   2.747   1.427   9.160  1.7786  3.8113 -2.8555
 5995SOL     OW29617   3.811   1.515   7.781  0.1718  0.2505  0.3135
 5995SOL    HW129618   3.836   1.581   7.716  2.4872 -1.1046 -0.1545
 5995SOL    HW229619   3.841   1.432   7.746 -0.4212 -0.1147  0.6665
 5996SOL     OW29620   0.439   3.649   2.101  0.7557  0.4604 -0.2489
 5996SOL    HW129621   0.460   3.574   2.045  0.9038  0.8790 -0.7449
 5996SOL    HW229622   0.430   3.608   2.187  1.0568  3.3233  1.1402
 5997SOL     OW29623   3.742   0.952  12.425  0.3466 -0.1758  0.0938
 5997SOL    HW129624   3.818   1.010  12.432  0.5055 -0.2109 -1.3668
 5997SOL    HW229625   3.787   0.877  12.388 -0.2520 -0.7905  0.6244
 5998SOL     OW29626   3.549   0.419   6.289 -0.3774 -0.1561 -0.0787
 5998SOL    HW129627   3.461   0.449   6.270  0.2728  2.5673  1.1813
 5998SOL    HW229628   3.614   0.462   6.234  2.0711 -0.9781  2.1375
 5999SOL     OW29629   3.760   3.958   4.895 -0.1658  0.2078  0.4018
 5999SOL    HW129630   3.781   3.890   4.959  1.4682 -0.1540 -0.5100
 5999SOL    HW229631   3.815   3.924   4.824 -0.7566  1.4145 -0.6388
 6000SOL     OW29632   3.973   3.394   6.044  0.0781 -0.1037 -0.5862
 6000SOL    HW129633   4.061   3.406   6.007  0.1650 -0.7171 -0.5782
 6000SOL    HW229634   3.943   3.329   5.980  1.6441  0.9756 -2.4415
 6001SOL     OW29635   3.438   0.701  16.297 -0.3533  0.8482 -0.3328
 6001SOL    HW129636   3.450   0.718  16.390  0.5695  2.6748 -0.7985
 6001SOL    HW229637   3.441   0.605  16.297  0.8800  0.8991  0.6994
 6002SOL     OW29638   0.784   1.516  17.294 -0.0251 -0.4716  0.8428
 6002SOL    HW129639   0.863   1.570  17.295  0.5579 -1.3322  1.0788
 6002SOL    HW229640   0.722   1.553  17.230 -2.1032 -0.4868  2.8361
 6003SOL     OW29641   1.405   1.687   3.047  0.1276 -0.0635  0.8222
 6003SOL    HW129642   1.472   1.620   3.062  0.6296 -0.1566 -1.9164
 6003SOL    HW229643   1.355   1.668   3.127 -0.8306 -1.7590 -0.1834
 6004SOL     OW29644   1.663   0.554  13.909 -0.4625 -1.2164 -0.2366
 6004SOL    HW129645   1.571   0.540  13.886 -1.2907  1.5464  1.3911
 6004SOL    HW229646   1.672   0.484  13.974 -0.5998  1.2489  2.4471
 6005SOL     OW29647   2.754   1.273  17.558  0.5218  0.6727  0.1711
 6005SOL    HW129648   2.716   1.323  17.630 -1.6594  2.4740 -2.1946
 6005SOL    HW229649   2.675   1.228  17.527  0.2307  0.6578  0.9339
 6006SOL     OW29650   0.967   3.339   5.645 -0.3541 -0.5313 -0.7415
 6006SOL    HW129651   0.898   3.378   5.591  1.4300 -0.7098 -3.1765
 6006SOL    HW229652   1.034   3.405   5.629 -2.0217  1.4186  0.3475
 6007SOL     OW29653   1.428   2.215   5.412  0.6524  0.4165 -0.0992
 6007SOL    HW129654   1.394   2.161   5.484 -0.3181  1.6925  0.4246
 6007SOL    HW229655   1.484   2.269   5.468 -2.8023  2.7849  1.0986
 6008SOL     OW29656   1.200   1.711   5.756 -0.6573  0.2829 -0.3873
 6008SOL    HW129657   1.252   1.718   5.837 -0.3325  1.6916 -0.7183
 6008SOL    HW229658   1.259   1.764   5.702  1.0363 -0.1933  0.9802
 6009SOL     OW29659   0.578   0.886   4.814 -0.0901  0.0735  0.4158
 6009SOL    HW129660   0.503   0.930   4.772  0.9590  0.9739 -0.5283
 6009SOL    HW229661   0.640   0.896   4.742 -1.9948  0.3291 -1.2131
 6010SOL     OW29662   3.332   1.565   6.656 -0.3707  0.3248  0.4166
 6010SOL    HW129663   3.387   1.502   6.609 -0.8643 -0.0547  0.3473
 6010SOL    HW229664   3.401   1.630   6.671  0.2430 -0.2391  0.0640
 6011SOL     OW29665   3.153   3.652   7.047  0.2418 -0.3361  0.4782
 6011SOL    HW129666   3.139   3.573   6.994  0.6316 -0.3193  0.3522
 6011SOL    HW229667   3.093   3.638   7.121 -1.9106 -0.5278 -1.2909
 6012SOL     OW29668   1.305   4.075   4.131 -0.0799 -0.0045  0.1375
 6012SOL    HW129669   1.375   4.026   4.174 -2.9552 -1.4833  3.1171
 6012SOL    HW229670   1.344   4.071   4.043 -0.7551 -1.1597 -0.1069
 6013SOL     OW29671   2.049   0.587   1.827  0.4573 -0.4882 -0.7150
 6013SOL    HW129672   2.139   0.571   1.801 -0.4250  1.1101 -4.7282
 6013SOL    HW229673   2.051   0.681   1.845 -0.0533 -0.9300  1.7367
 6014SOL     OW29674   0.348   3.547   7.019 -0.1732 -0.2972  0.2665
 6014SOL    HW129675   0.346   3.628   7.070 -0.2490 -0.5911  0.7282
 6014SOL    HW229676   0.268   3.505   7.051  0.0451 -0.5747  0.4462
 6015SOL     OW29677   2.417   2.207   9.275 -0.0279  0.2681 -0.6343
 6015SOL    HW129678   2.403   2.178   9.366 -1.2199  0.4532 -0.7621
 6015SOL    HW229679   2.329   2.242   9.259  0.6720  1.6482 -1.3789
 6016SOL     OW29680   1.826   1.146  13.248  0.3555  0.1287  0.0798
 6016SOL    HW129681   1.916   1.178  13.254  0.4452 -0.7643  3.5056
 6016SOL    HW229682   1.828   1.076  13.313  0.6864  1.3577  1.4029
 6017SOL     OW29683   4.459   4.409   0.987  0.0880 -0.0852  0.0850
 6017SOL    HW129684   4.454   4.495   1.029 -1.8626  0.0205 -0.3473
 6017SOL    HW229685   4.526   4.360   1.035  0.6406  1.1780  0.6025
 6018SOL     OW29686   4.293   1.354  16.588 -0.3203  0.2052 -0.1937
 6018SOL    HW129687   4.238   1.276  16.573 -0.0662 -0.0683  0.3107
 6018SOL    HW229688   4.243   1.411  16.647  0.7301  0.5183  0.3958
 6019SOL     OW29689   4.400   2.677   9.549  0.1810  0.3290  0.2955
 6019SOL    HW129690   4.495   2.670   9.543  0.2181 -1.1747  2.5311
 6019SOL    HW229691   4.396   2.608   9.615  4.0916 -0.3710 -0.2133
 6020SOL     OW29692   0.132   4.205  12.421  0.0591 -0.1726 -0.1362
 6020SOL    HW129693   0.121   4.194  12.326 -2.0561 -0.5748  0.1556
 6020SOL    HW229694   0.142   4.114  12.448  3.1040  0.2860  0.2503
 6021SOL     OW29695   2.538   2.347   9.739 -0.1040  0.5185  0.2543
 6021SOL    HW129696   2.552   2.339   9.833 -0.2268  1.0655  0.3187
 6021SOL    HW229697   2.623   2.329   9.699  0.2689  0.2610  1.1600
 6022SOL     OW29698   2.775   4.428   3.174 -0.3556  0.0077  0.3915
 6022SOL    HW129699   2.797   4.485   3.247 -0.3866 -0.0209  0.4230
 6022SOL    HW229700   2.806   4.483   3.102 -1.1902  1.9087  1.5008
 6023SOL     OW29701   3.550   4.121   3.506  0.2010  0.4076 -0.3603
 6023SOL    HW129702   3.560   4.181   3.432  0.6081  0.2364 -0.4405
 6023SOL    HW229703   3.522   4.174   3.582  0.8897  1.9689 -1.2009
 6024SOL     OW29704   4.457   0.723   5.240 -0.1806 -0.2092 -0.2699
 6024SOL    HW129705   4.374   0.707   5.285  0.6289 -3.4553  0.0199
 6024SOL    HW229706   4.508   0.752   5.315 -0.5625  0.7881 -0.3870
 6025SOL     OW29707   3.073   1.584   3.999 -0.2543 -0.1745  0.0994
 6025SOL    HW129708   3.016   1.597   4.075 -0.5055  0.9303 -0.2826
 6025SOL    HW229709   3.023   1.528   3.940 -0.2823 -3.4110  3.1825
 6026SOL     OW29710   0.534   0.023   6.150  0.2555  0.1348 -0.1743
 6026SOL    HW129711   0.494   4.677   6.163 -1.6115  1.0841  0.3688
 6026SOL    HW229712   0.561   0.008   6.059 -0.4798  1.2973 -0.5765
 6027SOL     OW29713   3.909   3.667   5.922  0.0456  0.8473  0.5617
 6027SOL    HW129714   3.903   3.586   5.974 -2.3705  0.3952 -0.4593
 6027SOL    HW229715   3.891   3.638   5.833  0.7756 -2.5197  1.5082
 6028SOL     OW29716   3.763   1.402   1.878  0.2575  0.6839 -0.3144
 6028SOL    HW129717   3.693   1.336   1.881 -0.2247  1.3100  2.1406
 6028SOL    HW229718   3.731   1.486   1.911 -0.8646 -0.4016  1.3859
 6029SOL     OW29719   3.152   1.459   7.308 -0.1282 -0.1007 -0.5155
 6029SOL    HW129720   3.208   1.534   7.287 -2.1084  0.6689 -2.9406
 6029SOL    HW229721   3.175   1.441   7.399  0.5377  0.6996 -0.5173
 6030SOL     OW29722   3.124   0.944   9.142 -0.0126 -0.1155  0.1110
 6030SOL    HW129723   3.077   1.022   9.112 -0.3975  0.0811  1.2534
 6030SOL    HW229724   3.181   0.929   9.066  0.2069  1.2735 -0.0053
 6031SOL     OW29725   0.048   4.394   2.393 -0.3999 -0.1984  0.1631
 6031SOL    HW129726   4.696   4.420   2.386 -0.5995 -1.6074 -2.5417
 6031SOL    HW229727   0.079   4.428   2.309  2.9416 -0.6840  1.2376
 6032SOL     OW29728   4.420   3.619   5.106  0.3884  0.2063  0.1336
 6032SOL    HW129729   4.384   3.593   5.191  0.9703  1.5188  0.7734
 6032SOL    HW229730   4.432   3.533   5.065  0.0989  0.6205 -0.8262
 6033SOL     OW29731   0.750   4.206   8.731  0.4292  0.2834  0.6233
 6033SOL    HW129732   0.694   4.142   8.776  0.6602 -0.1529  0.2997
 6033SOL    HW229733   0.785   4.163   8.653 -0.2878 -0.8937  0.9359
 6034SOL     OW29734   0.302   1.021   2.248  0.6666  0.7008 -0.0569
 6034SOL    HW129735   0.229   1.052   2.195  0.6787  0.7192 -0.0630
 6034SOL    HW229736   0.329   1.103   2.289  2.6294  0.1061 -0.1638
 6035SOL     OW29737   1.624   0.089   9.000  0.2709  0.2283  0.5672
 6035SOL    HW129738   1.640   0.019   8.936  1.0770  0.4850  0.4947
 6035SOL    HW229739   1.706   0.090   9.050  1.1174  2.7877 -0.9152
 6036SOL     OW29740   2.873   3.716  11.913  0.2887  0.1149  0.5041
 6036SOL    HW129741   2.881   3.733  12.006 -0.0605 -0.8264  0.7089
 6036SOL    HW229742   2.817   3.786  11.880  0.1171  0.1756  0.9279
 6037SOL     OW29743   2.918   0.292   5.080  0.3722  0.6666 -0.1439
 6037SOL    HW129744   2.826   0.270   5.091  0.9633 -0.5006  2.4556
 6037SOL    HW229745   2.920   0.357   5.009 -0.6295  0.6279 -0.1992
 6038SOL     OW29746   4.202   3.213   4.839  0.4550  0.4370 -0.3694
 6038SOL    HW129747   4.139   3.145   4.861 -0.2245  1.2764  0.2786
 6038SOL    HW229748   4.276   3.159   4.811 -3.2106 -3.3752 -2.7411
 6039SOL     OW29749   0.024   4.522   0.083 -0.7196 -0.0266  0.0539
 6039SOL    HW129750   4.706   4.494   0.012  1.7515 -1.3676 -1.4666
 6039SOL    HW229751   0.056   4.436   0.110  1.3622  1.7402  3.1271
 6040SOL     OW29752   2.182   2.963   4.246  0.4877  0.0429 -0.5929
 6040SOL    HW129753   2.102   2.943   4.295 -0.0558 -0.5907 -1.7329
 6040SOL    HW229754   2.247   2.978   4.314  1.8969  0.8865 -2.1281
 6041SOL     OW29755   2.530   4.581   9.036 -0.2765 -0.0282 -0.3957
 6041SOL    HW129756   2.544   4.524   8.960 -1.5321  0.6297 -1.1212
 6041SOL    HW229757   2.483   4.519   9.093  1.2170 -0.8944 -0.0941
 6042SOL     OW29758   3.045   1.777  10.617  0.1899  0.3087  0.1757
 6042SOL    HW129759   3.054   1.852  10.676  1.8172 -0.8285  1.3673
 6042SOL    HW229760   3.065   1.825  10.537  0.9703  2.7163  1.8301
 6043SOL     OW29761   3.021   2.528   7.664 -1.1408  0.1534  0.2601
 6043SOL    HW129762   2.984   2.460   7.720  1.3043 -1.3546  0.0418
 6043SOL    HW229763   3.105   2.484   7.651 -0.5513  1.5316 -0.5981
 6044SOL     OW29764   4.715   1.259   2.862 -0.2563  0.1160 -0.3288
 6044SOL    HW129765   4.687   1.247   2.953  0.0368 -1.5657 -0.4567
 6044SOL    HW229766   0.050   1.202   2.850 -0.0977  0.6597 -1.9073
 6045SOL     OW29767   2.157   0.240   3.021  0.3655 -0.7598 -0.0841
 6045SOL    HW129768   2.066   0.230   2.993 -0.2984  0.8794  1.4860
 6045SOL    HW229769   2.181   0.148   3.024  0.1342 -0.7890  0.7816
 6046SOL     OW29770   2.615   4.393   5.811  0.1484 -0.0214  0.3611
 6046SOL    HW129771   2.654   4.409   5.725 -0.1950  1.8583  0.5468
 6046SOL    HW229772   2.556   4.326   5.778  1.4124 -0.8240 -0.2752
 6047SOL     OW29773   0.897   4.686   6.244 -0.7104  0.3845 -0.4781
 6047SOL    HW129774   0.838   4.611   6.241  2.8080 -2.3679 -1.2258
 6047SOL    HW229775   0.971   4.666   6.187  0.5234 -2.2033  1.9916
 6048SOL     OW29776   0.640   1.572   6.797  0.4229  0.0628 -0.9776
 6048SOL    HW129777   0.575   1.626   6.751 -0.4305 -1.0960 -1.1366
 6048SOL    HW229778   0.582   1.556   6.872  0.7472 -0.9559 -0.9521
 6049SOL     OW29779   0.271   0.178  11.796 -0.2440  0.0330 -0.3998
 6049SOL    HW129780   0.199   0.115  11.799 -0.4128  0.2952  0.9524
 6049SOL    HW229781   0.223   0.261  11.799 -0.6021 -0.1729 -0.3946
 6050SOL     OW29782   3.769   0.743   6.843  0.3550  0.2577 -0.3885
 6050SOL    HW129783   3.770   0.813   6.909  0.6008  0.0769 -0.2003
 6050SOL    HW229784   3.716   0.783   6.774 -1.0616 -0.9336  0.0015
 6051SOL     OW29785   3.161   2.979   3.040 -0.0267 -0.2438  0.5271
 6051SOL    HW129786   3.255   2.969   3.056  0.3084 -0.0921 -1.3578
 6051SOL    HW229787   3.131   2.979   3.131  0.3088  0.2069  0.6352
 6052SOL     OW29788   1.998   0.346   0.434  0.3549  0.7144  0.4193
 6052SOL    HW129789   2.061   0.317   0.368  1.0866 -0.9197  1.8431
 6052SOL    HW229790   1.934   0.394   0.380 -0.9504 -1.8124 -0.2576
 6053SOL     OW29791   2.523   4.519   2.469  0.1553  0.2715 -0.0947
 6053SOL    HW129792   2.440   4.505   2.424  0.0560 -1.4318  0.6186
 6053SOL    HW229793   2.575   4.553   2.397 -2.5339 -0.3166 -2.3111
 6054SOL     OW29794   4.730   1.195   8.982 -0.0140 -0.0861 -0.9202
 6054SOL    HW129795   0.045   1.127   9.022  0.3632  0.3935 -0.6225
 6054SOL    HW229796   0.047   1.271   8.988  0.1045 -0.1425 -1.3569
 6055SOL     OW29797   4.437   1.076   5.915 -0.0554  0.3376 -0.2978
 6055SOL    HW129798   4.474   1.008   5.972  0.1796 -0.6375 -1.6030
 6055SOL    HW229799   4.500   1.068   5.843 -0.5462  0.6519 -0.7587
 6056SOL     OW29800   0.756   3.994   5.650 -0.2256  0.1267 -0.1479
 6056SOL    HW129801   0.844   3.961   5.671  0.3873  2.8809  1.6310
 6056SOL    HW229802   0.768   3.998   5.555 -2.7013 -1.5035 -0.5073
 6057SOL     OW29803   4.218   1.302   5.045  0.0049  0.2718 -0.2599
 6057SOL    HW129804   4.161   1.349   4.984 -0.4639 -1.0302 -0.8437
 6057SOL    HW229805   4.176   1.321   5.129 -0.3443  0.2284 -0.4262
 6058SOL     OW29806   1.290   1.976   5.139 -0.0797  0.3971  0.0231
 6058SOL    HW129807   1.304   2.041   5.071  2.3058 -0.7613 -0.6011
 6058SOL    HW229808   1.349   1.903   5.119  0.3318  1.3769 -2.3207
 6059SOL     OW29809   4.654   1.081  11.213 -0.4104 -0.2321  0.1262
 6059SOL    HW129810   4.561   1.081  11.190 -0.3013  0.6936 -0.3147
 6059SOL    HW229811   4.661   1.168  11.252  0.4354  0.3301 -1.2377
 6060SOL     OW29812   4.360   0.477  14.787 -0.2842 -0.8027 -0.0910
 6060SOL    HW129813   4.337   0.446  14.875 -1.7429 -0.2937 -0.3048
 6060SOL    HW229814   4.279   0.480  14.738 -0.2481 -0.3525 -0.1187
 6061SOL     OW29815   2.891   0.970   7.721 -0.3558  0.3081 -0.0350
 6061SOL    HW129816   2.933   0.930   7.645 -2.5289  0.2016 -1.1854
 6061SOL    HW229817   2.873   0.897   7.779  0.6099  0.1162  0.0117
 6062SOL     OW29818   0.238   3.083   6.338  0.2005 -0.3206  0.2842
 6062SOL    HW129819   0.323   3.117   6.366  0.8429 -0.1581 -1.8348
 6062SOL    HW229820   0.249   2.994   6.370  0.2190 -0.0369  1.0638
 6063SOL     OW29821   3.006   3.348   8.015 -0.3388  0.2492  0.2717
 6063SOL    HW129822   2.942   3.413   7.986 -2.5386 -0.5982  3.2809
 6063SOL    HW229823   2.951   3.271   7.999  2.7806 -1.6760 -1.1913
 6064SOL     OW29824   3.673   3.010   8.769 -0.9052 -0.6554  0.2159
 6064SOL    HW129825   3.683   3.105   8.771  0.1182 -0.7431 -0.4390
 6064SOL    HW229826   3.686   3.001   8.863 -3.2628  1.9255  0.8016
 6065SOL     OW29827   3.602   4.633   5.974  0.1740  0.2010  0.2816
 6065SOL    HW129828   3.672   4.658   5.913 -0.6520  1.4440 -0.1604
 6065SOL    HW229829   3.633   4.559   6.026 -1.9131  1.3763  3.1587
 6066SOL     OW29830   3.754   0.228   4.401  0.5015  0.1122 -0.1723
 6066SOL    HW129831   3.841   0.214   4.439 -0.5253 -0.1102  2.1021
 6066SOL    HW229832   3.783   0.287   4.331  0.1304 -0.5096 -0.8523
 6067SOL     OW29833   1.057   1.358   8.492  0.0793  0.1021  0.4882
 6067SOL    HW129834   1.124   1.324   8.434 -1.7079  2.4841 -2.9380
 6067SOL    HW229835   0.994   1.285   8.491 -0.7777  0.8608 -0.8115
 6068SOL     OW29836   4.613   0.894   2.286  0.0709 -0.0771  0.6082
 6068SOL    HW129837   4.625   0.989   2.284  3.5128 -0.4790  2.7950
 6068SOL    HW229838   4.555   0.884   2.210 -0.7645  1.6878  1.0212
 6069SOL     OW29839   0.512   1.958   7.686 -0.3150  0.2379  0.6148
 6069SOL    HW129840   0.505   1.925   7.596  0.3843  0.8642  0.3295
 6069SOL    HW229841   0.433   1.914   7.716  0.2024 -0.4211  1.0236
 6070SOL     OW29842   0.045   1.630  10.583  0.1701 -0.4386  0.3904
 6070SOL    HW129843   4.717   1.594  10.639 -0.9018  4.1978  2.0500
 6070SOL    HW229844   0.119   1.582  10.621  0.9533  0.0417 -0.5205
 6071SOL     OW29845   4.160   3.573   3.019  0.1944 -0.0064 -0.0238
 6071SOL    HW129846   4.165   3.556   3.113  1.8300  1.6899  0.1859
 6071SOL    HW229847   4.106   3.650   3.002  0.7322  0.3835  0.0385
 6072SOL     OW29848   2.326   1.243   4.223  0.0206  0.0723 -0.1663
 6072SOL    HW129849   2.289   1.163   4.259  2.4237 -0.4859  1.0822
 6072SOL    HW229850   2.251   1.273   4.171 -1.3074 -1.0231  1.1001
 6073SOL     OW29851   1.905   2.492   5.683  0.2354  0.0560 -0.1310
 6073SOL    HW129852   1.904   2.401   5.652 -1.4143  0.0523 -0.0602
 6073SOL    HW229853   1.860   2.532   5.608 -0.7757 -0.0241  0.4258
 6074SOL     OW29854   0.160   1.940   9.702  0.0091 -0.6424 -0.2464
 6074SOL    HW129855   0.197   1.878   9.764 -0.1885 -2.4230 -1.8926
 6074SOL    HW229856   0.220   2.011   9.723 -0.4907 -0.6107  1.0416
 6075SOL     OW29857   4.167   0.811  13.831 -0.2824  0.1014  0.2046
 6075SOL    HW129858   4.186   0.857  13.913 -3.1368  0.7958  0.4794
 6075SOL    HW229859   4.085   0.772  13.863  0.5262 -1.7569 -0.0186
 6076SOL     OW29860   4.270   2.779   2.240  0.5206  0.7405 -0.5914
 6076SOL    HW129861   4.281   2.685   2.230 -0.6809  0.7278 -1.8584
 6076SOL    HW229862   4.290   2.783   2.334 -1.3609 -0.5427 -0.1353
 6077SOL     OW29863   2.940   1.637   4.266 -0.2210 -0.6620 -0.1708
 6077SOL    HW129864   2.967   1.654   4.356  1.4440 -0.2067 -0.7340
 6077SOL    HW229865   2.849   1.618   4.285 -0.0151  0.0482  1.4877
 6078SOL     OW29866   1.527   0.048  17.617  0.2116 -0.1120 -0.0966
 6078SOL    HW129867   1.582   0.126  17.619 -0.2945  0.1844  2.2616
 6078SOL    HW229868   1.572   4.736  17.683  0.7452  0.2776 -0.1577
 6079SOL     OW29869   2.669   3.366  13.192 -0.4276  0.3118 -0.2451
 6079SOL    HW129870   2.656   3.386  13.100  2.3877 -0.2232 -0.7522
 6079SOL    HW229871   2.704   3.444  13.234 -0.1245  0.2833 -0.4433
 6080SOL     OW29872   2.321   4.243   5.102  0.2683  0.6969  0.1315
 6080SOL    HW129873   2.360   4.211   5.020 -0.3450  1.1844 -0.3437
 6080SOL    HW229874   2.230   4.215   5.093  0.5223 -0.1757  0.1733
 6081SOL     OW29875   3.754   0.839   4.150  0.2116 -0.2368  0.0044
 6081SOL    HW129876   3.718   0.755   4.179 -0.4776 -0.0323 -0.2678
 6081SOL    HW229877   3.693   0.908   4.174 -1.3029 -1.1296 -1.2920
 6082SOL     OW29878   3.229   1.814   6.338  0.0461 -0.3878 -0.1560
 6082SOL    HW129879   3.302   1.861   6.298  1.2977 -2.0480  0.1531
 6082SOL    HW229880   3.225   1.738   6.280 -1.2218 -1.2262  1.0190
 6083SOL     OW29881   2.967   3.345   1.931  0.0705  0.0609 -0.1686
 6083SOL    HW129882   2.998   3.436   1.930 -0.8963  0.3941  0.2134
 6083SOL    HW229883   2.909   3.341   2.007  0.2863  0.0899 -0.0022
 6084SOL     OW29884   3.911   0.748   9.889 -0.7598  0.3193  0.7898
 6084SOL    HW129885   3.942   0.717   9.974  1.9278 -0.9924 -0.6737
 6084SOL    HW229886   3.974   0.699   9.837 -0.8891 -0.3453  1.2574
 6085SOL     OW29887   4.308   3.589   7.907 -0.6845  0.1465 -0.4645
 6085SOL    HW129888   4.246   3.547   7.967 -0.8395 -1.7956 -1.9772
 6085SOL    HW229889   4.246   3.650   7.868 -1.5842 -0.5343 -0.1233
 6086SOL     OW29890   3.692   0.931   2.553 -0.1298 -0.0961 -0.1432
 6086SOL    HW129891   3.707   0.990   2.627 -1.8000  0.7227 -0.4563
 6086SOL    HW229892   3.653   0.862   2.607  1.4970 -0.6882  0.2941
 6087SOL     OW29893   0.596   0.579   7.641 -0.4673 -0.0420  0.3244
 6087SOL    HW129894   0.549   0.512   7.591 -0.8640  0.5392 -0.0875
 6087SOL    HW229895   0.650   0.613   7.569 -1.5168  0.3391 -0.2871
 6088SOL     OW29896   4.235   1.630   3.440 -0.2940 -0.4729 -0.3490
 6088SOL    HW129897   4.280   1.687   3.378  0.1071  0.7699  1.0862
 6088SOL    HW229898   4.153   1.675   3.457 -0.0987 -1.7920  4.0245
 6089SOL     OW29899   0.792   0.034   5.004  0.3003 -0.1930  0.4083
 6089SOL    HW129900   0.702   0.056   5.028 -1.3426 -3.9772 -2.2915
 6089SOL    HW229901   0.810   0.101   4.938 -0.3405 -0.2824  0.1386
 6090SOL     OW29902   0.804   0.666   4.466  0.7513  0.0894  0.2235
 6090SOL    HW129903   0.763   0.591   4.510  0.1379 -0.2837 -0.9757
 6090SOL    HW229904   0.817   0.631   4.378 -0.7456  1.3145 -0.4656
 6091SOL     OW29905   4.620   2.630   0.224  0.7912  0.2109  0.4715
 6091SOL    HW129906   4.558   2.580   0.171  2.6660 -1.8848  0.2552
 6091SOL    HW229907   4.572   2.645   0.306 -0.9019  0.5350 -0.5823
 6092SOL     OW29908   3.106   3.093   4.960 -0.2183 -0.7719 -1.0426
 6092SOL    HW129909   3.127   3.186   4.967 -0.3793 -0.5899 -2.9332
 6092SOL    HW229910   3.037   3.085   5.026  0.1963  0.9888 -0.4124
 6093SOL     OW29911   3.223   2.973  14.778  0.3547 -0.7589 -0.0647
 6093SOL    HW129912   3.246   3.022  14.699 -1.9817 -1.3277 -1.0872
 6093SOL    HW229913   3.268   2.890  14.765  0.0313 -0.7187 -1.4003
 6094SOL     OW29914   0.545   0.298   0.729  0.5317 -0.1663  0.0443
 6094SOL    HW129915   0.473   0.346   0.770 -0.3796  0.1130 -1.8695
 6094SOL    HW229916   0.531   0.209   0.761  0.4203 -0.9715 -2.2528
 6095SOL     OW29917   2.701   2.517   7.216  0.5943  0.3268 -0.2063
 6095SOL    HW129918   2.722   2.607   7.240 -0.9339  0.8033 -0.6792
 6095SOL    HW229919   2.753   2.466   7.278  0.6300  0.0971 -0.4227
 6096SOL     OW29920   3.565   1.768   1.408  0.1468 -0.1419  0.1501
 6096SOL    HW129921   3.589   1.859   1.425 -0.6715  0.0303  0.4255
 6096SOL    HW229922   3.569   1.721   1.492 -2.8855  1.9087  1.4367
 6097SOL     OW29923   1.171   4.440   8.006 -0.3121 -0.4425  0.3919
 6097SOL    HW129924   1.172   4.404   8.095 -0.9451 -0.3566  0.4383
 6097SOL    HW229925   1.244   4.501   7.998  1.1400 -1.9012  2.3872
 6098SOL     OW29926   0.749   1.743   7.461 -0.1303 -0.0813  0.6004
 6098SOL    HW129927   0.759   1.821   7.516 -1.9742 -0.2938  1.2154
 6098SOL    HW229928   0.680   1.696   7.508  0.6858 -1.6969  0.1807
 6099SOL     OW29929   1.010   0.438   5.632  0.7880  0.0071  0.2477
 6099SOL    HW129930   1.061   0.428   5.551 -0.2219  1.4201 -0.5594
 6099SOL    HW229931   0.926   0.406   5.601 -0.6660  1.8958  2.2503
 6100SOL     OW29932   0.528   3.377  13.569  0.0333 -0.1776  0.5304
 6100SOL    HW129933   0.585   3.340  13.636  2.1871  0.0802 -1.1208
 6100SOL    HW229934   0.581   3.445  13.525  0.7754 -0.4063  1.0651
 6101SOL     OW29935   3.974   1.009   3.563 -0.3975  0.0856 -0.2688
 6101SOL    HW129936   3.896   0.955   3.573 -1.0509  0.8592 -1.2598
 6101SOL    HW229937   3.946   1.080   3.507  1.0299  1.2394  0.4705
 6102SOL     OW29938   1.509   1.766   4.661 -0.0662  0.4990 -0.1246
 6102SOL    HW129939   1.579   1.701   4.672 -0.1997  0.6441  1.5035
 6102SOL    HW229940   1.522   1.833   4.727 -0.5268  2.2793 -1.8362
 6103SOL     OW29941   2.576   3.260   9.692  0.1392  0.2154  0.3427
 6103SOL    HW129942   2.600   3.236   9.603  0.6540  1.0207  0.2619
 6103SOL    HW229943   2.664   3.253   9.730  0.0118 -1.7016  0.2739
 6104SOL     OW29944   4.505   0.126   2.664  0.2120 -0.4132 -0.3709
 6104SOL    HW129945   4.425   0.179   2.668  1.4845  1.4565  0.3220
 6104SOL    HW229946   4.542   0.175   2.590 -0.4303  0.0983 -0.3560
 6105SOL     OW29947   1.342   0.322   5.320  0.2636 -0.2191  0.2251
 6105SOL    HW129948   1.317   0.240   5.278 -0.2898  0.1929 -0.2398
 6105SOL    HW229949   1.253   0.339   5.352  1.0926  0.5045  2.1231
 6106SOL     OW29950   4.275   3.685   4.740  0.3562 -0.1817 -0.4989
 6106SOL    HW129951   4.288   3.599   4.779  0.2580  0.7796  1.7019
 6106SOL    HW229952   4.277   3.733   4.823 -0.3297 -0.0702 -0.5475
 6107SOL     OW29953   1.795   1.597  11.545  0.6169  0.0742  0.0482
 6107SOL    HW129954   1.708   1.559  11.560  0.6144 -0.1202 -0.4528
 6107SOL    HW229955   1.844   1.515  11.546  0.0691 -0.2470  0.4400
 6108SOL     OW29956   2.975   2.505   8.017 -0.1239 -0.4014  0.1185
 6108SOL    HW129957   2.950   2.451   7.942 -1.3370  0.0357  0.2135
 6108SOL    HW229958   3.003   2.438   8.079 -1.7587 -0.4434  0.7949
 6109SOL     OW29959   0.567   4.064   8.855 -0.3241  0.1185  0.4033
 6109SOL    HW129960   0.506   4.006   8.809  0.2941  0.0764 -0.3711
 6109SOL    HW229961   0.628   4.004   8.897 -0.0009  0.3526  0.2701
 6110SOL     OW29962   0.996   1.721   3.559  0.4969  0.0390 -0.0733
 6110SOL    HW129963   1.028   1.811   3.573  0.4303 -0.1758  1.4214
 6110SOL    HW229964   1.042   1.686   3.483 -0.7744 -0.0186 -0.8190
 6111SOL     OW29965   3.445   1.323   7.202 -0.0474 -0.0555 -0.4605
 6111SOL    HW129966   3.521   1.285   7.157 -1.9334 -3.2781 -0.8895
 6111SOL    HW229967   3.409   1.374   7.129 -0.1511  1.6295  0.7692
 6112SOL     OW29968   4.727   3.787   6.496 -0.0880 -0.2135  0.2870
 6112SOL    HW129969   4.721   3.882   6.500 -0.4935 -0.1746 -1.4335
 6112SOL    HW229970   4.716   3.769   6.590  0.7186 -0.0943  0.4006
 6113SOL     OW29971   4.506   3.157   2.158 -0.2089 -0.3441  0.1584
 6113SOL    HW129972   4.497   3.214   2.081 -0.7700 -0.3624  0.2065
 6113SOL    HW229973   4.420   3.114   2.155 -1.0497  1.3948 -1.0222
 6114SOL     OW29974   0.724   4.528   9.269 -0.0513 -0.0195 -0.2015
 6114SOL    HW129975   0.707   4.486   9.185 -0.7336 -0.1026 -0.0239
 6114SOL    HW229976   0.754   4.449   9.315 -2.1934 -0.3205  0.7173
 6115SOL     OW29977   1.752   3.936   4.020 -0.2183 -0.6832 -0.3476
 6115SOL    HW129978   1.725   4.023   4.049  1.5679  0.3832 -1.8086
 6115SOL    HW229979   1.668   3.891   4.021 -1.5115  1.7375 -0.4110
 6116SOL     OW29980   1.546   4.618   8.825  0.1854  0.3240  0.3469
 6116SOL    HW129981   1.482   4.676   8.784  1.0951  0.2622 -1.1617
 6116SOL    HW229982   1.492   4.570   8.889 -0.2662  0.7731  0.2998
 6117SOL     OW29983   1.208   0.936  14.751 -0.0335 -0.0213  0.4806
 6117SOL    HW129984   1.216   0.973  14.663  1.2859  1.1967  1.1004
 6117SOL    HW229985   1.153   0.859  14.734  2.2232 -2.0817  2.4948
 6118SOL     OW29986   2.136   0.408   0.653 -0.3906 -0.0906  0.0992
 6118SOL    HW129987   2.179   0.323   0.650 -0.0871  0.0554  0.2979
 6118SOL    HW229988   2.077   0.397   0.578 -0.0594  0.5036 -0.2491
 6119SOL     OW29989   3.170   2.010  13.696  0.1631 -0.1565  0.4763
 6119SOL    HW129990   3.219   1.982  13.773  1.7955 -2.7719 -1.5265
 6119SOL    HW229991   3.123   2.086  13.731 -0.5170 -0.7845  0.9482
 6120SOL     OW29992   3.604   3.182   5.038 -0.0892  0.0156 -0.1366
 6120SOL    HW129993   3.690   3.201   5.076 -0.1468  1.4121 -0.6995
 6120SOL    HW229994   3.638   3.131   4.964  2.0951  0.6198  0.4680
 6121SOL     OW29995   2.123   1.269   7.105 -0.7093 -0.2716  0.5687
 6121SOL    HW129996   2.119   1.283   7.010 -1.1198  2.1162  0.9427
 6121SOL    HW229997   2.158   1.180   7.104 -0.9253 -0.3633  1.1169
 6122SOL     OW29998   3.302   0.986   0.990 -0.3270  0.1290  0.2218
 6122SOL    HW129999   3.319   0.943   1.074  0.6699 -0.5347 -0.3167
 6122SOL    HW230000   3.301   1.076   1.023 -0.9475  1.1837 -2.6748
 6123SOL     OW30001   3.892   2.748   6.761  0.2990  0.5148 -0.2041
 6123SOL    HW130002   3.843   2.673   6.794  0.3268  0.7160  0.2991
 6123SOL    HW230003   3.832   2.772   6.691  1.4492  2.1795 -0.6058
 6124SOL     OW30004   1.414   4.307   7.813  0.3899 -0.1459 -0.3220
 6124SOL    HW130005   1.419   4.317   7.718  1.9007  2.1922 -0.0086
 6124SOL    HW230006   1.344   4.243   7.828 -0.3221  0.4295 -1.1782
 6125SOL     OW30007   4.466   3.007  10.238  0.0634  0.6575 -0.0446
 6125SOL    HW130008   4.537   2.963  10.193  0.5838 -0.0685  1.4750
 6125SOL    HW230009   4.384   2.961  10.220 -0.2218 -0.0155  2.9220
 6126SOL     OW30010   1.579   1.491   1.692 -0.1357  0.0773 -0.8078
 6126SOL    HW130011   1.624   1.573   1.714  0.6004 -0.0908 -1.6776
 6126SOL    HW230012   1.537   1.468   1.775  0.6634  0.0226 -0.4183
 6127SOL     OW30013   2.343   1.583  11.665  0.2474  0.3945 -0.1775
 6127SOL    HW130014   2.251   1.565  11.684  0.0050  3.1360  1.2349
 6127SOL    HW230015   2.383   1.619  11.744  1.5070  0.0608 -0.6611
 6128SOL     OW30016   3.029   3.601   1.416  0.0598  0.0713 -0.5181
 6128SOL    HW130017   3.113   3.638   1.445 -1.0619  2.7496 -0.7132
 6128SOL    HW230018   2.990   3.608   1.503  1.8525  1.6905  0.1684
 6129SOL     OW30019   1.824   2.552   9.476 -0.3898 -0.1417 -0.3674
 6129SOL    HW130020   1.750   2.580   9.530 -2.2666  1.5505 -3.7605
 6129SOL    HW230021   1.870   2.634   9.458  0.0573 -0.0938  0.9920
 6130SOL     OW30022   2.416   4.273   6.354  0.0513  0.2127  0.4568
 6130SOL    HW130023   2.487   4.309   6.301  0.6195  0.4313  1.3556
 6130SOL    HW230024   2.456   4.287   6.440  1.9401 -0.9447 -0.2381
 6131SOL     OW30025   2.184   3.784  13.068  0.6566  0.1817 -0.2842
 6131SOL    HW130026   2.102   3.817  13.034  1.1221  0.4816 -1.1118
 6131SOL    HW230027   2.192   3.850  13.137  0.5473  1.3733 -1.4142
 6132SOL     OW30028   3.571   4.150   7.633  0.0853 -0.0257 -0.2766
 6132SOL    HW130029   3.516   4.112   7.702  1.1534  1.4958  1.4079
 6132SOL    HW230030   3.545   4.101   7.556 -1.6279  2.0163 -0.9707
 6133SOL     OW30031   1.845   0.688   3.632  0.0437 -0.4963  0.2540
 6133SOL    HW130032   1.776   0.755   3.636 -0.7470 -1.3212  0.3238
 6133SOL    HW230033   1.918   0.730   3.586  0.2508 -0.9450  0.1684
 6134SOL     OW30034   3.589   2.906   1.338  0.4851 -0.3911  0.5390
 6134SOL    HW130035   3.523   2.893   1.406 -0.7669  2.7301 -0.0792
 6134SOL    HW230036   3.548   2.848   1.274  2.6774 -1.1950 -0.1336
 6135SOL     OW30037   1.683   4.190   4.828  0.4649  0.5011  0.2137
 6135SOL    HW130038   1.730   4.121   4.874 -1.9191 -0.9979  0.4281
 6135SOL    HW230039   1.611   4.210   4.888  0.3526  2.0934 -0.4366
 6136SOL     OW30040   4.108   3.583   6.983 -0.2586 -0.4407  0.0719
 6136SOL    HW130041   4.065   3.664   7.010 -2.0416 -1.9398  1.8168
 6136SOL    HW230042   4.120   3.550   7.073 -1.2000 -1.2897 -0.1169
 6137SOL     OW30043   3.823   2.695   7.154  0.5762 -0.0729  0.8870
 6137SOL    HW130044   3.882   2.621   7.139 -1.9035 -1.4534 -2.1416
 6137SOL    HW230045   3.879   2.772   7.144  0.2609  0.6701  5.1756
 6138SOL     OW30046   3.407   1.914   8.580 -0.1481 -0.1972 -0.3546
 6138SOL    HW130047   3.325   1.922   8.532  0.5757  1.0689 -1.3790
 6138SOL    HW230048   3.452   1.857   8.517 -0.5981  1.1835 -1.9214
 6139SOL     OW30049   3.901   1.691  15.659 -0.1984  0.0106 -0.2910
 6139SOL    HW130050   3.875   1.761  15.718  0.3522  0.2465 -0.3278
 6139SOL    HW230051   3.830   1.683  15.595 -1.2137  1.2399  0.6841
 6140SOL     OW30052   0.145   0.880   2.477  0.0529  0.4137 -0.1514
 6140SOL    HW130053   0.198   0.917   2.406  0.6237  1.3040  0.7383
 6140SOL    HW230054   0.102   0.963   2.497  1.7485  0.6233  2.5723
 6141SOL     OW30055   2.675   2.686   2.601  0.3914 -0.2792 -0.1987
 6141SOL    HW130056   2.707   2.640   2.679  0.3436 -0.1717 -0.1156
 6141SOL    HW230057   2.616   2.615   2.574  0.0219 -0.0897  0.1068
 6142SOL     OW30058   0.273   2.937   5.584  0.5423 -0.3471  0.0570
 6142SOL    HW130059   0.320   2.956   5.666  0.7263  0.1707 -0.1746
 6142SOL    HW230060   0.349   2.918   5.529  0.4722 -2.1951  0.5913
 6143SOL     OW30061   1.274   0.204  17.293 -0.6194 -0.7613  0.0514
 6143SOL    HW130062   1.337   0.136  17.315 -1.6679 -2.4865 -2.1367
 6143SOL    HW230063   1.259   0.182  17.201 -2.0846  0.2644  0.0373
 6144SOL     OW30064   0.467   0.312   7.829  0.1199  0.3253 -0.8781
 6144SOL    HW130065   0.486   0.266   7.911 -0.2674  0.0703 -0.9328
 6144SOL    HW230066   0.431   0.394   7.863  1.1179  0.9047 -1.1878
 6145SOL     OW30067   4.027   4.608   3.266 -0.2328  0.3609  0.4147
 6145SOL    HW130068   4.054   4.699   3.281 -0.5082  0.6545 -0.8988
 6145SOL    HW230069   3.941   4.605   3.307  0.1965 -2.2072  1.1181
 6146SOL     OW30070   2.448   0.057   5.290  1.4552 -0.4125 -0.7026
 6146SOL    HW130071   2.415   0.131   5.239  0.8970 -0.0249  0.2246
 6146SOL    HW230072   2.396   0.056   5.370 -1.0581  0.8976 -2.3266
 6147SOL     OW30073   4.472   0.071   9.609  0.3482  0.4485 -0.8928
 6147SOL    HW130074   4.540   0.007   9.629  0.1034  0.1730 -0.9498
 6147SOL    HW230075   4.418   0.002   9.570 -2.3425  1.1221  1.6509
 6148SOL     OW30076   4.132   0.544   8.241 -0.6211 -0.3092  0.5383
 6148SOL    HW130077   4.214   0.566   8.285 -1.4335 -0.0071  1.8977
 6148SOL    HW230078   4.106   0.461   8.280  1.3831 -1.6677 -1.0078
 6149SOL     OW30079   3.333   3.448   9.466 -0.0880 -0.0214 -0.1762
 6149SOL    HW130080   3.295   3.376   9.517 -0.1346  0.5037  0.5361
 6149SOL    HW230081   3.400   3.478   9.528  0.2817 -0.2610 -0.4641
 6150SOL     OW30082   0.299   3.435   8.329  0.0408  0.3695  0.1162
 6150SOL    HW130083   0.350   3.361   8.361 -1.8202 -1.2686 -0.7200
 6150SOL    HW230084   0.214   3.398   8.353 -0.5331  0.9823 -0.9554
 6151SOL     OW30085   2.290   3.614  13.247  0.1303 -0.4102 -0.3523
 6151SOL    HW130086   2.261   3.673  13.177  0.1421 -0.0698 -0.0731
 6151SOL    HW230087   2.247   3.658  13.321  1.3921 -0.2041  0.2743
 6152SOL     OW30088   4.645   0.357   4.741 -0.0550  0.3104 -0.4289
 6152SOL    HW130089   4.587   0.431   4.721 -0.1554  0.1819 -0.6148
 6152SOL    HW230090   4.719   0.407   4.776 -0.4234  0.5135  0.0665
 6153SOL     OW30091   3.819   1.010   3.885 -0.3402 -0.0145  0.3205
 6153SOL    HW130092   3.799   0.930   3.934 -2.2831  0.6118  0.5297
 6153SOL    HW230093   3.736   1.039   3.849  0.6938  1.9534 -0.4509
 6154SOL     OW30094   0.438   0.487   6.132  0.5989  0.1228  0.3090
 6154SOL    HW130095   0.427   0.574   6.170  1.2303 -0.9087  2.8475
 6154SOL    HW230096   0.415   0.434   6.208  1.4449  1.9707  1.8337
 6155SOL     OW30097   0.355   3.515  12.160 -0.7214  0.1552 -0.2224
 6155SOL    HW130098   0.364   3.435  12.211  2.0767  0.1287 -0.7493
 6155SOL    HW230099   0.443   3.549  12.179 -0.9473  0.4481  0.2957
 6156SOL     OW30100   3.563   4.442  12.400  0.3985 -0.3085  0.0827
 6156SOL    HW130101   3.561   4.348  12.413 -1.1760 -0.4206 -1.0218
 6156SOL    HW230102   3.479   4.464  12.361 -0.2315 -0.8717  1.1435
 6157SOL     OW30103   0.267   1.024   6.223  0.5733  0.2046  0.3438
 6157SOL    HW130104   0.303   1.108   6.254  1.2002 -0.6507  1.9313
 6157SOL    HW230105   0.315   0.959   6.274 -0.2493 -1.5225 -1.0851
 6158SOL     OW30106   1.871   1.982   7.047  0.2264 -0.2901 -0.0731
 6158SOL    HW130107   1.818   1.922   7.100  1.4022  0.7482  2.2366
 6158SOL    HW230108   1.838   2.063   7.085  0.5352 -0.4109  0.4410
 6159SOL     OW30109   3.182   2.169   5.933  0.1042 -0.1699 -0.1582
 6159SOL    HW130110   3.092   2.200   5.934  0.0591 -0.2951 -0.3363
 6159SOL    HW230111   3.204   2.196   6.022  1.0906 -0.9557 -0.1514
 6160SOL     OW30112   2.903   3.797   9.848  0.3807  0.3282  0.4286
 6160SOL    HW130113   2.877   3.791   9.940 -1.4269 -1.4126 -0.1851
 6160SOL    HW230114   2.846   3.726   9.819  1.6502 -0.0982 -0.9891
 6161SOL     OW30115   4.608   0.050  16.390  0.2321  0.4420  0.3661
 6161SOL    HW130116   4.699   0.069  16.368  0.2797 -0.7047 -0.3518
 6161SOL    HW230117   4.619   4.718  16.452  0.8709  0.7531  0.6162
 6162SOL     OW30118   0.256   0.371  11.062 -0.2370 -0.2082 -0.2705
 6162SOL    HW130119   0.225   0.280  11.065 -1.6421  0.3082  1.2810
 6162SOL    HW230120   0.277   0.402  10.974 -0.7864  1.7694  0.2871
 6163SOL     OW30121   0.254   0.791   0.119  0.3502 -0.2298 -0.2968
 6163SOL    HW130122   0.159   0.801   0.120  0.2448 -1.4928  2.0380
 6163SOL    HW230123   0.286   0.845   0.047 -0.5216 -1.9421 -1.9419
 6164SOL     OW30124   0.979   3.294   2.748  0.3582 -0.1418 -0.1719
 6164SOL    HW130125   0.884   3.287   2.757  0.4385 -1.6138 -0.5891
 6164SOL    HW230126   1.003   3.245   2.827 -1.1936  0.2009  0.5264
 6165SOL     OW30127   1.854   4.297   0.577 -0.6780  0.3481 -0.7309
 6165SOL    HW130128   1.868   4.223   0.636 -0.4875  0.1229 -1.0583
 6165SOL    HW230129   1.817   4.363   0.636 -0.3071  0.3851 -0.5387
 6166SOL     OW30130   3.325   2.733   7.691  0.2602 -0.1213 -0.0795
 6166SOL    HW130131   3.407   2.711   7.736  0.0709  1.0558  0.8434
 6166SOL    HW230132   3.266   2.687   7.751 -1.1303  1.4588 -0.2527
 6167SOL     OW30133   4.495   4.492  13.808  0.0531 -0.5487 -0.6157
 6167SOL    HW130134   4.433   4.420  13.807  1.2005 -1.5452  0.8261
 6167SOL    HW230135   4.502   4.510  13.901 -0.5082 -0.7375 -0.5385
 6168SOL     OW30136   3.158   3.349   3.432 -0.2785  0.0525  0.6359
 6168SOL    HW130137   3.111   3.334   3.350 -0.1427  2.0971  0.1970
 6168SOL    HW230138   3.250   3.333   3.409 -0.5854 -0.5907 -0.1452
 6169SOL     OW30139   1.764   1.099   1.937 -0.1525 -0.4887 -0.2135
 6169SOL    HW130140   1.752   1.122   1.845  1.3413 -1.6675 -0.7079
 6169SOL    HW230141   1.689   1.138   1.981 -1.1787 -0.3246 -2.1041
 6170SOL     OW30142   1.416   1.122  14.174  0.7022 -0.4447 -0.7645
 6170SOL    HW130143   1.466   1.080  14.104 -0.1270 -1.1929 -0.9004
 6170SOL    HW230144   1.489   1.170  14.215 -2.2106  3.4130 -0.1383
 6171SOL     OW30145   2.823   3.567  13.570  0.3692  0.3278 -0.3088
 6171SOL    HW130146   2.749   3.534  13.519  0.9987 -0.8179 -0.4788
 6171SOL    HW230147   2.788   3.631  13.632  0.1408  1.7692 -1.9062
 6172SOL     OW30148   2.401   1.300  17.020  0.0846  0.0413 -0.2455
 6172SOL    HW130149   2.495   1.308  17.004 -0.1033  1.4134 -0.6079
 6172SOL    HW230150   2.360   1.362  16.961 -2.7290 -1.5748  0.0315
 6173SOL     OW30151   2.330   1.658  14.944 -0.4261  0.2169  0.2553
 6173SOL    HW130152   2.269   1.642  14.872  0.4884  2.8617 -1.1124
 6173SOL    HW230153   2.301   1.739  14.984  1.0781  0.4093  0.9526
 6174SOL     OW30154   0.862   3.585   2.854  0.1587 -0.2014 -0.2598
 6174SOL    HW130155   0.911   3.649   2.802 -0.6308  0.5885 -0.0357
 6174SOL    HW230156   0.904   3.499   2.851  1.0910  0.2288  0.1934
 6175SOL     OW30157   0.886   0.305   8.542 -0.1462 -0.0543  0.5648
 6175SOL    HW130158   0.795   0.323   8.565 -0.2213  1.5890 -1.0867
 6175SOL    HW230159   0.927   0.308   8.629  0.3018 -0.9293  0.3927
 6176SOL     OW30160   1.606   4.436  17.593 -0.0033  0.0127  0.4564
 6176SOL    HW130161   1.529   4.448  17.648 -2.0494  1.5339 -2.8133
 6176SOL    HW230162   1.591   4.348  17.557 -0.2325  1.0156 -1.8855
 6177SOL     OW30163   4.305   2.171   8.650 -0.2166  0.1326  0.2541
 6177SOL    HW130164   4.394   2.142   8.672 -0.7126  0.0561  2.1751
 6177SOL    HW230165   4.273   2.214   8.729  0.8137  1.4689 -0.0608
 6178SOL     OW30166   1.579   3.534  17.432 -0.0131  0.3300  0.6106
 6178SOL    HW130167   1.522   3.516  17.357 -0.8708 -0.1122  1.3804
 6178SOL    HW230168   1.565   3.455  17.484  0.9662  0.3737  0.9462
 6179SOL     OW30169   0.693   1.308   4.555 -0.1647  0.6585  0.0868
 6179SOL    HW130170   0.637   1.351   4.618 -0.2102  0.7997 -0.0513
 6179SOL    HW230171   0.730   1.385   4.511 -3.0534 -0.1646 -3.7360
 6180SOL     OW30172   3.385   0.684  15.735 -0.0856 -0.1111  0.4579
 6180SOL    HW130173   3.456   0.685  15.799 -0.4789 -1.4158  0.9103
 6180SOL    HW230174   3.415   0.758  15.682 -0.3469  0.4598  1.1069
 6181SOL     OW30175   4.580   0.994  11.475 -0.3251 -0.1820  0.4845
 6181SOL    HW130176   4.641   0.932  11.516  0.0536 -0.0189  0.1734
 6181SOL    HW230177   4.613   1.006  11.386  1.0489  1.0005  1.1499
 6182SOL     OW30178   4.286   4.126   5.058  0.0054 -0.3060  0.1881
 6182SOL    HW130179   4.243   4.075   5.127 -0.9172  0.0333 -0.1432
 6182SOL    HW230180   4.340   4.062   5.012 -1.5180 -1.3438 -0.1483
 6183SOL     OW30181   4.675   0.263   8.437 -0.6372 -0.6018  0.7348
 6183SOL    HW130182   4.703   0.309   8.358 -0.5488 -0.9067  0.5888
 6183SOL    HW230183   4.679   0.169   8.419  0.6102 -0.4786  0.3562
 6184SOL     OW30184   0.411   4.521   6.157  0.2128 -0.5545 -0.2580
 6184SOL    HW130185   0.324   4.533   6.120 -0.4762 -1.9012  0.9479
 6184SOL    HW230186   0.394   4.447   6.215  0.2112 -0.7283 -0.4849
 6185SOL     OW30187   0.692   1.793   9.732  0.2662  0.3087  0.1058
 6185SOL    HW130188   0.770   1.753   9.771 -0.1008  0.9665  1.5328
 6185SOL    HW230189   0.710   1.776   9.640  4.4853 -0.6501  1.1014
 6186SOL     OW30190   0.590   2.787   7.266 -0.5549 -0.2113 -0.2342
 6186SOL    HW130191   0.671   2.832   7.244  0.7479 -1.3440  2.1356
 6186SOL    HW230192   0.603   2.700   7.228  1.6707 -0.8505  1.9578
 6187SOL     OW30193   3.056   0.635   4.776  0.5495 -0.3198  0.4989
 6187SOL    HW130194   3.014   0.599   4.854 -0.2059 -0.6672 -0.0722
 6187SOL    HW230195   3.115   0.564   4.751  2.6887  0.9064  2.0597
 6188SOL     OW30196   2.209   3.728  16.707  0.3406  0.2892  0.1759
 6188SOL    HW130197   2.238   3.638  16.693  1.3665  0.5626  0.5092
 6188SOL    HW230198   2.229   3.766  16.622 -1.4926 -1.0932 -0.8586
 6189SOL     OW30199   0.734   3.519  14.026 -0.7992 -1.0617  0.4363
 6189SOL    HW130200   0.668   3.493  13.962 -1.5997 -0.5264  1.0457
 6189SOL    HW230201   0.705   3.602  14.063  0.5216 -0.1604 -0.5380
 6190SOL     OW30202   4.337   3.886   2.692 -0.5515 -0.1370 -0.3961
 6190SOL    HW130203   4.410   3.824   2.697  0.2706  0.7215 -1.8796
 6190SOL    HW230204   4.283   3.828   2.638 -0.1361 -1.4467  0.6120
 6191SOL     OW30205   2.083   1.458   7.595  0.7403 -0.4024  0.7677
 6191SOL    HW130206   2.120   1.386   7.544 -1.3034 -1.5315  0.8594
 6191SOL    HW230207   1.994   1.453   7.560  0.9987 -0.7189  0.1514
 6192SOL     OW30208   0.823   0.091   2.261  0.1571  0.3456  0.0514
 6192SOL    HW130209   0.814   4.736   2.269 -1.2522  0.2204 -3.0187
 6192SOL    HW230210   0.754   0.128   2.317 -0.9452  0.7609 -1.5748
 6193SOL     OW30211   3.209   0.177  13.455 -0.1755  0.4749 -0.2547
 6193SOL    HW130212   3.270   0.140  13.518  0.6724  2.1695 -0.0889
 6193SOL    HW230213   3.136   0.116  13.467  0.9475 -1.3220 -2.5999
 6194SOL     OW30214   4.286   0.709   3.477 -0.5192 -0.3802 -0.0550
 6194SOL    HW130215   4.360   0.730   3.535 -1.0335 -0.0380  0.4706
 6194SOL    HW230216   4.333   0.675   3.400  1.4068  0.2457  0.8481
 6195SOL     OW30217   1.416   1.797   6.785 -0.1402  0.3410  0.2057
 6195SOL    HW130218   1.452   1.862   6.845 -0.0248 -1.3046  1.9210
 6195SOL    HW230219   1.496   1.752   6.759 -0.3828 -0.8782  1.6067
 6196SOL     OW30220   0.909   0.564   0.514  0.4935  0.3657  0.1241
 6196SOL    HW130221   0.870   0.600   0.435 -0.0804 -1.6280 -0.4956
 6196SOL    HW230222   0.991   0.524   0.487  0.6640  0.7744  0.0423
 6197SOL     OW30223   1.795   2.894  14.047 -0.3145 -0.0389 -0.1705
 6197SOL    HW130224   1.735   2.830  14.084  0.9950 -1.2652 -0.1664
 6197SOL    HW230225   1.829   2.939  14.125  0.2166 -0.6612 -0.0414
 6198SOL     OW30226   4.187   0.497   4.743  0.0683  0.0975  0.3732
 6198SOL    HW130227   4.095   0.505   4.718  0.7029  0.4901 -1.8638
 6198SOL    HW230228   4.191   0.402   4.750  1.5665  0.1434  0.1293
 6199SOL     OW30229   3.085   1.385  11.074  0.4321  0.5557  0.0046
 6199SOL    HW130230   3.077   1.337  11.156  1.3206 -0.2829 -0.3986
 6199SOL    HW230231   2.996   1.418  11.062  0.4977  1.8173  3.0155
 6200SOL     OW30232   1.827   2.663   0.799 -0.0008 -0.1837 -0.3155
 6200SOL    HW130233   1.891   2.595   0.818 -0.9683 -1.1394 -0.4981
 6200SOL    HW230234   1.855   2.738   0.852  0.8710 -0.8701  0.1742
 6201SOL     OW30235   3.775   3.758  13.751 -0.2467 -0.1161 -0.0003
 6201SOL    HW130236   3.736   3.769  13.838  2.1551  0.1238  1.0491
 6201SOL    HW230237   3.871   3.765  13.749 -0.0804 -2.1432  1.3782
 6202SOL     OW30238   3.949   1.686   3.798 -0.2581 -0.1067 -0.2858
 6202SOL    HW130239   3.949   1.777   3.768  0.8504  1.0264  3.2365
 6202SOL    HW230240   4.034   1.676   3.840  0.4706  0.4384 -1.5998
 6203SOL     OW30241   2.477   1.460   3.625 -0.6282 -0.1410 -0.4810
 6203SOL    HW130242   2.533   1.537   3.618 -0.9464  0.1326 -0.0247
 6203SOL    HW230243   2.433   1.467   3.710  0.9407  1.3824  0.2044
 6204SOL     OW30244   2.838   0.582   8.416 -0.3309 -0.3427 -0.1448
 6204SOL    HW130245   2.922   0.625   8.433 -0.2972 -0.8700  0.9842
 6204SOL    HW230246   2.792   0.563   8.498 -0.3404  0.3804  0.0192
 6205SOL     OW30247   0.056   2.873   7.981 -0.0273 -0.6280 -0.2200
 6205SOL    HW130248   0.146   2.871   7.946  0.1927  0.8694  0.2821
 6205SOL    HW230249   0.045   2.781   8.005 -0.7736 -0.3977  0.3167
 6206SOL     OW30250   2.418   2.938   9.682  0.2113  0.3666  0.4678
 6206SOL    HW130251   2.445   2.894   9.763 -1.0509 -1.4937 -0.1464
 6206SOL    HW230252   2.412   3.025   9.722 -0.0745  0.8877 -0.7177
 6207SOL     OW30253   2.726   0.631   1.678 -0.2508 -0.0280 -0.3314
 6207SOL    HW130254   2.670   0.709   1.675  1.1967  0.9958 -0.9592
 6207SOL    HW230255   2.672   0.570   1.630  4.3416 -1.7613 -3.2826
 6208SOL     OW30256   3.367   1.864   0.337 -0.7340 -0.2517  0.0114
 6208SOL    HW130257   3.366   1.780   0.382 -0.0442 -0.4516 -0.3580
 6208SOL    HW230258   3.286   1.901   0.374  0.0063 -1.0163  2.3943
 6209SOL     OW30259   3.211   2.898   4.803 -0.2776  0.0354  0.1998
 6209SOL    HW130260   3.182   2.968   4.861  0.2358  1.2532 -1.0226
 6209SOL    HW230261   3.171   2.932   4.723  0.5769 -1.1903 -0.7630
 6210SOL     OW30262   2.706   4.286   7.630 -0.2230  0.0496  0.4266
 6210SOL    HW130263   2.616   4.254   7.635 -0.3826  0.5903  0.9869
 6210SOL    HW230264   2.691   4.357   7.569  1.7250 -2.3738 -2.8704
 6211SOL     OW30265   4.080   4.544   6.310  0.0051  0.3628 -0.8272
 6211SOL    HW130266   4.168   4.562   6.344 -0.6070 -0.2668  1.0928
 6211SOL    HW230267   4.040   4.491   6.379  1.2406 -1.8168 -1.7971
 6212SOL     OW30268   0.012   2.152   9.780  0.1842 -0.3841  0.4706
 6212SOL    HW130269   4.663   2.138   9.747  1.0521 -0.2734 -1.8920
 6212SOL    HW230270   0.036   2.060   9.783 -0.2483 -0.4705  1.3171
 6213SOL     OW30271   4.170   2.964   4.433  1.0114 -0.0801 -0.0323
 6213SOL    HW130272   4.133   2.951   4.346 -1.1880  1.7090  0.6574
 6213SOL    HW230273   4.144   3.051   4.463  2.5805 -0.2842  1.9254
 6214SOL     OW30274   4.478   3.313   1.065 -0.6071 -0.5069  0.5692
 6214SOL    HW130275   4.417   3.380   1.032  1.6669  1.4631  0.3544
 6214SOL    HW230276   4.506   3.276   0.982 -2.3783 -0.0842 -0.2164
 6215SOL     OW30277   1.469   3.900   6.943  0.1765 -0.2178  0.8691
 6215SOL    HW130278   1.524   3.979   6.946 -2.4525  1.6608 -0.8822
 6215SOL    HW230279   1.452   3.901   6.849  3.3283 -2.8170  0.2541
 6216SOL     OW30280   0.489   4.668   8.355  0.2904  0.0268 -0.5772
 6216SOL    HW130281   0.436   4.626   8.288  1.0023  2.2074 -2.5081
 6216SOL    HW230282   0.421   4.704   8.411  0.5436 -0.1981 -0.1185
 6217SOL     OW30283   1.257   2.440   5.633  0.2291 -0.2616  0.4335
 6217SOL    HW130284   1.330   2.388   5.666  1.7154  1.1143 -0.6994
 6217SOL    HW230285   1.196   2.439   5.707 -0.2408  1.1649  0.0655
 6218SOL     OW30286   4.683   4.014   4.408  0.6711  0.0458  0.0771
 6218SOL    HW130287   4.668   3.921   4.425 -1.6460  0.2376 -0.8951
 6218SOL    HW230288   4.720   4.004   4.321  0.5125 -1.8526  0.2394
 6219SOL     OW30289   0.651   0.176   3.943 -0.5622  0.0702 -0.2719
 6219SOL    HW130290   0.604   0.137   4.017 -1.7573 -0.2147 -1.1849
 6219SOL    HW230291   0.742   0.146   3.954 -0.5152  0.7072  1.1368
 6220SOL     OW30292   2.654   3.082  16.583  0.0829  0.4524  0.0640
 6220SOL    HW130293   2.659   3.032  16.502  1.1905 -0.1299  0.4967
 6220SOL    HW230294   2.746   3.099  16.601 -0.2623  0.1219  2.1948
 6221SOL     OW30295   1.056   3.004   6.282  0.5506  0.1717 -0.2213
 6221SOL    HW130296   1.090   2.915   6.296  0.5353 -0.0560 -1.6095
 6221SOL    HW230297   1.121   3.058   6.327 -0.8250  1.2947  0.3939
 6222SOL     OW30298   2.560   3.400   5.577 -0.6987  0.0934 -0.0723
 6222SOL    HW130299   2.556   3.305   5.564  1.0799  0.4966 -3.6312
 6222SOL    HW230300   2.600   3.401   5.663  2.2701 -1.1027 -1.4508
 6223SOL     OW30301   3.322   0.627   7.548  0.1044  0.0760 -0.3890
 6223SOL    HW130302   3.298   0.718   7.562 -0.3783  0.3291 -2.8937
 6223SOL    HW230303   3.409   0.628   7.589  0.2637 -1.6596 -0.6616
 6224SOL     OW30304   1.976   1.914   2.300 -0.4405 -0.2717  0.2782
 6224SOL    HW130305   1.941   1.838   2.253  1.1412 -0.3255 -0.7881
 6224SOL    HW230306   2.066   1.883   2.305  0.0340  0.7571 -1.8269
 6225SOL     OW30307   2.495   1.301  12.554  0.1320  0.0809  0.0025
 6225SOL    HW130308   2.451   1.315  12.638 -3.1431 -0.5773 -1.5979
 6225SOL    HW230309   2.439   1.230  12.522  0.4117 -0.9755  1.8268
 6226SOL     OW30310   1.846   0.348   6.468  0.4792 -0.5422 -0.8561
 6226SOL    HW130311   1.813   0.262   6.444  0.0036 -0.5624 -0.1480
 6226SOL    HW230312   1.811   0.394   6.392  0.4020  0.4997 -0.1971
 6227SOL     OW30313   3.133   4.373   8.123 -0.0167  0.7562  0.2545
 6227SOL    HW130314   3.135   4.353   8.029  1.3096  0.7296  0.2923
 6227SOL    HW230315   3.217   4.337   8.151 -0.1332 -0.2430 -0.6833
 6228SOL     OW30316   4.665   3.636   6.711  0.1518 -0.2889 -0.6521
 6228SOL    HW130317   4.582   3.589   6.700 -0.8376  0.9629  1.5222
 6228SOL    HW230318   4.674   3.621   6.805 -1.7183 -2.5935 -0.8396
 6229SOL     OW30319   0.507   2.961   9.056 -0.9196  0.2091 -0.1798
 6229SOL    HW130320   0.531   3.049   9.085 -0.0529 -0.0838 -0.0185
 6229SOL    HW230321   0.491   2.977   8.963  0.4875  1.6905 -0.1500
 6230SOL     OW30322   0.691   0.796   2.019 -0.3169 -0.4111 -0.0970
 6230SOL    HW130323   0.616   0.776   2.075 -0.4632 -2.4427 -1.0165
 6230SOL    HW230324   0.701   0.719   1.963 -0.5687  0.4745 -1.3577
 6231SOL     OW30325   2.821   2.407   4.827  0.1440 -0.4614 -0.5530
 6231SOL    HW130326   2.907   2.438   4.801 -0.8403  1.8632 -1.0130
 6231SOL    HW230327   2.834   2.314   4.806 -0.1327 -0.9541  1.4290
 6232SOL     OW30328   4.041   0.172   8.908  0.5334  0.3783  0.0503
 6232SOL    HW130329   3.988   0.252   8.914  2.0036  1.3813 -0.3576
 6232SOL    HW230330   3.966   0.112   8.898  1.4441 -0.4035 -2.0922
 6233SOL     OW30331   2.434   4.207   5.711 -0.1967 -0.0471  0.0884
 6233SOL    HW130332   2.364   4.272   5.712 -0.6561 -0.5716  0.9676
 6233SOL    HW230333   2.392   4.121   5.710  1.2503 -0.7352 -2.9099
 6234SOL     OW30334   4.655   0.895   7.192  0.1096 -0.2146 -0.0043
 6234SOL    HW130335   4.702   0.971   7.160  0.2157  0.6130  2.1142
 6234SOL    HW230336   4.638   0.856   7.106  1.5387 -1.6728  0.3515
 6235SOL     OW30337   3.591   4.239   3.257 -0.1246  0.4046 -0.1789
 6235SOL    HW130338   3.666   4.297   3.246  0.1353 -0.1042 -1.0525
 6235SOL    HW230339   3.534   4.315   3.270  0.5657  0.8795  0.0691
 6236SOL     OW30340   0.946   3.864   7.661  0.0014 -0.0127  0.5478
 6236SOL    HW130341   0.868   3.819   7.627 -0.3275  3.2279 -3.0548
 6236SOL    HW230342   0.937   3.841   7.753  0.1961  0.0089  0.5711
 6237SOL     OW30343   0.561   3.194   3.763 -0.1885  0.3877  0.6643
 6237SOL    HW130344   0.613   3.122   3.727 -1.5592 -0.2269 -0.1076
 6237SOL    HW230345   0.530   3.147   3.841 -3.2186  0.7888 -0.2966
 6238SOL     OW30346   3.391   0.082  13.636 -0.6706 -0.5249  0.1595
 6238SOL    HW130347   3.443   0.112  13.711 -0.8790 -1.6677  0.7597
 6238SOL    HW230348   3.439   0.008  13.599 -1.5698 -0.5370 -0.9996
 6239SOL     OW30349   1.683   0.316   5.942 -0.0716  0.3458 -1.1696
 6239SOL    HW130350   1.621   0.385   5.963  1.1059  0.2491  2.5426
 6239SOL    HW230351   1.764   0.366   5.949 -0.9540  1.7141 -0.9470
 6240SOL     OW30352   4.471   2.017   6.800 -0.6243 -0.0018 -0.1370
 6240SOL    HW130353   4.489   1.985   6.889 -0.2639  0.6405  0.0190
 6240SOL    HW230354   4.377   2.032   6.805 -0.7005 -0.6757  0.4393
 6241SOL     OW30355   3.215   4.046   5.226  0.0428 -0.1854  0.7033
 6241SOL    HW130356   3.174   4.048   5.140 -2.7890  1.9531  2.1156
 6241SOL    HW230357   3.234   4.138   5.247  0.6974 -0.3799  0.9767
 6242SOL     OW30358   3.740   3.148  14.766  0.1757 -0.2513 -0.0923
 6242SOL    HW130359   3.748   3.226  14.822  2.3433 -0.0718 -0.6611
 6242SOL    HW230360   3.813   3.097  14.800  0.7676  0.6018 -0.0563
 6243SOL     OW30361   4.439   3.561  14.719 -0.3632  0.7451  0.3250
 6243SOL    HW130362   4.441   3.651  14.752  0.6619  0.7210  0.3002
 6243SOL    HW230363   4.420   3.573  14.626  1.1300 -0.0580 -0.0784
 6244SOL     OW30364   0.537   2.800   7.873  0.2988  0.5670 -0.1060
 6244SOL    HW130365   0.554   2.835   7.960 -0.6957 -0.1346  0.3715
 6244SOL    HW230366   0.529   2.876   7.816  2.4823  0.2176 -0.9120
 6245SOL     OW30367   0.356   3.979   6.252  0.0274 -0.4012  0.0762
 6245SOL    HW130368   0.304   3.902   6.275 -1.5522  0.8168  0.5710
 6245SOL    HW230369   0.424   3.949   6.192  0.9666  2.3484 -0.2296
 6246SOL     OW30370   1.913   1.518   6.465 -0.1189 -0.0187  0.1376
 6246SOL    HW130371   1.887   1.587   6.404  2.3297  0.2764 -0.5505
 6246SOL    HW230372   2.004   1.512   6.436  0.6553  0.0163  2.5861
 6247SOL     OW30373   0.727   1.691   6.402  0.4671 -0.0113 -0.1947
 6247SOL    HW130374   0.816   1.713   6.373  0.5593  1.1263  0.9186
 6247SOL    HW230375   0.747   1.650   6.486  0.5957  0.6361  0.0990
 6248SOL     OW30376   4.317   4.466   2.118  0.5347  0.2558 -0.5036
 6248SOL    HW130377   4.350   4.555   2.118  2.0993 -0.3154  0.3413
 6248SOL    HW230378   4.224   4.485   2.117  0.2195 -1.2115  0.6892
 6249SOL     OW30379   0.964   3.894   8.029  0.4332 -0.3843  0.6600
 6249SOL    HW130380   0.871   3.908   8.048  0.2192 -0.1793 -0.5832
 6249SOL    HW230381   0.992   3.983   8.006  2.0921 -0.9287  0.5250
 6250SOL     OW30382   1.828   2.414   7.962 -0.1376 -0.0064 -0.3030
 6250SOL    HW130383   1.783   2.467   8.027 -0.4032  1.5040 -1.7034
 6250SOL    HW230384   1.781   2.332   7.971  0.6659 -0.2292  1.9037
 6251SOL     OW30385   1.479   3.927   7.917  0.0680  0.5837  0.3329
 6251SOL    HW130386   1.391   3.896   7.939  0.0535 -0.0223 -0.6169
 6251SOL    HW230387   1.496   3.982   7.994  2.2116  0.0928  0.1994
 6252SOL     OW30388   0.693   1.002   9.480 -0.9717  0.0098 -0.2157
 6252SOL    HW130389   0.700   0.932   9.415  0.0874  1.8732 -2.1081
 6252SOL    HW230390   0.699   1.081   9.426 -2.5506  0.6990  0.6162
 6253SOL     OW30391   3.047   4.554   2.391  0.1523  0.2343 -0.0343
 6253SOL    HW130392   2.958   4.532   2.418  0.7939 -0.7483  1.2527
 6253SOL    HW230393   3.083   4.575   2.477 -0.1524 -1.6059  0.5298
 6254SOL     OW30394   2.284   4.452   5.689  0.6837 -0.3025 -0.0735
 6254SOL    HW130395   2.278   4.542   5.656 -1.2709 -0.1616  0.6558
 6254SOL    HW230396   2.312   4.465   5.779 -0.8448  2.5043 -0.0022
 6255SOL     OW30397   4.690   4.186  16.549 -0.3274 -0.2539  0.5024
 6255SOL    HW130398   4.677   4.233  16.632  0.9856  1.7783 -0.4642
 6255SOL    HW230399   0.041   4.210  16.530 -1.2094  2.0215 -0.7807
 6256SOL     OW30400   1.750   3.646   4.143  0.4338 -0.5008 -0.3258
 6256SOL    HW130401   1.735   3.660   4.236 -1.2278 -0.5240 -0.5920
 6256SOL    HW230402   1.815   3.576   4.139 -1.0352 -1.9643  1.7082
 6257SOL     OW30403   1.903   3.182   0.989 -0.4404 -0.5178  0.1841
 6257SOL    HW130404   1.939   3.265   1.019  2.4089 -1.3957 -0.7986
 6257SOL    HW230405   1.972   3.155   0.929 -1.9378  1.9366 -2.6277
 6258SOL     OW30406   1.542   4.616   5.611  0.1923  0.2584  0.6073
 6258SOL    HW130407   1.473   4.600   5.677 -0.5332 -0.6810 -0.3793
 6258SOL    HW230408   1.581   4.694   5.650 -0.5299  1.7772 -1.7730
 6259SOL     OW30409   0.605   2.806  12.350  0.8268  0.0999  0.0586
 6259SOL    HW130410   0.647   2.762  12.275 -0.3641  0.7542 -0.9955
 6259SOL    HW230411   0.681   2.824  12.405  1.6571  3.3834 -2.1404
 6260SOL     OW30412   0.115   2.311  16.854  0.0959 -0.0215  0.0279
 6260SOL    HW130413   0.136   2.315  16.760  0.5290  2.4651  0.2205
 6260SOL    HW230414   0.163   2.386  16.888  0.0434  0.0867 -0.1337
 6261SOL     OW30415   1.946   1.138   2.569 -0.4876  0.4148  0.2906
 6261SOL    HW130416   2.029   1.185   2.561 -0.2809  0.3663  2.1357
 6261SOL    HW230417   1.982   1.052   2.590 -2.3842 -1.1197 -2.7216
 6262SOL     OW30418   3.474   1.138   3.029  0.1874  0.3280 -0.3952
 6262SOL    HW130419   3.501   1.047   3.026  0.6753  0.4834 -0.6278
 6262SOL    HW230420   3.413   1.135   2.955  2.9226  2.3242 -2.6947
 6263SOL     OW30421   4.148   3.019  11.285  0.5581 -0.0865 -0.4402
 6263SOL    HW130422   4.189   3.024  11.371 -0.8675 -1.1214  0.3005
 6263SOL    HW230423   4.214   2.975  11.231 -0.0227 -1.4679 -0.0358
 6264SOL     OW30424   2.807   2.560  17.554  0.5382 -0.4722  0.0295
 6264SOL    HW130425   2.843   2.475  17.528  1.2306  0.1033 -0.9119
 6264SOL    HW230426   2.848   2.588  17.636  0.8615  0.5758 -0.4914
 6265SOL     OW30427   3.190   3.046   8.144  0.2915 -0.1657 -0.2348
 6265SOL    HW130428   3.230   3.001   8.069 -0.4249 -0.0592 -0.6892
 6265SOL    HW230429   3.245   3.016   8.216  1.6302  0.6740 -0.9140
 6266SOL     OW30430   2.811   3.800   2.051 -0.2913  0.0334  0.2264
 6266SOL    HW130431   2.729   3.777   2.095 -0.4638  1.2515  0.5386
 6266SOL    HW230432   2.773   3.866   1.992  0.6772 -0.1797 -0.6414
 6267SOL     OW30433   2.732   4.087   8.524 -0.0083 -0.3453  0.1191
 6267SOL    HW130434   2.661   4.105   8.586 -0.8185  0.5822 -1.0824
 6267SOL    HW230435   2.776   4.008   8.556 -1.0066 -0.5345  1.0387
 6268SOL     OW30436   1.357   1.333   6.583  0.3797 -0.1355  0.6597
 6268SOL    HW130437   1.389   1.421   6.563 -0.1406  0.3013  1.7741
 6268SOL    HW230438   1.362   1.344   6.678  1.2769  1.4947  0.4284
 6269SOL     OW30439   0.568   3.759   5.411 -0.3833 -0.4724 -0.5310
 6269SOL    HW130440   0.651   3.768   5.364 -0.9508  0.4136 -1.3517
 6269SOL    HW230441   0.509   3.747   5.337 -1.3140 -1.1433  0.3133
 6270SOL     OW30442   0.952   2.091   4.996 -0.1121 -0.1918 -0.3500
 6270SOL    HW130443   0.867   2.101   4.953  0.9570  1.5740 -2.0501
 6270SOL    HW230444   1.013   2.065   4.927  2.4056 -0.3873  1.9389
 6271SOL     OW30445   4.012   0.373  17.506  0.2637 -0.0445  0.0736
 6271SOL    HW130446   4.042   0.355  17.595  1.3341  0.1265 -0.2435
 6271SOL    HW230447   3.944   0.436  17.529 -0.8297 -0.9457 -0.6671
 6272SOL     OW30448   0.999   1.578  11.938 -0.9973 -0.5021 -0.4952
 6272SOL    HW130449   1.007   1.527  12.018 -0.4186  1.0540  0.4486
 6272SOL    HW230450   0.927   1.531  11.896 -1.3123 -0.8276  0.4060
 6273SOL     OW30451   1.792   4.116  15.581 -0.0451 -0.0953 -0.1790
 6273SOL    HW130452   1.740   4.042  15.549 -1.0229  0.5117 -0.0063
 6273SOL    HW230453   1.878   4.076  15.586  0.1060  0.0374 -1.6980
 6274SOL     OW30454   2.448   2.151  14.348  0.4399  0.4172  0.6821
 6274SOL    HW130455   2.523   2.138  14.406  0.8345  2.1260  0.5728
 6274SOL    HW230456   2.421   2.060  14.341  1.1376  0.3058 -0.4750
 6275SOL     OW30457   2.857   3.876   1.003  0.0318  0.1068  0.1016
 6275SOL    HW130458   2.918   3.846   1.070  1.1106  1.5953 -0.2175
 6275SOL    HW230459   2.822   3.947   1.057  2.3544  1.6727 -0.4521
 6276SOL     OW30460   0.371   1.653   1.614  0.7602 -0.1985 -0.5125
 6276SOL    HW130461   0.425   1.731   1.604 -1.1611  1.3701  1.2168
 6276SOL    HW230462   0.359   1.629   1.522  1.2367  1.4844 -1.0146
 6277SOL     OW30463   0.895   3.954  12.928 -0.4950  0.4000 -0.4235
 6277SOL    HW130464   0.820   4.014  12.927  0.2802  1.3697 -0.1443
 6277SOL    HW230465   0.883   3.907  13.011 -1.9407 -2.0375 -2.0266
 6278SOL     OW30466   0.966   2.849   5.033  0.2986 -0.1193  0.2049
 6278SOL    HW130467   0.946   2.907   4.960 -0.9197  1.8087  2.0978
 6278SOL    HW230468   0.935   2.903   5.106 -0.6015 -0.4252  0.0498
 6279SOL     OW30469   0.033   4.008   8.066  0.1621  0.2338 -0.4772
 6279SOL    HW130470   4.680   3.990   8.081 -0.1208  1.3195 -0.8982
 6279SOL    HW230471   0.061   3.932   8.016 -0.2993  0.2028 -0.6873
 6280SOL     OW30472   0.624   4.719   5.506 -0.1620 -0.3862  0.2149
 6280SOL    HW130473   0.713   4.683   5.506 -0.0372 -0.0745 -2.1441
 6280SOL    HW230474   0.569   4.669   5.567 -0.8535 -0.6012 -0.5820
 6281SOL     OW30475   3.591   0.570   4.192 -0.6357 -0.6810  0.5978
 6281SOL    HW130476   3.620   0.514   4.120 -0.3836  0.1373  0.0525
 6281SOL    HW230477   3.502   0.589   4.164 -1.1059  0.4511  2.8717
 6282SOL     OW30478   3.936   0.392  12.456 -0.1638 -0.2131 -0.4665
 6282SOL    HW130479   3.846   0.393  12.421 -0.5326  2.2377  0.5384
 6282SOL    HW230480   3.956   0.309  12.413 -0.5671 -0.4578 -0.1837
 6283SOL     OW30481   4.096   1.146   5.843  0.4419  0.3669  0.3884
 6283SOL    HW130482   4.068   1.234   5.819 -1.4532 -0.8649 -1.8543
 6283SOL    HW230483   4.041   1.100   5.780  0.1611  0.7807  0.3349
 6284SOL     OW30484   4.580   1.307   0.898 -0.7816  0.1809  0.3703
 6284SOL    HW130485   4.602   1.215   0.884  1.1115  0.4298  1.6888
 6284SOL    HW230486   4.501   1.288   0.948 -0.6254 -0.9672  0.1921
 6285SOL     OW30487   2.176   0.778   9.874 -0.3145  0.2232 -0.0911
 6285SOL    HW130488   2.240   0.846   9.853  1.0216 -0.5849  1.3328
 6285SOL    HW230489   2.200   0.759   9.965 -0.0296 -1.4982 -0.5319
 6286SOL     OW30490   3.458   0.731   5.298  0.6628  0.4968  0.6904
 6286SOL    HW130491   3.390   0.758   5.235  0.2073 -2.4118 -0.0451
 6286SOL    HW230492   3.532   0.699   5.247  0.7916  0.2927  1.0081
 6287SOL     OW30493   4.424   2.812   2.007 -0.2067  0.3433  0.4177
 6287SOL    HW130494   4.511   2.793   2.043  0.3998  0.6026 -0.9216
 6287SOL    HW230495   4.372   2.805   2.088 -0.8213  1.7550  0.1442
 6288SOL     OW30496   2.766   0.198   8.989  0.4380  0.0627  0.0236
 6288SOL    HW130497   2.713   0.195   9.069  2.2214 -1.4326  1.1414
 6288SOL    HW230498   2.840   0.150   9.026  0.4900  1.0037  1.1121
 6289SOL     OW30499   0.164   3.049   8.589 -0.5126 -0.1572 -0.2842
 6289SOL    HW130500   0.209   3.004   8.518  2.5442  1.5149  0.5920
 6289SOL    HW230501   0.074   3.075   8.568 -0.2358  0.3292 -0.8577
 6290SOL     OW30502   2.639   1.490   7.086 -0.3485 -0.2248 -0.5854
 6290SOL    HW130503   2.709   1.480   7.150 -1.4783 -0.4546  0.6000
 6290SOL    HW230504   2.570   1.508   7.149  0.4558 -2.2580  0.8645
 6291SOL     OW30505   2.223   0.008   3.386 -0.0212  0.5207 -0.1852
 6291SOL    HW130506   2.146   0.055   3.353  1.0194  3.2697  1.3278
 6291SOL    HW230507   2.214   0.023   3.480 -0.3854  1.6836 -0.4044
 6292SOL     OW30508   1.666   4.475   8.317  0.2142 -0.1769  0.0960
 6292SOL    HW130509   1.595   4.433   8.270 -0.4937  2.2332 -0.9771
 6292SOL    HW230510   1.669   4.427   8.400  1.4785  0.8688  0.6757
 6293SOL     OW30511   4.293   2.101  10.001 -0.3976 -0.6743 -0.1240
 6293SOL    HW130512   4.346   2.102  10.080  0.2442 -3.0696 -0.5273
 6293SOL    HW230513   4.270   2.194   9.995  0.8028 -0.3862 -0.1741
 6294SOL     OW30514   2.832   3.170  15.380  0.3185 -0.2088 -0.3989
 6294SOL    HW130515   2.863   3.241  15.324  1.1498 -1.2685 -1.2873
 6294SOL    HW230516   2.739   3.192  15.377  0.8868  2.3167  1.1527
 6295SOL     OW30517   4.444   1.790   6.163  0.1984  0.0839  0.0258
 6295SOL    HW130518   4.490   1.793   6.079 -1.0747  0.6107 -0.6527
 6295SOL    HW230519   4.475   1.864   6.216 -0.1289 -0.7200  1.3348
 6296SOL     OW30520   0.008   3.034   6.525  0.4141 -0.4321  0.6909
 6296SOL    HW130521   0.082   3.083   6.488  1.6036 -3.2860 -0.7076
 6296SOL    HW230522   4.673   3.087   6.498  1.4465 -0.3566 -2.0669
 6297SOL     OW30523   4.530   0.052  14.919  0.2309 -0.0577 -0.3787
 6297SOL    HW130524   4.479   0.081  14.995  2.0339  1.0704  0.3847
 6297SOL    HW230525   4.458   0.052  14.856  0.6783 -1.4537 -0.8762
 6298SOL     OW30526   0.852   2.170   3.610 -0.1970 -0.6059  0.2347
 6298SOL    HW130527   0.775   2.203   3.656  0.4516  3.7984 -1.8934
 6298SOL    HW230528   0.891   2.253   3.582  0.6645 -1.6545 -1.6163
 6299SOL     OW30529   0.402   0.531   8.031 -0.2707 -0.2568 -0.3104
 6299SOL    HW130530   0.483   0.571   8.000 -0.7615  1.5691  0.7532
 6299SOL    HW230531   0.411   0.526   8.126 -2.0277  2.3959 -0.0081
 6300SOL     OW30532   3.955   2.598   8.342  0.9284 -0.5355  0.3632
 6300SOL    HW130533   4.014   2.601   8.267  2.4644 -0.5323  1.5666
 6300SOL    HW230534   3.918   2.685   8.358  0.6227 -0.6907  0.5046
 6301SOL     OW30535   1.873   0.501   9.083 -0.0697  0.0928  0.3636
 6301SOL    HW130536   1.957   0.508   9.037 -1.0345  1.1727 -1.2293
 6301SOL    HW230537   1.867   0.587   9.123 -2.4380  0.0605  0.0608
 6302SOL     OW30538   4.589   3.763   2.624 -0.0883  0.5391  0.1106
 6302SOL    HW130539   4.681   3.776   2.647 -0.0606  0.5556 -0.0095
 6302SOL    HW230540   4.601   3.773   2.530 -0.3286  0.7632  0.1030
 6303SOL     OW30541   2.620   2.759  16.689  0.4225  0.0623 -0.0264
 6303SOL    HW130542   2.525   2.762  16.672  0.0544 -3.3710  1.2858
 6303SOL    HW230543   2.650   2.849  16.699  0.3497  0.2323 -1.3608
 6304SOL     OW30544   4.532   4.729   3.684  0.0397  0.3873 -0.3536
 6304SOL    HW130545   4.548   4.733   3.778  0.1052 -0.6587 -0.3262
 6304SOL    HW230546   4.439   4.705   3.679 -0.4209  2.3362 -1.0867
 6305SOL     OW30547   2.709   3.525   5.090 -0.1923 -0.1904 -0.1077
 6305SOL    HW130548   2.772   3.476   5.038 -1.4549 -2.7879  0.8236
 6305SOL    HW230549   2.687   3.453   5.150  0.8518 -1.0514 -0.7606
 6306SOL     OW30550   4.516   0.490   4.424 -0.5826 -0.1317  0.4470
 6306SOL    HW130551   4.611   0.486   4.417 -0.8191 -0.2651 -2.4946
 6306SOL    HW230552   4.505   0.507   4.518  0.2195 -0.2138  0.5567
 6307SOL     OW30553   3.112   3.480   1.188 -0.5652 -0.4467  0.3952
 6307SOL    HW130554   3.061   3.497   1.267  0.5320 -1.6095  1.3578
 6307SOL    HW230555   3.132   3.573   1.179  0.6272 -0.6284  1.2927
 6308SOL     OW30556   4.261   2.925  16.165 -0.1377  0.6622 -0.9510
 6308SOL    HW130557   4.316   2.852  16.138 -0.1881 -0.0909  1.0185
 6308SOL    HW230558   4.310   3.007  16.157  2.9734 -1.0369  1.3079
 6309SOL     OW30559   3.448   3.196  10.163  0.0919  0.1746  0.3594
 6309SOL    HW130560   3.403   3.162  10.085  1.7252  0.2505 -0.6099
 6309SOL    HW230561   3.403   3.279  10.181 -0.8287 -0.4961  1.1172
 6310SOL     OW30562   0.993   2.879  13.530  0.2909  0.6742 -0.2622
 6310SOL    HW130563   0.993   2.937  13.606 -0.5246 -0.0641  0.3027
 6310SOL    HW230564   1.063   2.819  13.557  0.4570 -0.2186 -2.6271
 6311SOL     OW30565   2.175   0.113   6.068 -0.0889 -0.3429 -0.0890
 6311SOL    HW130566   2.092   0.065   6.069  0.8157 -1.9089  0.0646
 6311SOL    HW230567   2.151   0.202   6.094 -0.9408 -0.1505 -1.5460
 6312SOL     OW30568   2.991   2.962  11.635 -0.0401  0.5490  0.3777
 6312SOL    HW130569   2.926   2.958  11.564 -0.9746 -0.0747  1.2719
 6312SOL    HW230570   3.070   2.986  11.587 -0.6444  1.4626 -0.1701
 6313SOL     OW30571   3.913   0.307   1.536 -0.0220  0.3272  0.0745
 6313SOL    HW130572   3.900   0.237   1.472  2.6425  1.4458 -1.6605
 6313SOL    HW230573   3.899   0.254   1.615 -1.3542  0.1930 -0.2519
 6314SOL     OW30574   0.054   0.160   1.968  0.0959  0.9792  0.0738
 6314SOL    HW130575   0.114   0.102   2.015  0.6206  0.9666 -0.6138
 6314SOL    HW230576   0.103   0.209   1.902  1.1792  1.4659  1.2537
 6315SOL     OW30577   4.152   2.371  10.140  0.1549  0.3787  0.5676
 6315SOL    HW130578   4.083   2.425  10.102 -0.3240 -2.5672 -2.7708
 6315SOL    HW230579   4.162   2.409  10.227 -1.7194 -1.3785  1.5530
 6316SOL     OW30580   2.746   4.480   7.859  0.2019 -0.0314 -0.2979
 6316SOL    HW130581   2.807   4.447   7.924 -1.0191 -1.8788 -0.0964
 6316SOL    HW230582   2.756   4.413   7.791  1.2113  0.7481 -0.9274
 6317SOL     OW30583   3.544   4.094   6.132  0.0404  0.2743 -0.6896
 6317SOL    HW130584   3.568   4.109   6.224  3.2799  0.0795 -1.5369
 6317SOL    HW230585   3.475   4.160   6.132 -0.1283  0.1066  0.3348
 6318SOL     OW30586   0.551   0.350  10.043 -0.2473 -0.1769  0.1902
 6318SOL    HW130587   0.572   0.271   9.993  0.8365  0.3391 -0.1686
 6318SOL    HW230588   0.623   0.350  10.106 -0.2021  0.3320  0.1411
 6319SOL     OW30589   0.294   2.710   9.240  0.0600 -0.1927  0.1712
 6319SOL    HW130590   0.264   2.758   9.163 -0.1567 -0.4040  0.1236
 6319SOL    HW230591   0.380   2.688   9.206 -0.5323  0.7605 -1.9431
 6320SOL     OW30592   3.719   3.524   6.251  0.4183  0.2495  0.0880
 6320SOL    HW130593   3.780   3.508   6.323 -1.0331  0.1560  1.2968
 6320SOL    HW230594   3.756   3.609   6.227 -1.0616  1.0691  0.6877
 6321SOL     OW30595   1.037   1.616   0.207  0.0259 -0.6691  0.3425
 6321SOL    HW130596   1.030   1.623   0.111 -1.9095 -1.0419  0.4610
 6321SOL    HW230597   0.992   1.697   0.231 -0.0755 -1.4454  2.7361
 6322SOL     OW30598   2.205   3.329   8.263 -0.2431  0.2090 -0.0030
 6322SOL    HW130599   2.283   3.377   8.236 -1.2295  0.9282 -1.5561
 6322SOL    HW230600   2.208   3.242   8.222  1.0181 -0.3788  1.3261
 6323SOL     OW30601   2.292   3.309   1.742 -0.0671 -0.0063 -0.4879
 6323SOL    HW130602   2.277   3.382   1.801  1.8535  0.6759 -0.8365
 6323SOL    HW230603   2.384   3.296   1.766 -0.7908 -1.6129  1.4098
 6324SOL     OW30604   4.165   1.456   1.756 -0.6091 -0.2057  0.5618
 6324SOL    HW130605   4.183   1.367   1.729  2.2832  0.3182  0.7353
 6324SOL    HW230606   4.107   1.440   1.831 -0.5158 -0.7721  0.5052
 6325SOL     OW30607   0.112   4.492   5.084  0.1774 -0.3645 -0.7671
 6325SOL    HW130608   0.054   4.567   5.095 -0.2411 -0.2784 -3.3738
 6325SOL    HW230609   0.048   4.422   5.079 -2.1555  1.6474  1.2175
 6326SOL     OW30610   2.000   2.452   1.793 -0.0020  0.3648 -0.0881
 6326SOL    HW130611   2.055   2.380   1.825  0.6472  1.2847  0.8512
 6326SOL    HW230612   2.053   2.523   1.829  1.9483 -1.0284 -0.1776
 6327SOL     OW30613   4.642   4.657   8.948 -0.3008 -0.0726 -0.0740
 6327SOL    HW130614   4.625   4.666   8.854  1.9666 -0.5813 -0.5533
 6327SOL    HW230615   4.577   4.716   8.985  0.6888  2.7711 -2.8353
 6328SOL     OW30616   1.200   2.451  13.541  0.0397 -0.1832 -0.2077
 6328SOL    HW130617   1.280   2.452  13.488 -0.5289 -0.8277 -1.0935
 6328SOL    HW230618   1.188   2.546  13.535 -2.2427 -0.4916 -0.5994
 6329SOL     OW30619   0.892   1.902   2.165  0.2904 -0.4054  0.5242
 6329SOL    HW130620   0.860   1.871   2.250 -0.4716  0.5513  0.5776
 6329SOL    HW230621   0.970   1.847   2.153 -0.3510 -1.5528  1.5167
 6330SOL     OW30622   1.264   3.008   8.768  0.1018  0.1743 -0.2084
 6330SOL    HW130623   1.297   3.036   8.853  1.7933 -3.1966  0.2321
 6330SOL    HW230624   1.288   3.084   8.714  0.9273  0.1098  0.0650
 6331SOL     OW30625   1.917   4.162   2.694  0.0128 -0.2891  0.2460
 6331SOL    HW130626   1.976   4.117   2.634  2.0533  0.2126  1.8879
 6331SOL    HW230627   1.938   4.113   2.774  1.2775 -0.4761 -0.2036
 6332SOL     OW30628   1.960   1.157  17.240  0.1106 -0.1000  0.0010
 6332SOL    HW130629   1.865   1.140  17.243  0.2962 -0.5826  3.0487
 6332SOL    HW230630   1.975   1.182  17.149 -2.0885  2.8621  0.4662
 6333SOL     OW30631   0.325   3.967   2.662 -0.5220  0.1946 -0.0170
 6333SOL    HW130632   0.360   3.986   2.748 -0.2518 -0.6721  0.0709
 6333SOL    HW230633   0.366   4.041   2.619  1.5248 -0.1896  1.2851
 6334SOL     OW30634   2.378   1.941   5.567 -0.8988 -0.1905  0.1503
 6334SOL    HW130635   2.324   1.882   5.515 -4.1889  0.0395  3.2905
 6334SOL    HW230636   2.381   2.022   5.515 -0.3688 -1.3570 -1.6183
 6335SOL     OW30637   2.084   3.723   8.472  0.2783 -0.2429 -0.4478
 6335SOL    HW130638   2.127   3.665   8.535 -1.4631 -1.4683 -0.3883
 6335SOL    HW230639   2.157   3.778   8.445  0.3281  0.4460  1.0944
 6336SOL     OW30640   3.356   0.781   1.731  0.2975  0.1351 -0.4417
 6336SOL    HW130641   3.419   0.737   1.674 -0.1368 -2.6001  1.1919
 6336SOL    HW230642   3.283   0.724   1.712  0.7309 -0.9594  1.1851
 6337SOL     OW30643   3.749   4.608   2.792 -0.4931 -0.7526 -0.1260
 6337SOL    HW130644   3.831   4.640   2.829 -0.8811  0.3383 -0.2080
 6337SOL    HW230645   3.766   4.515   2.806  0.9960 -0.6837 -1.4486
 6338SOL     OW30646   1.225   1.310   2.004  0.6869 -0.1117 -0.5327
 6338SOL    HW130647   1.213   1.216   2.017  0.0960  0.2362  1.4746
 6338SOL    HW230648   1.153   1.333   2.062  1.9314  0.6602  0.7116
 6339SOL     OW30649   0.335   4.369   1.666 -0.9047  0.3079  0.4217
 6339SOL    HW130650   0.320   4.277   1.688  1.5093 -0.1449  0.2007
 6339SOL    HW230651   0.400   4.355   1.598 -2.3115  2.1369 -1.3114
 6340SOL     OW30652   1.360   4.153   3.485  0.3839 -0.0033 -0.3243
 6340SOL    HW130653   1.302   4.188   3.417  0.0088 -1.2493 -0.6403
 6340SOL    HW230654   1.363   4.227   3.546  0.8037 -1.2080  1.1319
 6341SOL     OW30655   3.862   0.089   7.147  0.0545  0.2659 -0.0611
 6341SOL    HW130656   3.792   0.045   7.196  0.2884 -0.5252 -0.4341
 6341SOL    HW230657   3.829   0.177   7.163 -1.9372 -0.0918 -2.1924
 6342SOL     OW30658   1.634   3.441  12.318 -0.3477  0.3876 -0.3520
 6342SOL    HW130659   1.696   3.451  12.390  2.3861  3.1686 -3.0826
 6342SOL    HW230660   1.550   3.446  12.362 -0.2784 -1.0499 -0.0601
 6343SOL     OW30661   0.215   3.943   5.737 -0.7057  0.0215 -0.4098
 6343SOL    HW130662   0.240   3.919   5.648  2.0422 -0.5746  0.5308
 6343SOL    HW230663   0.202   3.865   5.791 -1.5043  0.2527 -0.2694
 6344SOL     OW30664   0.724   4.274   9.337  0.0753  0.5111 -0.2572
 6344SOL    HW130665   0.761   4.219   9.406  0.5627  0.0449 -0.8887
 6344SOL    HW230666   0.768   4.233   9.262  0.5638 -1.4469  1.0913
 6345SOL     OW30667   0.066   1.220   6.045 -0.2253 -0.8497  0.6363
 6345SOL    HW130668   4.740   1.210   6.113 -1.3550  1.8582 -0.0701
 6345SOL    HW230669   0.093   1.130   6.027 -0.5270 -0.5687 -1.1892
 6346SOL     OW30670   2.195   2.593  16.260  0.0173 -0.1667 -0.3323
 6346SOL    HW130671   2.139   2.531  16.214  2.2451  0.2363 -3.5690
 6346SOL    HW230672   2.279   2.578  16.217 -0.6845 -1.0770 -1.3620
 6347SOL     OW30673   0.836   1.752   5.374  0.5313 -0.3204  0.3769
 6347SOL    HW130674   0.848   1.806   5.452 -2.3232  0.8708 -0.0244
 6347SOL    HW230675   0.886   1.799   5.307 -0.5301  0.7731  0.3427
 6348SOL     OW30676   4.449   2.728  16.274 -0.6405 -0.2750  1.3915
 6348SOL    HW130677   4.500   2.648  16.259 -1.5411 -0.6020  0.0254
 6348SOL    HW230678   4.517   2.795  16.275  0.9041 -1.8097  0.5931
 6349SOL     OW30679   1.811   0.243   0.608 -0.4360  0.0073 -0.2350
 6349SOL    HW130680   1.887   0.248   0.550 -0.0149  0.4660  0.3717
 6349SOL    HW230681   1.838   0.165   0.656 -0.7030 -0.0297 -0.1410
 6350SOL     OW30682   2.661   1.062   7.404 -0.3274 -0.5600 -0.2656
 6350SOL    HW130683   2.658   0.966   7.412  0.9030 -0.6117 -0.5103
 6350SOL    HW230684   2.667   1.086   7.496  1.2815  0.7430 -0.7251
 6351SOL     OW30685   2.256   1.346  10.562 -0.4245 -0.1037  0.2743
 6351SOL    HW130686   2.262   1.345  10.467 -1.5858 -0.9543  0.2054
 6351SOL    HW230687   2.332   1.397  10.588 -0.2464 -0.4329  0.4044
 6352SOL     OW30688   1.827   0.113  11.623  0.4521  0.0504  0.1559
 6352SOL    HW130689   1.883   0.043  11.657  2.0272  1.2645  0.0500
 6352SOL    HW230690   1.852   0.197  11.663 -0.9837  1.0005 -0.9414
 6353SOL     OW30691   4.219   3.106   3.245 -0.2980  0.0290  0.5088
 6353SOL    HW130692   4.285   3.175   3.248  1.1760 -1.4369  1.4334
 6353SOL    HW230693   4.224   3.087   3.151 -2.3457  0.1187  0.3769
 6354SOL     OW30694   1.918   2.220  17.166  0.2256 -0.6476 -0.1402
 6354SOL    HW130695   1.847   2.164  17.133 -2.2321  0.7515  2.8558
 6354SOL    HW230696   1.950   2.248  17.080  1.0079  0.3750  0.4994
 6355SOL     OW30697   1.276   4.453  16.778 -0.0297 -0.0306 -0.1141
 6355SOL    HW130698   1.181   4.456  16.791 -0.1797  0.3501 -1.3169
 6355SOL    HW230699   1.290   4.360  16.757 -0.6638  0.3656 -2.2764
 6356SOL     OW30700   4.729   0.431   8.229  0.3288 -0.1844 -0.1538
 6356SOL    HW130701   0.065   0.438   8.172 -1.1083  2.2228 -1.8025
 6356SOL    HW230702   4.660   0.427   8.163 -0.7293 -0.0803  0.9525
 6357SOL     OW30703   2.775   1.509   5.735  0.0940 -0.2302  0.1707
 6357SOL    HW130704   2.718   1.439   5.705  1.9937 -1.8124  0.2025
 6357SOL    HW230705   2.718   1.585   5.750  0.4255 -0.4051  2.3309
 6358SOL     OW30706   4.695   1.785  15.131  0.1061 -0.5565  0.2832
 6358SOL    HW130707   0.044   1.752  15.118  1.0139  2.4033 -0.9050
 6358SOL    HW230708   4.645   1.729  15.190  0.4264  0.9436  1.9750
 6359SOL     OW30709   2.263   4.376   3.658  0.0974 -0.1448 -0.0818
 6359SOL    HW130710   2.292   4.284   3.656  3.2990  0.8489 -0.3709
 6359SOL    HW230711   2.255   4.404   3.567  0.9264 -2.8238 -1.0066
 6360SOL     OW30712   0.212   2.244   3.294 -0.8593 -0.3717 -0.3431
 6360SOL    HW130713   0.136   2.261   3.349 -0.0213 -1.2754  1.1057
 6360SOL    HW230714   0.220   2.319   3.235 -1.1238 -0.2886 -0.2727
 6361SOL     OW30715   2.490   3.899   3.042 -0.3718 -0.0783 -0.1573
 6361SOL    HW130716   2.568   3.910   3.096  0.2385 -1.7969 -0.7085
 6361SOL    HW230717   2.512   3.832   2.978  0.6354  0.4005 -0.3070
 6362SOL     OW30718   2.818   2.978   9.762  0.4612  0.2487 -0.2476
 6362SOL    HW130719   2.814   3.055   9.705 -1.3947  0.0814 -0.3419
 6362SOL    HW230720   2.884   2.922   9.722  1.1808  0.6074  0.4343
 6363SOL     OW30721   4.217   3.669   7.622 -0.0687  0.0509  0.0531
 6363SOL    HW130722   4.260   3.753   7.631  0.3770 -0.1501 -0.2039
 6363SOL    HW230723   4.289   3.626   7.576 -0.4020 -0.0044 -0.4179
 6364SOL     OW30724   3.862   1.557   8.127  0.4198  0.2244  0.3286
 6364SOL    HW130725   3.900   1.613   8.060  0.9822  0.1951  0.6256
 6364SOL    HW230726   3.860   1.614   8.203  1.1838  0.6960 -0.0073
 6365SOL     OW30727   3.147   0.099   5.665 -0.1509 -0.3145  0.2417
 6365SOL    HW130728   3.210   0.171   5.665 -0.4594 -0.0244  5.0259
 6365SOL    HW230729   3.062   0.143   5.673 -0.7395 -1.2922 -0.5796
 6366SOL     OW30730   4.147   1.504   3.687  0.3034 -0.4438  0.0022
 6366SOL    HW130731   4.189   1.462   3.612  0.1258 -1.7248  0.6194
 6366SOL    HW230732   4.081   1.441   3.715 -1.5603  1.2928 -0.3931
 6367SOL     OW30733   2.050   4.065  10.839 -0.1852 -0.3125  0.0522
 6367SOL    HW130734   2.072   3.972  10.835  0.3891 -0.1936  0.4375
 6367SOL    HW230735   2.133   4.102  10.869 -0.7172 -0.8008  2.1552
 6368SOL     OW30736   1.748   1.209   5.051 -0.0586  0.2050 -0.3085
 6368SOL    HW130737   1.772   1.131   5.002 -2.5597 -0.8486  0.1440
 6368SOL    HW230738   1.799   1.198   5.131 -1.3615 -0.7375  0.3999
 6369SOL     OW30739   1.337   2.791   8.657 -0.7129 -0.1328 -0.3941
 6369SOL    HW130740   1.295   2.866   8.699 -1.0747 -0.4671 -0.1662
 6369SOL    HW230741   1.310   2.801   8.566 -0.3339  2.1411 -0.2620
 6370SOL     OW30742   1.187   0.466   8.493  0.7963  0.0619  0.2130
 6370SOL    HW130743   1.122   0.459   8.563 -1.1705  1.4220 -1.4644
 6370SOL    HW230744   1.237   0.384   8.492  0.6479 -0.0339  0.8433
 6371SOL     OW30745   1.977   1.952   3.511  0.2659 -0.0274  0.8384
 6371SOL    HW130746   1.961   1.977   3.420 -1.0297 -1.4038  0.6881
 6371SOL    HW230747   1.972   1.856   3.505 -0.9540 -0.0531  2.1998
 6372SOL     OW30748   3.661   0.427   7.726 -0.2828 -0.1402 -0.0428
 6372SOL    HW130749   3.653   0.510   7.772 -0.5920 -1.7296  2.7993
 6372SOL    HW230750   3.595   0.372   7.767 -0.6754  0.1947 -0.2349
 6373SOL     OW30751   0.878   2.271   5.246  0.6932 -0.4109 -0.2911
 6373SOL    HW130752   0.938   2.232   5.182  3.0337  0.5953  1.2489
 6373SOL    HW230753   0.939   2.287   5.318  0.0354  0.4714  0.0621
 6374SOL     OW30754   3.614   1.997  12.169  0.6270 -0.5812  0.3821
 6374SOL    HW130755   3.609   1.945  12.249  0.2623  0.1805  0.8555
 6374SOL    HW230756   3.583   2.079  12.209  1.1347  0.2545 -0.9233
 6375SOL     OW30757   0.937   0.707   8.700  0.4757 -0.4417 -0.2266
 6375SOL    HW130758   0.902   0.699   8.789  0.8553 -0.3964 -0.0702
 6375SOL    HW230759   0.983   0.626   8.683 -0.3436 -0.4713 -2.2580
 6376SOL     OW30760   2.103   1.021   3.899 -0.2854  0.1559  0.1771
 6376SOL    HW130761   2.093   1.009   3.994 -1.6040 -0.0128  0.0241
 6376SOL    HW230762   2.094   1.116   3.896 -1.2300  0.0825  0.7135
 6377SOL     OW30763   1.683   2.790   5.855  0.0322 -1.0076 -0.0586
 6377SOL    HW130764   1.753   2.788   5.791  1.0229  1.4111  0.9486
 6377SOL    HW230765   1.699   2.877   5.892  1.1644 -1.8727  1.5092
 6378SOL     OW30766   1.765   1.500   5.758 -0.4538  0.2560  0.3621
 6378SOL    HW130767   1.686   1.450   5.738 -1.6944  2.0456  0.7472
 6378SOL    HW230768   1.800   1.444   5.828 -0.5568 -0.3813 -0.1009
 6379SOL     OW30769   2.529   2.587   3.764 -0.1234 -0.0662  0.1631
 6379SOL    HW130770   2.521   2.574   3.859  0.5649  0.1008  0.2453
 6379SOL    HW230771   2.620   2.561   3.751  0.0162  0.9537 -0.9117
 6380SOL     OW30772   3.167   0.528   4.184  0.2027  0.0021  0.4728
 6380SOL    HW130773   3.074   0.535   4.205  0.2622  2.5858 -0.1882
 6380SOL    HW230774   3.188   0.620   4.201  0.9622  0.1764 -1.3435
 6381SOL     OW30775   4.527   0.669   6.561 -0.3039 -0.2968  0.1331
 6381SOL    HW130776   4.567   0.751   6.589 -0.1283 -0.3284 -0.0221
 6381SOL    HW230777   4.586   0.618   6.617  0.7585  1.3101  0.4888
 6382SOL     OW30778   0.948   4.332   6.946  0.7610 -0.0353 -0.0726
 6382SOL    HW130779   0.939   4.378   7.030  0.0990 -1.1201  0.4433
 6382SOL    HW230780   0.949   4.415   6.898  2.2480  0.1400  0.2590
 6383SOL     OW30781   3.204   1.312   5.803 -0.4153 -0.6057 -0.3172
 6383SOL    HW130782   3.249   1.273   5.729  2.3881 -0.4786  1.3237
 6383SOL    HW230783   3.219   1.404   5.783  1.8341 -0.9614 -0.3083
 6384SOL     OW30784   2.006   3.427   0.999 -0.1698 -0.1845  0.1496
 6384SOL    HW130785   2.012   3.452   0.907 -2.5047  2.3562  0.6600
 6384SOL    HW230786   2.000   3.517   1.030 -3.0569  0.0387 -1.0707
 6385SOL     OW30787   2.267   0.336  10.586  0.4445  0.4670 -0.1462
 6385SOL    HW130788   2.231   0.319  10.673 -0.0296  0.6167 -0.3159
 6385SOL    HW230789   2.318   0.416  10.598  2.7124 -0.9250 -0.3854
 6386SOL     OW30790   0.736   0.735  16.681 -0.0809 -0.1692 -0.4941
 6386SOL    HW130791   0.801   0.727  16.752  0.2844  4.4642 -0.3392
 6386SOL    HW230792   0.694   0.650  16.694  0.5177 -0.4928 -0.6833
 6387SOL     OW30793   3.815   0.491  16.354  0.4658 -1.1399  0.0088
 6387SOL    HW130794   3.872   0.471  16.428 -0.2261  0.0860  0.8818
 6387SOL    HW230795   3.883   0.482  16.288 -1.1124 -1.9363 -1.5020
 6388SOL     OW30796   2.633   1.361  16.498  0.1637 -0.4058  0.2697
 6388SOL    HW130797   2.583   1.360  16.417 -0.4914 -0.9342  0.6783
 6388SOL    HW230798   2.717   1.327  16.469  1.1808  2.6920 -0.4133
 6389SOL     OW30799   4.339   0.278  13.867  0.2332  1.1097 -0.6262
 6389SOL    HW130800   4.264   0.338  13.866 -1.5220 -1.0703  0.2777
 6389SOL    HW230801   4.367   0.306  13.954 -0.8586 -0.3489  0.1959
 6390SOL     OW30802   2.852   1.774   5.309  0.4606 -0.1293 -0.0210
 6390SOL    HW130803   2.919   1.721   5.267  2.0741  1.2021  0.8889
 6390SOL    HW230804   2.874   1.752   5.400  0.7383  1.3432  0.2673
 6391SOL     OW30805   3.133   1.480   2.441 -0.0080 -0.0550 -0.5249
 6391SOL    HW130806   3.111   1.452   2.530 -0.4634  0.9619 -0.3255
 6391SOL    HW230807   3.223   1.508   2.456 -0.1821 -0.6473  1.5311
 6392SOL     OW30808   0.758   1.271   6.578  0.4970  0.3780 -0.3024
 6392SOL    HW130809   0.702   1.319   6.517 -1.1233  0.5742  1.3595
 6392SOL    HW230810   0.839   1.322   6.579  1.0919 -0.5762 -0.0316
 6393SOL     OW30811   4.115   0.713   7.576  0.2555  0.1594  0.5446
 6393SOL    HW130812   4.057   0.787   7.596  0.6942  0.0275  2.3538
 6393SOL    HW230813   4.063   0.667   7.511  1.4292 -1.7712  0.9864
 6394SOL     OW30814   0.632   4.012  12.743  0.1254 -0.9315 -0.4784
 6394SOL    HW130815   0.552   4.028  12.694  0.6193 -1.6483 -1.5179
 6394SOL    HW230816   0.638   4.092  12.796  2.3007  0.0793 -2.2362
 6395SOL     OW30817   0.449   1.789   2.075 -0.6061  0.4080  0.3954
 6395SOL    HW130818   0.357   1.787   2.102 -0.5237 -3.1293  0.5239
 6395SOL    HW230819   0.459   1.710   2.021 -2.0229  1.2940 -1.1294
 6396SOL     OW30820   1.175   0.957   0.459  0.7946 -0.5553  0.4895
 6396SOL    HW130821   1.203   0.878   0.506 -1.1309 -1.8187 -0.4582
 6396SOL    HW230822   1.085   0.972   0.488 -0.4415 -1.5610 -2.7418
 6397SOL     OW30823   3.249   4.293   4.272  0.1248  0.0465 -0.0248
 6397SOL    HW130824   3.263   4.305   4.178 -0.2631  1.3827  0.0914
 6397SOL    HW230825   3.322   4.344   4.306 -0.5978  1.0349  0.0302
 6398SOL     OW30826   4.522   0.808   4.991  0.2575  0.2142  0.4253
 6398SOL    HW130827   4.601   0.757   4.974 -0.6589 -0.8744 -0.4975
 6398SOL    HW230828   4.500   0.776   5.078  1.1123 -1.7566 -0.0756
 6399SOL     OW30829   0.057   0.301   5.694  0.1291  0.3580 -0.0755
 6399SOL    HW130830   0.146   0.294   5.729 -0.2105 -2.9752  0.2014
 6399SOL    HW230831   0.056   0.396   5.691  0.7607  0.4216  1.7511
 6400SOL     OW30832   0.153   0.035  10.036  0.1733 -0.2919  0.5775
 6400SOL    HW130833   0.249   0.039  10.033  0.1324  0.5155  0.1053
 6400SOL    HW230834   0.131   0.060   9.946  2.6312  0.9058  0.2878
 6401SOL     OW30835   4.559   3.822   7.607  0.0503  1.1243  0.8080
 6401SOL    HW130836   4.619   3.812   7.532  1.3474 -0.1679  2.0088
 6401SOL    HW230837   4.585   3.908   7.638 -1.0579  1.9265 -0.4797
 6402SOL     OW30838   3.662   0.409   4.772 -0.4728 -0.1457 -0.3038
 6402SOL    HW130839   3.657   0.322   4.812  2.3461  0.3109  1.0358
 6402SOL    HW230840   3.614   0.461   4.836  0.0705  0.3352 -0.2889
 6403SOL     OW30841   1.989   1.027   5.416  0.4775 -0.3891 -0.4866
 6403SOL    HW130842   2.019   1.000   5.329 -0.4176 -0.1631 -0.8613
 6403SOL    HW230843   2.079   1.026   5.449  0.1572 -3.1771  0.3331
 6404SOL     OW30844   2.625   3.077   0.598  0.0533 -0.1848 -0.3109
 6404SOL    HW130845   2.704   3.126   0.620  0.0686  0.2426 -1.3091
 6404SOL    HW230846   2.643   2.989   0.630  0.9975 -0.3779 -1.3771
 6405SOL     OW30847   4.441   1.280  14.339 -0.1993 -0.6940  0.4656
 6405SOL    HW130848   4.463   1.253  14.250  1.4495 -3.5642  1.7438
 6405SOL    HW230849   4.357   1.234  14.343 -0.8626  0.4962  0.3108
 6406SOL     OW30850   0.360   0.870   9.156  0.0093  0.3726  0.2826
 6406SOL    HW130851   0.359   0.844   9.248 -1.8104  0.4081  0.2693
 6406SOL    HW230852   0.372   0.786   9.111 -1.5067  0.2481  0.1331
 6407SOL     OW30853   1.857   3.470   6.791 -0.3003  0.1256 -0.4651
 6407SOL    HW130854   1.900   3.396   6.748 -2.2894 -0.2144 -1.8604
 6407SOL    HW230855   1.929   3.533   6.786 -0.8248  0.8001  0.4112
 6408SOL     OW30856   2.155   3.589   6.646  0.0613 -0.2564  0.6379
 6408SOL    HW130857   2.120   3.510   6.604  0.0456 -0.8457  1.7721
 6408SOL    HW230858   2.163   3.654   6.576 -2.1775  0.0503  0.6855
 6409SOL     OW30859   2.266   4.146   8.727 -0.5623  0.1650  0.2617
 6409SOL    HW130860   2.358   4.163   8.708 -0.4607  0.7473  1.2583
 6409SOL    HW230861   2.271   4.052   8.710 -1.1322 -0.1194  1.6042
 6410SOL     OW30862   4.681   0.807   7.603 -0.4483  0.8912 -0.2450
 6410SOL    HW130863   4.605   0.837   7.554 -2.7086 -2.7769  0.9849
 6410SOL    HW230864   4.648   0.730   7.650 -1.2545  0.5122 -1.4375
 6411SOL     OW30865   1.050   1.933   5.220  0.2819  0.2965 -0.1018
 6411SOL    HW130866   1.138   1.935   5.181  0.4246 -0.5984  0.1586
 6411SOL    HW230867   1.010   1.986   5.152 -3.3410  0.9354  2.5377
 6412SOL     OW30868   0.215   0.083  12.801 -0.0939 -0.0777 -0.3952
 6412SOL    HW130869   0.152   0.076  12.729 -0.8079 -1.2275  0.3451
 6412SOL    HW230870   0.233   4.731  12.820  0.8097 -0.2312 -2.0263
 6413SOL     OW30871   2.922   2.852   2.565  0.2357 -0.0109 -0.1371
 6413SOL    HW130872   2.863   2.797   2.616  1.5784 -0.8382  0.5228
 6413SOL    HW230873   2.882   2.939   2.567  0.1364 -0.0008 -2.3511
 6414SOL     OW30874   2.820   1.792   0.339  0.0429  0.2604 -0.2882
 6414SOL    HW130875   2.766   1.719   0.367 -1.1867  0.3728 -2.3624
 6414SOL    HW230876   2.755   1.840   0.289  0.1109  2.2841  1.5882
 6415SOL     OW30877   2.987   3.637   1.895 -0.0615 -0.3055  0.3784
 6415SOL    HW130878   2.949   3.715   1.936  5.2452  1.1605  2.5617
 6415SOL    HW230879   3.076   3.660   1.923  0.0197  1.6539 -1.5105
 6416SOL     OW30880   3.443   2.278  14.450 -0.2705  0.0559 -0.5882
 6416SOL    HW130881   3.457   2.371  14.432 -1.9450  0.4732  0.1905
 6416SOL    HW230882   3.396   2.284  14.533  2.4564  1.2913  0.8774
 6417SOL     OW30883   2.728   2.896   4.043 -0.0807 -0.4649 -0.3830
 6417SOL    HW130884   2.740   2.859   4.130 -0.1165  0.3524 -0.0400
 6417SOL    HW230885   2.675   2.974   4.056  3.6893  1.8844  0.5859
 6418SOL     OW30886   3.464   3.393   6.276 -0.6257 -0.3449 -0.2229
 6418SOL    HW130887   3.493   3.306   6.302  1.4940  0.5899  0.4777
 6418SOL    HW230888   3.547   3.439   6.271  0.8036 -3.2649 -2.9034
 6419SOL     OW30889   2.895   0.099   6.992 -0.6204  0.5692  0.3937
 6419SOL    HW130890   2.856   0.083   6.906 -0.9101  3.3396  0.0311
 6419SOL    HW230891   2.928   0.188   6.981  0.7839 -0.0862 -0.8833
 6420SOL     OW30892   4.674   4.241   4.820  0.4273 -0.1531 -0.0789
 6420SOL    HW130893   4.695   4.171   4.758  1.1477  1.7051 -1.9300
 6420SOL    HW230894   4.636   4.306   4.761  1.1263 -1.4665 -1.9798
 6421SOL     OW30895   2.180   1.540   2.967 -0.2852 -0.2747 -0.1970
 6421SOL    HW130896   2.222   1.472   2.915 -1.0119  0.1143 -1.3139
 6421SOL    HW230897   2.215   1.619   2.925 -1.1039 -0.1069 -0.5693
 6422SOL     OW30898   2.038   1.554  12.245 -0.6612 -0.0588  0.1305
 6422SOL    HW130899   2.091   1.623  12.286  1.2431 -1.3623 -0.1356
 6422SOL    HW230900   1.997   1.505  12.315  0.3061  1.7474  1.9878
 6423SOL     OW30901   2.836   4.634   9.042  0.5146 -0.1292  0.4308
 6423SOL    HW130902   2.848   4.543   9.015 -0.9353 -0.4049  0.7305
 6423SOL    HW230903   2.775   4.621   9.114  1.5623  1.8916  1.6595
 6424SOL     OW30904   1.923   1.694   3.494 -0.2242  0.4430 -0.0985
 6424SOL    HW130905   1.839   1.652   3.513 -0.6859  1.7505  0.7283
 6424SOL    HW230906   1.966   1.638   3.429 -0.8244  0.6301 -0.6500
 6425SOL     OW30907   3.945   3.087   9.179  0.1324 -0.1988 -0.1448
 6425SOL    HW130908   4.023   3.136   9.152  0.1335 -0.0005  0.2084
 6425SOL    HW230909   3.975   3.054   9.264  0.2190  1.3735  0.4284
 6426SOL     OW30910   2.035   0.076   6.679 -0.2768 -0.3196  0.1700
 6426SOL    HW130911   2.102   0.094   6.613 -0.6400  0.1283 -0.0673
 6426SOL    HW230912   1.959   0.062   6.623  0.5691 -1.5837 -0.6627
 6427SOL     OW30913   0.272   4.174   3.259 -0.0475  0.5650  0.2923
 6427SOL    HW130914   0.193   4.123   3.241 -0.1502  2.0217 -3.3647
 6427SOL    HW230915   0.266   4.182   3.354 -2.5766  1.8827  0.0283
 6428SOL     OW30916   4.575   2.075   4.917 -0.1588  0.1977  0.5162
 6428SOL    HW130917   4.559   2.030   4.834  0.5916  0.9972 -0.0771
 6428SOL    HW230918   4.671   2.072   4.928  0.0388 -0.4750 -1.4043
 6429SOL     OW30919   2.515   1.615  17.126  0.1440  0.6944 -0.2630
 6429SOL    HW130920   2.476   1.540  17.173  0.4473 -0.1067 -1.2878
 6429SOL    HW230921   2.572   1.558  17.074 -0.1222  2.3017 -2.3083
 6430SOL     OW30922   0.201   2.376   8.089 -0.2965 -0.3846  0.7722
 6430SOL    HW130923   0.281   2.404   8.045 -0.8800  1.0847  0.6595
 6430SOL    HW230924   0.212   2.281   8.088 -1.0452 -0.4504 -2.3914
 6431SOL     OW30925   2.577   1.770  10.356  0.7451 -0.4991  0.1220
 6431SOL    HW130926   2.669   1.773  10.383  0.6371  1.0864  0.3036
 6431SOL    HW230927   2.535   1.745  10.438  1.7829 -1.1213  0.4678
 6432SOL     OW30928   3.015   4.256   1.579 -0.1533 -0.7819  0.0512
 6432SOL    HW130929   3.075   4.309   1.527  1.0364 -1.0567  1.1559
 6432SOL    HW230930   2.932   4.288   1.543  1.5695  0.1406 -3.0596
 6433SOL     OW30931   1.754   3.654   1.884 -0.3525 -0.3963 -0.1640
 6433SOL    HW130932   1.735   3.718   1.952 -1.3326 -0.1120 -0.7127
 6433SOL    HW230933   1.730   3.700   1.803  1.5464  1.8190  0.5298
 6434SOL     OW30934   3.352   3.634   2.253  0.3370 -0.1145  0.4058
 6434SOL    HW130935   3.372   3.647   2.346  0.7213  0.7020  0.2135
 6434SOL    HW230936   3.423   3.681   2.211 -1.7241  0.5362 -2.3562
 6435SOL     OW30937   4.456   0.677   6.015 -0.0368 -0.3021 -0.2342
 6435SOL    HW130938   4.379   0.728   5.992  0.9910  0.6499 -1.5950
 6435SOL    HW230939   4.509   0.685   5.935  0.8933  0.1295  0.4344
 6436SOL     OW30940   4.671   0.027  12.167  0.1127  0.3072  1.2415
 6436SOL    HW130941   4.645   4.739  12.255  0.0841 -3.3502  0.0595
 6436SOL    HW230942   0.014   0.075  12.171  0.3338 -0.1654  2.4235
 6437SOL     OW30943   3.532   3.496  15.324 -0.5119  0.6016 -0.5843
 6437SOL    HW130944   3.463   3.537  15.375  0.3210 -0.5667  1.4847
 6437SOL    HW230945   3.592   3.481  15.396  1.5337  2.1866 -1.9846
 6438SOL     OW30946   4.291   2.932   9.878  0.2545 -0.4355 -0.0974
 6438SOL    HW130947   4.233   2.981   9.936 -0.5230 -2.5049  0.8521
 6438SOL    HW230948   4.237   2.938   9.799  0.5767  0.6003 -0.2478
 6439SOL     OW30949   4.515   2.976   9.202  0.1763 -0.2682 -0.1337
 6439SOL    HW130950   4.607   2.976   9.229 -0.0201  0.6731  0.5125
 6439SOL    HW230951   4.458   2.964   9.278  0.5930 -0.3865  0.1574
 6440SOL     OW30952   4.664   0.176  17.747  0.2274 -0.1089 -0.7335
 6440SOL    HW130953   4.576   0.156  17.717 -0.8128  5.3985 -1.4295
 6440SOL    HW230954   4.714   0.130  17.679 -0.2333  0.8150 -1.7080
 6441SOL     OW30955   3.249   4.411   5.040 -0.4397  0.2005  0.9256
 6441SOL    HW130956   3.255   4.357   4.961  0.8592  0.7704  0.6211
 6441SOL    HW230957   3.322   4.372   5.088 -0.8781 -0.8476  0.7481
 6442SOL     OW30958   3.699   1.388  13.511 -0.2021  0.7857  0.0550
 6442SOL    HW130959   3.702   1.299  13.546 -1.8247  0.9535  0.6029
 6442SOL    HW230960   3.605   1.403  13.500  0.3884  1.7273 -3.7028
 6443SOL     OW30961   3.731   4.714   4.229  0.2411  0.0382 -0.5643
 6443SOL    HW130962   3.721   0.023   4.311  0.1029 -3.8181  1.7324
 6443SOL    HW230963   3.821   4.683   4.235  0.6054  1.2852  0.2669
 6444SOL     OW30964   3.502   1.933   9.188  0.2808  0.3824  0.5376
 6444SOL    HW130965   3.591   1.956   9.216 -0.7503  2.8534  1.8403
 6444SOL    HW230966   3.479   2.025   9.172  0.3910  0.7297  2.3082
 6445SOL     OW30967   3.404   0.799  13.528 -0.7907 -0.0981 -0.1203
 6445SOL    HW130968   3.478   0.860  13.523 -0.9806  0.0945 -0.5569
 6445SOL    HW230969   3.357   0.846  13.597  0.8996 -0.0136  0.9738
 6446SOL     OW30970   2.998   2.131   8.745  0.0422 -0.3763 -0.1601
 6446SOL    HW130971   3.060   2.184   8.695 -1.4422  2.6444  1.2206
 6446SOL    HW230972   3.061   2.065   8.773  1.0581  0.1375 -1.2377
 6447SOL     OW30973   1.057   2.645  16.108  0.1867 -0.0455 -0.1680
 6447SOL    HW130974   1.000   2.719  16.084  1.1326  0.5557 -0.5396
 6447SOL    HW230975   1.062   2.600  16.024  1.7603 -0.7331  0.3077
 6448SOL     OW30976   1.880   4.275   5.915  0.5808  0.1491  0.2958
 6448SOL    HW130977   1.944   4.227   5.862  0.4041  1.2019 -0.8599
 6448SOL    HW230978   1.946   4.319   5.969  0.8673 -0.9109  0.8209
 6449SOL     OW30979   4.730   1.515   2.975  0.1302  0.0119 -0.3174
 6449SOL    HW130980   4.694   1.591   2.930 -0.9267 -1.2003 -1.5037
 6449SOL    HW230981   4.717   1.445   2.911  2.3231 -0.7496  0.0669
 6450SOL     OW30982   4.336   2.821  17.226  0.6463  0.4286 -0.4910
 6450SOL    HW130983   4.300   2.783  17.147  0.1423  0.2486 -0.1715
 6450SOL    HW230984   4.365   2.909  17.200  2.2373  0.2265  0.5594
 6451SOL     OW30985   1.416   2.574  17.173 -0.1487 -0.0903 -0.5786
 6451SOL    HW130986   1.462   2.592  17.091  0.4248  1.2412  0.0264
 6451SOL    HW230987   1.494   2.563  17.227  0.1119 -1.4229 -1.2266
 6452SOL     OW30988   4.247   0.856   5.897  0.3917 -0.0859  0.2863
 6452SOL    HW130989   4.194   0.824   5.824  0.3154 -1.0565  0.7577
 6452SOL    HW230990   4.262   0.947   5.874 -0.9189  1.0661  3.8972
 6453SOL     OW30991   4.095   2.626   5.916 -0.5730 -0.1349  0.4573
 6453SOL    HW130992   4.024   2.650   5.976 -0.8845 -0.0375  0.0475
 6453SOL    HW230993   4.160   2.590   5.977  1.1556 -1.7977 -2.3598
 6454SOL     OW30994   1.476   2.727   7.492  0.3496  0.3617  0.0729
 6454SOL    HW130995   1.396   2.775   7.472  0.5830  1.1677  1.0627
 6454SOL    HW230996   1.445   2.653   7.545 -0.3723  1.4636  1.1894
 6455SOL     OW30997   4.176   1.878   7.537 -0.8047 -0.3403  0.7838
 6455SOL    HW130998   4.191   1.807   7.475 -0.7266  1.6742 -1.5149
 6455SOL    HW230999   4.095   1.849   7.579 -1.4132 -0.1033 -0.2271
 6456SOL     OW31000   3.341   2.126   6.422 -0.1841 -0.1358  0.4004
 6456SOL    HW131001   3.283   2.139   6.347  1.1187  2.4652 -0.1857
 6456SOL    HW231002   3.307   2.183   6.492  1.0174  2.4085 -1.1043
 6457SOL     OW31003   3.959   0.775  14.862 -0.4158  0.1831  0.0508
 6457SOL    HW131004   4.019   0.843  14.892  0.6038 -0.3831 -0.7073
 6457SOL    HW231005   3.989   0.774  14.771 -0.4135 -1.4437  0.0611
 6458SOL     OW31006   1.438   1.497   2.644 -0.3392 -0.0067 -0.9635
 6458SOL    HW131007   1.420   1.577   2.694  2.0338  0.4219 -0.8238
 6458SOL    HW231008   1.361   1.442   2.659  0.5951 -0.6750  1.3147
 6459SOL     OW31009   3.118   1.470  14.357  0.7966  0.4483  0.2036
 6459SOL    HW131010   3.058   1.414  14.310  0.4417 -0.7679  2.1047
 6459SOL    HW231011   3.157   1.513  14.281  0.1691  1.4081  0.4251
 6460SOL     OW31012   0.675   2.136   7.530 -0.5213  0.1622  0.5552
 6460SOL    HW131013   0.657   2.070   7.597 -2.0739  0.7650  0.7412
 6460SOL    HW231014   0.756   2.174   7.565 -0.2872  0.1234  0.0657
 6461SOL     OW31015   0.748   0.618   0.962 -0.9119 -0.5243 -0.1432
 6461SOL    HW131016   0.704   0.605   0.878 -0.0476 -3.5622 -0.1269
 6461SOL    HW231017   0.787   0.705   0.956 -0.1419 -0.8585  0.0511
 6462SOL     OW31018   1.292   0.623   8.294 -0.2310  0.0186 -0.0094
 6462SOL    HW131019   1.259   0.586   8.376  1.2326 -1.3816 -0.0576
 6462SOL    HW231020   1.302   0.715   8.319  1.2632 -0.0993 -0.1531
 6463SOL     OW31021   3.213   3.930   4.598  0.1537 -0.5804  0.5734
 6463SOL    HW131022   3.119   3.918   4.610  0.1726 -0.5512  0.7489
 6463SOL    HW231023   3.252   3.846   4.623  1.6379 -0.1029 -0.1223
 6464SOL     OW31024   0.265   3.854   9.108 -0.4985 -0.0548 -0.9547
 6464SOL    HW131025   0.318   3.930   9.129 -2.7770  1.2344  0.0369
 6464SOL    HW231026   0.219   3.885   9.030 -0.3901 -0.0925 -1.0339
 6465SOL     OW31027   4.261   1.099   1.416 -0.2376 -0.1254  0.1123
 6465SOL    HW131028   4.203   1.042   1.365 -0.8343  0.1475  0.4804
 6465SOL    HW231029   4.306   1.026   1.458 -0.1496 -0.9402 -1.4163
 6466SOL     OW31030   3.179   4.403  16.393  0.3213 -0.2424  0.1757
 6466SOL    HW131031   3.174   4.357  16.310 -0.0332 -1.2826  0.7736
 6466SOL    HW231032   3.267   4.441  16.386  0.1165  0.1028 -0.5548
 6467SOL     OW31033   1.864   4.064   0.067 -0.3523 -0.4654  0.3256
 6467SOL    HW131034   1.788   4.032   0.115  0.0434  0.9900  1.9191
 6467SOL    HW231035   1.836   4.156   0.060  0.7215 -0.2182 -0.5768
 6468SOL     OW31036   4.260   0.874  14.422  0.0524 -0.3733 -0.1834
 6468SOL    HW131037   4.229   0.962  14.399 -0.9361  0.3232  3.8661
 6468SOL    HW231038   4.326   0.861  14.354 -0.0148 -1.4388 -0.0353
 6469SOL     OW31039   0.741   3.147  12.979  0.2514 -0.1538  0.3366
 6469SOL    HW131040   0.648   3.144  13.002  0.4040  2.4186  1.2569
 6469SOL    HW231041   0.792   3.164  13.058  0.6546  2.0208 -0.3996
 6470SOL     OW31042   4.439   3.920   4.641 -0.4517 -0.0115  0.8175
 6470SOL    HW131043   4.375   3.881   4.701 -0.2745 -1.7253 -0.1235
 6470SOL    HW231044   4.423   3.862   4.567  0.7937  1.3209 -0.5033
 6471SOL     OW31045   1.398   3.105   2.052  0.0221  0.3521 -0.0671
 6471SOL    HW131046   1.476   3.050   2.041  0.3702  1.0096 -0.8784
 6471SOL    HW231047   1.407   3.136   1.962 -2.0529  0.3390 -0.2734
 6472SOL     OW31048   2.733   3.939   5.590 -0.4403 -0.2692  0.4553
 6472SOL    HW131049   2.790   3.973   5.659 -0.0243 -0.9053  0.4187
 6472SOL    HW231050   2.657   3.927   5.647 -0.6013  2.4942  0.8077
 6473SOL     OW31051   4.358   4.312  13.279 -0.0460 -0.3121  0.5118
 6473SOL    HW131052   4.373   4.402  13.248 -0.6667 -0.9876 -1.7703
 6473SOL    HW231053   4.442   4.287  13.316  0.0993  0.0793  0.4452
 6474SOL     OW31054   0.382   1.982   9.264 -0.2761  0.1168 -0.0766
 6474SOL    HW131055   0.380   2.072   9.230  1.4851 -1.3619 -4.0539
 6474SOL    HW231056   0.305   1.977   9.321 -1.0345  1.8757 -0.9379
 6475SOL     OW31057   1.711   4.368   9.422  0.8402 -0.3579 -0.0853
 6475SOL    HW131058   1.702   4.387   9.515 -2.6969 -0.4241 -0.4358
 6475SOL    HW231059   1.802   4.396   9.410  0.6044  0.1992 -0.5381
 6476SOL     OW31060   0.212   0.713   5.191  0.5127  0.0944  0.2988
 6476SOL    HW131061   0.277   0.685   5.255  0.2612 -1.5941 -0.2077
 6476SOL    HW231062   0.193   0.802   5.222  0.5106  0.4599 -0.7751
 6477SOL     OW31063   2.122   0.152   7.163 -0.2278  0.3225 -0.2330
 6477SOL    HW131064   2.046   0.098   7.183 -0.7950  1.4221  0.5629
 6477SOL    HW231065   2.114   0.169   7.069 -0.0775 -1.0988 -0.4944
 6478SOL     OW31066   1.106   1.897  14.425 -0.1591  0.8075  0.0239
 6478SOL    HW131067   1.080   1.959  14.494  0.9127  1.2450  0.0383
 6478SOL    HW231068   1.106   1.955  14.349  2.5970  3.1219  1.7702
 6479SOL     OW31069   2.073   3.799  10.894 -0.0216 -0.3313  0.0514
 6479SOL    HW131070   2.138   3.841  10.952 -0.9601 -0.6217  1.3140
 6479SOL    HW231071   2.092   3.706  10.888 -0.0719 -0.2188 -1.8047
 6480SOL     OW31072   1.611   1.566   2.277 -0.8493 -0.4760 -0.3268
 6480SOL    HW131073   1.704   1.565   2.298 -0.7387  0.3243 -0.7771
 6480SOL    HW231074   1.585   1.484   2.318  1.2026 -1.7473 -1.5535
 6481SOL     OW31075   4.133   1.401  16.278 -0.2692 -0.0419  0.0749
 6481SOL    HW131076   4.054   1.455  16.282  0.4382  0.9012  1.0117
 6481SOL    HW231077   4.112   1.318  16.234 -2.1294  0.1626  0.5973
 6482SOL     OW31078   3.212   3.689   2.047  0.0314  0.4193  0.7685
 6482SOL    HW131079   3.248   3.775   2.070  0.9566  0.6509 -1.5569
 6482SOL    HW231080   3.258   3.632   2.108  1.4741  1.1101  0.3472
 6483SOL     OW31081   3.915   1.944   1.408  0.3421  0.2535  0.0950
 6483SOL    HW131082   3.828   1.979   1.427 -1.0208 -3.5143  0.8584
 6483SOL    HW231083   3.895   1.884   1.336 -1.5031  3.1696 -1.8133
 6484SOL     OW31084   3.451   0.830   7.827 -1.2732  0.0488  0.2754
 6484SOL    HW131085   3.358   0.814   7.838 -1.3004 -0.8317 -1.2084
 6484SOL    HW231086   3.458   0.916   7.868  0.1242 -0.0341  0.2263
 6485SOL     OW31087   2.139   0.700   5.313 -0.4761  0.3204  0.4771
 6485SOL    HW131088   2.124   0.778   5.260  0.3968  0.7183  0.8105
 6485SOL    HW231089   2.210   0.663   5.259 -0.1379  1.7856 -0.0798
 6486SOL     OW31090   0.666   3.675   6.215  0.2281 -0.5854 -0.2390
 6486SOL    HW131091   0.591   3.625   6.183 -0.4421 -1.3527  2.5882
 6486SOL    HW231092   0.668   3.750   6.155 -1.2106 -0.3025  0.0787
 6487SOL     OW31093   1.247   1.522   6.248 -0.3033  0.2557  0.0002
 6487SOL    HW131094   1.177   1.476   6.202 -0.1644  1.8014 -1.7942
 6487SOL    HW231095   1.328   1.473   6.235 -0.7788 -0.7725  0.9273
 6488SOL     OW31096   2.047   2.218   7.649 -0.2465  0.2875 -0.8057
 6488SOL    HW131097   2.005   2.166   7.718  0.7736  0.0884 -0.3330
 6488SOL    HW231098   2.026   2.308   7.674  0.9048  0.2341  0.3166
 6489SOL     OW31099   1.264   4.473   2.211  0.0279 -0.9102 -0.2594
 6489SOL    HW131100   1.292   4.531   2.282 -1.3012 -0.1071 -0.4088
 6489SOL    HW231101   1.221   4.533   2.151  0.6676 -0.1144  0.0827
 6490SOL     OW31102   2.309   1.528   3.206 -0.1573  0.2976 -0.1077
 6490SOL    HW131103   2.241   1.525   3.139  1.1798 -1.6216 -1.3777
 6490SOL    HW231104   2.377   1.589   3.177  0.5717 -0.8663 -0.8436
 6491SOL     OW31105   1.865   2.141   2.385  0.4974 -0.4558  0.2502
 6491SOL    HW131106   1.888   2.051   2.358  0.6970 -0.3870  0.1892
 6491SOL    HW231107   1.849   2.130   2.478  1.4866  0.9240  0.5789
 6492SOL     OW31108   2.331   4.042   7.119 -0.0843  0.1918  0.4035
 6492SOL    HW131109   2.331   4.091   7.201 -1.6078  0.9465 -0.0383
 6492SOL    HW231110   2.308   3.952   7.145  0.0293  0.2379  0.6622
 6493SOL     OW31111   1.857   0.700   2.863  0.1711  0.1386 -0.2280
 6493SOL    HW131112   1.768   0.702   2.898  1.0995  0.7555  2.0776
 6493SOL    HW231113   1.900   0.645   2.928  0.9996 -0.0373 -0.9309
 6494SOL     OW31114   2.095   2.628   5.129  0.4356  0.0288  0.0164
 6494SOL    HW131115   2.110   2.675   5.047 -1.7972  2.3922  0.9528
 6494SOL    HW231116   2.134   2.676   5.202  1.0615 -2.2139  1.1464
 6495SOL     OW31117   4.161   3.143  11.799  0.9590  0.2387 -0.0378
 6495SOL    HW131118   4.128   3.057  11.772  5.3307 -0.8415 -1.9060
 6495SOL    HW231119   4.251   3.137  11.766  1.1927 -0.2768  0.6905
 6496SOL     OW31120   1.735   1.950   1.955  0.3526  0.6626  0.9191
 6496SOL    HW131121   1.748   1.865   1.996  0.2148 -1.0990 -2.6361
 6496SOL    HW231122   1.686   1.997   2.022 -4.4600 -1.3391 -1.1950
 6497SOL     OW31123   0.702   2.289   7.111  0.8340  0.3050 -0.9048
 6497SOL    HW131124   0.665   2.206   7.140  2.7514 -0.4374 -0.5645
 6497SOL    HW231125   0.721   2.319   7.200  0.1927  1.2962 -1.1003
 6498SOL     OW31126   3.378   2.444   7.957 -0.4001  0.1143 -0.1742
 6498SOL    HW131127   3.309   2.509   7.968  0.4574  1.0918 -0.6227
 6498SOL    HW231128   3.450   2.503   7.935 -0.7685  0.2635 -0.9842
 6499SOL     OW31129   0.512   4.483   6.871 -0.4257 -0.6377  0.0155
 6499SOL    HW131130   0.535   4.507   6.782 -1.0141  1.1026  0.3352
 6499SOL    HW231131   0.431   4.533   6.884 -0.4558 -1.0214  1.3856
 6500SOL     OW31132   3.358   2.415   4.822  0.0004  0.0119 -0.5025
 6500SOL    HW131133   3.402   2.424   4.907  0.9320 -2.9989 -0.6396
 6500SOL    HW231134   3.402   2.339   4.783 -3.3552 -1.1349 -1.9925
 6501SOL     OW31135   2.170   1.559   7.230  0.0210  0.3546  0.2355
 6501SOL    HW131136   2.171   1.473   7.188  1.8019  0.3795  0.2249
 6501SOL    HW231137   2.077   1.571   7.244 -0.3930 -3.1469  0.4653
 6502SOL     OW31138   4.575   3.586   6.357  0.3310 -0.4567 -0.0297
 6502SOL    HW131139   4.507   3.646   6.328  0.2557 -1.2060 -1.3686
 6502SOL    HW231140   4.622   3.653   6.406  1.5029  0.0011 -1.7993
 6503SOL     OW31141   3.899   4.276   5.489  0.3083  0.0294  0.0815
 6503SOL    HW131142   3.892   4.214   5.562  3.0747  0.7000  0.9166
 6503SOL    HW231143   3.888   4.361   5.531 -0.1010 -0.1991  0.4302
 6504SOL     OW31144   1.967   3.050  11.343 -0.4868 -0.2791  0.5901
 6504SOL    HW131145   2.040   3.056  11.405 -0.8596  2.1572  0.8054
 6504SOL    HW231146   1.946   2.958  11.355  0.0357 -0.2301  1.8489
 6505SOL     OW31147   1.507   2.966  12.479 -0.4754 -0.1598  0.9167
 6505SOL    HW131148   1.582   3.000  12.430 -0.5844  1.3203  1.7598
 6505SOL    HW231149   1.499   2.874  12.453 -2.3938 -0.1570  1.5277
 6506SOL     OW31150   2.715   0.398   2.818  0.2602  0.0261 -0.3389
 6506SOL    HW131151   2.760   0.443   2.747  0.6021 -0.4736 -0.4422
 6506SOL    HW231152   2.648   0.350   2.769 -1.2724  0.1619  1.6410
 6507SOL     OW31153   2.045   1.458  17.158 -0.6090  0.2262 -0.1249
 6507SOL    HW131154   1.957   1.468  17.122 -1.4097  1.7581  2.2164
 6507SOL    HW231155   2.104   1.444  17.084 -1.8359 -2.3822 -0.6026
 6508SOL     OW31156   2.634   3.383  12.895 -0.3651  0.2028 -0.2146
 6508SOL    HW131157   2.710   3.329  12.872  0.0131  0.0741  1.3120
 6508SOL    HW231158   2.641   3.450  12.827 -0.6382  0.0562 -0.3867
 6509SOL     OW31159   3.646   1.728   2.898  0.4775 -0.9136  0.3047
 6509SOL    HW131160   3.695   1.651   2.869 -1.5296 -1.1570 -2.3906
 6509SOL    HW231161   3.627   1.770   2.814 -1.3777  0.9106  1.6318
 6510SOL     OW31162   4.348   2.312  13.670  0.0062 -0.0535  0.4797
 6510SOL    HW131163   4.376   2.221  13.676 -0.7477 -0.2892  0.3590
 6510SOL    HW231164   4.293   2.300  13.593  0.7726  0.6066 -0.1830
 6511SOL     OW31165   2.038   1.026   5.928  0.0549 -0.2672 -0.4931
 6511SOL    HW131166   1.955   1.026   5.880  0.1395 -0.3502 -0.6402
 6511SOL    HW231167   2.008   1.081   6.000 -0.6210 -1.7077  0.3268
 6512SOL     OW31168   2.256   2.143  12.136 -0.3442 -0.4287 -0.3785
 6512SOL    HW131169   2.301   2.164  12.054  0.6843  0.0263  0.3068
 6512SOL    HW231170   2.250   2.047  12.138 -1.2832 -0.3628 -0.3076
 6513SOL     OW31171   0.163   0.973   3.176  0.1116  0.1945  0.1195
 6513SOL    HW131172   0.230   1.003   3.237  0.1341 -0.0497  0.2151
 6513SOL    HW231173   0.128   1.060   3.158  0.4699 -0.0013 -1.4478
 6514SOL     OW31174   0.614   0.590   2.620  0.0452  0.7220  0.5674
 6514SOL    HW131175   0.654   0.512   2.660  0.0583  0.6066  0.3311
 6514SOL    HW231176   0.522   0.574   2.645 -0.2523 -1.4501 -1.8480
 6515SOL     OW31177   0.751   0.807   2.723 -0.4567 -0.2847  0.1849
 6515SOL    HW131178   0.694   0.751   2.671 -1.2091 -0.4970  1.2259
 6515SOL    HW231179   0.837   0.779   2.692 -1.0794  1.4364 -3.1344
 6516SOL     OW31180   2.062   0.346   7.826 -0.4218 -0.3640  0.5751
 6516SOL    HW131181   2.096   0.387   7.746 -0.2638 -2.2608 -0.3227
 6516SOL    HW231182   2.003   0.414   7.858  0.6212 -0.1656  2.0627
 6517SOL     OW31183   2.550   2.635   0.941  0.4682 -0.6762  0.3078
 6517SOL    HW131184   2.495   2.659   1.015  2.2448  4.2387  0.0777
 6517SOL    HW231185   2.635   2.649   0.983 -0.0799 -1.6195  1.7174
 6518SOL     OW31186   1.638   1.641   3.508 -0.1370 -0.1283  0.3667
 6518SOL    HW131187   1.572   1.573   3.496  0.5380 -0.3645 -2.0084
 6518SOL    HW231188   1.599   1.688   3.582  0.0226 -0.6971  0.8110
 6519SOL     OW31189   4.418   4.396   8.353 -0.0498 -0.6133 -0.2319
 6519SOL    HW131190   4.503   4.416   8.392  1.5413 -2.1434 -2.9177
 6519SOL    HW231191   4.429   4.404   8.258 -0.6438  2.1268 -0.0801
 6520SOL     OW31192   2.471   1.606   4.528 -0.1910  0.1398  0.6761
 6520SOL    HW131193   2.436   1.676   4.473 -0.7097  1.8657  3.2061
 6520SOL    HW231194   2.449   1.526   4.481 -2.3018  0.4861  1.0826
 6521SOL     OW31195   4.269   2.150   8.929 -0.3995 -0.4841 -0.1651
 6521SOL    HW131196   4.214   2.180   9.002  0.5441  1.7418 -0.3510
 6521SOL    HW231197   4.256   2.056   8.919  1.1255 -0.8438  1.1084
 6522SOL     OW31198   0.389   0.824   6.374  0.1959  0.4478 -0.0307
 6522SOL    HW131199   0.329   0.813   6.448  0.5780  1.5580  0.4425
 6522SOL    HW231200   0.453   0.752   6.379 -0.4789  0.0450  2.8901
 6523SOL     OW31201   0.305   1.801   3.288 -0.2097 -0.0905 -0.3901
 6523SOL    HW131202   0.311   1.846   3.203 -0.6897 -0.5905 -0.6943
 6523SOL    HW231203   0.384   1.748   3.289  1.2641  2.0468 -2.0329
 6524SOL     OW31204   4.131   1.565   6.609  0.2735  0.1131 -0.6374
 6524SOL    HW131205   4.181   1.606   6.539 -0.7780  1.9290 -0.3247
 6524SOL    HW231206   4.195   1.528   6.669  1.1284 -0.3976 -1.8804
 6525SOL     OW31207   4.492   0.071  16.159 -0.0920  0.2751  0.3857
 6525SOL    HW131208   4.533   0.061  16.245 -0.4014  0.5262  0.5611
 6525SOL    HW231209   4.565   0.107  16.109 -0.5107 -1.4224 -1.5003
 6526SOL     OW31210   1.041   2.977   8.908 -0.1121 -0.2257 -0.0791
 6526SOL    HW131211   1.114   2.940   8.858  0.4132  1.0271 -0.2397
 6526SOL    HW231212   1.019   3.048   8.848  4.5938 -0.1755 -1.7789
 6527SOL     OW31213   4.708   1.474  10.299  0.7403 -0.1491  0.2558
 6527SOL    HW131214   0.022   1.460  10.377  0.2581 -0.5383  0.5209
 6527SOL    HW231215   4.705   1.568  10.283  1.4842  0.0946  1.5810
 6528SOL     OW31216   1.160   1.599  17.636 -0.6201 -0.1226  0.0092
 6528SOL    HW131217   1.099   1.624  17.566  0.3139  1.3543 -0.2818
 6528SOL    HW231218   1.222   1.671  17.626  2.0756 -2.1645  2.2268
 6529SOL     OW31219   0.956   1.261  16.498  0.5050  0.2654 -0.0244
 6529SOL    HW131220   0.974   1.184  16.444 -1.5592 -0.3156  0.1298
 6529SOL    HW231221   0.873   1.238  16.541  0.6307  2.5622  1.4393
 6530SOL     OW31222   0.097   3.668   3.170  0.4787  0.1603  0.2155
 6530SOL    HW131223   0.017   3.717   3.188  0.6516  0.2403  0.7653
 6530SOL    HW231224   0.125   3.722   3.096 -0.5174  0.0290 -0.2549
 6531SOL     OW31225   4.541   0.438   7.437  0.6568  0.0372 -0.4416
 6531SOL    HW131226   4.460   0.474   7.473  0.2681 -2.1417  0.8775
 6531SOL    HW231227   4.540   0.345   7.461 -0.6199 -0.1055 -1.0392
 6532SOL     OW31228   1.859   2.609   2.304 -0.4485 -0.0691  0.1237
 6532SOL    HW131229   1.852   2.584   2.212  0.0205  0.9695 -0.1870
 6532SOL    HW231230   1.895   2.528   2.340 -0.8266  0.1085  0.9077
 6533SOL     OW31231   1.811   2.175   0.914 -0.0987  0.2027 -0.2949
 6533SOL    HW131232   1.896   2.218   0.912  0.3273 -0.5968  0.7894
 6533SOL    HW231233   1.776   2.216   0.992 -1.6988 -1.0256 -0.3491
 6534SOL     OW31234   0.308   0.108  13.198 -0.4989  0.4985 -0.3435
 6534SOL    HW131235   0.269   0.029  13.160 -0.3657 -0.4024  1.4091
 6534SOL    HW231236   0.309   0.170  13.125  0.2009 -0.3215 -1.0413
 6535SOL     OW31237   4.653   1.659   3.668 -0.7436  0.3408 -0.0193
 6535SOL    HW131238   4.561   1.673   3.688 -1.2129 -1.6018 -0.8487
 6535SOL    HW231239   4.656   1.630   3.577  1.0524  0.0237  0.1243
 6536SOL     OW31240   0.649   1.064   6.275 -0.2657  0.2304  0.6972
 6536SOL    HW131241   0.561   1.099   6.288 -0.3781  0.5096 -0.7910
 6536SOL    HW231242   0.684   1.127   6.212  0.6272 -1.0875 -0.1319
 6537SOL     OW31243   1.129   0.895  12.906  0.0478 -0.1814  0.2646
 6537SOL    HW131244   1.065   0.869  12.973  0.0641  1.5832  0.9727
 6537SOL    HW231245   1.203   0.838  12.925  0.8744  1.1494  1.0166
 6538SOL     OW31246   0.192   3.093  10.916  0.6264 -0.3902  0.0748
 6538SOL    HW131247   0.118   3.038  10.942  0.6152 -2.0356 -3.6011
 6538SOL    HW231248   0.154   3.165  10.866  1.4816 -0.9716 -1.3945
 6539SOL     OW31249   3.912   1.325   9.009 -0.5861  0.6000  0.1030
 6539SOL    HW131250   3.963   1.361   9.081 -1.1235  0.2977  0.6259
 6539SOL    HW231251   3.901   1.396   8.945 -0.7905 -0.1399 -0.6906
 6540SOL     OW31252   1.487   3.568  14.633  0.0974  0.4172 -0.4573
 6540SOL    HW131253   1.494   3.650  14.585  0.3114  1.0200  0.5990
 6540SOL    HW231254   1.540   3.513  14.575  3.4375  1.7578  1.3096
 6541SOL     OW31255   1.820   2.655  16.152 -0.0065 -0.3332 -0.2810
 6541SOL    HW131256   1.819   2.616  16.065  0.6351  1.1147 -0.9328
 6541SOL    HW231257   1.892   2.718  16.150  2.2144 -2.9191 -2.0928
 6542SOL     OW31258   1.173   2.328   4.933  0.1281  0.3523  0.2817
 6542SOL    HW131259   1.175   2.250   4.878 -1.5138  0.8074 -0.4178
 6542SOL    HW231260   1.166   2.297   5.024  0.1302  0.6925  0.3975
 6543SOL     OW31261   1.099   2.141  10.659 -0.3445 -0.2905  0.3168
 6543SOL    HW131262   1.077   2.200  10.587  1.3377  1.6035  1.3686
 6543SOL    HW231263   1.015   2.137  10.706  0.6657 -1.5332  2.0384
 6544SOL     OW31264   2.263   4.238  12.208  0.4580  0.0779 -0.3611
 6544SOL    HW131265   2.241   4.316  12.260  0.4636  0.0326 -0.2903
 6544SOL    HW231266   2.232   4.164  12.260  2.8310 -0.1545  0.7506
 6545SOL     OW31267   4.527   2.720   2.672 -0.0744  1.0038 -0.5216
 6545SOL    HW131268   4.601   2.674   2.711 -3.3721 -1.4175  2.8388
 6545SOL    HW231269   4.557   2.811   2.666  1.2318  0.6024 -0.0876
 6546SOL     OW31270   0.603   0.325   9.085  0.1087 -0.3884  0.0985
 6546SOL    HW131271   0.514   0.308   9.054  0.9486  0.3021 -2.7216
 6546SOL    HW231272   0.589   0.401   9.141  3.6103 -0.0031  0.4033
 6547SOL     OW31273   4.617   0.404   9.397 -0.1434  0.1994  0.3597
 6547SOL    HW131274   4.586   0.473   9.339  2.1800  1.8783  1.1063
 6547SOL    HW231275   4.570   0.431   9.477  0.0691 -0.7259  0.7913
 6548SOL     OW31276   2.195   2.075   6.545  0.3225  0.2878  0.3226
 6548SOL    HW131277   2.207   1.984   6.518 -1.9636 -0.0090  0.2856
 6548SOL    HW231278   2.212   2.073   6.639 -1.5285  0.3984  0.6725
 6549SOL     OW31279   4.384   3.589  13.909 -0.4462 -0.4171 -0.0637
 6549SOL    HW131280   4.317   3.578  13.841 -1.4894 -0.0705  0.9109
 6549SOL    HW231281   4.443   3.640  13.853  1.1434 -2.1226  0.0804
 6550SOL     OW31282   3.881   2.041   1.825 -0.0482  0.3076 -0.2342
 6550SOL    HW131283   3.881   1.992   1.907 -0.9123 -0.9076 -0.9630
 6550SOL    HW231284   3.852   1.965   1.774 -0.9266 -0.1989  1.0338
 6551SOL     OW31285   0.257   3.687  16.411  0.7821  0.2981 -0.4026
 6551SOL    HW131286   0.212   3.771  16.418 -0.0488 -0.3564  2.0320
 6551SOL    HW231287   0.341   3.705  16.452  0.2859  1.6073  0.0437
 6552SOL     OW31288   1.132   1.416   6.840  0.5188 -0.4647 -0.4231
 6552SOL    HW131289   1.226   1.421   6.822  0.3011  0.6457 -1.2534
 6552SOL    HW231290   1.116   1.509   6.855  0.6024 -0.6257  0.6496
 6553SOL     OW31291   3.671   1.239   5.135  0.2622  0.2031 -0.0157
 6553SOL    HW131292   3.681   1.186   5.056  1.7412 -0.5254  0.6606
 6553SOL    HW231293   3.752   1.288   5.148 -0.2707  1.0072  0.2621
 6554SOL     OW31294   4.424   3.047   7.540  0.3389 -0.0970 -0.1970
 6554SOL    HW131295   4.407   3.070   7.449 -0.5338 -0.1399 -0.0374
 6554SOL    HW231296   4.445   3.134   7.574  1.1835 -1.1415  1.9572
 6555SOL     OW31297   4.468   3.829   5.912 -0.1109  0.4953 -0.2770
 6555SOL    HW131298   4.500   3.739   5.899  0.8242  0.8261 -0.2545
 6555SOL    HW231299   4.373   3.814   5.907 -0.0220 -0.6699  1.4126
 6556SOL     OW31300   3.201   3.641   2.570  0.0829  0.0875  0.7183
 6556SOL    HW131301   3.195   3.550   2.597  0.5820  0.3267  1.6783
 6556SOL    HW231302   3.110   3.671   2.575  0.0061  0.0631 -0.5756
 6557SOL     OW31303   4.480   2.651  16.786 -0.0466  1.0135 -0.0705
 6557SOL    HW131304   4.494   2.710  16.860 -0.9054 -0.0229  0.9125
 6557SOL    HW231305   4.495   2.573  16.839  0.9533  1.5417  0.4286
 6558SOL     OW31306   3.503   0.738  13.161 -0.0172  0.1671  0.8091
 6558SOL    HW131307   3.522   0.756  13.069  1.0941 -2.0637  0.6069
 6558SOL    HW231308   3.408   0.732  13.152 -0.1187  1.8065  0.7047
 6559SOL     OW31309   1.392   0.411   0.325 -0.0984 -0.5652 -0.3726
 6559SOL    HW131310   1.312   0.464   0.317  0.5942  0.4943 -0.3339
 6559SOL    HW231311   1.384   0.349   0.252 -0.4559 -0.4688 -0.4131
 6560SOL     OW31312   0.411   2.843   5.888  0.2511  0.7519 -0.1398
 6560SOL    HW131313   0.331   2.879   5.926 -0.5784 -1.4298  0.1623
 6560SOL    HW231314   0.476   2.875   5.951  0.3653 -0.9799  0.6150
 6561SOL     OW31315   2.710   3.549   7.581 -0.4023 -0.1795 -0.5029
 6561SOL    HW131316   2.703   3.456   7.602  0.9333 -0.1146  0.2491
 6561SOL    HW231317   2.627   3.576   7.621 -1.3623 -0.4395 -2.3000
 6562SOL     OW31318   1.819   3.509  11.322  0.1632 -0.1558 -0.4833
 6562SOL    HW131319   1.863   3.457  11.254  0.6871  0.6641 -0.7752
 6562SOL    HW231320   1.744   3.552  11.281  0.4014  0.8527  0.1251
 6563SOL     OW31321   3.939   3.943   3.794 -0.1833  0.0915 -0.0251
 6563SOL    HW131322   3.850   3.907   3.797 -0.3538  0.4545 -0.7954
 6563SOL    HW231323   3.988   3.861   3.794  2.5206  1.7102 -1.1435
 6564SOL     OW31324   2.112   0.103  16.185  0.2026 -0.8681 -0.1220
 6564SOL    HW131325   2.095   0.161  16.111 -0.4607  1.4006  1.8445
 6564SOL    HW231326   2.057   0.144  16.251  2.9283  1.0242  0.9311
 6565SOL     OW31327   3.293   4.010   5.633  0.1645 -0.0494  0.0549
 6565SOL    HW131328   3.220   4.062   5.667  1.2202  0.2845  1.7897
 6565SOL    HW231329   3.368   4.065   5.655  0.4284 -0.3725 -0.0338
 6566SOL     OW31330   2.834   3.079   5.506 -0.7805 -0.8299  0.4482
 6566SOL    HW131331   2.881   2.996   5.506 -0.3554 -0.6128  3.0490
 6566SOL    HW231332   2.906   3.140   5.494  0.5263 -2.5747 -0.4926
 6567SOL     OW31333   1.365   3.519  17.266 -0.4206  0.3137  0.2718
 6567SOL    HW131334   1.417   3.573  17.206 -1.0776 -0.6701 -1.1958
 6567SOL    HW231335   1.303   3.489  17.199 -1.1485  0.7711  0.7364
 6568SOL     OW31336   3.411   0.264   7.008 -0.1113 -0.0119 -0.2489
 6568SOL    HW131337   3.322   0.277   6.975  0.2536 -0.2388 -1.3428
 6568SOL    HW231338   3.407   0.276   7.103  1.6987  0.0127 -0.1661
 6569SOL     OW31339   2.423   4.013   6.702 -0.1122  0.1886 -0.5029
 6569SOL    HW131340   2.475   4.034   6.780  1.1444  0.3649 -1.3863
 6569SOL    HW231341   2.457   3.926   6.680 -0.1826  0.0572 -0.1038
 6570SOL     OW31342   0.905   4.651   5.564 -0.0621 -1.3218  0.0810
 6570SOL    HW131343   0.887   4.666   5.656  0.2021 -3.3879  0.4723
 6570SOL    HW231344   0.888   4.557   5.556 -0.1586 -1.1061 -2.4352
 6571SOL     OW31345   0.636   1.814   8.819  0.5363  0.4284 -0.0665
 6571SOL    HW131346   0.598   1.874   8.756  0.6344  1.0355  0.4540
 6571SOL    HW231347   0.649   1.876   8.890  3.1209  1.1252 -1.1653
 6572SOL     OW31348   1.105   4.729   4.975 -0.1028 -0.9342 -0.1387
 6572SOL    HW131349   1.151   0.029   5.050  0.1713  0.8567 -1.2747
 6572SOL    HW231350   1.014   4.739   5.001  0.5358 -1.4666  2.3640
 6573SOL     OW31351   1.232   0.463  16.879 -0.1695  0.6606  0.0885
 6573SOL    HW131352   1.254   0.397  16.944  2.9749 -1.1275 -2.8154
 6573SOL    HW231353   1.310   0.446  16.827  0.9529  0.0715  1.9599
 6574SOL     OW31354   3.394   1.600  10.071 -0.0105  0.4830 -0.4463
 6574SOL    HW131355   3.336   1.654  10.125 -1.9130 -1.0833 -0.9167
 6574SOL    HW231356   3.356   1.512  10.073 -0.6630  0.7876  0.6068
 6575SOL     OW31357   2.753   4.409   5.582  0.2132  0.8321 -0.3517
 6575SOL    HW131358   2.827   4.399   5.642  0.5270  0.1142 -0.8526
 6575SOL    HW231359   2.804   4.440   5.507 -0.8188 -0.6304 -1.6671
 6576SOL     OW31360   3.650   2.579   6.885  0.0584 -0.4561  0.4332
 6576SOL    HW131361   3.620   2.636   6.957  1.1277  1.8108 -0.9315
 6576SOL    HW231362   3.574   2.523   6.868 -0.3424 -0.0264  0.7803
 6577SOL     OW31363   1.473   1.243   4.831 -0.6294 -0.6319 -0.0567
 6577SOL    HW131364   1.526   1.177   4.786  1.3830  0.3403  0.8759
 6577SOL    HW231365   1.457   1.210   4.919 -0.5552 -2.2143 -0.6362
 6578SOL     OW31366   2.820   3.449   6.848 -0.9318  0.2920  0.8327
 6578SOL    HW131367   2.782   3.463   6.935  0.6702  1.1504  1.3917
 6578SOL    HW231368   2.868   3.366   6.855  1.1517  1.5341  1.1313
 6579SOL     OW31369   0.204   2.137   7.317 -0.3759 -0.3281 -0.1355
 6579SOL    HW131370   0.114   2.168   7.333  0.5199  1.8360  0.7080
 6579SOL    HW231371   0.196   2.049   7.355 -1.5604 -0.6814 -1.2102
 6580SOL     OW31372   0.772   1.005   8.106 -0.5347  0.1190  0.3077
 6580SOL    HW131373   0.840   0.952   8.146 -2.5678 -0.5737  2.8670
 6580SOL    HW231374   0.755   1.076   8.167 -0.2832  1.6190 -1.3673
 6581SOL     OW31375   1.009   2.642  16.399 -0.0222 -0.2326 -0.0647
 6581SOL    HW131376   1.078   2.577  16.412  0.4888  0.2604 -0.3191
 6581SOL    HW231377   1.037   2.689  16.321 -0.9557  2.5103  1.2309
 6582SOL     OW31378   3.601   4.587   7.118  0.0633 -0.5618  0.7338
 6582SOL    HW131379   3.523   4.586   7.063  0.2675  1.3240  0.3936
 6582SOL    HW231380   3.599   4.500   7.156  0.2122 -1.6905 -1.8540
 6583SOL     OW31381   4.325   2.395   6.833 -0.4547  0.2161  0.1347
 6583SOL    HW131382   4.348   2.482   6.864 -2.0724  1.1310 -1.2434
 6583SOL    HW231383   4.401   2.343   6.857 -1.3978 -0.9457  0.6173
 6584SOL     OW31384   0.207   0.465   9.052  0.1894 -0.0856  0.1290
 6584SOL    HW131385   0.203   0.482   9.146  2.2187 -0.3279  0.2587
 6584SOL    HW231386   0.115   0.442   9.037 -0.3449  0.7983  2.0060
 6585SOL     OW31387   3.155   3.350   4.906 -0.1442  0.5495  0.8263
 6585SOL    HW131388   3.188   3.411   4.973  1.0024  0.0855  0.6935
 6585SOL    HW231389   3.217   3.354   4.833 -0.0586 -1.2461  0.7832
 6586SOL     OW31390   0.269   0.967   8.010  0.2106  0.3850  0.2189
 6586SOL    HW131391   0.354   1.011   7.999 -0.6514  2.1843  0.8108
 6586SOL    HW231392   0.243   0.971   7.918  0.3476  0.1603  0.1703
 6587SOL     OW31393   2.065   3.042   2.754  0.2088  0.0399  0.0445
 6587SOL    HW131394   2.003   2.979   2.718  1.9732 -1.2732 -0.6915
 6587SOL    HW231395   2.123   3.043   2.677  1.2454 -1.8168  0.8201
 6588SOL     OW31396   2.725   4.315   6.716  0.1802 -0.3595 -0.4770
 6588SOL    HW131397   2.815   4.323   6.686  0.8098 -0.3346  1.4297
 6588SOL    HW231398   2.719   4.407   6.743  0.8831 -0.4622  0.0146
 6589SOL     OW31399   3.349   3.860   1.777  0.1942  0.3676  0.7432
 6589SOL    HW131400   3.328   3.930   1.839 -2.5315 -0.0850  0.3180
 6589SOL    HW231401   3.263   3.829   1.750  0.6934 -1.0354  0.7456
 6590SOL     OW31402   0.871   4.162   3.348 -0.1666 -0.1241  0.5694
 6590SOL    HW131403   0.805   4.172   3.417 -1.1882  2.6274 -0.8336
 6590SOL    HW231404   0.924   4.092   3.387  0.3282  0.6448  1.2743
 6591SOL     OW31405   2.368   1.297  14.880  0.1795 -0.6468 -0.0329
 6591SOL    HW131406   2.324   1.347  14.949  0.3967 -0.5084  0.0048
 6591SOL    HW231407   2.452   1.342  14.870  0.2326 -0.9216 -0.8091
 6592SOL     OW31408   4.465   3.335  14.461  0.0622  0.1386  0.1389
 6592SOL    HW131409   4.442   3.424  14.434 -1.4161 -0.9646 -2.3087
 6592SOL    HW231410   4.523   3.310  14.389  1.3270  1.2328  0.7903
 6593SOL     OW31411   2.781   0.428  17.301  0.1444  0.1787 -0.1897
 6593SOL    HW131412   2.805   0.482  17.376 -1.7816  1.8459 -0.7846
 6593SOL    HW231413   2.685   0.431  17.304  0.2110  4.0264 -1.9491
 6594SOL     OW31414   3.772   2.785   8.650 -0.1954 -0.5385 -0.1919
 6594SOL    HW131415   3.756   2.862   8.705 -1.6099 -1.1254  0.2179
 6594SOL    HW231416   3.861   2.762   8.678  0.1396 -0.3686 -1.1493
 6595SOL     OW31417   3.541   4.688  12.073 -0.0011 -0.0595 -0.4085
 6595SOL    HW131418   3.612   4.705  12.012  0.5972 -1.7878 -0.1921
 6595SOL    HW231419   3.535   4.594  12.056  1.3242 -0.5315  1.7150
 6596SOL     OW31420   3.125   1.298   4.871  0.0615 -0.5196 -0.1562
 6596SOL    HW131421   3.132   1.228   4.806 -0.5298  0.8611 -1.6973
 6596SOL    HW231422   3.195   1.356   4.843 -0.8289  0.3015 -0.6935
 6597SOL     OW31423   1.868   1.164  12.294  0.1055 -0.2615  0.4819
 6597SOL    HW131424   1.782   1.196  12.322 -0.7719 -1.7739 -0.4413
 6597SOL    HW231425   1.874   1.217  12.215 -1.2870  0.3093  0.7615
 6598SOL     OW31426   0.949   3.645   1.941 -0.2165 -0.1486 -0.1115
 6598SOL    HW131427   0.927   3.570   1.996  1.0351  0.8488  1.7436
 6598SOL    HW231428   1.045   3.644   1.937 -0.2486  0.8282 -1.0685
 6599SOL     OW31429   0.260   4.566   0.366 -0.5832 -0.5929  0.0397
 6599SOL    HW131430   0.337   4.578   0.309 -0.8314  0.9252  0.0116
 6599SOL    HW231431   0.189   4.560   0.302 -1.1105 -0.8918  0.6594
 6600SOL     OW31432   3.947   1.759  11.053  0.0261 -0.4583 -0.4602
 6600SOL    HW131433   3.861   1.793  11.077  0.5112  0.1968  0.3684
 6600SOL    HW231434   3.995   1.776  11.134  1.4527  0.6793 -1.5505
 6601SOL     OW31435   2.179   3.932   0.494 -0.5571  0.1333  0.0913
 6601SOL    HW131436   2.267   3.963   0.474 -0.5671 -1.0762 -1.8373
 6601SOL    HW231437   2.132   3.970   0.419 -0.2801 -1.4769 -0.8882
 6602SOL     OW31438   4.266   3.193   6.136 -0.3138  0.7922  0.3630
 6602SOL    HW131439   4.209   3.128   6.177  0.3514  0.2983  0.5086
 6602SOL    HW231440   4.299   3.138   6.065 -0.3593  0.7813  0.3503
 6603SOL     OW31441   1.683   3.356   9.138 -0.6989 -0.3835 -0.1591
 6603SOL    HW131442   1.722   3.268   9.146 -1.2977 -0.6137  0.1657
 6603SOL    HW231443   1.763   3.404   9.115 -1.4690  1.0738  0.2135
 6604SOL     OW31444   1.095   2.634  16.706 -0.0777  0.1776  0.5521
 6604SOL    HW131445   1.057   2.709  16.660  1.0173  0.2282 -0.2570
 6604SOL    HW231446   1.030   2.565  16.688  0.2591 -0.4075  1.5306
 6605SOL     OW31447   3.394   0.872  15.520 -0.2971 -0.2776  0.2945
 6605SOL    HW131448   3.360   0.961  15.527 -0.9445 -0.5376  0.4081
 6605SOL    HW231449   3.487   0.882  15.499 -0.5430  1.9879  0.2369
 6606SOL     OW31450   3.964   3.644   5.623 -0.0465  0.3130 -0.9499
 6606SOL    HW131451   3.885   3.596   5.599  0.3032 -0.8274  0.1435
 6606SOL    HW231452   4.025   3.575   5.595 -0.6063 -0.1778 -0.9598
 6607SOL     OW31453   1.011   0.754  14.727 -0.6000  0.1321 -0.2628
 6607SOL    HW131454   0.972   0.688  14.784  0.9603  0.1808  0.8664
 6607SOL    HW231455   0.980   0.722  14.642  0.8945  0.3546 -0.8882
 6608SOL     OW31456   2.260   3.026  11.106  0.4376 -0.9707  0.4289
 6608SOL    HW131457   2.235   2.948  11.055 -1.2133 -1.3106  1.7515
 6608SOL    HW231458   2.220   3.019  11.192 -0.8271  2.3927  0.1322
 6609SOL     OW31459   1.529   2.992   6.080 -0.2897 -0.0114 -0.1468
 6609SOL    HW131460   1.625   2.987   6.083 -0.2834  0.0392 -0.2730
 6609SOL    HW231461   1.523   3.042   5.999  1.7527 -0.9496 -0.8655
 6610SOL     OW31462   3.185   3.491  15.132  0.0010 -0.2208  0.1514
 6610SOL    HW131463   3.226   3.509  15.047 -0.9804  4.2345  0.5922
 6610SOL    HW231464   3.236   3.413  15.155 -1.7568 -1.2115  0.6612
 6611SOL     OW31465   1.619   0.351  17.605  0.2182  0.4023  0.4791
 6611SOL    HW131466   1.535   0.375  17.565  1.9515  2.3208 -2.0221
 6611SOL    HW231467   1.635   0.423  17.667 -3.4012  1.7992 -0.2292
 6612SOL     OW31468   1.279   2.273  11.639 -0.1000  0.7103 -0.3236
 6612SOL    HW131469   1.261   2.227  11.722 -3.1476  0.7357 -0.9517
 6612SOL    HW231470   1.321   2.350  11.676 -2.1272  2.4419 -1.6496
 6613SOL     OW31471   1.102   0.368   6.691  0.2356 -0.3450  0.4210
 6613SOL    HW131472   1.041   0.337   6.758 -1.1247 -0.1691 -0.7343
 6613SOL    HW231473   1.092   0.307   6.618  1.1103 -0.8503  0.7285
 6614SOL     OW31474   2.283   3.227   8.918  0.3638 -0.2466  0.1595
 6614SOL    HW131475   2.320   3.311   8.887  0.1501  0.4765  1.8966
 6614SOL    HW231476   2.310   3.219   9.009  1.2323  2.4078  0.1442
 6615SOL     OW31477   0.519   0.813   2.263  0.5365  0.2169  0.2577
 6615SOL    HW131478   0.466   0.736   2.285 -0.1577  0.2031 -1.4802
 6615SOL    HW231479   0.460   0.885   2.284 -1.0373 -0.5320 -1.5894
 6616SOL     OW31480   4.732   3.305  13.925 -0.5236 -0.2335 -0.6310
 6616SOL    HW131481   0.050   3.295  14.001  0.4713  0.6090 -1.2675
 6616SOL    HW231482   4.675   3.231  13.943  1.4764 -1.6559 -0.1906
 6617SOL     OW31483   4.610   4.715   1.973  0.2672  0.1895 -1.1338
 6617SOL    HW131484   4.683   0.036   1.960 -0.6190  1.5167  0.1241
 6617SOL    HW231485   4.592   4.669   1.891  0.0800 -1.0431 -0.4066
 6618SOL     OW31486   3.071   3.597  10.352 -0.2251 -0.1731 -0.1809
 6618SOL    HW131487   3.004   3.533  10.377  0.0938 -0.1568  0.7355
 6618SOL    HW231488   3.042   3.610  10.262 -1.6702  0.7297  0.4215
 6619SOL     OW31489   2.056   0.470   7.033  0.2898 -0.0168  0.3257
 6619SOL    HW131490   1.965   0.497   7.040  0.2059 -0.1793 -0.1218
 6619SOL    HW231491   2.038   0.409   6.961 -2.4716  0.0854  0.9577
 6620SOL     OW31492   1.990   2.532   7.364  0.2790  0.4767  0.0122
 6620SOL    HW131493   1.947   2.600   7.312 -1.4258 -1.2206 -0.7716
 6620SOL    HW231494   2.032   2.582   7.434 -1.0299  0.8050  0.5495
 6621SOL     OW31495   4.245   3.012  12.790 -0.5774  0.1652 -0.3065
 6621SOL    HW131496   4.172   2.952  12.807 -0.0283 -1.2229 -2.7577
 6621SOL    HW231497   4.214   3.098  12.818  0.0425  0.3758 -0.2625
 6622SOL     OW31498   2.201   1.232  12.673  0.4084 -0.5861 -0.0322
 6622SOL    HW131499   2.165   1.199  12.755  2.5378 -1.3683  0.5940
 6622SOL    HW231500   2.238   1.314  12.705 -0.0500 -0.5848  0.4752
 6623SOL     OW31501   3.786   4.141   6.638 -0.2958  0.3855  0.3400
 6623SOL    HW131502   3.782   4.230   6.673  1.8811  0.5259  0.1944
 6623SOL    HW231503   3.861   4.145   6.580 -2.1275 -0.1817 -2.0655
 6624SOL     OW31504   0.103   0.142   4.513 -0.5010  0.2773 -0.7966
 6624SOL    HW131505   0.156   0.180   4.443  0.2024  0.1193 -0.3483
 6624SOL    HW231506   0.156   0.152   4.592 -0.8646 -0.1073 -0.4990
 6625SOL     OW31507   4.127   4.391  16.083 -0.1285  0.0856 -0.6837
 6625SOL    HW131508   4.058   4.446  16.047  0.3193  1.8801  1.2113
 6625SOL    HW231509   4.206   4.444  16.092 -0.8008  0.9539  0.0885
 6626SOL     OW31510   2.185   2.681   7.474  0.0655  0.5613  0.0626
 6626SOL    HW131511   2.261   2.622   7.474  1.0395  1.8272 -0.6976
 6626SOL    HW231512   2.219   2.747   7.414 -0.2265  1.2305  0.6385
 6627SOL     OW31513   0.989   4.159   7.712 -0.0886  0.5142  0.2105
 6627SOL    HW131514   1.057   4.113   7.762 -0.5803  0.7595  1.1028
 6627SOL    HW231515   0.937   4.084   7.684  0.3862  0.6350 -0.9931
 6628SOL     OW31516   4.593   1.224   3.135 -0.0268  0.3404  0.2961
 6628SOL    HW131517   4.588   1.142   3.185  2.9565  0.0257  0.0820
 6628SOL    HW231518   4.647   1.265   3.203 -1.6589  2.0157  0.5777
 6629SOL     OW31519   0.359   3.858   5.221  0.0148  0.3087  0.6234
 6629SOL    HW131520   0.343   3.866   5.127  1.0618 -4.5916  0.0421
 6629SOL    HW231521   0.295   3.797   5.258  0.9267 -0.2456  1.2559
 6630SOL     OW31522   0.857   2.071   4.637  0.2023 -0.0797  0.5495
 6630SOL    HW131523   0.811   2.015   4.700 -1.8148  0.3887 -0.4925
 6630SOL    HW231524   0.800   2.064   4.560 -0.2935 -0.4987  0.9453
 6631SOL     OW31525   0.519   3.185   1.915  0.5858  0.4825 -0.0699
 6631SOL    HW131526   0.586   3.196   1.983  1.0978  0.7077 -0.6179
 6631SOL    HW231527   0.504   3.280   1.915 -1.7198  0.1015 -1.5333
 6632SOL     OW31528   2.662   2.622   0.630  0.0204 -0.0197 -0.4601
 6632SOL    HW131529   2.618   2.697   0.670  3.1983  2.5228 -1.7529
 6632SOL    HW231530   2.733   2.619   0.693  2.8415 -1.6244 -3.7592
 6633SOL     OW31531   1.158   4.683   2.077  0.0031 -0.7220  0.0989
 6633SOL    HW131532   1.083   4.738   2.056  0.3547  0.4365  1.8855
 6633SOL    HW231533   1.220   4.703   2.007 -1.6306 -0.7568 -1.3538
 6634SOL     OW31534   2.266   2.058   3.128  0.3938 -0.0046 -0.2379
 6634SOL    HW131535   2.277   1.987   3.191  1.1942  0.3009 -0.0320
 6634SOL    HW231536   2.213   2.121   3.175 -0.2506 -0.1872 -0.7210
 6635SOL     OW31537   0.209   0.160  16.538 -0.6913 -0.1879 -0.0509
 6635SOL    HW131538   0.160   0.177  16.458 -0.2522  0.0921 -0.2607
 6635SOL    HW231539   0.291   0.116  16.514 -0.7514  0.8801 -2.2164
 6636SOL     OW31540   1.689   2.607   5.519 -0.2131  0.4494 -0.1541
 6636SOL    HW131541   1.626   2.628   5.588  1.3796  0.3294  1.3475
 6636SOL    HW231542   1.704   2.697   5.490  1.4270  0.0475 -0.5453
 6637SOL     OW31543   2.610   4.224   8.720 -0.1581 -0.0248 -0.1599
 6637SOL    HW131544   2.700   4.246   8.695  0.8309 -1.9460  1.7158
 6637SOL    HW231545   2.579   4.306   8.757  1.2854 -1.2569  3.7482
 6638SOL     OW31546   0.633   0.046  13.531  0.3769  0.4559 -0.3774
 6638SOL    HW131547   0.649   0.140  13.524  1.9640  0.1242 -1.2164
 6638SOL    HW231548   0.566   0.041  13.599  1.8737 -0.5835  1.0251
 6639SOL     OW31549   1.370   2.498   4.001  0.4649  0.4327 -0.1266
 6639SOL    HW131550   1.327   2.582   4.019 -0.6011 -0.1583  0.0664
 6639SOL    HW231551   1.432   2.520   3.931 -0.6305  3.0958 -0.2683
 6640SOL     OW31552   3.958   2.324  13.910  0.3363 -0.5937 -0.4532
 6640SOL    HW131553   3.968   2.419  13.915  1.1251 -0.6746 -0.4972
 6640SOL    HW231554   4.046   2.299  13.885  1.2283  0.9770  1.0709
 6641SOL     OW31555   0.001   4.274   1.877 -0.0634 -0.0032  0.5803
 6641SOL    HW131556   4.651   4.303   1.888  0.2036  1.9220 -2.5705
 6641SOL    HW231557   0.005   4.262   1.782  0.1256  0.8908  0.4837
 6642SOL     OW31558   2.296   0.876   7.527 -0.2888  0.1449  0.2977
 6642SOL    HW131559   2.206   0.845   7.526 -0.7974  1.5821  1.6506
 6642SOL    HW231560   2.325   0.837   7.444 -0.0453 -0.6772  0.7649
 6643SOL     OW31561   2.606   1.991   9.691  0.3817  1.1756 -0.3115
 6643SOL    HW131562   2.642   1.922   9.636 -0.3804 -0.0337  0.7156
 6643SOL    HW231563   2.570   1.943   9.766  2.7638  1.3404  0.9296
 6644SOL     OW31564   1.709   4.602   3.898  0.3797 -0.2569  0.2243
 6644SOL    HW131565   1.694   4.689   3.862  1.1250 -0.4952 -0.6457
 6644SOL    HW231566   1.654   4.613   3.976  0.2125 -0.7990  0.1825
 6645SOL     OW31567   0.295   2.372  12.352  0.0826  0.0064  0.5034
 6645SOL    HW131568   0.274   2.283  12.382 -0.5378  0.6218  1.8840
 6645SOL    HW231569   0.349   2.403  12.425 -0.6014 -0.9507  1.4190
 6646SOL     OW31570   4.621   2.110   3.579  0.4616  0.0996 -0.0022
 6646SOL    HW131571   4.621   2.068   3.665  2.1954  0.6203  0.2608
 6646SOL    HW231572   4.527   2.102   3.562  0.2597 -0.7068  1.4900
 6647SOL     OW31573   3.490   3.226   1.248  0.6945 -0.2052 -0.3628
 6647SOL    HW131574   3.410   3.246   1.297  0.0076  0.5629 -1.7787
 6647SOL    HW231575   3.539   3.153   1.285 -0.3430 -1.0890 -0.7641
 6648SOL     OW31576   3.189   4.602   2.174 -0.4244 -0.6565  0.8836
 6648SOL    HW131577   3.281   4.612   2.198 -0.2658 -0.7615  0.2989
 6648SOL    HW231578   3.157   4.592   2.264 -1.7611  2.1041  0.7229
 6649SOL     OW31579   1.750   1.986   5.691  0.1986 -0.1562 -0.3814
 6649SOL    HW131580   1.750   2.015   5.599  1.6989  0.8594 -0.0641
 6649SOL    HW231581   1.770   1.893   5.683 -0.8776 -0.4072 -0.1746
 6650SOL     OW31582   0.074   1.655   6.817 -0.1671 -0.0450 -0.4483
 6650SOL    HW131583   0.095   1.729   6.759 -0.4619 -0.1044 -0.6297
 6650SOL    HW231584   0.099   1.685   6.905  1.2292  0.7135 -1.1049
 6651SOL     OW31585   0.059   0.447   4.382  0.5286 -0.4685 -0.3482
 6651SOL    HW131586   0.133   0.391   4.406  0.2810 -0.2377  0.9781
 6651SOL    HW231587   0.095   0.533   4.362  0.6522  0.1773  2.6349
 6652SOL     OW31588   2.541   0.758   7.079  0.5825 -0.6134 -0.2516
 6652SOL    HW131589   2.598   0.835   7.070  1.8244 -1.8189 -2.7435
 6652SOL    HW231590   2.501   0.750   6.993  1.0254 -0.3707 -0.4791
 6653SOL     OW31591   3.008   4.331   3.762  0.1662 -0.0089 -0.2328
 6653SOL    HW131592   2.990   4.267   3.831  0.6202 -0.3176 -0.3978
 6653SOL    HW231593   3.104   4.324   3.762  0.1107 -0.7590  4.2285
 6654SOL     OW31594   2.266   4.729   3.011 -0.0586  0.5815 -0.0437
 6654SOL    HW131595   2.282   4.658   2.949 -1.1496 -1.3586  1.9483
 6654SOL    HW231596   2.356   0.017   3.030 -0.4906  1.7453  0.2841
 6655SOL     OW31597   2.330   2.471  16.004  0.6722 -0.4884  0.2156
 6655SOL    HW131598   2.279   2.548  15.978  0.9399 -0.0292  1.0580
 6655SOL    HW231599   2.367   2.448  15.919  2.5171  0.0310  0.8772
 6656SOL     OW31600   1.841   1.327   1.064 -0.4213  0.2310  0.0842
 6656SOL    HW131601   1.851   1.281   0.981  0.2693  1.9871 -0.8109
 6656SOL    HW231602   1.747   1.343   1.059 -0.0829  2.2370  0.3579
 6657SOL     OW31603   0.835   0.946   4.642  0.4145  0.6813 -0.3118
 6657SOL    HW131604   0.832   0.971   4.735  2.0179 -0.3907  0.0420
 6657SOL    HW231605   0.913   0.892   4.660  0.1064  0.4759  0.3966
 6658SOL     OW31606   3.597   1.544   7.305 -0.6351  0.6164  0.0765
 6658SOL    HW131607   3.685   1.511   7.286 -0.5066  1.4150 -0.7287
 6658SOL    HW231608   3.534   1.474   7.288 -0.4560  0.6322 -0.6559
 6659SOL     OW31609   0.756   4.465  17.333 -0.3723  0.0434 -0.5494
 6659SOL    HW131610   0.731   4.524  17.404 -0.4284 -0.7385  0.0735
 6659SOL    HW231611   0.726   4.503  17.250 -2.5121 -0.1343  0.1509
 6660SOL     OW31612   3.616   2.722   7.520  0.2978 -0.2479  0.4904
 6660SOL    HW131613   3.693   2.756   7.475 -0.1936 -0.2652 -0.3527
 6660SOL    HW231614   3.551   2.791   7.512  0.0904 -0.5043 -0.0230
 6661SOL     OW31615   0.837   1.010   5.032 -0.4003 -0.3040 -0.8056
 6661SOL    HW131616   0.796   0.965   5.106 -1.6449 -0.4727 -1.5826
 6661SOL    HW231617   0.851   0.932   4.978 -0.5484  0.7363 -2.3547
 6662SOL     OW31618   2.994   4.326   6.286  0.2976  0.0442  0.3747
 6662SOL    HW131619   3.016   4.322   6.379  2.0213  2.8473  0.0655
 6662SOL    HW231620   2.904   4.294   6.292  0.1270  0.2706 -1.1225
 6663SOL     OW31621   4.359   1.045  10.474  0.3098  0.2457  1.2543
 6663SOL    HW131622   4.303   0.972  10.499  0.4899  0.0281  1.0300
 6663SOL    HW231623   4.288   1.104  10.450 -1.1212 -0.7809  3.0455
 6664SOL     OW31624   4.306   0.230   4.781 -0.1040  0.0973  0.2047
 6664SOL    HW131625   4.281   0.140   4.762 -1.3494  0.5891 -0.4549
 6664SOL    HW231626   4.265   0.241   4.867 -0.4618  2.2756 -0.2330
 6665SOL     OW31627   0.152   1.436  15.012 -0.0076 -0.1412 -0.2720
 6665SOL    HW131628   0.099   1.382  15.072  1.7074  1.2755  2.5266
 6665SOL    HW231629   0.124   1.396  14.929  0.9481 -0.7633 -0.2945
 6666SOL     OW31630   2.115   1.179   4.920 -0.8253 -0.4073  0.3387
 6666SOL    HW131631   2.136   1.259   4.871  0.0841 -0.5657  0.4674
 6666SOL    HW231632   2.072   1.223   4.993  1.6612 -2.1888  2.8661
 6667SOL     OW31633   3.354   1.992   3.325 -0.2551  0.1508 -0.1536
 6667SOL    HW131634   3.345   2.018   3.417 -2.9901  4.2418 -1.5610
 6667SOL    HW231635   3.448   2.004   3.316  0.3088 -2.1186  2.6800
 6668SOL     OW31636   3.365   0.569  17.709  0.1134  0.1074  0.5367
 6668SOL    HW131637   3.398   0.480  17.720 -1.8320 -0.4468  1.6694
 6668SOL    HW231638   3.348   0.598   0.041 -1.4399 -0.8654  0.5472
 6669SOL     OW31639   3.563   2.581   5.142  0.1571  0.0845  0.0374
 6669SOL    HW131640   3.658   2.595   5.153  0.4773  0.1202 -2.9009
 6669SOL    HW231641   3.545   2.642   5.071  0.7297 -0.9033 -0.9797
 6670SOL     OW31642   2.528   2.792   3.001 -0.3721 -1.0458  0.3255
 6670SOL    HW131643   2.600   2.853   3.012  1.4322 -2.8265 -1.6114
 6670SOL    HW231644   2.479   2.825   2.925  0.6170 -0.9781 -0.2750
 6671SOL     OW31645   0.967   0.857  11.632  0.0410 -0.0130  0.0147
 6671SOL    HW131646   0.990   0.897  11.715 -0.4527 -0.6447  0.4622
 6671SOL    HW231647   1.012   0.917  11.572 -2.3552  0.9546 -0.8227
 6672SOL     OW31648   2.804   3.866   0.016  0.5228 -0.0679  0.1603
 6672SOL    HW131649   2.872   3.925  17.742  1.4466  0.3617  2.8560
 6672SOL    HW231650   2.827   3.848   0.107 -1.0353  0.6236  0.6882
 6673SOL     OW31651   0.695   3.742   4.079 -0.2057  0.6390  0.2924
 6673SOL    HW131652   0.687   3.789   4.162 -0.5901 -2.4584  2.0031
 6673SOL    HW231653   0.752   3.797   4.026 -0.8952 -0.1216 -1.2544
 6674SOL     OW31654   0.011   4.066   3.210 -0.4350 -0.7358 -0.4786
 6674SOL    HW131655   4.702   3.985   3.209 -0.6100 -0.6589  1.3642
 6674SOL    HW231656   4.686   4.125   3.172  1.0133 -0.4633 -2.5604
 6675SOL     OW31657   0.117   0.547   4.677 -0.2780  0.0197 -0.2476
 6675SOL    HW131658   0.127   0.453   4.657 -0.6385  0.5097 -2.6870
 6675SOL    HW231659   0.091   0.580   4.591 -0.1507 -1.4921 -0.8806
 6676SOL     OW31660   2.678   4.133  15.757  0.1643  0.3595  0.9832
 6676SOL    HW131661   2.733   4.182  15.696  2.4213 -1.7328  1.3268
 6676SOL    HW231662   2.749   4.074  15.786  0.2766 -0.5065 -1.0404
 6677SOL     OW31663   4.007   3.222   6.835 -0.2429 -0.3956 -0.3141
 6677SOL    HW131664   3.993   3.206   6.742 -0.6833  0.0428 -0.3214
 6677SOL    HW231665   3.941   3.160   6.867  0.5117 -0.3097  1.4043
 6678SOL     OW31666   3.398   4.642   5.102  0.3911 -0.5116  0.3982
 6678SOL    HW131667   3.355   4.680   5.025  0.4765 -0.6387  0.2884
 6678SOL    HW231668   3.326   4.609   5.156 -0.6953 -0.7514 -1.1913
 6679SOL     OW31669   2.415   3.837   3.568  0.7523 -0.0933  0.2325
 6679SOL    HW131670   2.418   3.751   3.610  0.4872 -0.0564  0.3301
 6679SOL    HW231671   2.490   3.840   3.509 -0.2277  1.7010 -0.9239
 6680SOL     OW31672   3.744   0.312   2.567 -0.1323  0.1222  0.2612
 6680SOL    HW131673   3.661   0.357   2.585 -0.1650 -0.2198  0.9735
 6680SOL    HW231674   3.706   0.225   2.574  1.2056 -0.4461  0.4515
 6681SOL     OW31675   4.349   0.932   7.089  0.0760  0.1877  0.1159
 6681SOL    HW131676   4.359   0.872   7.163 -2.9250  0.3391  0.6628
 6681SOL    HW231677   4.257   0.920   7.065 -0.5185  0.0934  2.4072
 6682SOL     OW31678   0.934   3.282   7.479 -0.2382 -0.2049 -0.0615
 6682SOL    HW131679   0.850   3.318   7.507 -1.2991 -2.3555 -0.4480
 6682SOL    HW231680   0.914   3.199   7.436 -0.4039  0.6665 -1.6431
 6683SOL     OW31681   0.938   3.286  10.064 -0.4602  0.3406  0.0285
 6683SOL    HW131682   0.892   3.358  10.107 -2.0889 -0.6644 -0.0356
 6683SOL    HW231683   0.873   3.233  10.018 -0.1356  0.1168 -0.1723
 6684SOL     OW31684   3.713   4.653   4.532  0.7586 -0.1648  0.7832
 6684SOL    HW131685   3.685   4.727   4.585  1.5557  1.2172 -0.7262
 6684SOL    HW231686   3.797   4.629   4.571  0.3982  1.6330  2.6247
 6685SOL     OW31687   3.303   1.427   7.568  0.1387 -0.9633  0.8895
 6685SOL    HW131688   3.358   1.353   7.593  0.1711 -1.5792 -1.0637
 6685SOL    HW231689   3.357   1.499   7.601 -0.0606 -0.0499 -0.7700
 6686SOL     OW31690   2.514   2.471   2.536 -0.1903 -0.3048  0.0306
 6686SOL    HW131691   2.560   2.397   2.497 -0.5603  0.2475 -1.4427
 6686SOL    HW231692   2.462   2.510   2.467 -1.6009  0.9176  1.7867
 6687SOL     OW31693   3.678   2.769  17.604  0.2515  0.0835 -1.0143
 6687SOL    HW131694   3.663   2.768  17.699 -1.3337  1.4973 -1.2532
 6687SOL    HW231695   3.656   2.677  17.586  2.8986 -0.6683 -0.3759
 6688SOL     OW31696   4.641   1.351   3.666  0.2993  0.0567 -0.1148
 6688SOL    HW131697   4.550   1.339   3.694  0.8207 -1.4911  0.8969
 6688SOL    HW231698   4.627   1.383   3.577  1.3082  2.9564  0.7839
 6689SOL     OW31699   3.172   2.117   0.324  0.1615  0.1588 -0.1491
 6689SOL    HW131700   3.107   2.111   0.255  0.6309  3.4026 -0.8677
 6689SOL    HW231701   3.167   2.210   0.348  0.1571 -0.7956  3.6769
 6690SOL     OW31702   4.722   3.470   7.964 -0.0938  0.0992  0.1993
 6690SOL    HW131703   4.703   3.485   8.056 -0.6396  2.4196 -0.2919
 6690SOL    HW231704   4.688   3.547   7.917 -2.8250 -0.6046  1.0170
 6691SOL     OW31705   1.747   0.895   3.372 -0.3530  0.0821 -0.1869
 6691SOL    HW131706   1.795   0.967   3.331 -0.7077  2.1783  3.0048
 6691SOL    HW231707   1.791   0.813   3.353 -1.9220 -0.7844 -0.0379
 6692SOL     OW31708   3.176   3.631   5.745 -1.0763 -0.1730 -0.6709
 6692SOL    HW131709   3.206   3.679   5.668 -0.7678  0.9245  0.1263
 6692SOL    HW231710   3.233   3.553   5.741  0.4585  0.9262 -0.3644
 6693SOL     OW31711   0.751   4.438   6.334  0.0944 -0.8665  0.3757
 6693SOL    HW131712   0.704   4.449   6.251  0.6966  1.9718  0.4229
 6693SOL    HW231713   0.722   4.352   6.365  0.0762 -0.7317  0.7363
 6694SOL     OW31714   3.970   3.949  11.138  0.1419 -0.0708  0.1706
 6694SOL    HW131715   4.017   3.930  11.057  1.1112 -0.5231  0.8436
 6694SOL    HW231716   3.999   4.039  11.147  0.9846 -0.3980  0.7041
 6695SOL     OW31717   2.939   4.258   2.931 -0.5193 -0.4843 -0.1167
 6695SOL    HW131718   2.985   4.202   2.868 -2.1312 -0.5865 -1.2122
 6695SOL    HW231719   3.011   4.258   2.994 -0.6250 -0.1835  0.0054
 6696SOL     OW31720   4.663   2.461  10.421 -0.0628 -0.0550  0.0236
 6696SOL    HW131721   4.614   2.513  10.358 -3.0471 -1.6809  0.9986
 6696SOL    HW231722   0.010   2.498  10.407 -0.1589 -0.6979 -2.2661
 6697SOL     OW31723   4.445   2.360   8.998  0.1809  0.4991 -0.3013
 6697SOL    HW131724   4.391   2.296   8.952  1.3604  0.3092 -1.4350
 6697SOL    HW231725   4.532   2.345   8.962  0.5361  1.4712  0.1365
 6698SOL     OW31726   0.467   3.789   4.490 -0.0081 -0.5015  0.0812
 6698SOL    HW131727   0.513   3.748   4.417 -0.7006  0.6647 -1.0135
 6698SOL    HW231728   0.394   3.730   4.510  0.1909 -1.0739 -0.8666
 6699SOL     OW31729   1.935   3.340   8.322 -0.0437 -0.2196 -0.2653
 6699SOL    HW131730   1.922   3.275   8.253 -2.3527 -0.0212 -0.0152
 6699SOL    HW231731   2.030   3.350   8.321 -0.2366  1.7885 -0.6276
 6700SOL     OW31732   1.495   0.800   7.101  0.1378 -0.1449 -0.3135
 6700SOL    HW131733   1.503   0.705   7.090  1.4172 -0.1944  1.0146
 6700SOL    HW231734   1.538   0.810   7.186  0.1101 -3.6185  0.1471
 6701SOL     OW31735   3.337   1.082  11.151 -0.0513  0.7392 -0.1398
 6701SOL    HW131736   3.375   1.052  11.069  1.2744  0.7729  0.4597
 6701SOL    HW231737   3.346   1.177  11.144 -1.0871  0.9235  1.0656
 6702SOL     OW31738   2.414   0.429   6.452  0.2901 -0.8387 -0.5050
 6702SOL    HW131739   2.463   0.415   6.371 -1.1992 -0.5969 -1.4480
 6702SOL    HW231740   2.413   0.340   6.486 -3.8401 -0.1313  1.2466
 6703SOL     OW31741   2.811   1.448   6.572  0.1323  0.8516 -0.4148
 6703SOL    HW131742   2.829   1.401   6.491 -2.0317  1.5164 -1.2576
 6703SOL    HW231743   2.901   1.473   6.595  0.7379 -3.2476  1.7291
 6704SOL     OW31744   4.208   3.562   1.955  0.8260 -0.5371 -0.2074
 6704SOL    HW131745   4.199   3.539   1.862  1.2960 -0.7773 -0.1977
 6704SOL    HW231746   4.138   3.511   1.995  1.1537  1.4612  2.8989
 6705SOL     OW31747   2.842   0.822   3.909  0.4779  0.0076 -0.5304
 6705SOL    HW131748   2.793   0.886   3.960  0.8865  0.1049 -0.2694
 6705SOL    HW231749   2.763   0.768   3.898  0.4636  0.1980 -1.4149
 6706SOL     OW31750   0.148   1.903   7.448 -0.2163 -0.2912  0.1531
 6706SOL    HW131751   0.125   1.820   7.407 -1.2359  0.3465 -0.5678
 6706SOL    HW231752   0.128   1.873   7.537  0.9201  0.3332  0.6209
 6707SOL     OW31753   0.121   2.732   2.606 -0.2566  0.0818  0.1778
 6707SOL    HW131754   0.071   2.724   2.525 -1.8488  0.6550  1.1199
 6707SOL    HW231755   0.158   2.819   2.592 -1.2451  0.4329 -0.1998
 6708SOL     OW31756   3.149   4.712   7.138  0.0036 -0.1144 -0.5337
 6708SOL    HW131757   3.165   4.665   7.056 -0.7920  1.9666 -1.8823
 6708SOL    HW231758   3.239   4.739   7.154 -0.0975 -0.2672  0.3016
 6709SOL     OW31759   3.514   1.943   4.319 -0.5120 -0.2802  0.3458
 6709SOL    HW131760   3.602   1.907   4.310 -0.1983  0.4450  0.5321
 6709SOL    HW231761   3.490   1.973   4.231  0.1218 -0.3272  0.1531
 6710SOL     OW31762   2.038   2.208  17.502 -0.2817 -0.0073  0.3717
 6710SOL    HW131763   2.061   2.274  17.567 -0.2410  2.1010 -1.8211
 6710SOL    HW231764   2.048   2.250  17.417  1.5169 -0.5289  0.3273
 6711SOL     OW31765   1.397   0.310   2.154  0.0454 -0.4075  0.1935
 6711SOL    HW131766   1.374   0.229   2.200  0.5277 -0.3017  0.6274
 6711SOL    HW231767   1.325   0.315   2.092  0.0287 -0.8196  0.1757
 6712SOL     OW31768   0.873   2.459  16.174 -0.0180  0.7506 -0.1194
 6712SOL    HW131769   0.940   2.523  16.148  0.5619  0.3205  0.3117
 6712SOL    HW231770   0.874   2.403  16.097 -0.0451 -1.7167  1.6577
 6713SOL     OW31771   3.674   0.400   6.643  0.1141 -0.0483  0.8787
 6713SOL    HW131772   3.740   0.350   6.690  0.7921 -0.7840 -0.8785
 6713SOL    HW231773   3.737   0.447   6.587 -1.7588  1.9812  0.4697
 6714SOL     OW31774   3.631   0.819   6.622 -0.3374 -0.6550 -0.2380
 6714SOL    HW131775   3.542   0.854   6.629  0.4349  1.5772 -1.5910
 6714SOL    HW231776   3.652   0.854   6.535 -0.7299 -2.5477 -1.0859
 6715SOL     OW31777   0.841   1.542   8.548  0.1159 -0.2852  0.1087
 6715SOL    HW131778   0.925   1.504   8.524  0.3624 -0.0627  0.6425
 6715SOL    HW231779   0.855   1.561   8.641 -1.6721 -0.4848  0.4239
 6716SOL     OW31780   0.719   2.583   3.713  0.1417 -0.1704 -0.9463
 6716SOL    HW131781   0.734   2.532   3.634  1.0302  0.2932 -1.0752
 6716SOL    HW231782   0.811   2.595   3.735  0.1734  0.2459 -1.3020
 6717SOL     OW31783   1.642   2.786   9.031  0.3744  0.3789  0.3418
 6717SOL    HW131784   1.677   2.698   9.042  0.4573  0.6335  2.1083
 6717SOL    HW231785   1.548   2.770   9.020  1.3531 -2.9301 -3.1892
 6718SOL     OW31786   0.398   0.251  10.308  0.2242  0.5233  0.4279
 6718SOL    HW131787   0.356   0.314  10.249 -0.8234 -0.7100 -0.1432
 6718SOL    HW231788   0.327   0.225  10.368  0.9934 -1.5154  0.4399
 6719SOL     OW31789   0.923   4.683   8.648 -0.0816  0.2297  0.5978
 6719SOL    HW131790   0.992   4.703   8.585 -0.8792 -2.0626 -1.0029
 6719SOL    HW231791   0.846   4.715   8.601 -0.3855 -1.2976  0.0844
 6720SOL     OW31792   1.581   3.358   6.140  0.2912 -0.0833 -0.1128
 6720SOL    HW131793   1.565   3.320   6.226 -1.5028  0.8706 -0.0073
 6720SOL    HW231794   1.506   3.336   6.084  0.4543  1.7189 -1.0626
 6721SOL     OW31795   4.239   0.072   4.405  0.3062 -0.2459 -0.0232
 6721SOL    HW131796   4.282   4.727   4.410 -1.4537 -1.1169  0.3282
 6721SOL    HW231797   4.296   0.126   4.459  0.8886 -0.1522 -0.7297
 6722SOL     OW31798   4.139   3.794   6.662 -0.2846  0.3742 -0.1859
 6722SOL    HW131799   4.222   3.798   6.614 -1.1905  3.2751 -1.4975
 6722SOL    HW231800   4.127   3.701   6.677  2.4923  0.0873  0.3977
 6723SOL     OW31801   2.816   4.633   9.379  0.0733 -0.6214 -0.5093
 6723SOL    HW131802   2.800   4.683   9.459 -0.8603 -1.6083 -0.0830
 6723SOL    HW231803   2.911   4.643   9.370  0.1120 -0.4764  0.0980
 6724SOL     OW31804   0.549   1.677   5.378  0.3902  0.0171  0.0397
 6724SOL    HW131805   0.638   1.704   5.401  0.3605  1.1319 -1.1492
 6724SOL    HW231806   0.510   1.754   5.419  1.4892 -0.3578  1.7859
 6725SOL     OW31807   1.167   0.649   9.560  0.4484  0.1452 -0.0016
 6725SOL    HW131808   1.213   0.714   9.508  2.2313 -0.4258  0.8674
 6725SOL    HW231809   1.101   0.696   9.610  0.9385  1.2966 -0.4494
 6726SOL     OW31810   1.576   3.501   2.841  1.1347  0.0093  0.4137
 6726SOL    HW131811   1.541   3.541   2.920 -1.5213  0.5695 -1.0691
 6726SOL    HW231812   1.500   3.477   2.788  2.4875 -1.8165 -0.7510
 6727SOL     OW31813   1.858   3.593   9.297 -0.0078  0.4199  0.1102
 6727SOL    HW131814   1.899   3.678   9.286 -1.4300  1.3053  1.6046
 6727SOL    HW231815   1.930   3.530   9.293 -0.6817 -0.4366  1.3756
 6728SOL     OW31816   1.554   0.648   2.425 -0.1232 -0.2232  0.6037
 6728SOL    HW131817   1.582   0.656   2.333 -0.3665  0.3038  0.5794
 6728SOL    HW231818   1.519   0.559   2.418  0.5076 -0.3873 -0.6036
 6729SOL     OW31819   3.638   0.649   7.845  0.1617  0.3884  0.8320
 6729SOL    HW131820   3.703   0.694   7.898  2.1788 -2.5497  0.8983
 6729SOL    HW231821   3.567   0.711   7.830 -0.8552 -1.4538 -1.9829
 6730SOL     OW31822   3.964   1.971   4.382  0.0849  0.0298  0.0614
 6730SOL    HW131823   3.934   1.887   4.347 -1.4861  1.0753 -1.1068
 6730SOL    HW231824   4.046   1.986   4.335 -0.4986 -0.0184 -0.9811
 6731SOL     OW31825   1.924   4.429   5.573  0.3319 -0.0445  0.5632
 6731SOL    HW131826   1.995   4.434   5.637  0.4783 -0.1166  0.4065
 6731SOL    HW231827   1.978   4.435   5.494  0.0202 -1.0322  0.2766
 6732SOL     OW31828   2.335   2.235  11.141  0.1278 -0.0698  0.9140
 6732SOL    HW131829   2.380   2.196  11.065 -2.7419 -1.1085 -0.2449
 6732SOL    HW231830   2.406   2.281  11.186 -1.2109  0.7596  2.1491
 6733SOL     OW31831   4.429   2.592   5.366  0.7124  0.3229 -0.4438
 6733SOL    HW131832   4.382   2.640   5.298  0.8622 -1.2095 -1.6330
 6733SOL    HW231833   4.483   2.663   5.401 -0.2383  1.6064 -1.6139
 6734SOL     OW31834   2.558   2.932   8.546 -0.1727  0.7044 -0.3957
 6734SOL    HW131835   2.616   2.911   8.619 -1.7494  0.4290  0.7795
 6734SOL    HW231836   2.471   2.896   8.563  1.2469 -1.0234  3.2283
 6735SOL     OW31837   0.658   2.591   2.347  0.3870 -0.1485  0.0720
 6735SOL    HW131838   0.653   2.677   2.306  0.6029  1.0116  2.5224
 6735SOL    HW231839   0.751   2.571   2.359  0.4333  0.1270  0.1822
 6736SOL     OW31840   1.943   4.146   6.509 -0.1842 -0.1082  0.1516
 6736SOL    HW131841   1.861   4.167   6.465 -0.1364 -1.7488 -0.7470
 6736SOL    HW231842   1.920   4.053   6.510 -0.0485 -0.1809 -4.0030
 6737SOL     OW31843   2.227   4.728   0.919 -0.3697 -0.3426  0.0078
 6737SOL    HW131844   2.272   0.062   0.958 -1.7687  1.5787 -2.0741
 6737SOL    HW231845   2.284   4.720   0.842 -1.0328  3.8887 -0.8928
 6738SOL     OW31846   0.468   2.980  15.164  0.2667  0.6317 -0.1553
 6738SOL    HW131847   0.432   3.054  15.116 -1.9654 -1.4169 -1.5897
 6738SOL    HW231848   0.509   2.942  15.086  0.8446  0.0265  0.4377
 6739SOL     OW31849   1.564   1.449   7.740 -0.6889  0.5168  0.4603
 6739SOL    HW131850   1.477   1.481   7.762 -1.3577 -1.9337  1.4087
 6739SOL    HW231851   1.551   1.360   7.707  1.2968  0.7928 -1.0593
 6740SOL     OW31852   4.097   2.014   4.941 -0.1375  0.2997  0.2440
 6740SOL    HW131853   4.168   1.965   4.983 -0.8995 -0.4124  0.7184
 6740SOL    HW231854   4.137   2.088   4.896  0.0913 -0.6252 -1.0849
 6741SOL     OW31855   0.315   0.407  13.118  0.0817 -0.1311  0.4238
 6741SOL    HW131856   0.268   0.432  13.197  0.3460  0.5349  0.3701
 6741SOL    HW231857   0.310   0.485  13.063  1.6762 -0.1723  0.2368
 6742SOL     OW31858   3.262   1.140  15.479 -0.1630 -0.0745 -0.2585
 6742SOL    HW131859   3.176   1.106  15.503 -1.1514  1.3194 -1.8212
 6742SOL    HW231860   3.276   1.216  15.535 -2.2472  0.2730 -0.2195
 6743SOL     OW31861   2.737   4.072  16.835 -0.4095 -0.2360 -0.2462
 6743SOL    HW131862   2.722   4.129  16.910 -0.4047  0.4933 -0.7943
 6743SOL    HW231863   2.659   4.018  16.825 -0.3387  0.0075 -2.2856
 6744SOL     OW31864   1.727   2.224  16.042  0.2624 -0.0101 -0.1564
 6744SOL    HW131865   1.670   2.178  15.980 -0.6307  0.5870  0.2239
 6744SOL    HW231866   1.694   2.175  16.117  2.6231 -1.7440 -0.2566
 6745SOL     OW31867   4.697   0.947  14.158 -0.1315 -0.3447 -0.0577
 6745SOL    HW131868   4.739   1.030  14.179 -0.5435 -0.0078 -0.5582
 6745SOL    HW231869   4.656   0.964  14.073  0.3377 -0.6719 -0.3490
 6746SOL     OW31870   0.363   1.123  15.156 -0.2508 -0.0089 -0.2525
 6746SOL    HW131871   0.450   1.095  15.187  0.3239 -0.8275 -2.5907
 6746SOL    HW231872   0.310   1.055  15.198  0.1158 -0.2933 -0.2457
 6747SOL     OW31873   0.855   4.732   3.918  1.1664 -0.1520 -0.1885
 6747SOL    HW131874   0.833   4.658   3.862 -0.7571 -0.7564  1.3455
 6747SOL    HW231875   0.945   4.705   3.937  0.4738 -1.8279  0.7449
 6748SOL     OW31876   4.554   3.385   3.813  0.0843 -0.5828 -0.0903
 6748SOL    HW131877   4.497   3.311   3.836 -2.0527  0.8531 -0.7658
 6748SOL    HW231878   4.635   3.335   3.802  0.0569 -0.4964 -0.6764
 6749SOL     OW31879   4.287   3.448   4.833 -0.1969  0.0141 -1.2908
 6749SOL    HW131880   4.373   3.450   4.875 -0.7736 -0.0230 -0.1082
 6749SOL    HW231881   4.267   3.354   4.830  1.8650 -0.4747  0.1721
 6750SOL     OW31882   0.309   0.010  14.768 -0.5951  0.1755 -0.1818
 6750SOL    HW131883   0.400   0.003  14.794 -0.1825 -0.1137 -1.7371
 6750SOL    HW231884   0.298   4.673  14.712  0.8395  0.5095 -0.9056
 6751SOL     OW31885   0.353   1.101  13.050 -0.3860 -0.4184  0.0784
 6751SOL    HW131886   0.291   1.174  13.048  0.9381  0.6886 -0.9339
 6751SOL    HW231887   0.425   1.129  13.106  0.2582 -0.2021 -0.8532
 6752SOL     OW31888   4.307   4.196   2.006 -0.0818  0.2047 -0.0329
 6752SOL    HW131889   4.295   4.287   2.034  1.0316 -0.2270  1.8779
 6752SOL    HW231890   4.217   4.163   2.003  0.4298 -1.3134  1.2883
 6753SOL     OW31891   1.483   0.196   1.874 -0.2779 -0.3331  0.2141
 6753SOL    HW131892   1.420   0.148   1.821  0.7163 -1.3385 -0.0557
 6753SOL    HW231893   1.428   0.253   1.928  1.8354  2.7325 -0.8110
 6754SOL     OW31894   1.040   2.561   9.203  0.4128 -0.3348 -0.1947
 6754SOL    HW131895   1.047   2.487   9.143 -0.5985 -0.6329  0.0491
 6754SOL    HW231896   1.115   2.563   9.263 -0.5173 -0.1017  0.9524
 6755SOL     OW31897   3.854   4.317   6.223 -0.5549 -0.9287  0.3779
 6755SOL    HW131898   3.887   4.360   6.302 -2.3429  1.5796 -0.2150
 6755SOL    HW231899   3.769   4.361   6.219 -0.9252 -1.8195 -1.4861
 6756SOL     OW31900   0.181   1.367  16.638 -0.1597 -0.2368  0.4285
 6756SOL    HW131901   0.127   1.423  16.583  0.0061  1.5739  2.1011
 6756SOL    HW231902   0.249   1.427  16.668  0.8385 -1.6052  0.9369
 6757SOL     OW31903   2.643   4.425  10.241 -0.6746 -0.2365  0.6594
 6757SOL    HW131904   2.631   4.423  10.336 -2.5053 -1.6949  0.3943
 6757SOL    HW231905   2.552   4.427  10.210 -0.3379 -0.6279 -0.3441
 6758SOL     OW31906   4.378   0.964  14.743 -0.1084  0.3280 -0.4375
 6758SOL    HW131907   4.444   0.956  14.673  0.6472 -1.4074  0.4670
 6758SOL    HW231908   4.315   1.028  14.711 -0.2428 -0.2091 -1.2670
 6759SOL     OW31909   2.564   1.517   9.090  0.0003 -0.0358 -0.3913
 6759SOL    HW131910   2.607   1.517   9.005 -0.4532  1.9859 -0.6061
 6759SOL    HW231911   2.506   1.591   9.073 -1.7464 -1.1924  0.5827
 6760SOL     OW31912   4.358   1.755   1.411 -0.2755  0.2967  0.1847
 6760SOL    HW131913   4.403   1.793   1.487  0.5585  2.9575 -1.6592
 6760SOL    HW231914   4.431   1.712   1.366  0.7378  1.1572  0.9873
 6761SOL     OW31915   0.844   2.312   3.272  0.1976  0.5217  0.0568
 6761SOL    HW131916   0.862   2.234   3.220  0.4068 -0.3025  1.3600
 6761SOL    HW231917   0.810   2.366   3.200  0.1533  1.2772  0.6428
 6762SOL     OW31918   0.760   2.323   8.053  0.0843 -0.3312  0.0553
 6762SOL    HW131919   0.689   2.273   8.012  1.0478  0.5574 -2.7382
 6762SOL    HW231920   0.708   2.375   8.115  0.3468  2.2946 -1.9134
 6763SOL     OW31921   3.427   3.593   5.194  0.3870  0.5917 -0.2430
 6763SOL    HW131922   3.475   3.633   5.266  1.4691 -1.8641  0.3870
 6763SOL    HW231923   3.336   3.599   5.225  0.4932  1.7603 -0.1588
 6764SOL     OW31924   2.820   0.024   2.638  0.4096  0.3683  0.0369
 6764SOL    HW131925   2.781   0.064   2.560  1.4637  0.2324 -0.5695
 6764SOL    HW231926   2.877   0.096   2.663  2.2370 -0.3187 -2.1665
 6765SOL     OW31927   2.974   3.309  11.031 -0.0788  0.0517  0.6941
 6765SOL    HW131928   3.029   3.380  10.999  0.5200 -1.7643 -2.2737
 6765SOL    HW231929   2.906   3.309  10.964  0.8124 -1.9424 -0.2153
 6766SOL     OW31930   0.034   3.976   4.164  0.2396 -0.0123  0.1072
 6766SOL    HW131931   0.008   3.964   4.073  1.6774  1.1334 -0.4727
 6766SOL    HW231932   0.114   4.028   4.154  0.1736  0.5554  2.3874
 6767SOL     OW31933   4.239   0.819   2.818  0.7089 -0.0908 -0.3952
 6767SOL    HW131934   4.165   0.839   2.760 -0.6880 -1.4690  0.8799
 6767SOL    HW231935   4.184   0.788   2.890  2.1993  1.3282  1.3196
 6768SOL     OW31936   2.013   0.882   2.704 -0.4059 -0.0991  0.0773
 6768SOL    HW131937   1.994   0.812   2.642 -0.1605 -0.0315 -0.0725
 6768SOL    HW231938   1.963   0.838   2.773 -0.7958 -0.0485 -0.1716
 6769SOL     OW31939   4.222   1.507  12.393  0.1730  0.0497 -0.1281
 6769SOL    HW131940   4.273   1.507  12.474  0.6229  1.6178 -0.4216
 6769SOL    HW231941   4.198   1.414  12.389  0.6405  0.0266 -2.4737
 6770SOL     OW31942   4.069   3.009   1.863  0.3658  0.0746  0.4357
 6770SOL    HW131943   4.060   2.933   1.921 -2.6341  0.3446  0.3142
 6770SOL    HW231944   4.114   2.959   1.794 -0.7487  0.1968 -0.3774
 6771SOL     OW31945   2.150   0.114   0.637 -0.3534 -0.2312 -0.1495
 6771SOL    HW131946   2.224   0.053   0.642  0.4792  0.7023 -1.2190
 6771SOL    HW231947   2.083   0.046   0.638  0.0443 -0.6900 -4.4626
 6772SOL     OW31948   0.572   2.116   7.272 -0.4970  0.0649  0.1213
 6772SOL    HW131949   0.584   2.134   7.365  2.2633 -2.0157  0.1820
 6772SOL    HW231950   0.480   2.089   7.262 -0.0453 -1.2333 -0.5514
 6773SOL     OW31951   2.631   2.757  11.706  0.4995 -0.1735 -0.4765
 6773SOL    HW131952   2.607   2.669  11.737  1.6198 -0.8807 -1.6570
 6773SOL    HW231953   2.707   2.776  11.762 -1.0407 -0.0447  1.5974
 6774SOL     OW31954   3.671   0.427   3.978 -0.4114  0.2804  0.6034
 6774SOL    HW131955   3.702   0.338   3.962 -0.4510 -0.0049  2.1157
 6774SOL    HW231956   3.581   0.429   3.944  0.2853 -1.2609 -1.3717
 6775SOL     OW31957   4.127   3.495   2.646 -0.5285 -0.3841 -0.1089
 6775SOL    HW131958   4.170   3.563   2.594  0.2605  1.8586  3.5283
 6775SOL    HW231959   4.068   3.456   2.581 -0.7100  0.5888 -0.5308
 6776SOL     OW31960   4.605   3.218   5.518 -0.1302  0.3090  0.0078
 6776SOL    HW131961   4.693   3.233   5.553 -0.8193  0.6488  1.5934
 6776SOL    HW231962   4.565   3.243   5.602 -1.8223 -0.5087 -0.5530
 6777SOL     OW31963   2.067   0.458   8.890 -0.2551  0.0998  0.1510
 6777SOL    HW131964   2.108   0.411   8.818  1.5256  0.7650  0.7419
 6777SOL    HW231965   1.980   0.478   8.855 -0.9902  0.7574  2.3275
 6778SOL     OW31966   1.068   0.182   2.343  0.4373 -0.0603 -0.3344
 6778SOL    HW131967   0.983   0.150   2.314  0.3053 -0.5157  0.5475
 6778SOL    HW231968   1.125   0.105   2.343 -0.0853 -0.4427  0.1164
 6779SOL     OW31969   3.145   3.092   4.593  0.0652 -0.1598 -0.2792
 6779SOL    HW131970   3.122   3.141   4.515  0.7110  0.2614 -0.2072
 6779SOL    HW231971   3.234   3.124   4.608  0.3580 -1.6893  1.3211
 6780SOL     OW31972   1.194   1.122   8.555 -0.3778 -0.4253 -0.3470
 6780SOL    HW131973   1.240   1.164   8.628 -1.4630 -0.2639  0.2396
 6780SOL    HW231974   1.107   1.116   8.593 -0.8428  2.9135 -0.8996
 6781SOL     OW31975   2.187   2.663   0.792  0.0984 -0.3813 -0.1903
 6781SOL    HW131976   2.222   2.688   0.706  0.0845 -0.8229 -0.3238
 6781SOL    HW231977   2.139   2.582   0.778  1.9727 -1.7026  1.0167
 6782SOL     OW31978   1.019   2.038   6.689 -0.4039 -0.0476 -0.4128
 6782SOL    HW131979   1.078   1.979   6.642  2.7281  1.3029  1.8608
 6782SOL    HW231980   1.076   2.068   6.759 -1.7878  1.3868  0.1137
 6783SOL     OW31981   2.578   2.006   5.726  0.5725  0.6339 -0.7155
 6783SOL    HW131982   2.511   1.976   5.664  2.1176 -4.7952  0.2487
 6783SOL    HW231983   2.652   1.997   5.666 -0.3184 -0.5117 -1.6453
 6784SOL     OW31984   0.418   0.384   7.542 -0.2766  0.1436 -0.3152
 6784SOL    HW131985   0.384   0.327   7.610  1.0379  0.2995  0.4793
 6784SOL    HW231986   0.344   0.444   7.532 -0.3792  0.1649  0.5946
 6785SOL     OW31987   3.047   1.242   3.871 -0.4935  0.3054  0.1784
 6785SOL    HW131988   3.142   1.241   3.878 -0.6768 -0.4281  2.4748
 6785SOL    HW231989   3.038   1.147   3.865 -2.8372  0.5766 -0.4990
 6786SOL     OW31990   2.042   3.323   3.093 -0.1081 -0.5244  0.0690
 6786SOL    HW131991   1.973   3.287   3.038  0.1345 -2.1719  0.8384
 6786SOL    HW231992   2.114   3.260   3.088 -0.1739 -0.6981  1.3165
 6787SOL     OW31993   1.959   4.211  17.576 -0.3572 -0.4192  0.0043
 6787SOL    HW131994   2.014   4.234  17.650 -1.1916 -2.8310  1.3826
 6787SOL    HW231995   2.018   4.237  17.505 -0.1674  1.3578  0.8367
 6788SOL     OW31996   4.164   4.171   7.998 -0.4596  0.4778 -0.1539
 6788SOL    HW131997   4.224   4.147   8.068 -1.7602 -0.9302  0.4741
 6788SOL    HW231998   4.221   4.146   7.925 -0.6861 -3.2972  0.9692
 6789SOL     OW31999   4.001   3.190   1.537 -0.0808 -0.1358 -0.0211
 6789SOL    HW132000   4.086   3.161   1.503 -1.3211  0.2751 -3.5542
 6789SOL    HW232001   3.936   3.129   1.500  0.5353 -0.5484 -0.4401
 6790SOL     OW32002   1.472   1.684   7.431 -0.0372  0.0889  0.5131
 6790SOL    HW132003   1.563   1.710   7.422 -1.1419  3.4588 -0.9253
 6790SOL    HW232004   1.480   1.590   7.415  1.3478  0.7459 -2.5948
 6791SOL     OW32005   0.960   1.100   8.708  0.1918  0.0770  0.0283
 6791SOL    HW132006   0.868   1.077   8.702 -0.0275  1.3646 -1.5187
 6791SOL    HW232007   0.961   1.168   8.775 -0.0388 -0.2371  0.3488
 6792SOL     OW32008   3.081   2.572   3.869 -0.1622 -0.4032 -0.2697
 6792SOL    HW132009   3.085   2.595   3.776 -4.3604 -1.5414 -0.7225
 6792SOL    HW232010   2.988   2.551   3.877 -0.1791  0.2042  1.1396
 6793SOL     OW32011   3.996   1.816   4.139  0.0701 -0.0161  0.7897
 6793SOL    HW132012   4.032   1.732   4.168 -0.7264 -0.5240  0.2780
 6793SOL    HW232013   4.063   1.858   4.085 -1.5678 -0.8014 -1.8109
 6794SOL     OW32014   0.660   4.183   8.311 -0.7060  0.2163  0.6398
 6794SOL    HW132015   0.617   4.117   8.365  2.0119 -0.6940  1.6513
 6794SOL    HW232016   0.648   4.156   8.220 -2.7937 -2.1021  1.6134
 6795SOL     OW32017   2.710   0.733   4.194 -0.0012  0.4533 -0.0040
 6795SOL    HW132018   2.637   0.679   4.165 -0.4953  0.4800  1.1726
 6795SOL    HW232019   2.688   0.819   4.158  0.9202  0.9920  0.7105
 6796SOL     OW32020   3.372   4.375   1.673  0.1955 -0.5282 -0.2386
 6796SOL    HW132021   3.467   4.368   1.672  0.3213  1.1312 -1.1136
 6796SOL    HW232022   3.361   4.471   1.674 -3.0478 -0.8817 -1.7955
 6797SOL     OW32023   4.725   3.421   1.804 -0.0940  0.3054 -0.0118
 6797SOL    HW132024   4.647   3.474   1.789  0.2679  0.7090 -0.4776
 6797SOL    HW232025   4.694   3.334   1.780  1.1602 -1.1359  3.6039
 6798SOL     OW32026   1.339   2.736   1.913 -0.0919 -0.0305 -0.1888
 6798SOL    HW132027   1.393   2.804   1.954  1.5005 -1.3017 -0.1455
 6798SOL    HW232028   1.321   2.677   1.986 -1.8008  0.4917 -0.2095
 6799SOL     OW32029   3.060   2.695   1.118 -0.3458 -0.2626  0.2821
 6799SOL    HW132030   2.966   2.688   1.131 -0.3139 -0.2762  0.4953
 6799SOL    HW232031   3.069   2.789   1.098  0.0291 -0.7476 -1.9244
 6800SOL     OW32032   2.795   2.148  14.108 -0.0073  0.3769  0.0513
 6800SOL    HW132033   2.855   2.201  14.161  1.3176 -0.2329 -0.8172
 6800SOL    HW232034   2.870   2.094  14.080  0.0928  0.2127  0.6439
 6801SOL     OW32035   0.905   2.023   9.118 -0.1252  0.0461 -0.2156
 6801SOL    HW132036   0.937   1.943   9.160  2.9548  0.8317 -1.0150
 6801SOL    HW232037   0.836   1.988   9.062 -1.2384 -2.3603  2.6858
 6802SOL     OW32038   4.275   3.158   2.578 -0.0082 -0.4761  0.9204
 6802SOL    HW132039   4.271   3.190   2.668  4.4839  0.4422  0.8143
 6802SOL    HW232040   4.340   3.215   2.537  0.6096 -1.1016  1.0180
 6803SOL     OW32041   2.130   1.014   3.203  0.0070 -0.3102 -0.1815
 6803SOL    HW132042   2.172   1.007   3.289  1.3801 -0.2455 -0.8450
 6803SOL    HW232043   2.166   0.942   3.152 -0.3877 -1.5204  1.2286
 6804SOL     OW32044   2.336   4.451   9.722 -0.8569 -0.1676  0.1975
 6804SOL    HW132045   2.265   4.489   9.775 -1.2346  0.7412 -0.9559
 6804SOL    HW232046   2.352   4.522   9.660 -0.6303  0.1935  0.6635
 6805SOL     OW32047   4.380   3.787   8.283 -0.0342 -0.0750 -0.5699
 6805SOL    HW132048   4.363   3.858   8.344 -0.6139 -1.0102  0.3707
 6805SOL    HW232049   4.314   3.727   8.317 -1.3080  1.8451  0.3293
 6806SOL     OW32050   0.738   0.573   5.877  0.3903 -0.1277  0.0039
 6806SOL    HW132051   0.779   0.503   5.928  0.4461  0.4248  0.7116
 6806SOL    HW232052   0.645   0.571   5.902 -0.1433  1.3573 -1.8210
 6807SOL     OW32053   3.309   4.438  15.979  0.3118 -0.5374  0.2282
 6807SOL    HW132054   3.400   4.428  16.006  0.3793  0.8810  0.5026
 6807SOL    HW232055   3.294   4.530  16.000 -0.2109 -1.1848  2.6519
 6808SOL     OW32056   2.905   4.285   7.040  0.0961 -0.2720  0.1457
 6808SOL    HW132057   2.811   4.279   7.060  0.0427  1.7521  0.5907
 6808SOL    HW232058   2.915   4.380   7.047  0.3827 -0.3108  0.2454
 6809SOL     OW32059   1.468   1.567   1.457  0.5245  0.3424 -0.2529
 6809SOL    HW132060   1.385   1.543   1.498 -1.0924  1.7210 -2.7265
 6809SOL    HW232061   1.511   1.548   1.541 -2.1137  0.2326  1.0816
 6810SOL     OW32062   0.641   4.195  11.490 -0.6566  0.0059 -0.2298
 6810SOL    HW132063   0.677   4.114  11.453 -0.9331 -0.9023  1.5156
 6810SOL    HW232064   0.550   4.189  11.460 -0.9362  0.7336  0.4795
 6811SOL     OW32065   3.361   3.986   2.786 -0.6108 -0.0830  0.0564
 6811SOL    HW132066   3.456   3.990   2.785 -0.6115 -0.7697 -1.7749
 6811SOL    HW232067   3.338   3.945   2.870 -1.8254  2.9455  1.1912
 6812SOL     OW32068   2.556   2.004   5.093  0.0630  0.5199 -0.0516
 6812SOL    HW132069   2.505   2.082   5.074  0.3626  0.8815  0.6545
 6812SOL    HW232070   2.639   2.042   5.123 -0.0506  0.8750 -0.1856
 6813SOL     OW32071   1.050   0.619   4.965 -0.3465 -0.1088  0.5720
 6813SOL    HW132072   1.054   0.546   4.903 -0.4627  0.8778 -0.6199
 6813SOL    HW232073   1.137   0.658   4.954 -0.3814 -0.3743 -0.6835
 6814SOL     OW32074   4.044   2.261   1.631 -0.3582 -0.3698  0.1881
 6814SOL    HW132075   3.960   2.243   1.672 -0.7994 -1.9756 -1.4151
 6814SOL    HW232076   4.093   2.180   1.646  0.6846 -0.1841 -2.2521
 6815SOL     OW32077   0.552   0.791  12.221  0.4139 -0.5949 -0.2017
 6815SOL    HW132078   0.557   0.796  12.317  1.9906  1.6908 -0.4090
 6815SOL    HW232079   0.576   0.882  12.204 -0.0174 -0.1182  1.7111
 6816SOL     OW32080   2.898   0.778   8.715  0.4219  0.7458  0.1729
 6816SOL    HW132081   2.968   0.753   8.654 -0.9478 -0.2552 -0.9643
 6816SOL    HW232082   2.866   0.690   8.735 -0.9952  1.1065 -0.5359
 6817SOL     OW32083   2.543   3.194   2.079  0.2315 -0.6579 -0.1733
 6817SOL    HW132084   2.484   3.170   2.007  1.0710  2.9021 -2.0094
 6817SOL    HW232085   2.504   3.135   2.144  1.1535  1.4443  2.2772
 6818SOL     OW32086   2.326   2.694  15.176 -0.0965  0.0884 -0.3382
 6818SOL    HW132087   2.328   2.601  15.155 -5.3541  0.2295 -1.4765
 6818SOL    HW232088   2.238   2.721  15.148 -0.7929  0.6595  2.3605
 6819SOL     OW32089   1.589   4.431  11.181  0.2660 -0.5352  0.1167
 6819SOL    HW132090   1.652   4.444  11.252 -0.2301  1.7865  0.1173
 6819SOL    HW232091   1.511   4.439  11.236  0.3880 -1.4545  0.4313
 6820SOL     OW32092   2.574   3.061  15.444  0.3893  0.0035 -0.3873
 6820SOL    HW132093   2.499   3.088  15.497  1.0844  3.5079 -1.2348
 6820SOL    HW232094   2.577   2.971  15.478  1.6444  0.7760  1.5425
 6821SOL     OW32095   3.221   0.958   8.784  0.4653 -0.0216  0.5009
 6821SOL    HW132096   3.252   1.008   8.709  0.5449  2.2994  2.0963
 6821SOL    HW232097   3.179   1.024   8.838 -0.1041 -1.0873  1.3491
 6822SOL     OW32098   2.189   4.396   8.164  0.3104 -0.0666 -0.1372
 6822SOL    HW132099   2.152   4.476   8.126  0.3733 -0.1017 -0.2734
 6822SOL    HW232100   2.175   4.417   8.256  0.8127 -0.7195  0.0838
 6823SOL     OW32101   2.260   0.762   5.714 -0.1066 -0.5765  0.0403
 6823SOL    HW132102   2.300   0.824   5.775  0.9137  0.8759 -2.1032
 6823SOL    HW232103   2.338   0.715   5.683  1.4134  0.8671  1.6340
 6824SOL     OW32104   3.387   3.424  14.574  0.0679 -0.0596 -0.2135
 6824SOL    HW132105   3.382   3.446  14.481 -0.6170  0.9489  0.0508
 6824SOL    HW232106   3.455   3.357  14.569 -0.8843 -1.0487  0.0386
 6825SOL     OW32107   1.794   0.412   9.358  0.0766 -0.1115 -0.5581
 6825SOL    HW132108   1.886   0.434   9.370  0.0853 -0.8285  0.7306
 6825SOL    HW232109   1.786   0.413   9.263  2.6935  0.8756 -0.7581
 6826SOL     OW32110   3.770   1.945  15.523 -0.1349 -0.0950 -0.8343
 6826SOL    HW132111   3.863   1.937  15.504  0.5147  1.3472  1.7755
 6826SOL    HW232112   3.772   2.001  15.600  1.2473 -3.5247  1.6422
 6827SOL     OW32113   3.935   3.484  13.912  0.3991 -0.2993  0.3625
 6827SOL    HW132114   3.953   3.437  13.831 -0.1895  0.6369 -0.3010
 6827SOL    HW232115   3.851   3.524  13.893 -1.5084 -3.8511  1.2575
 6828SOL     OW32116   4.038   1.810   7.266  0.0916 -0.1276 -0.6522
 6828SOL    HW132117   3.974   1.879   7.246 -1.1780 -1.5054 -1.3160
 6828SOL    HW232118   4.005   1.736   7.215 -0.8962 -0.2964  0.2431
 6829SOL     OW32119   0.381   0.830  13.500  0.0452  0.0477  0.5307
 6829SOL    HW132120   0.413   0.864  13.416  0.6019 -0.5958  0.4850
 6829SOL    HW232121   0.331   0.905  13.531 -1.5318 -0.5572 -0.5692
 6830SOL     OW32122   2.164   1.376  17.376 -0.5170  0.3073  0.1806
 6830SOL    HW132123   2.127   1.288  17.381 -3.6033  1.5096 -1.9389
 6830SOL    HW232124   2.140   1.422  17.296 -1.6328 -1.5163 -0.5389
 6831SOL     OW32125   0.093   1.157   2.493  0.0044 -0.0056 -0.1829
 6831SOL    HW132126   0.025   1.210   2.534 -2.1663 -1.6700 -1.6346
 6831SOL    HW232127   0.095   1.198   2.407 -0.9046  1.1462  0.3450
 6832SOL     OW32128   3.081   3.253  16.187  0.3542  0.5073  0.1065
 6832SOL    HW132129   3.023   3.213  16.123  1.5537 -0.1113 -0.5899
 6832SOL    HW232130   3.110   3.327  16.133  0.2599 -0.5116 -1.3368
 6833SOL     OW32131   1.844   1.967   9.547 -0.1925  0.3448 -0.2334
 6833SOL    HW132132   1.868   2.032   9.614 -1.2883  2.3524 -1.7780
 6833SOL    HW232133   1.771   2.007   9.499 -0.1963 -2.1456 -2.2869
 6834SOL     OW32134   0.818   1.701   2.885  0.2964 -0.3536 -0.0498
 6834SOL    HW132135   0.737   1.711   2.933 -0.7356  1.7180 -2.1924
 6834SOL    HW232136   0.852   1.624   2.930 -0.2659 -0.6250 -0.0919
 6835SOL     OW32137   3.789   0.966  16.568  0.1254 -0.2072  0.5510
 6835SOL    HW132138   3.729   0.892  16.564 -0.2791  0.1956 -0.8567
 6835SOL    HW232139   3.726   1.034  16.592  0.1671 -1.0773  3.0963
 6836SOL     OW32140   0.983   0.333   8.184 -0.0956  0.9157 -0.2713
 6836SOL    HW132141   0.967   0.362   8.094  0.4166  0.4384 -0.5129
 6836SOL    HW232142   0.951   0.243   8.184  1.5963  0.3186 -1.8622
 6837SOL     OW32143   3.263   2.018   8.220  0.1550 -0.5968 -0.2734
 6837SOL    HW132144   3.318   2.095   8.207 -1.9770  1.2650  1.6830
 6837SOL    HW232145   3.270   1.971   8.137  0.2162  1.1801 -1.2637
 6838SOL     OW32146   1.770   3.282   3.064  0.2472 -0.2162  0.3156
 6838SOL    HW132147   1.729   3.283   2.977  1.4541 -2.7328 -0.2680
 6838SOL    HW232148   1.728   3.356   3.107 -0.9334 -0.2924 -0.6894
 6839SOL     OW32149   4.184   1.780   4.482  0.5059  0.3172 -0.1035
 6839SOL    HW132150   4.120   1.735   4.538 -0.0713 -1.1985 -1.9306
 6839SOL    HW232151   4.264   1.743   4.519  0.8183  0.1142 -0.9891
 6840SOL     OW32152   1.101   0.083   7.862  0.2954  0.0794 -0.5084
 6840SOL    HW132153   1.079   0.172   7.834 -3.0603  0.1592  2.3659
 6840SOL    HW232154   1.192   0.086   7.892 -0.0271 -0.1046  0.4957
 6841SOL     OW32155   0.553   0.040   8.933  0.2534 -0.1122  0.2614
 6841SOL    HW132156   0.487   0.109   8.925 -0.9844 -1.3148  0.0310
 6841SOL    HW232157   0.495   4.703   8.935 -2.0366  1.6049  0.0851
 6842SOL     OW32158   4.107   1.672   2.181 -0.6974  0.6065 -0.1587
 6842SOL    HW132159   4.123   1.581   2.203 -0.0114  0.7457 -0.1034
 6842SOL    HW232160   4.160   1.716   2.247 -1.2587  0.7220  0.2214
 6843SOL     OW32161   0.384   1.164  14.890  0.5038 -0.3204 -0.4530
 6843SOL    HW132162   0.310   1.113  14.855  0.5913  0.4583 -1.7669
 6843SOL    HW232163   0.368   1.149  14.984  0.9709  2.3111  0.0308
 6844SOL     OW32164   0.246   1.880   8.646 -0.7602 -0.1340  0.2803
 6844SOL    HW132165   0.295   1.936   8.586 -1.0412  0.8166  0.9496
 6844SOL    HW232166   0.155   1.898   8.623 -1.3387 -1.4486  1.5351
 6845SOL     OW32167   2.050   1.262   3.162  0.1987  0.5047  0.2287
 6845SOL    HW132168   2.055   1.242   3.069 -2.9727  0.9135 -0.0294
 6845SOL    HW232169   2.076   1.177   3.196 -0.0618  0.6327  0.7396
 6846SOL     OW32170   3.817   2.988   5.429  0.3579 -0.2112 -0.0809
 6846SOL    HW132171   3.823   2.939   5.347 -3.1511  1.8991 -1.6176
 6846SOL    HW232172   3.885   2.941   5.475 -0.9552 -1.7529  0.2935
 6847SOL     OW32173   3.035   4.107   5.008  0.4309  0.1073  1.1069
 6847SOL    HW132174   3.056   4.164   4.934 -1.7167  1.7349  1.7539
 6847SOL    HW232175   2.940   4.105   4.999  0.2974  0.7691  2.4134
 6848SOL     OW32176   2.318   0.651   5.108 -0.2013 -0.0844  0.2702
 6848SOL    HW132177   2.228   0.634   5.078  0.2483 -0.7174 -0.7155
 6848SOL    HW232178   2.359   0.571   5.076 -0.8076 -0.4257  0.3442
 6849SOL     OW32179   3.512   0.403  11.459  0.2444 -0.2129  0.2384
 6849SOL    HW132180   3.581   0.338  11.453 -0.0516 -0.5646  0.6283
 6849SOL    HW232181   3.564   0.483  11.461 -0.0309 -0.0431  0.7586
 6850SOL     OW32182   0.605   4.530   4.113  0.0343  0.1952 -0.5901
 6850SOL    HW132183   0.700   4.538   4.113  0.0977 -0.5782  0.6607
 6850SOL    HW232184   0.602   4.436   4.092  0.1387  0.1419 -0.3579
 6851SOL     OW32185   2.598   1.373   8.466  0.4696  0.3963 -0.9493
 6851SOL    HW132186   2.681   1.348   8.506 -0.0556 -1.4041 -0.9871
 6851SOL    HW232187   2.624   1.404   8.379 -2.6865 -1.2722 -2.5237
 6852SOL     OW32188   3.943   3.227   5.788 -0.0178  0.4320  0.1696
 6852SOL    HW132189   3.930   3.150   5.733  0.9544  0.1022  0.4036
 6852SOL    HW232190   3.853   3.248   5.815 -0.3302 -1.2024  0.4007
 6853SOL     OW32191   3.355   1.935   3.916 -0.0518 -0.0562 -0.0300
 6853SOL    HW132192   3.290   1.966   3.853  2.0182  2.1338 -1.1017
 6853SOL    HW232193   3.364   2.004   3.982  0.2948 -0.8145  0.7174
 6854SOL     OW32194   0.542   0.288   3.090 -0.0760  0.0367  0.8433
 6854SOL    HW132195   0.533   0.310   3.182 -0.5390  0.1233  0.7752
 6854SOL    HW232196   0.493   0.353   3.040 -0.2494 -2.0958 -1.7938
 6855SOL     OW32197   2.621   1.781   8.702  0.0984 -0.5155  0.8156
 6855SOL    HW132198   2.553   1.774   8.769  0.2714  0.9155  1.1567
 6855SOL    HW232199   2.592   1.711   8.644  1.0307 -1.3241  1.3248
 6856SOL     OW32200   3.915   3.084  13.670  0.0089 -0.1106  0.8617
 6856SOL    HW132201   3.871   3.087  13.755 -2.4355 -2.3779 -0.3555
 6856SOL    HW232202   4.001   3.045  13.689  0.8534  1.3438  0.0731
 6857SOL     OW32203   1.199   4.298   1.993 -0.0207  0.0257  0.2547
 6857SOL    HW132204   1.165   4.366   2.051 -1.1084 -0.3625  0.0839
 6857SOL    HW232205   1.136   4.294   1.920 -0.1157 -0.4938  0.3625
 6858SOL     OW32206   1.714   3.163  11.307 -0.4053 -0.0226  0.5412
 6858SOL    HW132207   1.686   3.116  11.228  3.6666 -0.5466 -0.6055
 6858SOL    HW232208   1.786   3.110  11.341  0.7563  1.5270  0.5078
 6859SOL     OW32209   1.917   2.986   8.281  0.0140 -0.2822 -0.0282
 6859SOL    HW132210   1.903   2.894   8.260 -0.5744 -0.8319  2.7513
 6859SOL    HW232211   1.837   3.006   8.330  0.1219  0.8638 -0.3222
 6860SOL     OW32212   2.408   3.349   6.908 -0.7432  0.3203  0.8297
 6860SOL    HW132213   2.498   3.324   6.928 -0.1995  2.4670  1.0997
 6860SOL    HW232214   2.404   3.437   6.945 -1.3354  0.2070  1.0451
 6861SOL     OW32215   0.380   4.564   7.400  0.9161  0.0454  0.3229
 6861SOL    HW132216   0.471   4.535   7.390  0.6037 -1.2876  1.5715
 6861SOL    HW232217   0.386   4.614   7.481 -0.7967 -0.6984  0.8895
 6862SOL     OW32218   3.454   1.871   4.571  0.9416  0.1504  0.0056
 6862SOL    HW132219   3.520   1.902   4.633  3.4725 -0.8522 -2.1945
 6862SOL    HW232220   3.467   1.917   4.489 -1.9809 -0.5209 -0.8429
 6863SOL     OW32221   3.778   4.711   6.822 -0.0946 -0.5436  0.0867
 6863SOL    HW132222   3.707   4.728   6.885  0.9889 -1.5928  1.5904
 6863SOL    HW232223   3.730   4.677   6.746 -0.6414  1.0945 -0.2863
 6864SOL     OW32224   1.488   0.370  17.009 -0.3252  0.4320  0.1010
 6864SOL    HW132225   1.473   0.449  16.956  0.3757 -1.2564 -2.6184
 6864SOL    HW232226   1.479   0.400  17.099 -1.1852 -0.0593  0.1739
 6865SOL     OW32227   4.286   3.378   4.452  0.0788 -0.2230  0.1980
 6865SOL    HW132228   4.285   3.393   4.358 -1.3297  0.5261  0.3332
 6865SOL    HW232229   4.221   3.309   4.470 -1.6863  1.4590  0.2732
 6866SOL     OW32230   2.405   1.107   0.035  0.6452  0.4753  0.1805
 6866SOL    HW132231   2.453   1.189   0.045  1.9604 -0.2854  0.2550
 6866SOL    HW232232   2.415   1.065   0.120 -1.5638 -1.0370 -0.3161
 6867SOL     OW32233   2.457   1.875  17.200  0.1251  0.3050  0.0631
 6867SOL    HW132234   2.472   1.781  17.189 -0.6845 -0.0267  1.7635
 6867SOL    HW232235   2.545   1.907  17.178 -0.3784  2.9372  1.8787
 6868SOL     OW32236   3.122   0.113   8.877  0.1206  0.8590  0.3803
 6868SOL    HW132237   3.211   0.088   8.900 -0.2358 -1.4802 -0.8604
 6868SOL    HW232238   3.083   0.026   8.884  0.8935  0.3998 -1.2258
 6869SOL     OW32239   1.051   0.683   7.352  0.2929 -0.2552  0.3069
 6869SOL    HW132240   0.970   0.632   7.359  1.7581 -2.1736  2.9426
 6869SOL    HW232241   1.106   0.614   7.315  1.6195  0.7202  0.4886
 6870SOL     OW32242   3.839   0.384   5.546 -0.0884  0.3923 -0.3853
 6870SOL    HW132243   3.753   0.379   5.505  0.5832 -1.4389 -1.5851
 6870SOL    HW232244   3.823   0.313   5.607  0.3290 -0.5443 -1.3563
 6871SOL     OW32245   0.970   0.058   4.615  0.1853 -0.0787 -0.3159
 6871SOL    HW132246   0.968   0.048   4.520 -3.9481  1.6774 -0.4073
 6871SOL    HW232247   0.920   0.140   4.617 -0.9944 -0.8180  0.2087
 6872SOL     OW32248   1.236   2.442   0.532  0.0260 -0.1133  0.2602
 6872SOL    HW132249   1.252   2.353   0.564 -0.2316  0.6771  2.5526
 6872SOL    HW232250   1.160   2.462   0.587 -0.8034 -0.1182 -0.8888
 6873SOL     OW32251   2.005   2.699   6.975 -0.2693 -0.2881 -0.6954
 6873SOL    HW132252   1.979   2.607   6.983 -0.0476 -0.3781 -1.0082
 6873SOL    HW232253   1.933   2.753   6.941 -1.0351 -0.5123  0.5832
 6874SOL     OW32254   2.618   3.100  13.152 -0.4826 -0.3010 -0.3973
 6874SOL    HW132255   2.636   3.194  13.152 -1.1249 -0.1789 -0.5130
 6874SOL    HW232256   2.535   3.095  13.104 -1.3059  2.0348  0.7915
 6875SOL     OW32257   2.264   2.784   2.083  0.0817  0.2222  0.0616
 6875SOL    HW132258   2.226   2.864   2.119  0.5618  0.2734  0.4471
 6875SOL    HW232259   2.338   2.759   2.138 -0.5742 -1.6984  0.0697
 6876SOL     OW32260   0.258   4.410   9.519 -0.0396  0.3682  0.4670
 6876SOL    HW132261   0.315   4.348   9.475  1.7227  2.3096 -0.0046
 6876SOL    HW232262   0.173   4.390   9.481  0.0151  0.1189  0.4785
 6877SOL     OW32263   4.569   0.035   2.355  0.0851  0.0093  0.0344
 6877SOL    HW132264   4.658   0.068   2.370  0.5100 -1.8581  1.5910
 6877SOL    HW232265   4.587   4.710   2.288  1.2690 -0.2174  0.5607
 6878SOL     OW32266   2.068   3.548  10.545  0.8572 -0.1421 -0.0104
 6878SOL    HW132267   2.146   3.531  10.599 -1.3893  0.4531  3.4293
 6878SOL    HW232268   2.111   3.593  10.473 -0.2480  1.2694  0.2189
 6879SOL     OW32269   1.473   0.457  16.715 -0.1551  0.0259 -0.0609
 6879SOL    HW132270   1.463   0.437  16.622  1.5107  2.2207 -0.7431
 6879SOL    HW232271   1.561   0.494  16.725 -1.3116  2.1921  2.0287
 6880SOL     OW32272   3.578   2.977  17.328 -0.1610 -0.6293  0.4925
 6880SOL    HW132273   3.545   2.954  17.241  0.4087  1.1261 -0.1941
 6880SOL    HW232274   3.673   2.975  17.332 -0.1703  0.7172  1.5692
 6881SOL     OW32275   0.380   3.888   6.537  0.1447  0.1929 -0.3972
 6881SOL    HW132276   0.336   3.972   6.529  0.6099  0.4152 -0.6336
 6881SOL    HW232277   0.311   3.836   6.496  0.9754 -0.9799 -0.3199
 6882SOL     OW32278   4.400   2.373   3.180 -0.6516 -0.0398  0.0483
 6882SOL    HW132279   4.467   2.325   3.132  2.4169  1.4479  2.7798
 6882SOL    HW232280   4.373   2.439   3.116 -0.0471 -0.6490 -0.8346
 6883SOL     OW32281   0.953   3.497  12.247 -0.3821 -0.1591 -0.3001
 6883SOL    HW132282   0.996   3.434  12.304 -3.7246 -0.4075  1.9971
 6883SOL    HW232283   0.954   3.576  12.301 -1.5105 -1.2622  1.3535
 6884SOL     OW32284   3.362   3.596  15.521 -0.1446  0.5460  0.2524
 6884SOL    HW132285   3.301   3.527  15.547  3.0060 -2.1101  0.5528
 6884SOL    HW232286   3.314   3.652  15.460 -1.6418 -0.0938  0.8505
 6885SOL     OW32287   1.790   1.453   6.674 -0.1809 -0.4972  0.4964
 6885SOL    HW132288   1.735   1.388   6.630  0.6422  0.6286 -2.2000
 6885SOL    HW232289   1.843   1.481   6.599  1.1767  0.8754  1.9756
 6886SOL     OW32290   2.857   0.283   7.338 -0.0855 -0.1131 -0.5002
 6886SOL    HW132291   2.886   0.261   7.426  3.3198 -1.7750 -2.0237
 6886SOL    HW232292   2.779   0.230   7.329  0.0547 -0.1687 -1.4075
 6887SOL     OW32293   1.869   3.324   5.230 -0.3044  0.1553 -0.5308
 6887SOL    HW132294   1.832   3.403   5.270 -0.4422 -0.2357  0.1241
 6887SOL    HW232295   1.961   3.349   5.225  0.0104 -1.1601 -1.2686
 6888SOL     OW32296   0.337   0.695   7.715 -0.6681 -0.4035  0.0370
 6888SOL    HW132297   0.271   0.679   7.782 -0.6240  2.1002  0.6903
 6888SOL    HW232298   0.301   0.643   7.643  1.1950 -1.2855 -0.2490
 6889SOL     OW32299   4.172   3.744  16.122  0.1583  0.2729  0.0613
 6889SOL    HW132300   4.226   3.753  16.200  0.8293  2.5675 -0.6642
 6889SOL    HW232301   4.231   3.737  16.048 -0.7463  0.9859 -0.7276
 6890SOL     OW32302   2.652   3.601   5.402  0.8129  0.2095  0.3827
 6890SOL    HW132303   2.622   3.516   5.434  0.5127  0.8431  1.7684
 6890SOL    HW232304   2.737   3.612   5.445 -0.1569  3.8855  1.2724
 6891SOL     OW32305   3.162   0.938   7.082 -0.0049  0.2336  0.1986
 6891SOL    HW132306   3.208   0.870   7.131 -0.2140  0.0485  0.1372
 6891SOL    HW232307   3.080   0.941   7.131  1.1269  0.8947  2.0698
 6892SOL     OW32308   4.076   0.827   7.070 -0.3316 -0.7624  0.0685
 6892SOL    HW132309   3.990   0.862   7.095 -0.0469 -0.1003  0.1300
 6892SOL    HW232310   4.047   0.756   7.012  2.4172  0.4016 -2.7053
 6893SOL     OW32311   3.304   1.187   3.900  0.3140 -0.3474 -0.0659
 6893SOL    HW132312   3.358   1.231   3.966  1.5459 -1.8590 -0.0601
 6893SOL    HW232313   3.279   1.101   3.935  0.4169 -0.0940  0.6383
 6894SOL     OW32314   2.624   1.154  16.693 -0.1588  0.1258  0.1097
 6894SOL    HW132315   2.617   1.232  16.638 -1.5045  0.6761  1.0543
 6894SOL    HW232316   2.567   1.091  16.650  0.6900 -1.0861  0.7627
 6895SOL     OW32317   1.098   1.238  11.559 -0.3504 -0.2121  0.0946
 6895SOL    HW132318   1.095   1.282  11.474 -2.0189  0.0035  0.2566
 6895SOL    HW232319   1.098   1.145  11.537 -3.7474 -0.2267  0.1335
 6896SOL     OW32320   4.640   0.085   8.680 -0.0027  0.3433  0.0345
 6896SOL    HW132321   4.661   0.058   8.591 -1.9722 -0.4248 -0.1919
 6896SOL    HW232322   4.717   0.129   8.716  0.1784  0.1049 -0.0681
 6897SOL     OW32323   4.384   3.463   8.263  0.4407 -0.2060 -0.1193
 6897SOL    HW132324   4.305   3.484   8.213 -1.6227 -2.5956  2.1588
 6897SOL    HW232325   4.342   3.423   8.339 -0.4196  1.1375  0.1144
 6898SOL     OW32326   2.602   1.559  17.571 -0.1344  0.2407 -0.0177
 6898SOL    HW132327   2.673   1.617  17.540 -2.0502  3.6244  1.8764
 6898SOL    HW232328   2.573   1.523  17.488 -1.3414 -1.5517  1.2001
 6899SOL     OW32329   3.713   2.771   3.610 -0.8042 -0.1536 -0.3745
 6899SOL    HW132330   3.634   2.825   3.617 -0.4586  0.4877 -1.3404
 6899SOL    HW232331   3.698   2.725   3.528 -1.5460  2.9159 -1.9832
 6900SOL     OW32332   0.149   3.471   6.572  0.2306  0.2359  0.1298
 6900SOL    HW132333   0.238   3.499   6.553 -0.2334  1.7140  0.1256
 6900SOL    HW232334   0.103   3.552   6.596  0.0941  0.0926  0.3578
 6901SOL     OW32335   4.212   2.993  15.391  0.0359 -0.2293  0.3727
 6901SOL    HW132336   4.214   2.952  15.477  0.7823 -0.0392  0.4374
 6901SOL    HW232337   4.126   2.972  15.353  1.3726 -1.1873 -2.1180
 6902SOL     OW32338   4.178   1.139   2.584 -0.0064  0.4421  0.7803
 6902SOL    HW132339   4.203   1.202   2.651  2.2843  1.0797 -0.6689
 6902SOL    HW232340   4.122   1.196   2.531 -0.2122 -0.3625  0.1304
 6903SOL     OW32341   1.592   1.506  12.331  0.3048 -0.2401 -0.2206
 6903SOL    HW132342   1.583   1.413  12.356 -3.1568 -0.3555 -1.8786
 6903SOL    HW232343   1.687   1.513  12.338  0.2259  0.5182  0.0529
 6904SOL     OW32344   3.340   3.274   4.195  0.0661 -0.4482 -0.2051
 6904SOL    HW132345   3.277   3.205   4.214 -0.9851 -0.1706 -2.6484
 6904SOL    HW232346   3.304   3.312   4.115 -0.3296  0.6609  0.4986
 6905SOL     OW32347   3.908   3.328   7.082 -0.5029  0.1837  0.0077
 6905SOL    HW132348   3.924   3.422   7.070  1.0826  0.0700  1.1915
 6905SOL    HW232349   3.952   3.299   7.003 -0.8369 -0.0833 -0.0786
 6906SOL     OW32350   1.650   3.854   2.043  0.2886 -0.3115  0.0343
 6906SOL    HW132351   1.660   3.897   2.128  2.0231 -2.5470  0.9560
 6906SOL    HW232352   1.622   3.925   1.985 -0.3945  0.6484  1.5465
 6907SOL     OW32353   4.500   0.623   9.990  0.3492 -0.1977 -0.4372
 6907SOL    HW132354   4.445   0.629   9.912 -0.9257  0.5689  0.5285
 6907SOL    HW232355   4.435   0.635  10.059 -0.4964  0.2436 -1.3032
 6908SOL     OW32356   1.659   2.663  12.584 -0.0563  0.5895  0.0292
 6908SOL    HW132357   1.678   2.569  12.587  2.1218  1.0510  0.7264
 6908SOL    HW232358   1.716   2.709  12.646 -2.1476  2.2829  0.7206
 6909SOL     OW32359   4.682   3.903   3.917  0.6096 -0.3886  0.2133
 6909SOL    HW132360   4.693   3.816   3.879  1.0551  0.2399 -1.1363
 6909SOL    HW232361   4.590   3.903   3.943  0.3972  1.1909 -0.5191
 6910SOL     OW32362   4.597   1.553   7.153  0.3545  0.8298  0.1511
 6910SOL    HW132363   4.681   1.526   7.190 -0.9544  0.0467  2.5746
 6910SOL    HW232364   4.586   1.635   7.201  0.8273 -0.1441  1.9376
 6911SOL     OW32365   4.535   3.797   1.933  0.0053 -0.8267 -0.4984
 6911SOL    HW132366   4.460   3.811   1.990 -1.0027 -1.1852 -1.7539
 6911SOL    HW232367   4.572   3.886   1.927  1.3038 -1.4504 -1.6622
 6912SOL     OW32368   3.663   1.358   6.171  0.0155  0.2781  0.0479
 6912SOL    HW132369   3.693   1.413   6.099 -1.0826  0.5683 -0.1908
 6912SOL    HW232370   3.611   1.430   6.205 -1.0160 -0.4208 -0.0194
 6913SOL     OW32371   1.939   2.202   2.943  0.0702 -0.1256 -0.5626
 6913SOL    HW132372   2.018   2.249   2.969 -0.9600 -0.2675  2.7796
 6913SOL    HW232373   1.959   2.111   2.965 -1.6533 -0.6525 -1.2043
 6914SOL     OW32374   0.695   3.191   4.912  0.0056  0.3211 -0.8565
 6914SOL    HW132375   0.755   3.251   4.869  1.4564  0.9225  1.9993
 6914SOL    HW232376   0.743   3.109   4.928 -0.5659  0.6427  2.4780
 6915SOL     OW32377   2.608   0.389   4.769  0.2691 -0.6421  0.1548
 6915SOL    HW132378   2.702   0.371   4.770  0.3628 -0.2881 -1.8599
 6915SOL    HW232379   2.574   0.331   4.701  1.4121 -0.1104 -0.8792
 6916SOL     OW32380   2.226   2.028  16.337 -0.2349  0.0512 -0.1602
 6916SOL    HW132381   2.310   1.983  16.324  0.4848  1.2957  0.1069
 6916SOL    HW232382   2.244   2.106  16.283  0.4590  0.6153  0.8781
 6917SOL     OW32383   2.721   3.952   3.829  0.5145  0.1133 -0.4550
 6917SOL    HW132384   2.641   3.952   3.882 -0.8892  3.6385 -2.5868
 6917SOL    HW232385   2.688   4.016   3.766 -2.5137 -1.1621 -0.1778
 6918SOL     OW32386   3.636   1.503  13.049 -0.3297  0.0357 -0.2408
 6918SOL    HW132387   3.668   1.590  13.075  0.8839 -0.5678  0.3179
 6918SOL    HW232388   3.695   1.463  13.114 -2.2948 -1.4204  0.6265
 6919SOL     OW32389   1.452   2.305  12.084 -0.2381 -0.3820  0.1350
 6919SOL    HW132390   1.410   2.226  12.118  1.3000 -1.3070 -0.1188
 6919SOL    HW232391   1.495   2.268  12.007 -1.9812  1.3595 -1.6716
 6920SOL     OW32392   2.108   2.541   9.172  0.1660 -0.1714  0.4790
 6920SOL    HW132393   2.187   2.581   9.209 -0.8076 -0.2173  2.5885
 6920SOL    HW232394   2.137   2.498   9.091 -1.9607  0.8302 -0.7862
 6921SOL     OW32395   2.924   0.222   2.008  0.3388  0.2651 -1.2323
 6921SOL    HW132396   2.955   0.263   1.927  1.3923  1.1639 -0.3675
 6921SOL    HW232397   2.972   0.283   2.064 -1.0865 -1.4765  1.8973
 6922SOL     OW32398   2.711   3.744   4.133 -0.0869  0.3054  0.0923
 6922SOL    HW132399   2.717   3.804   4.207 -1.8595  0.1148  0.3892
 6922SOL    HW232400   2.617   3.750   4.114  0.0266 -0.1410 -0.6048
 6923SOL     OW32401   1.535   2.446   1.975 -0.0114  0.2838  0.0549
 6923SOL    HW132402   1.547   2.527   1.924  1.5461 -0.6205 -1.0057
 6923SOL    HW232403   1.610   2.395   1.945 -1.3064 -0.9894 -1.0460
 6924SOL     OW32404   2.881   4.391   1.931 -0.2685  0.1455  0.2403
 6924SOL    HW132405   2.965   4.362   1.966  0.9018  2.4668 -0.6350
 6924SOL    HW232406   2.839   4.423   2.011  1.5652 -1.0025  1.6658
 6925SOL     OW32407   1.869   4.132  11.033  0.3216 -0.0655 -0.0651
 6925SOL    HW132408   1.841   4.041  11.045  0.0379 -0.2884 -2.4397
 6925SOL    HW232409   1.949   4.122  10.981  0.2164  2.3930 -0.7222
 6926SOL     OW32410   2.086   2.106   0.544 -0.0451  0.1040  0.2058
 6926SOL    HW132411   2.055   2.185   0.587 -2.1672 -0.3797 -0.4172
 6926SOL    HW232412   2.176   2.114   0.575 -0.0437  0.9001 -0.0251
 6927SOL     OW32413   3.926   1.093   6.048 -0.2043 -0.1792 -0.2643
 6927SOL    HW132414   3.961   1.158   6.109  1.5522 -0.8708 -0.5148
 6927SOL    HW232415   4.001   1.087   5.988 -0.3472 -1.5264 -0.3149
 6928SOL     OW32416   1.669   3.822   7.159 -0.2750 -0.5914 -0.2468
 6928SOL    HW132417   1.574   3.822   7.147 -0.2986 -1.8536 -0.0537
 6928SOL    HW232418   1.668   3.818   7.255  0.7889 -2.2459 -0.3213
 6929SOL     OW32419   0.792   0.146   5.825 -0.2431  0.0992  0.3655
 6929SOL    HW132420   0.710   0.102   5.846 -1.5637  0.7815 -3.4573
 6929SOL    HW232421   0.794   0.208   5.898 -1.5959  0.3415  0.1832
 6930SOL     OW32422   2.154   0.857  16.765 -0.3756 -0.4120 -0.1800
 6930SOL    HW132423   2.098   0.912  16.709 -0.7674 -0.8163 -0.1923
 6930SOL    HW232424   2.088   0.825  16.826  1.5344  1.1723  2.7376
 6931SOL     OW32425   3.932   0.018   4.765 -0.2251 -1.0759  0.3377
 6931SOL    HW132426   4.026   0.002   4.758 -0.4095 -1.8330 -0.3325
 6931SOL    HW232427   3.891   4.672   4.774 -0.5007 -1.2198 -2.4451
 6932SOL     OW32428   2.453   1.977   7.617 -0.0479 -0.4936 -0.6700
 6932SOL    HW132429   2.450   1.988   7.522 -1.8282 -0.2031 -0.5698
 6932SOL    HW232430   2.485   1.888   7.631  1.2385  0.1451  0.5218
 6933SOL     OW32431   3.671   0.622  15.599 -0.4898  0.3795 -0.0137
 6933SOL    HW132432   3.638   0.535  15.621 -0.1506  0.6665  1.6538
 6933SOL    HW232433   3.756   0.628  15.642 -0.0677  0.3762 -0.8456
 6934SOL     OW32434   2.686   1.604   4.353  0.4575  0.4626  0.1514
 6934SOL    HW132435   2.642   1.579   4.435 -0.6518  0.9012 -0.3044
 6934SOL    HW232436   2.645   1.689   4.340  0.3581  0.2481 -0.9453
 6935SOL     OW32437   1.191   4.401  11.100 -0.3510  0.2344 -0.5380
 6935SOL    HW132438   1.267   4.371  11.052  0.9193  0.3704  1.3691
 6935SOL    HW232439   1.244   4.470  11.141  0.6134 -0.9913  0.2664
 6936SOL     OW32440   1.712   4.195   6.390 -0.3761  0.0245 -0.2705
 6936SOL    HW132441   1.704   4.150   6.306 -0.1922 -0.1138 -0.2142
 6936SOL    HW232442   1.619   4.208   6.409 -0.4024 -0.0613 -0.3384
 6937SOL     OW32443   1.208   0.323   3.243 -0.1622  0.2331  0.8286
 6937SOL    HW132444   1.141   0.255   3.240  1.1391 -0.9548 -1.5509
 6937SOL    HW232445   1.166   0.398   3.201  0.0859  0.2920  0.6847
 6938SOL     OW32446   2.439   1.150   6.871 -0.9060  0.3880 -0.5489
 6938SOL    HW132447   2.434   1.245   6.885 -0.5475 -0.0030  2.2432
 6938SOL    HW232448   2.415   1.110   6.955  0.2105  1.6062  0.3411
 6939SOL     OW32449   2.085   3.023   3.609 -0.0811  0.4144 -0.5383
 6939SOL    HW132450   2.003   3.065   3.584  0.0057  0.3985 -0.8611
 6939SOL    HW232451   2.095   2.953   3.544 -0.2995 -1.0111  0.9763
 6940SOL     OW32452   1.828   0.409   0.245  0.2160 -0.0409 -0.5124
 6940SOL    HW132453   1.760   0.444   0.303  0.1106  1.5749 -1.5895
 6940SOL    HW232454   1.777   0.352   0.187  1.6887 -1.1488 -0.7124
 6941SOL     OW32455   0.510   4.356   2.732 -0.3338 -0.1582  0.0497
 6941SOL    HW132456   0.605   4.346   2.731 -0.2110  0.8202  2.1746
 6941SOL    HW232457   0.497   4.349   2.637 -0.3525 -1.2546  0.1328
 6942SOL     OW32458   1.375   0.824   3.859 -0.2828 -0.1668  0.7138
 6942SOL    HW132459   1.282   0.803   3.847  0.0047 -1.8876  1.4445
 6942SOL    HW232460   1.371   0.910   3.899 -2.1134 -0.7332  1.7373
 6943SOL     OW32461   4.531   4.729   5.131 -0.4573  0.3755  0.1116
 6943SOL    HW132462   4.502   4.648   5.088 -1.0114  0.0753  1.0523
 6943SOL    HW232463   4.553   0.044   5.056  1.6965  1.1537  1.3315
 6944SOL     OW32464   0.865   1.492  12.927 -0.3716  0.0165 -0.7103
 6944SOL    HW132465   0.872   1.397  12.929 -3.3461 -0.1550  1.3565
 6944SOL    HW232466   0.795   1.511  12.864 -1.1570  3.5287  1.2116
 6945SOL     OW32467   0.259   1.011  12.278  0.2573  0.0982 -0.1339
 6945SOL    HW132468   0.328   1.014  12.212  0.7197  1.2153  0.4034
 6945SOL    HW232469   0.189   1.043  12.221  0.8728  0.8390 -0.4681
 6946SOL     OW32470   3.667   2.770   8.129  0.0380  0.4153 -0.0747
 6946SOL    HW132471   3.716   2.699   8.088 -0.6023 -0.5501  0.8450
 6946SOL    HW232472   3.719   2.790   8.208 -0.3515 -0.1456  0.3238
 6947SOL     OW32473   4.378   4.019   7.145 -0.7092  0.8683 -0.3635
 6947SOL    HW132474   4.399   3.936   7.189 -1.1724  0.3212 -1.1803
 6947SOL    HW232475   4.388   4.002   7.052 -0.6070 -0.3699 -0.1358
 6948SOL     OW32476   4.661   1.665   9.033  0.5161  0.2094  0.4535
 6948SOL    HW132477   4.568   1.689   9.041  0.3875 -0.0250 -0.2892
 6948SOL    HW232478   4.702   1.745   9.067  0.8762  1.5719 -3.2005
 6949SOL     OW32479   3.739   3.222   3.087  0.5847  0.0854 -0.2092
 6949SOL    HW132480   3.794   3.276   3.032  1.3986  0.3566  0.8658
 6949SOL    HW232481   3.743   3.277   3.166  0.7700  1.6178 -1.2990
 6950SOL     OW32482   2.603   1.092   8.910 -0.1657 -0.2326 -0.3408
 6950SOL    HW132483   2.555   1.176   8.909 -1.0762 -0.7582 -1.2071
 6950SOL    HW232484   2.541   1.019   8.919 -1.2180  0.8150  0.9809
 6951SOL     OW32485   2.871   3.908   7.728  0.2239 -0.5591 -0.4006
 6951SOL    HW132486   2.888   3.942   7.815 -0.1296 -0.2610 -0.4500
 6951SOL    HW232487   2.779   3.933   7.737  0.5408  0.1482  0.7538
 6952SOL     OW32488   1.155   3.706  12.699 -0.4698  0.1578  0.8853
 6952SOL    HW132489   1.224   3.742  12.756  0.5649 -1.1372  0.4636
 6952SOL    HW232490   1.118   3.783  12.656  1.0260  1.3019  1.6250
 6953SOL     OW32491   2.781   2.493   3.711 -0.1485  0.0968  0.1505
 6953SOL    HW132492   2.840   2.546   3.657 -0.5481  0.3717 -0.0217
 6953SOL    HW232493   2.737   2.433   3.651 -0.0925  0.2453 -0.0429
 6954SOL     OW32494   4.231   2.500   7.997  0.5919 -0.4921  0.5988
 6954SOL    HW132495   4.221   2.409   7.972 -1.3962 -0.6677  1.9760
 6954SOL    HW232496   4.144   2.536   7.980  0.2593 -1.3429  0.5214
 6955SOL     OW32497   2.592   2.192  10.988 -0.3236 -0.4855  0.1888
 6955SOL    HW132498   2.586   2.100  11.013 -0.6537 -0.7450 -0.8779
 6955SOL    HW232499   2.603   2.239  11.071  0.3376 -0.2326 -0.0377
 6956SOL     OW32500   2.562   4.406   9.312 -0.3009 -0.0248 -0.4258
 6956SOL    HW132501   2.650   4.388   9.344 -0.0597  0.1096 -1.0033
 6956SOL    HW232502   2.527   4.327   9.269 -1.4491  0.6460 -0.7318
 6957SOL     OW32503   3.546   0.085  11.241  0.7533 -0.3923 -0.1145
 6957SOL    HW132504   3.458   0.089  11.278 -0.7029 -1.2716 -3.4727
 6957SOL    HW232505   3.562   4.733  11.221 -2.2054 -1.0656  0.5321
 6958SOL     OW32506   4.510   0.043   0.823  0.1063  0.0227  0.1001
 6958SOL    HW132507   4.591   0.023   0.777 -0.0123  0.0462 -0.1163
 6958SOL    HW232508   4.470   4.696   0.820 -1.6610  0.8223  0.3439
 6959SOL     OW32509   1.463   2.417   8.767 -0.3637  0.1279 -0.4653
 6959SOL    HW132510   1.536   2.372   8.810 -0.4927  0.5839  0.2356
 6959SOL    HW232511   1.395   2.352   8.784 -0.7175  0.6431  0.0761
 6960SOL     OW32512   0.024   4.051   8.524  0.2573 -0.0001 -0.2394
 6960SOL    HW132513   4.739   3.973   8.474 -0.7754 -0.5808  1.1898
 6960SOL    HW232514   0.008   4.025   8.614 -0.9017  0.5502 -0.2931
 6961SOL     OW32515   4.391   1.663   4.635  0.8124 -0.5603  0.0656
 6961SOL    HW132516   4.356   1.616   4.711 -1.2476  0.2316 -0.4075
 6961SOL    HW232517   4.465   1.605   4.616 -0.7465 -3.0435  1.5830
 6962SOL     OW32518   2.538   3.408   7.885  0.5586  0.5332 -0.0771
 6962SOL    HW132519   2.567   3.322   7.857  1.7485  0.3590  1.7521
 6962SOL    HW232520   2.625   3.445   7.898  0.5465  0.3646  0.4574
 6963SOL     OW32521   0.343   3.863   3.167 -0.2097 -0.0913  0.2790
 6963SOL    HW132522   0.420   3.916   3.147 -1.0489  1.5306  1.3024
 6963SOL    HW232523   0.334   3.860   3.262  1.5799 -0.7604  0.4116
 6964SOL     OW32524   3.377   2.688   3.083  0.4981 -0.0319 -0.3226
 6964SOL    HW132525   3.388   2.781   3.099  1.6014 -0.0129 -1.2311
 6964SOL    HW232526   3.422   2.667   3.164 -1.0528 -1.1342  0.2635
 6965SOL     OW32527   1.968   0.927   1.598 -0.2356  0.1716 -0.2221
 6965SOL    HW132528   1.890   0.943   1.546 -1.2857 -1.6402  0.7673
 6965SOL    HW232529   2.042   0.967   1.554 -0.7481 -1.7019 -2.8140
 6966SOL     OW32530   2.750   4.173   1.830 -0.0161 -0.0085  0.6663
 6966SOL    HW132531   2.799   4.251   1.857  0.8652 -0.8225  1.4374
 6966SOL    HW232532   2.703   4.144   1.908 -0.5425 -0.4016  0.2025
 6967SOL     OW32533   2.764   1.978   1.352  0.3833 -0.2998  0.8194
 6967SOL    HW132534   2.822   1.992   1.428  1.7915  2.6367 -0.7964
 6967SOL    HW232535   2.825   1.957   1.281 -1.2418  0.7034 -0.8486
 6968SOL     OW32536   4.574   1.905   7.836 -0.4063 -0.0632 -0.0654
 6968SOL    HW132537   4.640   1.968   7.863  1.1061 -2.0109  0.7693
 6968SOL    HW232538   4.508   1.913   7.905  1.0529 -1.5527  1.4927
 6969SOL     OW32539   0.249   0.861  11.161  0.3352 -0.2531 -0.0539
 6969SOL    HW132540   0.270   0.793  11.225 -1.0361 -0.7580 -0.1417
 6969SOL    HW232541   0.271   0.806  11.086  1.5361 -0.2949  0.3276
 6970SOL     OW32542   2.704   4.731   7.549 -0.0035 -0.2941  0.0083
 6970SOL    HW132543   2.786   0.039   7.559 -0.2805  0.3744 -0.9864
 6970SOL    HW232544   2.654   0.038   7.482  1.3105 -0.9986 -1.4679
 6971SOL     OW32545   1.049   1.981   1.525 -0.5965  0.3440  0.0937
 6971SOL    HW132546   1.099   1.900   1.536 -0.3172  0.4895 -0.1034
 6971SOL    HW232547   0.976   1.954   1.470 -0.6105 -1.8963  1.2198
 6972SOL     OW32548   2.242   0.737   7.824  0.0533 -0.1144  0.8022
 6972SOL    HW132549   2.322   0.788   7.833 -0.0222  0.0070  0.7788
 6972SOL    HW232550   2.272   0.671   7.761  0.4085  1.0753 -0.2692
 6973SOL     OW32551   1.156   1.742   9.033 -0.1731  0.5303 -0.0960
 6973SOL    HW132552   1.098   1.751   8.957 -0.2121  0.1910 -0.1059
 6973SOL    HW232553   1.194   1.655   9.033 -3.1802 -0.8012 -1.7497
 6974SOL     OW32554   3.401   3.324   9.194 -0.0832 -0.5531 -0.0533
 6974SOL    HW132555   3.375   3.397   9.251 -0.3271 -0.0705 -0.7736
 6974SOL    HW232556   3.494   3.310   9.212 -0.3279 -2.1919 -0.1382
 6975SOL     OW32557   4.014   3.123   3.413 -0.3121 -0.3338  0.3939
 6975SOL    HW132558   4.084   3.098   3.353 -0.6062  0.2635 -0.2038
 6975SOL    HW232559   4.062   3.179   3.474  1.1829  0.3606 -1.4083
 6976SOL     OW32560   1.539   0.098   6.892 -0.1070 -0.6037 -0.1233
 6976SOL    HW132561   1.530   0.005   6.876  0.6789 -0.7389  0.2008
 6976SOL    HW232562   1.490   0.131   6.816  1.0754 -1.0163 -1.0536
 6977SOL     OW32563   0.175   3.220   9.269  0.0654 -0.0246 -0.2525
 6977SOL    HW132564   0.119   3.217   9.192 -0.6372  2.0151  0.1897
 6977SOL    HW232565   0.130   3.160   9.328  0.4716 -0.7435 -0.6613
 6978SOL     OW32566   2.098   2.376   8.927  0.2445 -0.9382 -0.2154
 6978SOL    HW132567   2.062   2.287   8.929 -0.0017 -0.8649 -1.4215
 6978SOL    HW232568   2.191   2.355   8.914 -0.1208 -2.5212 -0.3638
 6979SOL     OW32569   2.497   0.258   6.791 -0.0944  0.1717 -0.9217
 6979SOL    HW132570   2.514   0.351   6.774  2.8914 -0.1917  0.0372
 6979SOL    HW232571   2.441   0.231   6.718 -1.3774  1.6516 -0.4973
 6980SOL     OW32572   2.350   0.686   2.740  0.1216  0.0249 -0.2264
 6980SOL    HW132573   2.435   0.669   2.780 -1.1524 -1.0605  2.0470
 6980SOL    HW232574   2.362   0.644   2.655  0.0864  0.8634 -0.6500
 6981SOL     OW32575   3.993   1.079  10.682  0.5302 -0.0707  0.0993
 6981SOL    HW132576   4.003   1.174  10.690  0.5864  0.0615 -1.6212
 6981SOL    HW232577   3.919   1.079  10.621 -0.0463 -0.9945  0.7975
 6982SOL     OW32578   3.320   3.763   5.556  0.2424 -0.0499 -0.3201
 6982SOL    HW132579   3.345   3.811   5.477  0.2181  0.9586  0.2854
 6982SOL    HW232580   3.309   3.837   5.616 -0.7324  0.3355 -0.9679
 6983SOL     OW32581   0.721   1.138  12.706  0.3174 -0.0560 -0.2569
 6983SOL    HW132582   0.643   1.149  12.761  0.8469 -0.4646  0.5796
 6983SOL    HW232583   0.795   1.172  12.757  1.2583 -0.9213 -1.0594
 6984SOL     OW32584   3.649   0.083   7.865  0.1366  0.5230  0.5195
 6984SOL    HW132585   3.609   0.165   7.894 -1.7378 -1.5430  3.8658
 6984SOL    HW232586   3.691   0.062   7.949 -0.6184 -1.6718  0.3509
 6985SOL     OW32587   2.990   2.869  15.810  0.8306  0.1260  0.4562
 6985SOL    HW132588   2.932   2.898  15.740 -1.4575 -4.1323  0.5720
 6985SOL    HW232589   3.069   2.847  15.761  1.4241 -0.3642  1.6301
 6986SOL     OW32590   2.917   2.558   6.660  0.1232  0.4946 -0.5727
 6986SOL    HW132591   2.947   2.571   6.750 -0.9472 -0.5063 -0.0680
 6986SOL    HW232592   2.829   2.526   6.683  0.0225  1.5091  0.4447
 6987SOL     OW32593   4.062   4.518   0.347  0.0777 -0.2561 -0.1146
 6987SOL    HW132594   4.064   4.606   0.385  1.5232 -0.5280  0.4624
 6987SOL    HW232595   4.028   4.525   0.258  1.2123 -1.2161 -0.6316
 6988SOL     OW32596   2.156   4.156   7.764  0.1035 -0.7540  0.2777
 6988SOL    HW132597   2.065   4.131   7.777 -0.3836  0.9554  0.0756
 6988SOL    HW232598   2.185   4.071   7.798  2.4548  0.2367  0.7658
 6989SOL     OW32599   0.081   3.316   5.661  0.5757 -0.0108 -0.6915
 6989SOL    HW132600   0.043   3.305   5.748  1.0150 -0.9759 -0.6149
 6989SOL    HW232601   0.130   3.397   5.674 -1.4161  0.6801  2.3477
 6990SOL     OW32602   1.997   2.615   8.829 -0.3330  0.4275 -0.0713
 6990SOL    HW132603   1.924   2.619   8.891  0.6967  0.3127  1.1521
 6990SOL    HW232604   2.052   2.544   8.863  0.5484  0.7178 -0.9219
 6991SOL     OW32605   0.433   3.380  14.016 -0.3969 -0.2713  0.0049
 6991SOL    HW132606   0.494   3.312  13.988  4.1580  2.3954  3.4235
 6991SOL    HW232607   0.431   3.434  13.938 -0.6069  0.0759  0.2482
 6992SOL     OW32608   2.286   1.662   3.543  0.4509 -0.3102 -0.3720
 6992SOL    HW132609   2.352   1.600   3.573 -0.1194 -0.4063  0.6894
 6992SOL    HW232610   2.280   1.719   3.619 -1.4571 -2.6958  1.2642
 6993SOL     OW32611   4.707   4.737  14.105  0.0410 -0.1658  0.2969
 6993SOL    HW132612   4.642   0.018  14.038  2.5021  0.1421 -1.9609
 6993SOL    HW232613   4.656   4.675  14.157 -1.2878  1.3289  0.7639
 6994SOL     OW32614   3.119   1.423   8.133 -0.2451 -0.3855  0.0419
 6994SOL    HW132615   3.054   1.493   8.139 -0.3447 -0.4431 -0.3400
 6994SOL    HW232616   3.187   1.462   8.079 -1.5923  0.6046 -0.9336
 6995SOL     OW32617   4.022   0.341   7.244  0.4996 -0.6557  0.5310
 6995SOL    HW132618   3.980   0.307   7.323 -2.5728  0.3612 -0.6856
 6995SOL    HW232619   4.101   0.287   7.244 -0.4987 -2.1321  0.9615
 6996SOL     OW32620   2.807   1.178   6.641 -0.6304 -0.2770 -0.4153
 6996SOL    HW132621   2.811   1.273   6.639  0.0155 -0.3268 -1.4719
 6996SOL    HW232622   2.764   1.148   6.560 -0.1198 -0.6557 -0.5414
 6997SOL     OW32623   1.416   0.827   1.489 -0.4167  0.5969  0.2863
 6997SOL    HW132624   1.443   0.770   1.560 -2.1127  0.1268  0.5511
 6997SOL    HW232625   1.360   0.888   1.537  1.0168  1.9946  0.1949
 6998SOL     OW32626   1.631   0.602  11.338  0.2127 -0.4693  0.2338
 6998SOL    HW132627   1.653   0.526  11.284 -0.2738 -0.8587  0.5743
 6998SOL    HW232628   1.629   0.569  11.428 -3.0603  0.7690  0.6204
 6999SOL     OW32629   2.333   0.086   8.752  0.3870 -0.4943 -0.0171
 6999SOL    HW132630   2.421   0.088   8.792  0.4063 -0.8247 -0.0477
 6999SOL    HW232631   2.346   0.055   8.663 -1.6290  1.9679 -1.1620
 7000SOL     OW32632   1.355   2.646   6.763  0.2844 -0.2163 -0.1179
 7000SOL    HW132633   1.317   2.609   6.684 -1.3449 -1.2312  1.1216
 7000SOL    HW232634   1.325   2.588   6.834  0.9358 -0.3260  0.0645
 7001SOL     OW32635   2.213   3.822   5.093  0.1357  0.5522  0.0264
 7001SOL    HW132636   2.300   3.845   5.125 -0.5955  2.3289  0.7600
 7001SOL    HW232637   2.205   3.751   5.157  0.1181  1.8148  1.4136
 7002SOL     OW32638   0.792   0.848  12.781  0.4065 -0.7020 -0.0439
 7002SOL    HW132639   0.702   0.857  12.750  0.8256 -1.3083 -1.4448
 7002SOL    HW232640   0.773   0.860  12.874  0.2781 -1.1099 -0.0188
 7003SOL     OW32641   1.844   4.140   8.171 -0.1575 -0.0178  0.0086
 7003SOL    HW132642   1.909   4.172   8.109 -0.6285  1.5401  0.3016
 7003SOL    HW232643   1.770   4.135   8.111 -0.3495 -0.9438  0.3277
 7004SOL     OW32644   1.886   2.874   5.028 -0.4923  0.2014  0.0407
 7004SOL    HW132645   1.970   2.890   5.071  0.7129 -1.0432 -1.8551
 7004SOL    HW232646   1.839   2.936   5.083 -1.6390 -2.6453  2.2098
 7005SOL     OW32647   1.540   2.937   3.461 -0.1365 -0.4210 -0.3204
 7005SOL    HW132648   1.523   2.951   3.368  2.8342 -0.5142 -0.8698
 7005SOL    HW232649   1.580   2.851   3.471  0.6578 -0.1925 -1.5994
 7006SOL     OW32650   1.111   0.273   9.747  0.2184  0.0735 -0.5821
 7006SOL    HW132651   1.041   0.296   9.686 -0.0189 -0.2066 -0.4114
 7006SOL    HW232652   1.095   0.336   9.817  1.0499  0.8287 -1.0635
 7007SOL     OW32653   2.319   3.839   2.145 -0.0954 -0.0324  0.4786
 7007SOL    HW132654   2.396   3.831   2.088  0.0472  1.2493  0.4696
 7007SOL    HW232655   2.245   3.822   2.087 -1.1159 -1.5916  2.2429
 7008SOL     OW32656   2.696   1.022   8.047  0.3458  0.3939  0.1009
 7008SOL    HW132657   2.691   0.927   8.051  1.0939  0.3671  0.6311
 7008SOL    HW232658   2.603   1.043   8.039  0.3580 -0.1880 -1.5054
 7009SOL     OW32659   4.043   0.406  13.516 -0.1443  0.5070 -0.1585
 7009SOL    HW132660   4.042   0.369  13.428  0.5577  0.4125 -0.1234
 7009SOL    HW232661   3.965   0.367  13.556 -0.6373  0.1170 -1.4812
 7010SOL     OW32662   3.750   3.650  17.557 -0.2713  0.0227  0.3909
 7010SOL    HW132663   3.806   3.705  17.611  0.3802 -1.0529  0.8116
 7010SOL    HW232664   3.668   3.658  17.606 -0.0886  0.5420  0.6136
 7011SOL     OW32665   1.942   3.157   4.911 -0.7210  0.2157  0.2663
 7011SOL    HW132666   1.892   3.201   4.842 -0.8918 -1.0084 -0.3916
 7011SOL    HW232667   1.874   3.135   4.975 -1.7110  1.6430 -0.3138
 7012SOL     OW32668   2.584   4.723  14.632  0.1844  0.0229  0.0125
 7012SOL    HW132669   2.623   4.669  14.564 -2.1258 -1.9095  0.2126
 7012SOL    HW232670   2.656   0.032  14.672 -0.1275 -1.2604  2.1600
 7013SOL     OW32671   3.302   2.042   5.357 -0.0253  0.1120  0.0631
 7013SOL    HW132672   3.302   2.102   5.282  0.4035 -0.1733 -0.1670
 7013SOL    HW232673   3.254   1.969   5.318 -0.6751  1.0592 -0.9221
 7014SOL     OW32674   1.184   2.075   3.332 -0.8552 -0.1897  0.2539
 7014SOL    HW132675   1.167   1.996   3.281  0.8263  0.6500 -1.6255
 7014SOL    HW232676   1.218   2.135   3.266 -0.4671 -0.5720  0.1081
 7015SOL     OW32677   0.930   3.122   2.258  0.3926 -0.1365  0.3996
 7015SOL    HW132678   0.964   3.086   2.339 -2.7715  0.0266  1.7860
 7015SOL    HW232679   0.990   3.077   2.198 -0.8989  1.1800 -1.8736
 7016SOL     OW32680   0.067   2.493   7.301  0.0876 -0.3239  0.4007
 7016SOL    HW132681   0.028   2.537   7.377 -0.5027  0.5100 -0.3862
 7016SOL    HW232682   4.728   2.460   7.259  0.6453 -0.1828 -0.7791
 7017SOL     OW32683   0.056   4.258   9.008 -0.1482 -0.1062 -0.1272
 7017SOL    HW132684   0.002   4.294   9.079  2.2755  2.1343  0.6223
 7017SOL    HW232685   0.138   4.246   9.057  0.2931  0.5336 -0.7049
 7018SOL     OW32686   0.729   4.227   6.495  0.1881  0.7941 -0.3413
 7018SOL    HW132687   0.678   4.158   6.537  2.7331 -1.2386 -0.5691
 7018SOL    HW232688   0.818   4.209   6.526 -0.1236 -0.2269 -0.0686
 7019SOL     OW32689   1.830   4.114   1.900 -0.0625 -0.1240  0.2799
 7019SOL    HW132690   1.811   4.118   1.806 -0.8522 -1.6284  0.3726
 7019SOL    HW232691   1.744   4.138   1.935 -1.0997 -1.1040 -1.5956
 7020SOL     OW32692   3.919   3.177   2.488  0.2135 -0.0384 -0.0655
 7020SOL    HW132693   3.953   3.195   2.400 -0.6291  2.2708  0.0714
 7020SOL    HW232694   3.899   3.084   2.480 -1.4775  0.3164  0.0506
 7021SOL     OW32695   1.427   0.773   6.078  0.4050  0.1878  0.3555
 7021SOL    HW132696   1.452   0.864   6.060  2.1676 -0.1428  1.1355
 7021SOL    HW232697   1.456   0.775   6.169 -2.9782 -0.1464  1.4306
 7022SOL     OW32698   0.566   3.408   8.445 -0.0209 -1.1946  0.6841
 7022SOL    HW132699   0.553   3.353   8.522  2.0321  1.1620  2.7288
 7022SOL    HW232700   0.567   3.340   8.378  0.6367  0.0086 -0.5207
 7023SOL     OW32701   2.756   1.590   2.822  0.0499  0.1312  0.7119
 7023SOL    HW132702   2.675   1.554   2.787  1.6076 -1.4502 -1.2301
 7023SOL    HW232703   2.732   1.682   2.825 -0.8579 -0.1451  2.4190
 7024SOL     OW32704   3.594   0.945  16.805  0.2022 -0.8303 -0.1293
 7024SOL    HW132705   3.675   0.963  16.853 -0.4159  0.1715  0.5380
 7024SOL    HW232706   3.528   0.954  16.874  0.7615 -1.4162  0.4871
 7025SOL     OW32707   2.872   0.620   1.334 -0.4092  0.0100 -0.0599
 7025SOL    HW132708   2.841   0.698   1.288 -0.3632 -0.3675 -0.7325
 7025SOL    HW232709   2.807   0.607   1.403  0.1445  1.5772  0.7569
 7026SOL     OW32710   2.271   1.841   7.794 -0.0545 -0.1670 -0.0963
 7026SOL    HW132711   2.268   1.846   7.889 -1.0274  0.8518 -0.1767
 7026SOL    HW232712   2.358   1.871   7.770 -0.7524  1.7528 -0.2144
 7027SOL     OW32713   3.038   2.599   5.134  0.0167 -0.6405 -0.6457
 7027SOL    HW132714   3.121   2.637   5.163 -0.8485  0.3001  0.5757
 7027SOL    HW232715   3.067   2.567   5.048 -0.6438  0.0076 -1.1087
 7028SOL     OW32716   3.284   1.389   8.745 -0.0203  0.4448  0.0004
 7028SOL    HW132717   3.326   1.475   8.741 -0.9228  0.9594  1.8871
 7028SOL    HW232718   3.199   1.421   8.775 -0.8961 -1.5323 -0.3779
 7029SOL     OW32719   2.382   2.074   2.296  0.3923  0.3424 -0.0269
 7029SOL    HW132720   2.408   2.088   2.387 -2.8390  0.3721  0.8707
 7029SOL    HW232721   2.457   2.113   2.251 -0.5914  0.9748 -1.0980
 7030SOL     OW32722   0.760   3.484   5.552 -0.3568  0.0411 -0.3924
 7030SOL    HW132723   0.699   3.417   5.520  2.7743 -1.6976 -2.7086
 7030SOL    HW232724   0.701   3.548   5.591  1.5412  0.7512  1.2794
 7031SOL     OW32725   2.882   1.314   6.353 -0.2220 -0.0813  0.3199
 7031SOL    HW132726   2.918   1.310   6.265  2.8500  0.2234  1.5699
 7031SOL    HW232727   2.813   1.249   6.342 -1.0858  0.9646 -0.4139
 7032SOL     OW32728   0.687   0.723   1.610 -0.0252 -0.5510  0.8439
 7032SOL    HW132729   0.703   0.791   1.675  1.8717 -2.1632  2.0530
 7032SOL    HW232730   0.607   0.743   1.562  0.6941  3.2971  1.2964
 7033SOL     OW32731   2.711   0.660  17.103  0.1621 -0.3119  0.0614
 7033SOL    HW132732   2.705   0.570  17.072  0.8912 -1.0600  2.0716
 7033SOL    HW232733   2.617   0.667  17.121 -0.2544 -2.3597 -1.4029
 7034SOL     OW32734   1.833   0.215   4.499  0.3465 -0.2077 -0.3878
 7034SOL    HW132735   1.815   0.183   4.587  0.2694  1.6811  0.2951
 7034SOL    HW232736   1.880   0.296   4.521  2.1277 -2.1207  2.8736
 7035SOL     OW32737   1.598   2.001  15.970  0.1150  1.1334  0.0013
 7035SOL    HW132738   1.591   1.997  16.066 -0.7304  0.2123 -0.0936
 7035SOL    HW232739   1.588   1.907  15.952  1.1337  1.3367 -1.6265
 7036SOL     OW32740   4.346   4.461   6.714 -0.0935 -0.0506 -0.0735
 7036SOL    HW132741   4.310   4.460   6.803 -2.3013  1.6157 -0.9556
 7036SOL    HW232742   4.272   4.431   6.662  0.0882 -1.1532  0.2958
 7037SOL     OW32743   3.990   1.808  11.541  0.1721  0.3453 -0.2141
 7037SOL    HW132744   3.971   1.725  11.585  0.3808  0.6748  0.4866
 7037SOL    HW232745   3.934   1.869  11.587 -0.8121 -1.5509  1.1082
 7038SOL     OW32746   4.548   3.776  12.638 -0.0715 -0.4128 -0.0402
 7038SOL    HW132747   4.643   3.786  12.637 -0.2307  0.8774 -2.2654
 7038SOL    HW232748   4.520   3.864  12.663  0.2552 -0.5837  0.9099
 7039SOL     OW32749   3.386   0.063   2.531  0.6248  0.5354  0.4516
 7039SOL    HW132750   3.478   0.040   2.513  0.1729 -1.9389  1.2645
 7039SOL    HW232751   3.384   0.079   2.625  1.7957  0.6726  0.4526
 7040SOL     OW32752   3.377   0.880   6.688 -0.0670  0.3061  0.1257
 7040SOL    HW132753   3.385   0.950   6.752  0.2928  0.3639  0.0198
 7040SOL    HW232754   3.283   0.864   6.675 -0.0847  0.3787  0.1650
 7041SOL     OW32755   3.522   1.747   4.065  0.3814  0.5010 -0.1435
 7041SOL    HW132756   3.459   1.801   4.018 -0.9965  0.5623  1.7619
 7041SOL    HW232757   3.597   1.805   4.055  1.2675 -0.3240  1.7353
 7042SOL     OW32758   3.104   1.683   9.239 -0.0048  0.3812 -0.0253
 7042SOL    HW132759   3.121   1.596   9.274 -2.3391 -0.2720 -0.4934
 7042SOL    HW232760   3.182   1.731   9.267 -0.0826 -0.0738  0.9605
 7043SOL     OW32761   0.794   1.933   7.675 -0.2083 -0.4022 -0.0080
 7043SOL    HW132762   0.874   1.945   7.726 -0.8424 -2.1226  1.3757
 7043SOL    HW232763   0.740   1.886   7.738  0.4151 -0.2084  0.6736
 7044SOL     OW32764   4.256   2.607  16.097  0.1455  0.1883  0.4944
 7044SOL    HW132765   4.305   2.638  16.173  3.0010 -3.6089  0.1790
 7044SOL    HW232766   4.197   2.541  16.132 -3.4962  3.4727  0.5267
 7045SOL     OW32767   4.134   2.949  15.676  0.0967  0.1397 -0.3175
 7045SOL    HW132768   4.067   3.015  15.694  0.8806  0.3437  1.8970
 7045SOL    HW232769   4.139   2.899  15.758  0.2604 -2.3403 -1.8509
 7046SOL     OW32770   4.206   3.127   9.122  0.3474  0.3820 -0.7148
 7046SOL    HW132771   4.209   3.031   9.117  0.3106  0.3627 -0.3604
 7046SOL    HW232772   4.281   3.144   9.178  0.2340  0.9524 -0.7348
 7047SOL     OW32773   2.054   2.064   6.230  0.0650 -0.3860  0.1354
 7047SOL    HW132774   2.130   2.082   6.174 -1.3143  1.1828 -1.2310
 7047SOL    HW232775   2.104   2.033   6.305  0.2603 -1.6930 -0.5326
 7048SOL     OW32776   1.368   3.846   8.556 -0.1850  0.1105  0.0084
 7048SOL    HW132777   1.388   3.927   8.603 -1.4548  0.1027  0.5678
 7048SOL    HW232778   1.376   3.788   8.632  2.6231 -1.2247 -1.3314
 7049SOL     OW32779   0.487   2.619   0.160  0.2048  0.3443  0.3098
 7049SOL    HW132780   0.566   2.575   0.127  1.0583  1.7825  0.4225
 7049SOL    HW232781   0.519   2.710   0.158 -1.4618  0.8786 -1.5880
 7050SOL     OW32782   1.955   0.561  11.580 -0.1457  0.3060 -0.0851
 7050SOL    HW132783   2.033   0.517  11.546 -0.7471  0.5622 -1.8244
 7050SOL    HW232784   1.932   0.497  11.646 -0.2765  0.5250  0.0796
 7051SOL     OW32785   0.993   1.058   6.342  0.2014  0.0634  0.2513
 7051SOL    HW132786   1.024   1.085   6.429  1.1631  0.1545 -0.1237
 7051SOL    HW232787   0.934   0.990   6.374  0.1362  0.3156  0.6701
 7052SOL     OW32788   3.874   4.454   6.456 -0.0483  0.4177  0.3019
 7052SOL    HW132789   3.887   4.436   6.549  1.5257 -0.3340 -0.0771
 7052SOL    HW232790   3.808   4.524   6.459 -1.3106 -0.7201 -1.1737
 7053SOL     OW32791   4.733   0.027   5.300 -0.1928  0.4497  0.3875
 7053SOL    HW132792   0.009   0.120   5.286 -1.5033  0.3360 -1.9031
 7053SOL    HW232793   4.663   0.017   5.235 -0.4942  0.6845  0.6737
 7054SOL     OW32794   0.259   0.733   2.950 -0.0309  0.7703  0.3910
 7054SOL    HW132795   0.167   0.743   2.972  0.3557  0.0128  2.3360
 7054SOL    HW232796   0.283   0.821   2.920  3.1763 -0.2691 -0.1029
 7055SOL     OW32797   2.513   0.204   5.729 -0.5996 -0.4094  0.5361
 7055SOL    HW132798   2.423   0.186   5.758 -0.0631 -0.6752  2.0442
 7055SOL    HW232799   2.567   0.126   5.738 -2.2478 -1.3619  2.2283
 7056SOL     OW32800   2.661   2.286   3.202  0.0784  0.0189 -0.2636
 7056SOL    HW132801   2.665   2.241   3.118 -2.9483 -0.6537 -0.0487
 7056SOL    HW232802   2.639   2.378   3.186 -2.3185 -0.6337 -0.7324
 7057SOL     OW32803   1.553   1.067   6.261 -0.1766  0.0622 -0.2518
 7057SOL    HW132804   1.533   1.141   6.204 -1.0751 -0.4002 -0.5343
 7057SOL    HW232805   1.613   1.021   6.203 -0.5964 -0.0534 -0.5911
 7058SOL     OW32806   0.019   1.104  16.557 -0.5142  0.3106 -0.6053
 7058SOL    HW132807   0.097   1.154  16.534  0.6431 -1.8672 -1.3880
 7058SOL    HW232808   0.028   1.020  16.513  4.2998 -0.4824  1.8778
 7059SOL     OW32809   4.379   3.759   0.126 -0.2828  0.0560 -0.0196
 7059SOL    HW132810   4.414   3.848   0.129 -0.1814  0.0284 -0.3696
 7059SOL    HW232811   4.414   3.735   0.041 -0.7750  0.8409 -0.4419
 7060SOL     OW32812   1.282   0.713  12.612  0.5542 -0.9397  0.4600
 7060SOL    HW132813   1.332   0.740  12.689  1.3642  0.4474 -0.5289
 7060SOL    HW232814   1.190   0.715  12.638  0.4294  0.5444 -0.0466
 7061SOL     OW32815   3.686   0.722   9.087  0.1741  0.1423  0.0639
 7061SOL    HW132816   3.772   0.720   9.130  0.6363  1.3290 -0.7776
 7061SOL    HW232817   3.705   0.705   8.995 -2.7004 -2.5932  0.0143
 7062SOL     OW32818   0.863   2.145  10.790 -0.8051  0.5023  0.2371
 7062SOL    HW132819   0.915   2.179  10.863 -0.8675  1.0872  0.0120
 7062SOL    HW232820   0.777   2.160  10.830  0.1561  0.3754  2.3729
 7063SOL     OW32821   4.313   2.435   7.288  0.3017 -0.1051 -0.4325
 7063SOL    HW132822   4.225   2.461   7.260  0.9753  2.9949  0.2612
 7063SOL    HW232823   4.298   2.414   7.380  0.3941  0.0929 -0.3722
 7064SOL     OW32824   0.053   4.471   3.597  0.4608  0.3237  0.0952
 7064SOL    HW132825   0.039   4.376   3.602  1.4522  0.1912  0.3481
 7064SOL    HW232826   0.073   4.499   3.508 -1.6347  1.0663 -0.1361
 7065SOL     OW32827   1.713   2.260   5.888 -0.1743  0.6346 -0.3356
 7065SOL    HW132828   1.691   2.220   5.972  3.1106  0.7443  0.5689
 7065SOL    HW232829   1.666   2.206   5.825 -0.1485 -0.7913  0.8706
 7066SOL     OW32830   3.611   3.264   4.048 -0.5324  0.1977  0.6323
 7066SOL    HW132831   3.548   3.262   4.120 -0.2447  1.7600  0.9261
 7066SOL    HW232832   3.625   3.173   4.021 -0.1326  1.0168 -1.9198
 7067SOL     OW32833   2.253   2.239   1.601  0.1715 -0.1743  0.0234
 7067SOL    HW132834   2.346   2.245   1.622  0.2141 -1.1532  0.0863
 7067SOL    HW232835   2.244   2.320   1.550  1.1192 -1.2979 -1.9305
 7068SOL     OW32836   1.585   0.991  15.384 -0.0400  0.2845  0.4440
 7068SOL    HW132837   1.533   1.043  15.323 -1.7823 -0.7621  1.0245
 7068SOL    HW232838   1.650   0.952  15.326 -2.4218 -2.8358 -0.1506
 7069SOL     OW32839   3.806   2.746  15.142  0.0848 -0.2851 -0.1259
 7069SOL    HW132840   3.844   2.667  15.104 -2.5597 -1.2644 -0.7469
 7069SOL    HW232841   3.762   2.771  15.060 -1.6989  2.6700  1.7589
 7070SOL     OW32842   0.750   1.591   4.991  0.1372  0.3222  0.5753
 7070SOL    HW132843   0.743   1.573   5.085 -2.1073  1.9392  0.7239
 7070SOL    HW232844   0.833   1.547   4.975 -0.6591 -0.7492 -0.6251
 7071SOL     OW32845   3.181   4.021   7.445  0.0830  0.2131 -0.1097
 7071SOL    HW132846   3.092   4.048   7.468 -0.3889 -0.8828 -0.6229
 7071SOL    HW232847   3.166   3.995   7.354  0.9241  2.1614 -0.7989
 7072SOL     OW32848   4.305   4.487   6.985  0.3794  0.6159 -0.0989
 7072SOL    HW132849   4.339   4.416   7.040 -3.2766  0.2624  1.6740
 7072SOL    HW232850   4.219   4.504   7.024  1.1700  1.6921  1.2018
 7073SOL     OW32851   0.764   1.080   3.141 -0.1535  0.0483 -0.2144
 7073SOL    HW132852   0.768   0.986   3.157 -1.6973 -0.0624 -0.4715
 7073SOL    HW232853   0.699   1.082   3.071 -0.7705  0.6681  0.3835
 7074SOL     OW32854   2.784   1.815   2.550  0.1124  0.1914  0.3357
 7074SOL    HW132855   2.742   1.729   2.557 -2.1626  1.3180  0.4876
 7074SOL    HW232856   2.735   1.861   2.482  2.0839  1.0400 -0.4918
 7075SOL     OW32857   2.510   4.689   8.322  0.3790  0.7693  0.4409
 7075SOL    HW132858   2.485   4.711   8.232 -1.5583  0.2415  0.8559
 7075SOL    HW232859   2.602   4.667   8.308  0.1127 -0.4882  0.6272
 7076SOL     OW32860   4.695   1.081  12.953 -0.1268  0.3541 -0.1179
 7076SOL    HW132861   0.019   1.119  12.893  1.4815 -2.0204  0.0985
 7076SOL    HW232862   4.624   1.144  12.941  1.3349  1.6490 -2.0516
 7077SOL     OW32863   2.627   1.640   4.761 -0.4292  0.4257  0.4014
 7077SOL    HW132864   2.557   1.600   4.710 -1.3279  1.5771  0.7260
 7077SOL    HW232865   2.688   1.567   4.776 -2.0760 -0.8245  1.0111
 7078SOL     OW32866   3.870   3.814   9.951 -0.3917  0.4862  0.0962
 7078SOL    HW132867   3.922   3.844  10.025  0.1162  1.5244 -0.6674
 7078SOL    HW232868   3.884   3.881   9.884 -1.7584  0.0737 -0.5961
 7079SOL     OW32869   2.003   4.358  10.099  0.4024 -0.7989 -0.5904
 7079SOL    HW132870   2.061   4.423  10.140 -1.8106  1.9606 -1.7995
 7079SOL    HW232871   1.971   4.313  10.176  0.8111  2.4902  1.5050
 7080SOL     OW32872   0.092   3.539   6.198 -0.0104  0.5566 -0.1334
 7080SOL    HW132873   0.017   3.498   6.240 -1.5202  1.1392 -2.2608
 7080SOL    HW232874   0.161   3.472   6.191 -0.2559  0.3069 -0.1719
 7081SOL     OW32875   2.363   3.185   9.172 -0.8095 -0.4464 -0.4196
 7081SOL    HW132876   2.347   3.091   9.177 -2.0251 -0.1740  0.7615
 7081SOL    HW232877   2.317   3.216   9.250  0.5572  1.3559 -0.3172
 7082SOL     OW32878   1.463   1.850   3.343  0.0954  0.1261  0.3101
 7082SOL    HW132879   1.511   1.819   3.266  0.3804  0.0654  0.5163
 7082SOL    HW232880   1.536   1.881   3.395  1.4613 -1.2147 -0.7721
 7083SOL     OW32881   0.918   2.097  11.819 -0.0058 -0.1100 -0.4056
 7083SOL    HW132882   1.004   2.070  11.787  0.2200 -0.0392  0.1356
 7083SOL    HW232883   0.882   2.008  11.815 -0.4122 -0.0309  1.4313
 7084SOL     OW32884   3.066   3.646   4.880  0.0555 -0.3441 -0.0351
 7084SOL    HW132885   2.981   3.689   4.871  0.1249 -0.5042 -1.4247
 7084SOL    HW232886   3.062   3.619   4.972  1.3592 -2.4992 -0.6336
 7085SOL     OW32887   4.676   4.569  16.565  0.2060  0.1250 -0.2214
 7085SOL    HW132888   4.674   4.496  16.626  0.8846  0.6279  0.3952
 7085SOL    HW232889   4.716   4.637  16.618 -0.8241 -0.0841  0.8227
 7086SOL     OW32890   1.322   0.860   8.069  0.0618  0.3938 -0.3845
 7086SOL    HW132891   1.347   0.782   8.118  1.3552  0.6966 -0.5655
 7086SOL    HW232892   1.271   0.901   8.139 -0.1854 -0.0966 -0.2790
 7087SOL     OW32893   0.312   3.852  16.775 -0.3064  0.6235 -0.3764
 7087SOL    HW132894   0.373   3.924  16.795  1.2213 -0.7000 -0.3135
 7087SOL    HW232895   0.379   3.785  16.784  0.1700  1.0020 -1.1211
 7088SOL     OW32896   1.784   2.537  16.410  0.1614 -1.1812 -0.2308
 7088SOL    HW132897   1.878   2.544  16.424 -0.0922  0.5748  0.6307
 7088SOL    HW232898   1.787   2.584  16.327 -3.0028  1.8335  1.3655
 7089SOL     OW32899   0.640   0.624   8.222 -0.2190  0.3920 -0.0972
 7089SOL    HW132900   0.668   0.684   8.153  0.7451  1.6524  1.4075
 7089SOL    HW232901   0.723   0.592   8.257 -1.2519 -1.0558  1.0558
 7090SOL     OW32902   3.285   3.657   3.909 -0.0662 -0.5726  0.5069
 7090SOL    HW132903   3.224   3.684   3.977 -1.7168 -0.1244 -1.1376
 7090SOL    HW232904   3.245   3.680   3.825 -0.3297  1.7325  1.2909
 7091SOL     OW32905   3.552   1.962   5.401  0.1701 -0.0438  0.5644
 7091SOL    HW132906   3.616   2.033   5.405 -1.7423  1.7066 -0.1118
 7091SOL    HW232907   3.468   2.007   5.392  0.4802  0.4486  0.1615
 7092SOL     OW32908   4.579   0.958   8.033 -0.1160 -0.3983  0.2971
 7092SOL    HW132909   4.566   0.950   8.128  0.1325 -1.8446  0.2176
 7092SOL    HW232910   4.651   0.898   8.011 -0.0170  0.6700 -2.2367
 7093SOL     OW32911   2.566   2.647  12.112  0.0608 -0.0164 -0.2488
 7093SOL    HW132912   2.518   2.726  12.087  2.6846  1.9263  0.8690
 7093SOL    HW232913   2.509   2.627  12.187 -2.2804  0.5765 -1.8738
 7094SOL     OW32914   2.430   2.161   9.556  0.3583  0.1502  0.9446
 7094SOL    HW132915   2.424   2.249   9.592 -0.6530  0.1678  0.7376
 7094SOL    HW232916   2.499   2.109   9.596 -0.7561 -2.5481 -0.6200
 7095SOL     OW32917   0.643   3.392   2.463 -0.3374  0.0544 -0.4791
 7095SOL    HW132918   0.669   3.368   2.552  2.2559  1.5377 -0.8166
 7095SOL    HW232919   0.735   3.385   2.436  0.0363  3.5569 -0.0353
 7096SOL     OW32920   1.863   1.955  12.712 -0.2901  0.3181  0.0868
 7096SOL    HW132921   1.896   1.907  12.788 -1.4934  0.3031  0.5978
 7096SOL    HW232922   1.779   1.995  12.734 -0.2706  0.7530 -0.6482
 7097SOL     OW32923   0.089   2.755   6.007 -0.3839  0.0363  0.2191
 7097SOL    HW132924   0.120   2.845   6.007  0.5881 -0.2967 -2.4427
 7097SOL    HW232925   0.154   2.719   6.067 -0.7646 -0.9490  0.0417
 7098SOL     OW32926   2.470   2.450   7.977 -0.2107  0.1051  0.4733
 7098SOL    HW132927   2.393   2.450   7.920 -0.9275  0.5718  1.4414
 7098SOL    HW232928   2.438   2.488   8.059 -2.2674  1.3404 -0.8856
 7099SOL     OW32929   0.925   4.030  10.308  0.3707 -0.2629  0.1919
 7099SOL    HW132930   0.848   4.058  10.357  2.4569  1.4995  2.3827
 7099SOL    HW232931   0.969   3.970  10.368  0.2081  0.8491  1.4166
 7100SOL     OW32932   2.554   1.574   6.720  0.1889  0.1392  0.2483
 7100SOL    HW132933   2.646   1.583   6.696 -0.1120 -1.4210 -1.4477
 7100SOL    HW232934   2.517   1.562   6.633  1.4337  3.2793 -0.7141
 7101SOL     OW32935   4.207   3.297   9.930  0.6016  0.7437  0.2306
 7101SOL    HW132936   4.229   3.259  10.015 -2.6596 -1.4735  0.1102
 7101SOL    HW232937   4.217   3.390   9.951 -0.7908  0.6372  1.4015
 7102SOL     OW32938   4.696   1.436  13.147 -0.5346  0.0225  0.5508
 7102SOL    HW132939   4.618   1.443  13.093  0.6489 -0.6129 -1.2365
 7102SOL    HW232940   0.001   1.517  13.123  1.3695 -1.8636 -2.2015
 7103SOL     OW32941   4.052   3.309  14.823 -0.0002 -0.4196 -0.0164
 7103SOL    HW132942   3.962   3.316  14.853  1.1640  2.3580  2.8075
 7103SOL    HW232943   4.049   3.375  14.754  1.8067  0.4313  0.7287
 7104SOL     OW32944   4.605   3.561  17.576  0.3020  0.2857  0.3708
 7104SOL    HW132945   4.661   3.621  17.626  1.5552 -0.0862 -0.5835
 7104SOL    HW232946   4.570   3.616  17.506  2.1725 -0.5740 -1.2448
 7105SOL     OW32947   3.797   2.645   3.853 -0.2732  0.6487 -0.2035
 7105SOL    HW132948   3.742   2.723   3.844  1.2921  1.7711 -0.1637
 7105SOL    HW232949   3.827   2.628   3.764 -2.6694 -1.2079 -0.6273
 7106SOL     OW32950   1.843   1.019  12.985  0.0084  0.1439 -0.6102
 7106SOL    HW132951   1.868   0.930  12.960  0.4050 -0.2615  1.2553
 7106SOL    HW232952   1.798   1.011  13.069 -0.2188  0.2297 -0.7234
 7107SOL     OW32953   1.409   2.169  16.351  0.1068  0.3948 -0.7808
 7107SOL    HW132954   1.437   2.078  16.363 -0.1385  0.8100  2.8254
 7107SOL    HW232955   1.496   2.206  16.364 -1.2497  3.3211  0.0558
 7108SOL     OW32956   1.213   2.252   8.784 -0.1914 -0.2201 -0.1148
 7108SOL    HW132957   1.195   2.176   8.840  1.7977 -1.0362 -0.5858
 7108SOL    HW232958   1.122   2.263   8.755 -0.0298 -2.0968 -1.2914
 7109SOL     OW32959   4.216   2.514   4.414  0.3958 -0.2341  0.2024
 7109SOL    HW132960   4.185   2.505   4.504 -0.7809  0.3239 -0.1472
 7109SOL    HW232961   4.229   2.424   4.384 -2.0854 -0.5437  0.0886
 7110SOL     OW32962   3.215   1.502  11.367 -0.0409  0.2654  0.4965
 7110SOL    HW132963   3.147   1.569  11.367 -0.3747 -0.0710  2.5421
 7110SOL    HW232964   3.167   1.424  11.397  0.7263  0.5791  2.5624
 7111SOL     OW32965   3.641   1.098   5.653 -0.1635  0.2441  0.4031
 7111SOL    HW132966   3.639   1.003   5.667 -2.8946  0.4859  1.5707
 7111SOL    HW232967   3.641   1.129   5.744  0.3607  0.1257  0.4447
 7112SOL     OW32968   4.612   2.067   4.473  0.1326 -0.5642 -0.1718
 7112SOL    HW132969   4.602   2.062   4.378 -1.1346 -1.7407  0.0265
 7112SOL    HW232970   4.698   2.107   4.487  0.3709 -0.9389 -0.5545
 7113SOL     OW32971   4.299   2.016  11.809  0.6898 -0.2475 -0.6153
 7113SOL    HW132972   4.385   2.005  11.769  0.4612 -0.6467 -0.9964
 7113SOL    HW232973   4.321   2.042  11.899 -0.0319 -2.3032  0.1647
 7114SOL     OW32974   4.287   4.110   5.592  0.0848  0.3001  0.4502
 7114SOL    HW132975   4.246   4.152   5.667  1.7252 -2.6355  2.9692
 7114SOL    HW232976   4.380   4.126   5.610  0.2435  0.2938 -0.3415
 7115SOL     OW32977   4.335   0.669  10.195  0.0983  0.0518  0.1903
 7115SOL    HW132978   4.389   0.742  10.223  0.1634  0.1161 -0.0997
 7115SOL    HW232979   4.286   0.643  10.273 -0.3997 -2.0528 -0.7938
 7116SOL     OW32980   0.658   3.848   7.853  0.0204  0.3215  0.4074
 7116SOL    HW132981   0.615   3.817   7.934  1.2416 -0.1522  0.8810
 7116SOL    HW232982   0.633   3.773   7.799 -1.7809  3.4286 -3.0715
 7117SOL     OW32983   0.503   2.899   5.434 -1.0307  0.1634 -0.3780
 7117SOL    HW132984   0.545   2.916   5.518 -2.0351  0.7794  0.0091
 7117SOL    HW232985   0.572   2.849   5.391 -1.1601 -0.7153  0.4410
 7118SOL     OW32986   2.087   2.498   4.129  0.3354  0.5787 -0.2535
 7118SOL    HW132987   2.116   2.410   4.108 -0.4386  0.4663 -0.8397
 7118SOL    HW232988   1.994   2.482   4.111  0.3254  0.9203 -0.5207
 7119SOL     OW32989   0.140   0.366  12.792 -0.2671  0.2151 -0.2669
 7119SOL    HW132990   0.112   0.281  12.826 -0.8146  0.0793 -1.0566
 7119SOL    HW232991   0.148   0.349  12.698  0.2814  0.3811 -0.2481
 7120SOL     OW32992   4.499   4.676   7.398 -0.5977  0.4472  0.1180
 7120SOL    HW132993   4.430   4.658   7.334 -2.0695  3.7437  0.7722
 7120SOL    HW232994   4.575   4.654   7.345 -0.7244 -2.7164  1.2766
 7121SOL     OW32995   0.805   0.878   6.403  0.3718 -0.0309 -0.4276
 7121SOL    HW132996   0.788   0.797   6.356 -1.3544 -0.1766  0.4295
 7121SOL    HW232997   0.749   0.946   6.364  1.2682  1.4455  0.8422
 7122SOL     OW32998   1.252   4.284   5.299  0.0418 -0.0418  0.2104
 7122SOL    HW132999   1.280   4.339   5.372 -0.9674  1.5288 -0.5667
 7122SOL    HW233000   1.157   4.277   5.313  0.4002 -2.3303  1.3786
 7123SOL     OW33001   0.154   2.646   0.255  0.0083  0.2501 -0.5068
 7123SOL    HW133002   0.065   2.616   0.236 -0.2296  0.3352  0.4777
 7123SOL    HW233003   0.192   2.655   0.167 -0.0673 -0.1131 -0.5752
 7124SOL     OW33004   1.972   0.015   5.301 -0.5228  0.5643 -0.0969
 7124SOL    HW133005   1.910   0.022   5.373  0.8035 -0.4181  1.1462
 7124SOL    HW233006   1.944   4.681   5.247  0.5961 -1.1499  1.6692
 7125SOL     OW33007   3.209   0.549   7.005  0.0261  0.2675 -0.1646
 7125SOL    HW133008   3.227   0.617   7.070  1.1939 -0.5686  0.3931
 7125SOL    HW233009   3.270   0.479   7.032 -0.2596 -0.3625 -1.1699
 7126SOL     OW33010   1.162   1.030  10.627 -0.3129  0.1170  1.0590
 7126SOL    HW133011   1.116   1.016  10.710 -0.4752  0.6102  1.0495
 7126SOL    HW233012   1.232   0.966  10.634  0.5300  0.9968  0.6533
 7127SOL     OW33013   0.677   3.441   1.711  0.8430 -0.0747 -0.2454
 7127SOL    HW133014   0.625   3.392   1.647  0.3679  0.9243 -0.6192
 7127SOL    HW233015   0.766   3.421   1.682  0.4336 -0.5394 -1.1887
 7128SOL     OW33016   1.206   4.264   4.342  0.5642 -0.2353 -0.0608
 7128SOL    HW133017   1.231   4.233   4.429  1.6236 -1.2758 -0.7403
 7128SOL    HW233018   1.256   4.214   4.278 -1.5488 -1.1942 -0.9263
 7129SOL     OW33019   4.215   1.601   6.962 -0.1445  0.1161 -0.1149
 7129SOL    HW133020   4.141   1.641   7.007 -0.4313 -0.3946 -0.1347
 7129SOL    HW233021   4.233   1.526   7.018  0.4683  0.3445 -0.0028
 7130SOL     OW33022   2.578   3.050  10.017  0.4802 -0.1618 -0.4112
 7130SOL    HW133023   2.669   3.055   9.988  0.2045  0.6072 -1.1771
 7130SOL    HW233024   2.550   2.971   9.971 -1.2541  1.1813 -1.6576
 7131SOL     OW33025   2.751   2.209   9.630 -0.1382 -0.0111  0.1631
 7131SOL    HW133026   2.815   2.191   9.561 -0.3529 -0.4042  0.0701
 7131SOL    HW233027   2.706   2.126   9.644  0.1293 -0.1043  0.4819
 7132SOL     OW33028   1.044   2.104   2.786 -0.4040  0.0639  0.3453
 7132SOL    HW133029   1.022   2.195   2.764 -1.2796 -0.6749 -1.8518
 7132SOL    HW233030   0.955   2.077   2.809 -0.2410 -1.2102 -0.5344
 7133SOL     OW33031   2.434   0.549   9.759 -0.1704  0.3164  0.0934
 7133SOL    HW133032   2.384   0.552   9.678  0.6548 -2.4551 -0.5208
 7133SOL    HW233033   2.433   0.632   9.807 -0.2980  1.6567 -2.2549
 7134SOL     OW33034   2.423   1.974   2.716 -0.2964  0.1677 -0.0698
 7134SOL    HW133035   2.422   2.030   2.794 -0.0166  1.9754 -1.3437
 7134SOL    HW233036   2.332   1.997   2.699  0.4942  2.9910 -0.6047
 7135SOL     OW33037   4.480   3.489  15.171 -0.2707 -0.6777  0.1440
 7135SOL    HW133038   4.557   3.469  15.118  0.3137 -0.4864  0.9208
 7135SOL    HW233039   4.495   3.453  15.259 -0.7980  1.1561  0.9922
 7136SOL     OW33040   2.342   2.614   8.232 -0.4434  0.5681  0.4755
 7136SOL    HW133041   2.326   2.676   8.304 -1.1237  1.4398 -0.4264
 7136SOL    HW233042   2.252   2.602   8.201  0.4587  0.5463 -2.1321
 7137SOL     OW33043   1.930   3.875   4.234 -0.0494  0.6661 -0.1746
 7137SOL    HW133044   1.893   3.812   4.296 -0.1129  0.0563 -0.8336
 7137SOL    HW233045   1.856   3.878   4.173  0.1585 -1.4997 -0.5460
 7138SOL     OW33046   1.907   3.216   3.490 -0.2739 -0.2868  0.4810
 7138SOL    HW133047   1.944   3.301   3.468  0.4999 -1.3743 -2.4776
 7138SOL    HW233048   1.849   3.204   3.414 -0.9714 -0.4072  1.0367
 7139SOL     OW33049   2.761   4.013   1.274  0.3571  0.3336 -0.1151
 7139SOL    HW133050   2.670   4.043   1.274 -0.4035 -1.9404  1.6710
 7139SOL    HW233051   2.759   3.940   1.337 -1.9899 -0.3394 -0.9593
 7140SOL     OW33052   0.608   4.212   3.728  0.4373 -0.7592  0.3453
 7140SOL    HW133053   0.561   4.282   3.775 -1.5599 -1.3459 -0.7927
 7140SOL    HW233054   0.623   4.147   3.797  0.7236 -1.4455 -0.3767
 7141SOL     OW33055   1.668   0.405   8.132  0.0516  0.0617  0.1358
 7141SOL    HW133056   1.629   0.335   8.079 -1.9291  2.0767 -1.0579
 7141SOL    HW233057   1.712   0.350   8.197 -1.4421 -1.5960 -0.2478
 7142SOL     OW33058   0.615   0.506   2.251 -0.6725  0.2809  0.2300
 7142SOL    HW133059   0.522   0.526   2.255 -0.5241  0.8244  0.9221
 7142SOL    HW233060   0.648   0.520   2.339  1.4134  0.4636 -0.5719
 7143SOL     OW33061   1.077   4.615   6.051  0.2183  0.0222  0.3037
 7143SOL    HW133062   1.124   4.685   6.006  2.2146  0.5086  3.1592
 7143SOL    HW233063   1.135   4.541   6.036  0.2218 -0.1483  1.1949
 7144SOL     OW33064   2.024   3.098   4.642 -0.3083 -0.5606  0.1271
 7144SOL    HW133065   2.081   3.133   4.573  0.2211 -3.1397 -0.7558
 7144SOL    HW233066   1.939   3.133   4.615  1.0714  1.4707 -1.5717
 7145SOL     OW33067   1.946   1.630   3.096 -0.8259 -0.6399  0.7485
 7145SOL    HW133068   1.995   1.569   3.040 -0.2504 -1.4506  2.1249
 7145SOL    HW233069   1.971   1.602   3.184  0.6072 -0.7499  0.3117
 7146SOL     OW33070   4.023   1.377   5.747  0.0927  0.2863  0.1022
 7146SOL    HW133071   3.960   1.333   5.690  2.3858 -0.4769 -1.8234
 7146SOL    HW233072   3.975   1.458   5.765  1.7709  1.1036  0.9387
 7147SOL     OW33073   4.111   3.747  12.569  0.2140 -0.0432  0.3915
 7147SOL    HW133074   4.070   3.713  12.649 -0.2027 -1.7030 -0.5146
 7147SOL    HW233075   4.090   3.673  12.512 -1.5288  1.3598 -0.7570
 7148SOL     OW33076   2.365   1.159   7.740 -0.2708 -0.0339 -0.7535
 7148SOL    HW133077   2.409   1.080   7.771 -1.2242 -0.1059  0.3999
 7148SOL    HW233078   2.278   1.119   7.736  0.7575 -2.2846 -0.4007
 7149SOL     OW33079   2.099   2.250   5.874 -0.2247 -0.1011  0.4245
 7149SOL    HW133080   2.166   2.318   5.881 -1.1916  1.0206 -1.6556
 7149SOL    HW233081   2.138   2.180   5.927  0.0498 -0.6275 -0.4638
 7150SOL     OW33082   3.672   2.212   4.074 -0.1673  0.1530  0.1475
 7150SOL    HW133083   3.726   2.187   4.148 -0.4037 -0.4974  0.0956
 7150SOL    HW233084   3.673   2.308   4.085 -1.7445  0.2955 -0.8337
 7151SOL     OW33085   4.360   3.742   7.298  0.8279  0.2586 -0.1836
 7151SOL    HW133086   4.269   3.762   7.316 -0.0762 -3.0738 -1.0883
 7151SOL    HW233087   4.357   3.691   7.217 -1.0504 -1.1167  0.7606
 7152SOL     OW33088   3.254   0.140   2.324  0.1578  0.0449  0.0613
 7152SOL    HW133089   3.296   0.112   2.405 -1.5258  0.3279  1.0419
 7152SOL    HW233090   3.316   0.100   2.263  0.9370  0.7072  0.4168
 7153SOL     OW33091   4.695   2.804   2.069  0.2382  0.3076 -0.1496
 7153SOL    HW133092   4.704   2.898   2.055 -0.8249  0.3517 -0.5795
 7153SOL    HW233093   0.041   2.781   2.035  0.8537  0.2706  1.4232
 7154SOL     OW33094   2.667   0.804   1.435 -0.3084  0.5097 -0.5653
 7154SOL    HW133095   2.607   0.861   1.481  0.9888  2.0011 -0.7332
 7154SOL    HW233096   2.610   0.768   1.368  0.1069 -0.8884 -0.1891
 7155SOL     OW33097   3.281   2.567   6.819  0.0829  0.0499  0.4414
 7155SOL    HW133098   3.191   2.598   6.828  0.1673  0.2245  0.6732
 7155SOL    HW233099   3.268   2.475   6.842  0.4763  0.0056  0.4922
 7156SOL     OW33100   0.429   0.216   9.801  0.2113 -0.7327 -0.4085
 7156SOL    HW133101   0.414   0.307   9.826  0.1184 -0.2729 -2.1030
 7156SOL    HW233102   0.519   0.210   9.768  0.2761 -0.0877 -0.3579
 7157SOL     OW33103   0.788   0.874   7.112 -0.0836  0.4184 -0.1120
 7157SOL    HW133104   0.795   0.818   7.189  3.4459 -0.2229 -0.8591
 7157SOL    HW233105   0.878   0.868   7.079  0.0677  0.8360  0.2304
 7158SOL     OW33106   1.367   0.525   1.261  0.7173 -0.4240 -0.2811
 7158SOL    HW133107   1.279   0.492   1.240  0.2429  0.5343  0.2115
 7158SOL    HW233108   1.388   0.464   1.332 -2.2268  0.5512  1.4305
 7159SOL     OW33109   2.424   0.452   8.766  0.4434 -0.4127  0.2004
 7159SOL    HW133110   2.504   0.400   8.757  1.1627  0.7887 -0.3496
 7159SOL    HW233111   2.387   0.435   8.852 -0.2820 -1.1781 -0.2596
 7160SOL     OW33112   1.608   2.554  17.335 -0.1423  0.2523 -0.1964
 7160SOL    HW133113   1.658   2.474  17.352  3.9779  3.1790  1.4708
 7160SOL    HW233114   1.640   2.599  17.413  0.5130 -0.8698  0.1953
 7161SOL     OW33115   4.361   2.162   1.416 -0.0469 -0.1320  0.3506
 7161SOL    HW133116   4.301   2.093   1.445  1.1132 -2.2779 -2.3585
 7161SOL    HW233117   4.300   2.232   1.394 -0.4888 -0.0845  1.6911
 7162SOL     OW33118   1.072   0.122   4.127  0.0873 -0.6788 -0.0986
 7162SOL    HW133119   1.093   0.049   4.067 -0.2508  0.4990 -1.6579
 7162SOL    HW233120   1.162   0.141   4.152  0.0453 -0.2411 -0.2864
 7163SOL     OW33121   2.577   3.240   2.358 -0.4252 -0.1627 -0.5046
 7163SOL    HW133122   2.589   3.326   2.400 -0.7867 -0.5079  0.2863
 7163SOL    HW233123   2.664   3.200   2.365  0.4029  2.0078  1.5502
 7164SOL     OW33124   4.667   1.750   9.460  0.1622  0.3374  0.2542
 7164SOL    HW133125   0.021   1.764   9.471  0.0961  0.1228  1.0841
 7164SOL    HW233126   4.623   1.819   9.509  0.0725 -0.4559  1.2759
 7165SOL     OW33127   4.267   2.869   8.770 -0.0548 -0.0302  0.7938
 7165SOL    HW133128   4.294   2.857   8.679 -3.4340 -0.7739 -0.1452
 7165SOL    HW233129   4.176   2.842   8.783 -0.1363 -0.3402 -0.4712
 7166SOL     OW33130   3.671   2.101   5.025 -0.2775 -0.2477 -0.2962
 7166SOL    HW133131   3.698   2.193   5.016 -1.7662  0.0766 -1.5884
 7166SOL    HW233132   3.576   2.106   5.015 -0.1919  1.5686 -0.3518
 7167SOL     OW33133   1.882   0.184   1.003  0.4375 -0.2738 -0.0356
 7167SOL    HW133134   1.826   0.126   0.953  0.9360  1.1438 -2.2414
 7167SOL    HW233135   1.947   0.120   1.033  0.0075  0.0143  1.5572
 7168SOL     OW33136   2.642   2.042  13.417 -0.4258  0.1255 -0.1711
 7168SOL    HW133137   2.677   1.955  13.397 -0.0508  0.7455 -2.2498
 7168SOL    HW233138   2.653   2.040  13.512  1.5397 -0.2997 -0.3944
 7169SOL     OW33139   2.989   3.888  15.360  0.1164 -0.5218  0.0940
 7169SOL    HW133140   2.947   3.854  15.439 -0.7290 -2.0833 -1.0355
 7169SOL    HW233141   2.962   3.980  15.363 -1.0717 -0.8600 -0.0362
 7170SOL     OW33142   4.568   3.502   2.734  0.1634  0.1681 -0.4130
 7170SOL    HW133143   4.542   3.537   2.819 -1.1146 -0.7900 -0.4125
 7170SOL    HW233144   4.552   3.575   2.674 -0.6932 -0.4430 -0.9294
 7171SOL     OW33145   3.849   3.783   3.450  0.1806  0.4840 -0.4793
 7171SOL    HW133146   3.932   3.738   3.436 -0.3767 -0.3759 -1.0154
 7171SOL    HW233147   3.825   3.822   3.366  0.7369 -1.7074 -1.6519
 7172SOL     OW33148   0.216   0.834   9.556  0.1440 -0.3077 -0.2310
 7172SOL    HW133149   0.179   0.772   9.618  0.5421  0.7018  1.0113
 7172SOL    HW233150   0.152   0.905   9.562 -0.0721 -0.3369 -2.1933
 7173SOL     OW33151   3.269   2.404   7.525 -0.3917 -0.4898  0.4224
 7173SOL    HW133152   3.360   2.428   7.511 -0.4122 -0.5120  0.2435
 7173SOL    HW233153   3.231   2.424   7.439 -0.2676  0.0728  0.5040
 7174SOL     OW33154   2.699   1.927   6.030  0.3333 -0.7024 -0.5307
 7174SOL    HW133155   2.616   1.936   6.076 -0.0520  0.3650 -1.4377
 7174SOL    HW233156   2.737   2.015   6.029 -0.7128 -0.2674 -1.0564
 7175SOL     OW33157   3.913   4.672  10.944 -0.1810 -0.3055  0.7252
 7175SOL    HW133158   3.898   0.020  10.978 -0.3207 -1.0054  2.5000
 7175SOL    HW233159   3.950   4.692  10.858  0.2910 -2.0861  0.5083
 7176SOL     OW33160   0.188   3.399   2.313  0.1488 -0.2791  0.2551
 7176SOL    HW133161   0.175   3.435   2.225  0.0592  1.6243  1.0609
 7176SOL    HW233162   0.264   3.453   2.331  0.4389 -0.6209  0.0563
 7177SOL     OW33163   0.638   0.312   2.063 -0.4359 -0.1261  0.3991
 7177SOL    HW133164   0.613   0.363   2.140  1.3422  1.2295  0.0800
 7177SOL    HW233165   0.729   0.336   2.044 -0.8448 -0.7082 -2.2300
 7178SOL     OW33166   1.788   0.511   0.680  0.1974  0.2500  0.0436
 7178SOL    HW133167   1.796   0.415   0.678 -1.5866  0.1186 -1.1034
 7178SOL    HW233168   1.743   0.517   0.595 -0.4823  0.4732  0.4244
 7179SOL     OW33169   2.803   3.756   4.817 -0.5024 -0.0163  0.6113
 7179SOL    HW133170   2.716   3.747   4.777  0.0331  2.5780 -1.1064
 7179SOL    HW233171   2.770   3.786   4.902 -1.3383  0.6420  0.0633
 7180SOL     OW33172   1.790   2.505   4.112 -0.5112 -0.2171  0.1134
 7180SOL    HW133173   1.773   2.598   4.126 -1.5086 -0.5827  1.2914
 7180SOL    HW233174   1.787   2.498   4.017 -1.3402  1.6517  0.0108
 7181SOL     OW33175   2.869   1.442   3.870 -0.4322  0.1679  0.6839
 7181SOL    HW133176   2.931   1.370   3.880  0.8720  1.6846  3.4536
 7181SOL    HW233177   2.804   1.419   3.936 -0.2943 -0.7142  0.5129
 7182SOL     OW33178   2.914   1.924   9.051  0.0475 -0.0250 -0.3992
 7182SOL    HW133179   2.859   1.883   9.118 -1.3782  1.6775 -0.5221
 7182SOL    HW233180   2.852   1.960   8.988 -0.3963 -0.1137 -0.0212
 7183SOL     OW33181   1.254   0.503   8.986 -0.2441  0.5213 -0.6515
 7183SOL    HW133182   1.188   0.537   9.047  0.2188 -2.1044  1.3231
 7183SOL    HW233183   1.283   0.583   8.944 -1.3330  1.1842 -0.1630
 7184SOL     OW33184   2.404   2.010   3.969 -0.3755 -0.3922 -0.0643
 7184SOL    HW133185   2.496   1.993   3.984 -0.2575  0.2645 -0.0471
 7184SOL    HW233186   2.402   2.105   3.961  0.7926 -0.3123  0.7204
 7185SOL     OW33187   2.437   2.341   5.670  0.0145 -0.3610 -0.0136
 7185SOL    HW133188   2.376   2.287   5.621 -1.3438  1.0902  0.1015
 7185SOL    HW233189   2.382   2.385   5.735  0.0699 -0.9520  0.4410
 7186SOL     OW33190   3.751   3.351   5.282 -0.0502 -0.1674  0.4603
 7186SOL    HW133191   3.721   3.442   5.280  0.6456  0.0126 -2.3784
 7186SOL    HW233192   3.829   3.360   5.227 -0.2152  0.8417  0.3846
 7187SOL     OW33193   2.062   0.785   6.986  0.2418  0.0107  0.1449
 7187SOL    HW133194   2.129   0.803   6.919  1.2077 -0.3856  1.0027
 7187SOL    HW233195   2.093   0.696   7.004  0.5864  0.1951  0.4495
 7188SOL     OW33196   3.296   3.256   0.158  0.2495 -0.3090  0.4453
 7188SOL    HW133197   3.276   3.163   0.148  0.3289 -0.3858  1.0034
 7188SOL    HW233198   3.329   3.273   0.070 -2.3276  0.8038 -0.3201
 7189SOL     OW33199   3.837   4.110   3.023  0.3934  0.3105  0.0163
 7189SOL    HW133200   3.928   4.123   3.050  1.0226 -2.8869 -0.5595
 7189SOL    HW233201   3.790   4.193   3.030 -2.5052 -1.4187  1.1346
 7190SOL     OW33202   1.810   1.085   5.798  0.1724 -0.4982 -0.0399
 7190SOL    HW133203   1.779   1.151   5.859  0.0914  0.8171 -1.4920
 7190SOL    HW233204   1.766   1.099   5.714  1.9459  1.5101 -0.6206
 7191SOL     OW33205   1.217   1.292   9.414  0.6801 -0.4170  0.1199
 7191SOL    HW133206   1.215   1.203   9.378  0.6275 -0.4130  0.1129
 7191SOL    HW233207   1.132   1.302   9.457  1.1908 -0.4736  1.1471
 7192SOL     OW33208   3.424   1.754  17.323 -0.5326  0.0243  0.0189
 7192SOL    HW133209   3.375   1.690  17.271  0.3123 -1.0227  0.5177
 7192SOL    HW233210   3.478   1.700  17.381  1.9020  1.4303 -0.9174
 7193SOL     OW33211   0.610   3.218   8.665  0.5916 -0.2633 -0.1354
 7193SOL    HW133212   0.694   3.173   8.654  1.2303  0.3632  2.2398
 7193SOL    HW233213   0.626   3.289   8.727 -1.6612 -0.5301  0.7286
 7194SOL     OW33214   1.157   1.659  11.747  0.1131 -0.0038  0.2947
 7194SOL    HW133215   1.235   1.661  11.802  1.5082 -2.0928 -1.6424
 7194SOL    HW233216   1.102   1.622  11.817 -3.2681  0.4654 -2.1262
 7195SOL     OW33217   4.398   2.526  17.207 -0.5214  0.3066  0.0244
 7195SOL    HW133218   4.364   2.598  17.260 -3.0865 -1.1862  0.3612
 7195SOL    HW233219   4.377   2.452  17.264  0.8826 -0.7246 -0.7759
 7196SOL     OW33220   2.812   4.266   1.216  0.9377 -0.7435 -0.0130
 7196SOL    HW133221   2.752   4.234   1.149 -2.2572  0.1531  2.4181
 7196SOL    HW233222   2.816   4.183   1.264  1.3776 -1.1427 -0.7245
 7197SOL     OW33223   3.784   2.022   7.368  0.2685  0.3612  0.2835
 7197SOL    HW133224   3.767   1.930   7.387  2.1271 -0.2894 -1.1838
 7197SOL    HW233225   3.877   2.035   7.387 -0.2246  1.5994  1.8704
 7198SOL     OW33226   3.395   0.263   5.953  0.3362  0.5642 -0.5407
 7198SOL    HW133227   3.315   0.296   5.994  1.6233  0.6586  1.8358
 7198SOL    HW233228   3.457   0.334   5.966 -0.4628  0.8054  1.8829
 7199SOL     OW33229   2.470   1.811  16.541  0.1037  0.4373  0.2719
 7199SOL    HW133230   2.473   1.872  16.467 -1.0932  0.1136 -0.0370
 7199SOL    HW233231   2.478   1.732  16.488 -0.7214  0.4118  0.1832
 7200SOL     OW33232   4.508   2.278   0.878  0.0131 -0.0661  0.1234
 7200SOL    HW133233   4.601   2.271   0.900 -0.3927  1.5521  2.3458
 7200SOL    HW233234   4.465   2.246   0.957 -0.2634 -0.2616 -0.1057
 7201SOL     OW33235   1.086   1.038   2.026  0.4147 -0.4605 -0.6925
 7201SOL    HW133236   1.051   0.967   1.973 -0.7331 -0.4073 -0.0168
 7201SOL    HW233237   1.152   0.994   2.080 -0.7899 -1.4921 -0.0564
 7202SOL     OW33238   2.137   1.990   2.636 -0.3184 -0.2608 -0.4073
 7202SOL    HW133239   2.115   1.898   2.628  2.0935 -0.9492  0.7894
 7202SOL    HW233240   2.047   2.022   2.644 -0.3086 -1.0144  2.6860
 7203SOL     OW33241   0.123   2.301   2.332  0.3156 -0.0284  0.0614
 7203SOL    HW133242   0.090   2.249   2.258 -1.0422 -0.5454  1.0269
 7203SOL    HW233243   0.214   2.320   2.309 -0.3157  0.6932 -1.8115
 7204SOL     OW33244   1.675   0.386  14.111 -0.3335 -0.3018  0.0979
 7204SOL    HW133245   1.708   0.296  14.115 -0.1640 -0.2615 -0.3490
 7204SOL    HW233246   1.640   0.398  14.199  0.2508 -0.5068  0.3650
 7205SOL     OW33247   1.908   4.287   4.178 -0.3877 -1.3798 -0.4129
 7205SOL    HW133248   1.982   4.271   4.120 -0.8393  0.2522 -1.4118
 7205SOL    HW233249   1.954   4.294   4.262 -0.9473 -2.9727  0.0358
 7206SOL     OW33250   3.109   0.902   4.814 -0.3808 -0.5562 -0.0027
 7206SOL    HW133251   3.100   0.808   4.797  0.0621 -0.2308 -1.9927
 7206SOL    HW233252   3.040   0.927   4.752 -1.3311 -2.1728  0.4080
 7207SOL     OW33253   3.380   1.020   6.918 -1.3782  0.0768  0.0319
 7207SOL    HW133254   3.356   1.112   6.932  0.8144  0.3617  1.9915
 7207SOL    HW233255   3.301   0.974   6.948  0.6166 -3.3343  0.0039
 7208SOL     OW33256   0.865   1.928   5.621 -0.2413  0.3374  0.0057
 7208SOL    HW133257   0.882   2.022   5.615 -2.4028  0.8128  1.1958
 7208SOL    HW233258   0.897   1.904   5.708  0.3796  1.5855  0.1273
 7209SOL     OW33259   1.856   0.028   7.154 -0.2803 -0.9517  0.2575
 7209SOL    HW133260   1.827   0.096   7.215 -0.1679 -0.5535 -0.1374
 7209SOL    HW233261   1.821   0.077   7.080  0.0644  1.6211  1.8100
 7210SOL     OW33262   0.089   4.243   7.032 -0.1108  0.5151  0.0851
 7210SOL    HW133263   0.132   4.204   6.956  0.7027  1.3272  0.1298
 7210SOL    HW233264   0.034   4.314   7.001  1.6725  1.4400 -0.9596
 7211SOL     OW33265   2.507   3.143   3.047 -0.0949  0.2505  0.4243
 7211SOL    HW133266   2.593   3.177   3.019 -0.8364  0.8580 -1.0915
 7211SOL    HW233267   2.554   3.064   3.075 -1.7726 -0.8414  0.1649
 7212SOL     OW33268   0.881   0.552   8.326 -0.2799 -0.1421  0.1304
 7212SOL    HW133269   0.879   0.516   8.414 -2.7107 -0.9743 -0.2656
 7212SOL    HW233270   0.928   0.486   8.274  1.3556  0.9760  0.1771
 7213SOL     OW33271   2.250   1.469  15.193 -0.2654 -0.9966 -0.2761
 7213SOL    HW133272   2.315   1.536  15.214  0.3759 -1.5910 -0.3731
 7213SOL    HW233273   2.287   1.386  15.223  0.0745 -1.0251 -0.7707
 7214SOL     OW33274   0.010   0.856   3.848  0.0959  0.2130 -0.3572
 7214SOL    HW133275   0.076   0.848   3.916 -0.1862  1.5601  0.0733
 7214SOL    HW233276   0.055   0.833   3.767  0.2218  1.8661 -0.7457
 7215SOL     OW33277   1.249   0.587  12.360  0.2018  0.4028 -0.3683
 7215SOL    HW133278   1.251   0.641  12.439  0.8897 -0.5147  0.2496
 7215SOL    HW233279   1.161   0.551  12.358  0.4703 -0.2063 -1.1433
 7216SOL     OW33280   4.573   3.637   1.697 -0.2489  0.2157 -0.3976
 7216SOL    HW133281   4.496   3.603   1.652 -0.6689  2.5874 -1.4505
 7216SOL    HW233282   4.535   3.683   1.772 -0.6106 -1.0976  0.2225
 7217SOL     OW33283   1.820   1.410   7.540 -0.1311 -0.5418  0.8456
 7217SOL    HW133284   1.762   1.442   7.609 -0.8334  1.1471 -0.5057
 7217SOL    HW233285   1.762   1.388   7.467  2.4702 -1.2259 -1.0301
 7218SOL     OW33286   2.915   1.507  14.551  0.6282 -0.5633 -0.5311
 7218SOL    HW133287   2.992   1.505  14.494 -0.2183 -0.8588 -1.6515
 7218SOL    HW233288   2.925   1.588  14.602  0.9267 -0.1567 -1.2303
 7219SOL     OW33289   4.278   3.405   4.176  0.2985 -0.3065 -0.1646
 7219SOL    HW133290   4.218   3.436   4.108 -1.7561  0.0033  1.8242
 7219SOL    HW233291   4.295   3.315   4.148  2.2645  0.5073 -1.6232
 7220SOL     OW33292   1.871   1.691   6.266  0.3511 -0.0310  0.0516
 7220SOL    HW133293   1.917   1.739   6.198 -0.7441  1.3033  0.2519
 7220SOL    HW233294   1.800   1.748   6.296 -2.5023 -3.5143  0.0250
 7221SOL     OW33295   2.521   2.507  12.530 -0.0274 -0.6646  0.2562
 7221SOL    HW133296   2.595   2.490  12.472  1.0166 -1.8286  1.9404
 7221SOL    HW233297   2.573   2.511  12.610 -1.4005  1.3953  1.0579
 7222SOL     OW33298   3.226   1.111   1.661  0.7854  0.2529 -0.6247
 7222SOL    HW133299   3.272   1.028   1.665 -1.2801 -0.8357  0.3981
 7222SOL    HW233300   3.241   1.149   1.747 -2.0749 -0.2577  0.1086
 7223SOL     OW33301   3.010   1.184  14.437 -0.1112  0.0307  0.0384
 7223SOL    HW133302   2.977   1.260  14.485 -0.6977 -0.5148  0.5042
 7223SOL    HW233303   2.951   1.185  14.362 -0.1474 -0.8067  0.0471
 7224SOL     OW33304   0.096   1.225   1.037 -0.2415  0.1800  0.1252
 7224SOL    HW133305   0.145   1.169   0.977  0.6009 -0.9522  1.8446
 7224SOL    HW233306   0.011   1.230   0.993 -0.1365 -0.8809 -0.2060
 7225SOL     OW33307   0.333   3.194   8.731  0.2512  0.5575 -0.2299
 7225SOL    HW133308   0.275   3.155   8.665  2.4218 -0.1444 -1.7028
 7225SOL    HW233309   0.414   3.189   8.680  0.3965  2.2554 -0.1600
 7226SOL     OW33310   2.781   1.130   9.141 -0.5409  0.0085 -0.1295
 7226SOL    HW133311   2.725   1.054   9.158  0.1908 -0.4631  0.1788
 7226SOL    HW233312   2.815   1.116   9.053 -3.8418 -2.7500 -0.9619
 7227SOL     OW33313   4.506   3.095  13.989  0.3955  0.0790 -0.0005
 7227SOL    HW133314   4.444   3.168  13.986 -0.2380 -0.4685 -0.1364
 7227SOL    HW233315   4.468   3.046  14.062 -1.2305  0.7970 -0.3688
 7228SOL     OW33316   3.026   1.367   1.661 -0.1842 -0.2922 -0.6228
 7228SOL    HW133317   3.048   1.449   1.706  0.7192 -1.2504  0.6522
 7228SOL    HW233318   3.105   1.355   1.608  0.8197  0.3132  0.7426
 7229SOL     OW33319   0.690   1.962   3.507 -0.4636 -0.0717  0.2409
 7229SOL    HW133320   0.745   2.034   3.537 -0.6914  0.3723 -0.4148
 7229SOL    HW233321   0.719   1.947   3.417 -0.7075  0.1290  0.1309
 7230SOL     OW33322   2.704   1.908   8.443 -0.1839 -0.3550 -0.6417
 7230SOL    HW133323   2.693   1.864   8.527  1.3026 -2.1543 -1.3913
 7230SOL    HW233324   2.654   1.989   8.451 -0.5888 -0.6537 -0.0960
 7231SOL     OW33325   1.995   1.676  12.527  0.6816 -0.0229 -0.0985
 7231SOL    HW133326   1.973   1.757  12.573  1.1604  0.7902 -1.3020
 7231SOL    HW233327   2.084   1.696  12.498  0.7634  0.0347  0.1922
 7232SOL     OW33328   2.537   0.260  14.513  0.0132  0.9384 -0.0631
 7232SOL    HW133329   2.604   0.274  14.580  0.4427 -2.5641  0.2121
 7232SOL    HW233330   2.463   0.313  14.542  0.1552 -0.2681  2.4718
 7233SOL     OW33331   3.647   0.032   2.577 -0.0306 -0.1366  0.7332
 7233SOL    HW133332   3.699   4.722   2.514  0.5206 -0.0368  1.1045
 7233SOL    HW233333   3.683   4.733   2.657  0.5865  1.2114  1.1120
 7234SOL     OW33334   4.098   2.534  11.049  0.0035 -0.3029 -0.1325
 7234SOL    HW133335   4.076   2.624  11.023 -0.7450  0.2243  2.3158
 7234SOL    HW233336   4.069   2.490  10.970  2.5226  0.0207 -1.2110
 7235SOL     OW33337   4.670   4.344   8.444  0.2205 -0.2334  0.0324
 7235SOL    HW133338   4.730   4.339   8.369 -3.3234  1.2344 -2.9512
 7235SOL    HW233339   4.688   4.269   8.499 -0.3590  0.6262  1.3847
 7236SOL     OW33340   2.597   3.712   2.180  0.1196 -0.0854  0.5511
 7236SOL    HW133341   2.520   3.731   2.234 -2.1560 -2.3157 -1.8780
 7236SOL    HW233342   2.573   3.622   2.157 -1.0210  0.5689 -0.8426
 7237SOL     OW33343   1.039   1.808   8.779 -0.6354 -0.2224 -0.5281
 7237SOL    HW133344   1.076   1.799   8.691  0.0488  2.1307 -0.4770
 7237SOL    HW233345   0.969   1.744   8.765 -2.2647  1.9231 -2.2054
 7238SOL     OW33346   4.359   4.091   6.883 -0.7233 -0.0033 -0.0926
 7238SOL    HW133347   4.273   4.052   6.869 -1.7270  2.2909 -0.1719
 7238SOL    HW233348   4.342   4.185   6.890  0.4848  0.1445  0.9303
 7239SOL     OW33349   0.297   3.054  11.997 -0.0849 -0.0939  0.3375
 7239SOL    HW133350   0.291   3.104  12.079  0.4774  1.1009 -0.3484
 7239SOL    HW233351   0.281   2.962  12.018 -1.0599  0.2606  1.1491
 7240SOL     OW33352   2.274   1.344   2.764 -0.6318 -0.0248 -0.9438
 7240SOL    HW133353   2.236   1.327   2.677 -0.3491 -1.1320 -0.8555
 7240SOL    HW233354   2.240   1.266   2.808 -0.7807 -0.3278 -1.5790
 7241SOL     OW33355   2.020   3.649   6.312  0.2593  0.5992  0.2866
 7241SOL    HW133356   2.084   3.678   6.377  0.4266  0.2084  0.2909
 7241SOL    HW233357   2.074   3.645   6.234 -0.5491 -3.1339 -0.0538
 7242SOL     OW33358   2.001   4.484   2.854  0.2481  0.1512  0.0108
 7242SOL    HW133359   1.911   4.486   2.821  0.3182  1.9390 -0.0391
 7242SOL    HW233360   2.000   4.417   2.924  1.1580 -1.0808 -1.1500
 7243SOL     OW33361   2.991   3.169  11.801 -0.1251  0.0331 -0.1530
 7243SOL    HW133362   2.993   3.093  11.743 -3.3268 -1.3716  1.6002
 7243SOL    HW233363   2.917   3.217  11.766 -0.1770 -0.2983 -0.4970
 7244SOL     OW33364   4.701   1.679  17.313 -0.1224 -0.5652  0.1719
 7244SOL    HW133365   4.630   1.648  17.257  0.9217 -0.5912 -1.1287
 7244SOL    HW233366   4.668   1.758  17.357  0.8379 -0.4752  0.7459
 7245SOL     OW33367   1.451   2.293  15.113 -0.3304 -0.1641 -0.0149
 7245SOL    HW133368   1.384   2.356  15.087  0.1579  0.9344  1.3747
 7245SOL    HW233369   1.415   2.251  15.192  0.2532  0.9087  0.8264
 7246SOL     OW33370   0.871   2.338   5.614  0.1115  0.5297 -0.1184
 7246SOL    HW133371   0.798   2.399   5.621  0.1786  0.6243 -0.2461
 7246SOL    HW233372   0.826   2.268   5.566  1.0306  0.2762 -0.6090
 7247SOL     OW33373   2.550   2.140   3.397  0.6064 -0.2534  0.4678
 7247SOL    HW133374   2.577   2.186   3.318 -1.0835 -0.8658 -0.4802
 7247SOL    HW233375   2.561   2.053   3.359 -1.8067 -0.0290 -0.7914
 7248SOL     OW33376   3.354   1.310  16.904 -0.0502  0.0234 -0.2258
 7248SOL    HW133377   3.289   1.243  16.925  0.3656 -0.5910 -0.9249
 7248SOL    HW233378   3.322   1.383  16.957 -0.1695 -1.3928  1.6259
 7249SOL     OW33379   4.659   3.800   7.352 -0.5119 -0.2694 -0.1526
 7249SOL    HW133380   4.574   3.780   7.314 -1.0151 -1.3237  1.5330
 7249SOL    HW233381   4.691   3.876   7.303  1.4538 -0.8009  0.2936
 7250SOL     OW33382   3.258   4.488   2.631 -0.1638 -0.2140 -0.0602
 7250SOL    HW133383   3.209   4.565   2.660  0.5685 -0.7775  2.6002
 7250SOL    HW233384   3.303   4.471   2.713  2.6564  0.7787 -1.4093
 7251SOL     OW33385   0.226   2.070  16.177 -0.4645 -0.1701 -0.0285
 7251SOL    HW133386   0.160   2.001  16.184 -1.8663  1.1938  0.1642
 7251SOL    HW233387   0.240   2.070  16.082  2.2957  2.3281  0.3602
 7252SOL     OW33388   3.151   3.763   3.682  0.4218  0.0333 -0.2774
 7252SOL    HW133389   3.108   3.768   3.597  1.6451  1.3817 -0.8190
 7252SOL    HW233390   3.082   3.792   3.742 -1.1786 -0.4951 -1.8442
 7253SOL     OW33391   3.864   1.273   5.564 -0.2599  0.1542  0.6113
 7253SOL    HW133392   3.795   1.214   5.594  0.8615  0.3315  3.5328
 7253SOL    HW233393   3.898   1.227   5.487  1.8846 -1.2195  2.3652
 7254SOL     OW33394   2.993   1.677   6.935  0.2309  0.6028  0.0451
 7254SOL    HW133395   3.044   1.616   6.881  1.1554  0.9099  0.5708
 7254SOL    HW233396   2.913   1.629   6.917  0.9691 -0.9085  0.7808
 7255SOL     OW33397   1.063   1.067   3.169  0.4094  0.2114  0.5685
 7255SOL    HW133398   1.068   1.010   3.246  3.6990 -0.6368 -0.2760
 7255SOL    HW233399   0.974   1.102   3.165  0.6844  1.0854  2.2876
 7256SOL     OW33400   3.742   2.870  11.283  0.3595  0.7607  0.0824
 7256SOL    HW133401   3.777   2.784  11.261 -1.8591 -0.2638  0.5633
 7256SOL    HW233402   3.758   2.868  11.377 -1.3499  1.5694  0.4020
 7257SOL     OW33403   2.916   0.817   1.803  0.2687 -0.4997  0.3667
 7257SOL    HW133404   2.941   0.892   1.749 -1.2927  0.1311  0.5179
 7257SOL    HW233405   2.883   0.755   1.739 -0.4641 -0.0389  0.3011
 7258SOL     OW33406   3.404   2.268   1.500 -0.0716  1.0615  0.4035
 7258SOL    HW133407   3.351   2.295   1.575 -0.2961  1.9523 -0.0804
 7258SOL    HW233408   3.364   2.314   1.426  0.4683 -3.3911 -2.6544
 7259SOL     OW33409   2.406   1.369   6.351 -0.4359 -0.3413 -0.3388
 7259SOL    HW133410   2.396   1.457   6.387  0.9416 -1.3477  2.5480
 7259SOL    HW233411   2.410   1.317   6.432  1.4892 -1.5619 -1.2018
 7260SOL     OW33412   3.168   0.138   8.580  0.5669 -0.2669 -0.4371
 7260SOL    HW133413   3.121   0.119   8.661 -0.6801 -0.8408 -1.2981
 7260SOL    HW233414   3.108   0.200   8.539  0.3403  0.4645  1.0199
 7261SOL     OW33415   0.884   0.342  14.649 -0.0528 -0.1231  0.1093
 7261SOL    HW133416   0.910   0.400  14.720 -0.1309  0.7097 -0.5374
 7261SOL    HW233417   0.971   0.314  14.623  0.3974  1.6358 -0.2974
 7262SOL     OW33418   4.005   1.933   8.442 -0.2159  0.3277 -0.4729
 7262SOL    HW133419   4.005   1.898   8.532 -0.7819 -1.6147 -1.2248
 7262SOL    HW233420   3.967   1.860   8.393  1.3852 -0.5947 -0.3424
 7263SOL     OW33421   2.337   4.133   3.555 -0.1372 -0.0772 -0.3414
 7263SOL    HW133422   2.251   4.132   3.514  0.3345 -1.9399 -1.2633
 7263SOL    HW233423   2.361   4.041   3.561  0.7699  0.1187 -0.9124
 7264SOL     OW33424   0.938   3.418  10.384 -0.4805  0.2053  0.1799
 7264SOL    HW133425   0.942   3.410  10.289  0.6110 -3.8936  0.5707
 7264SOL    HW233426   0.924   3.512  10.391  0.6887  0.3905  0.1354
 7265SOL     OW33427   1.051   2.663   5.338 -0.2857 -0.1393 -0.0607
 7265SOL    HW133428   1.037   2.568   5.329 -1.8544 -0.0631  1.5406
 7265SOL    HW233429   1.134   2.668   5.291 -0.7751 -3.7008 -1.3363
 7266SOL     OW33430   1.035   1.486   2.759  0.0407  0.0217 -0.4016
 7266SOL    HW133431   1.075   1.562   2.802  0.9682  1.3007 -3.5215
 7266SOL    HW233432   0.952   1.485   2.806 -0.3362  0.6649 -1.0394
 7267SOL     OW33433   3.057   2.335  11.356  0.8176  0.0732  0.0133
 7267SOL    HW133434   3.028   2.244  11.363 -1.2962  0.7768  0.5601
 7267SOL    HW233435   3.080   2.352  11.448 -1.3567 -0.0706  0.5826
 7268SOL     OW33436   0.344   2.339   4.086  0.5668 -0.7621  0.1577
 7268SOL    HW133437   0.356   2.252   4.124  1.8314 -0.5781  0.1955
 7268SOL    HW233438   0.303   2.376   4.164  1.0691  1.8059 -0.7655
 7269SOL     OW33439   4.230   0.042  15.862 -0.7171  0.2281  0.0934
 7269SOL    HW133440   4.190   4.696  15.878 -0.6835 -0.1218 -1.6088
 7269SOL    HW233441   4.322   0.015  15.857 -1.6976 -3.3225  0.8866
 7270SOL     OW33442   1.198   0.740  11.343  0.5270  0.0604 -0.2043
 7270SOL    HW133443   1.202   0.825  11.386 -0.5385 -0.8144  1.6126
 7270SOL    HW233444   1.199   0.758  11.249  0.0883 -0.8725 -0.3914
 7271SOL     OW33445   1.715   2.851   7.561  0.1116 -0.9694  0.0333
 7271SOL    HW133446   1.626   2.870   7.532 -0.7991  0.6736  3.9559
 7271SOL    HW233447   1.696   2.839   7.653  0.8634  0.8697  0.4288
 7272SOL     OW33448   3.418   2.444   1.972 -0.1780  0.6672  0.5306
 7272SOL    HW133449   3.354   2.512   1.992  0.2573  1.1164  0.3753
 7272SOL    HW233450   3.469   2.441   2.052  0.2060  1.9800  0.3306
 7273SOL     OW33451   0.685   3.628   8.663  0.2680 -0.3783  0.0181
 7273SOL    HW133452   0.610   3.619   8.604  0.5898  2.4207 -0.8144
 7273SOL    HW233453   0.758   3.648   8.604  1.2882 -2.4151  0.5791
 7274SOL     OW33454   0.820   2.671   6.379 -0.6404 -0.5654 -0.4731
 7274SOL    HW133455   0.884   2.650   6.447 -0.5480 -0.5476 -0.5546
 7274SOL    HW233456   0.791   2.587   6.343  0.3279 -0.1573 -2.1973
 7275SOL     OW33457   1.070   4.121   9.234  0.5302 -0.5573  0.5826
 7275SOL    HW133458   1.151   4.145   9.190 -0.6803 -2.4449 -2.7235
 7275SOL    HW233459   1.028   4.062   9.171  1.3867 -0.6290  0.0791
 7276SOL     OW33460   1.358   1.536   8.082  0.4414 -0.2133  0.2964
 7276SOL    HW133461   1.370   1.554   8.175 -0.2139  0.0695  0.3236
 7276SOL    HW233462   1.288   1.472   8.087 -0.0739  0.1857 -1.8597
 7277SOL     OW33463   2.248   3.199   6.730 -0.0699  0.0348  0.0858
 7277SOL    HW133464   2.163   3.226   6.765 -0.8551  1.0577 -2.5737
 7277SOL    HW233465   2.308   3.256   6.778 -0.9907 -0.0486  1.3362
 7278SOL     OW33466   0.817   0.921   5.480  0.0190  0.4440  0.1858
 7278SOL    HW133467   0.798   0.875   5.562 -1.6919  0.0215 -0.4477
 7278SOL    HW233468   0.776   1.002   5.511 -1.6886 -0.6814  0.8764
 7279SOL     OW33469   4.501   3.554   8.530 -0.2309  0.8683  0.0802
 7279SOL    HW133470   4.458   3.525   8.611  0.5612  0.3332  0.3062
 7279SOL    HW233471   4.435   3.514   8.472  1.3857 -2.1228  0.3219
 7280SOL     OW33472   1.392   0.900  16.043 -0.0077  0.5986 -0.7699
 7280SOL    HW133473   1.476   0.889  16.087 -0.7908  1.8067  1.0337
 7280SOL    HW233474   1.403   0.818  15.996  1.6272  0.3440  0.0287
 7281SOL     OW33475   1.716   2.313   4.822  0.0818 -0.1739  0.1075
 7281SOL    HW133476   1.777   2.377   4.860  0.6264 -0.5557 -0.1289
 7281SOL    HW233477   1.647   2.326   4.887 -0.7090 -1.5658 -0.4726
 7282SOL     OW33478   0.858   3.998   0.850  0.0604  0.4045 -0.6024
 7282SOL    HW133479   0.871   4.076   0.904  1.1688 -0.8305  0.9440
 7282SOL    HW233480   0.934   3.985   0.793 -0.2593  0.2268 -0.9798
 7283SOL     OW33481   1.547   2.847   2.770  0.0946 -0.3793 -0.0881
 7283SOL    HW133482   1.622   2.881   2.818  0.8171 -1.1199 -0.7008
 7283SOL    HW233483   1.500   2.929   2.753  0.6622 -0.0807 -0.2109
 7284SOL     OW33484   0.266   1.311   1.974 -0.5863  0.3998  0.9024
 7284SOL    HW133485   0.172   1.312   1.956 -0.4783 -1.1827  0.1813
 7284SOL    HW233486   0.284   1.404   1.964  1.7998 -0.4418 -2.5732
 7285SOL     OW33487   4.094   3.922   2.858 -0.6141  0.0135  0.0617
 7285SOL    HW133488   4.185   3.928   2.830  0.2021 -2.2111  2.1738
 7285SOL    HW233489   4.099   3.980   2.934 -0.1059  0.9184 -0.6622
 7286SOL     OW33490   1.262   3.218   0.831 -0.4462  0.0837  0.0956
 7286SOL    HW133491   1.232   3.130   0.857  1.8762 -0.1421  2.0703
 7286SOL    HW233492   1.332   3.232   0.895 -0.2057  0.1492 -0.1871
 7287SOL     OW33493   3.887   4.219   7.974  0.0748 -0.4677  0.2251
 7287SOL    HW133494   3.981   4.209   7.989 -0.0290 -0.7850  0.6551
 7287SOL    HW233495   3.883   4.202   7.880  0.7411 -0.3490  0.1748
 7288SOL     OW33496   4.558   1.035   2.595 -0.1077  0.1005 -0.1936
 7288SOL    HW133497   4.556   0.992   2.681 -0.9126 -0.0380 -0.2838
 7288SOL    HW233498   4.478   0.996   2.561 -0.1966 -0.9582  1.2464
 7289SOL     OW33499   4.389   3.413   1.708 -0.2940  0.1641 -0.1081
 7289SOL    HW133500   4.425   3.364   1.635 -1.8858  0.3790 -1.0416
 7289SOL    HW233501   4.353   3.496   1.675 -1.5359  0.5474  2.1738
 7290SOL     OW33502   2.488   1.497   9.340 -0.0434 -0.1650 -0.1803
 7290SOL    HW133503   2.519   1.511   9.251  0.3005  1.0833  0.1394
 7290SOL    HW233504   2.511   1.406   9.362 -2.5056 -1.6838 -3.9805
 7291SOL     OW33505   3.521   2.489  16.787  0.1933  1.0875 -0.0100
 7291SOL    HW133506   3.455   2.528  16.730 -0.1256 -1.2984 -1.2866
 7291SOL    HW233507   3.592   2.489  16.723 -0.9736  1.4708 -1.3069
 7292SOL     OW33508   4.180   1.002   2.077  0.0490  0.2555 -0.2095
 7292SOL    HW133509   4.117   0.931   2.081  0.8342 -0.3919  0.6158
 7292SOL    HW233510   4.137   1.051   2.007 -0.2999 -0.9974 -0.8585
 7293SOL     OW33511   2.210   2.070   6.827 -0.6411 -0.0335  0.3129
 7293SOL    HW133512   2.247   2.091   6.913 -0.9100  2.8289 -0.2736
 7293SOL    HW233513   2.128   2.032   6.859 -0.9502 -0.8261 -1.4337
 7294SOL     OW33514   3.331   2.162   3.540 -0.2408  0.1475  0.1083
 7294SOL    HW133515   3.291   2.128   3.620  0.5931  1.0380  0.8886
 7294SOL    HW233516   3.349   2.253   3.564  1.9781 -0.3736  0.3345
 7295SOL     OW33517   3.501   2.564  17.564 -0.1780  0.1988 -0.1164
 7295SOL    HW133518   3.449   2.501  17.513 -0.5808  0.4886 -0.0677
 7295SOL    HW233519   3.458   2.647  17.540  0.0478  0.2818 -0.2321
 7296SOL     OW33520   0.934   4.337   7.505 -0.0118 -0.2469 -0.3932
 7296SOL    HW133521   0.961   4.277   7.574  1.0012 -0.7410 -1.2052
 7296SOL    HW233522   0.992   4.408   7.533 -0.4514  0.6520 -1.7406
 7297SOL     OW33523   2.311   2.536   9.694  0.2154  0.0788  0.3841
 7297SOL    HW133524   2.381   2.470   9.695 -0.4231 -0.5906  1.2923
 7297SOL    HW233525   2.298   2.538   9.788 -0.1186  1.3812  0.3073
 7298SOL     OW33526   2.793   3.846   6.628  0.0630 -0.1946 -0.1951
 7298SOL    HW133527   2.829   3.824   6.543 -1.5132 -1.4567 -0.5457
 7298SOL    HW233528   2.846   3.920   6.656 -0.8592  1.1790 -2.0907
 7299SOL     OW33529   0.531   2.995  13.497 -0.0446 -0.0107 -0.2551
 7299SOL    HW133530   0.621   2.971  13.472 -0.1154 -0.6035  0.0914
 7299SOL    HW233531   0.480   2.915  13.489  0.0466 -0.0823 -0.1181
 7300SOL     OW33532   0.655   2.442   8.844 -0.0265  0.3517 -0.1977
 7300SOL    HW133533   0.727   2.504   8.860 -2.1678  3.1853 -1.5494
 7300SOL    HW233534   0.636   2.413   8.933 -1.2049  0.1455 -0.5238
 7301SOL     OW33535   4.729   4.407   3.259  0.2432 -0.0278 -0.1121
 7301SOL    HW133536   4.717   4.448   3.173  0.5384 -0.6442 -0.4462
 7301SOL    HW233537   0.058   4.459   3.300  1.0843 -0.5386 -0.8817
 7302SOL     OW33538   4.494   1.225   8.076  0.0222  0.1708  0.2974
 7302SOL    HW133539   4.428   1.233   8.144 -0.6086  0.7110 -0.3808
 7302SOL    HW233540   4.523   1.134   8.089 -1.6472 -0.6127 -1.5353
 7303SOL     OW33541   4.202   2.138   6.928 -0.9008 -0.1464 -0.0344
 7303SOL    HW133542   4.221   2.227   6.901  1.5057 -0.0155  2.0276
 7303SOL    HW233543   4.114   2.112   6.900 -0.8715 -0.4436  0.1447
 7304SOL     OW33544   0.688   4.460   4.456  0.5569  0.0541 -0.1403
 7304SOL    HW133545   0.732   4.505   4.528  0.8719 -1.8494  0.8410
 7304SOL    HW233546   0.759   4.436   4.396 -0.2207 -0.5155 -0.8399
 7305SOL     OW33547   3.988   1.265   3.747 -0.3987  0.3345  0.1168
 7305SOL    HW133548   4.023   1.202   3.810 -0.4370  1.1737  0.9785
 7305SOL    HW233549   3.921   1.210   3.706  1.1742 -1.8866  0.5008
 7306SOL     OW33550   0.394   0.737   0.472 -0.1044 -0.1500 -0.0491
 7306SOL    HW133551   0.397   0.644   0.449  0.0014  0.6370 -3.2402
 7306SOL    HW233552   0.424   0.743   0.562  2.4053  1.8025 -1.0106
 7307SOL     OW33553   2.569   1.120   3.283  0.0309  0.1465 -0.5317
 7307SOL    HW133554   2.487   1.169   3.292 -0.2124  0.1543 -2.6053
 7307SOL    HW233555   2.616   1.155   3.358  1.6869 -2.4307 -0.3406
 7308SOL     OW33556   2.184   1.993   8.244  0.4736  0.5206 -0.5848
 7308SOL    HW133557   2.255   1.988   8.309  1.0354 -0.3949 -1.2774
 7308SOL    HW233558   2.111   1.982   8.306  1.5025  0.6257  0.6529
 7309SOL     OW33559   4.629   3.743   5.261 -0.4972 -0.3777 -1.0103
 7309SOL    HW133560   4.551   3.707   5.219 -1.1009 -0.5402  0.2410
 7309SOL    HW233561   4.601   3.823   5.306  0.9761 -0.7071  0.4984
 7310SOL     OW33562   3.676   1.196   5.910  0.2445 -0.2456  0.4187
 7310SOL    HW133563   3.733   1.142   5.964 -2.5266 -2.0414  1.5269
 7310SOL    HW233564   3.643   1.257   5.977  0.5485  0.9263 -0.4869
 7311SOL     OW33565   3.685   2.432   4.683 -0.5572 -0.7188 -0.4969
 7311SOL    HW133566   3.611   2.382   4.648 -1.7453  0.6772 -0.0179
 7311SOL    HW233567   3.691   2.393   4.770 -0.4152 -0.0081 -0.1894
 7312SOL     OW33568   3.768   3.410   1.817  0.2912 -0.1102  0.0332
 7312SOL    HW133569   3.839   3.396   1.879  0.2868 -2.1213 -0.4081
 7312SOL    HW233570   3.695   3.433   1.875  0.3623 -1.9986  0.8822
 7313SOL     OW33571   1.773   0.476   6.213  0.3817  0.8082  0.1279
 7313SOL    HW133572   1.843   0.520   6.166  1.2032  0.2982  0.8779
 7313SOL    HW233573   1.701   0.498   6.153  0.4598 -2.1840 -1.1031
 7314SOL     OW33574   2.834   2.396  17.212 -0.0054 -0.4415 -0.1873
 7314SOL    HW133575   2.868   2.338  17.281  0.9171  0.5850  0.2175
 7314SOL    HW233576   2.755   2.432  17.250  0.3532 -0.2247  0.3514
 7315SOL     OW33577   1.251   1.834   1.675  0.0144  0.3670 -0.0512
 7315SOL    HW133578   1.269   1.864   1.765 -2.4519 -1.0802  0.9400
 7315SOL    HW233579   1.233   1.740   1.683 -1.0850  0.5102 -0.8431
 7316SOL     OW33580   2.690   1.036   6.435 -0.1253 -0.3065  0.4516
 7316SOL    HW133581   2.775   1.004   6.403 -0.1173  0.0016  0.1624
 7316SOL    HW233582   2.656   1.086   6.360  0.6844  2.0819  1.6787
 7317SOL     OW33583   0.264   3.831   0.063 -0.5712  0.2666 -0.5274
 7317SOL    HW133584   0.341   3.817   0.118  1.0418  0.2651 -2.7743
 7317SOL    HW233585   0.246   3.745   0.024  0.0357 -0.5247  0.9541
 7318SOL     OW33586   3.902   1.616   6.770 -0.0361  0.2048 -0.5869
 7318SOL    HW133587   3.969   1.582   6.711  0.1427  0.9057 -0.7937
 7318SOL    HW233588   3.835   1.551   6.750 -0.7010  0.1203  1.8445
 7319SOL     OW33589   4.535   2.491   4.915 -0.6402 -0.3711 -0.7467
 7319SOL    HW133590   4.580   2.427   4.970  0.2873  1.9454  1.1841
 7319SOL    HW233591   4.601   2.554   4.885  0.0534 -0.3519  0.8368
 7320SOL     OW33592   4.326   0.721  14.900  0.0883 -0.0354 -0.0912
 7320SOL    HW133593   4.345   0.641  14.852 -1.6389 -0.5338  0.0459
 7320SOL    HW233594   4.340   0.796  14.843  0.8564 -0.7776 -0.8741
 7321SOL     OW33595   2.457   1.119  10.943 -0.1459 -0.0611  0.7055
 7321SOL    HW133596   2.475   1.086  10.855  1.6243  0.2570  0.9573
 7321SOL    HW233597   2.405   1.049  10.982  1.0131  0.2426  2.7999
 7322SOL     OW33598   0.269   0.230   7.268  0.4662 -0.2223 -0.0178
 7322SOL    HW133599   0.215   0.281   7.329  1.5606  0.8823  0.0121
 7322SOL    HW233600   0.357   0.262   7.285  0.2585  0.2036  0.2572
 7323SOL     OW33601   1.982   4.166   7.499 -0.5900  0.2325 -0.3985
 7323SOL    HW133602   1.973   4.097   7.432 -1.8351  1.6496 -1.6673
 7323SOL    HW233603   1.994   4.102   7.569  1.1371 -0.9458 -1.7417
 7324SOL     OW33604   0.457   3.540   4.061 -0.0164 -0.3350  0.2236
 7324SOL    HW133605   0.494   3.619   4.020 -1.4736 -0.1896 -0.8219
 7324SOL    HW233606   0.377   3.521   4.011  0.1756 -0.2354 -0.1259
 7325SOL     OW33607   3.461   0.102   4.686 -0.1139 -0.1905  0.0901
 7325SOL    HW133608   3.546   0.121   4.727 -0.4692 -2.2139  1.8226
 7325SOL    HW233609   3.390   0.152   4.726 -0.2964  0.1296 -0.6461
 7326SOL     OW33610   2.927   3.132  16.628  0.0739  0.5801  0.2006
 7326SOL    HW133611   2.987   3.113  16.700  1.9042  2.6644 -0.7725
 7326SOL    HW233612   2.971   3.196  16.572 -2.3157  1.7113 -0.3857
 7327SOL     OW33613   3.473   1.203   7.602  0.5696  0.6674 -0.2078
 7327SOL    HW133614   3.519   1.218   7.685 -0.2982  2.0111  0.0390
 7327SOL    HW233615   3.421   1.127   7.628  2.0306 -0.9077 -1.9717
 7328SOL     OW33616   2.645   0.971   3.601 -0.4535  0.6717 -0.0187
 7328SOL    HW133617   2.639   1.061   3.568  2.1589  0.8023 -0.1623
 7328SOL    HW233618   2.613   0.970   3.691 -0.3336 -2.2200 -0.0166
 7329SOL     OW33619   3.776   4.604   3.383 -0.5912  0.3624  0.6966
 7329SOL    HW133620   3.720   4.674   3.350  0.9734  1.6959  0.8843
 7329SOL    HW233621   3.733   4.575   3.463  1.4678 -2.5695  0.7296
 7330SOL     OW33622   2.976   2.242   3.685  0.4049 -1.0303 -0.2054
 7330SOL    HW133623   2.958   2.328   3.645  0.0261 -0.5699  0.9472
 7330SOL    HW233624   2.895   2.226   3.734 -0.5518  2.2522 -0.6753
 7331SOL     OW33625   2.224   0.216   2.336  0.2897  0.6094 -0.5788
 7331SOL    HW133626   2.265   0.190   2.419 -1.0155 -0.1074 -0.1559
 7331SOL    HW233627   2.294   0.264   2.292  1.3518  0.2279  0.6895
 7332SOL     OW33628   1.161   3.368   3.414  0.2484  0.0034 -0.1328
 7332SOL    HW133629   1.194   3.451   3.447 -0.5212  0.7872 -1.3293
 7332SOL    HW233630   1.222   3.324   3.474 -0.3165 -1.4307 -0.6103
 7333SOL     OW33631   4.449   1.549  11.966  0.2006 -0.1493 -0.2643
 7333SOL    HW133632   4.444   1.469  11.914 -2.3023 -1.4865  1.9909
 7333SOL    HW233633   4.374   1.532  12.024 -2.7277  1.5019 -3.5585
 7334SOL     OW33634   2.052   4.423   6.066  0.0624 -0.0012 -0.4893
 7334SOL    HW133635   2.025   4.510   6.036  1.7539  0.0876 -1.7415
 7334SOL    HW233636   2.027   4.421   6.158  1.7840  2.4679  0.0300
 7335SOL     OW33637   2.711   1.722   6.533 -0.5190  0.6610 -0.0987
 7335SOL    HW133638   2.754   1.774   6.466 -0.5300 -1.0975 -1.4874
 7335SOL    HW233639   2.758   1.639   6.523 -2.0283  0.0014 -1.7465
 7336SOL     OW33640   3.191   4.289   7.564 -0.1031  0.1019 -0.5788
 7336SOL    HW133641   3.139   4.339   7.502 -1.3142  1.9735  1.9394
 7336SOL    HW233642   3.155   4.200   7.561 -1.0718  0.3774  2.3387
 7337SOL     OW33643   1.948   1.921   2.990 -0.4135  0.3077  0.2945
 7337SOL    HW133644   1.921   1.840   3.034 -0.4873 -0.4076 -1.0559
 7337SOL    HW233645   1.894   1.913   2.911  0.1185 -0.0384 -0.0454
 7338SOL     OW33646   4.456   3.468   6.744  0.0370 -0.3036 -0.1010
 7338SOL    HW133647   4.412   3.404   6.799 -0.0450  0.2941  0.5191
 7338SOL    HW233648   4.393   3.458   6.673 -0.7743  1.9328  0.3248
 7339SOL     OW33649   0.062   0.050   2.956 -0.4233 -0.0284 -0.4084
 7339SOL    HW133650   4.709   0.072   2.948 -0.8782 -2.1171 -0.8990
 7339SOL    HW233651   0.074   0.039   2.861 -0.5889 -0.3613 -0.3902
 7340SOL     OW33652   1.623   0.138   5.708 -0.4127  0.0981  0.3934
 7340SOL    HW133653   1.619   0.198   5.782  0.9574  0.2566  0.3314
 7340SOL    HW233654   1.633   0.192   5.629 -2.0956 -1.3837 -0.8399
 7341SOL     OW33655   1.733   3.451   2.076 -0.2495  1.2213 -0.1858
 7341SOL    HW133656   1.759   3.485   1.990 -1.7611  1.3280 -0.6167
 7341SOL    HW233657   1.646   3.492   2.082 -1.1212 -0.6643 -0.0077
 7342SOL     OW33658   0.288   0.992  10.533  0.6616  0.1251  0.0138
 7342SOL    HW133659   0.253   1.041  10.459  0.9758 -2.4433 -1.8421
 7342SOL    HW233660   0.327   1.067  10.578  0.3800  0.6526 -0.6214
 7343SOL     OW33661   2.608   1.336  10.241  0.5171 -0.2965 -0.1814
 7343SOL    HW133662   2.621   1.255  10.192  0.2125 -0.0643 -0.6457
 7343SOL    HW233663   2.662   1.401  10.196  2.2349 -1.8972 -0.4045
 7344SOL     OW33664   3.665   0.741  13.397  0.2507 -0.0043  0.0040
 7344SOL    HW133665   3.752   0.735  13.357 -0.4727 -0.4001 -1.5294
 7344SOL    HW233666   3.620   0.791  13.329  0.8762 -0.3875 -0.6797
 7345SOL     OW33667   1.089   2.196   4.433 -0.1641 -0.0661  0.2358
 7345SOL    HW133668   1.147   2.197   4.357 -0.4179 -1.5206  0.0121
 7345SOL    HW233669   1.049   2.109   4.425  0.7880 -0.4734 -0.1115
 7346SOL     OW33670   1.570   3.349   7.890 -0.5869  0.1418  0.0167
 7346SOL    HW133671   1.611   3.263   7.885  1.0492  0.9024  0.2164
 7346SOL    HW233672   1.504   3.343   7.821 -0.6981  2.9345 -0.1193
 7347SOL     OW33673   1.041   2.806  15.011  0.4463 -0.0783  0.2645
 7347SOL    HW133674   1.064   2.764  14.928  1.3334  0.6935  0.1149
 7347SOL    HW233675   0.946   2.811  15.007  0.3757 -1.8800 -0.2082
 7348SOL     OW33676   3.705   2.776   8.983  0.2391  0.2679 -0.3285
 7348SOL    HW133677   3.720   2.870   8.999 -0.8168  0.3686  0.1072
 7348SOL    HW233678   3.615   2.783   8.950  0.5111 -0.2477 -1.1617
 7349SOL     OW33679   0.150   4.689   6.299  0.3654 -0.5496 -0.2166
 7349SOL    HW133680   0.222   4.671   6.360 -0.2929 -1.0049  0.4269
 7349SOL    HW233681   0.199   0.005   6.239  0.8104 -0.4719  0.2161
 7350SOL     OW33682   1.853   3.095   7.453  0.0916  0.1890 -0.4281
 7350SOL    HW133683   1.779   3.036   7.462 -0.6244  1.2579  0.6772
 7350SOL    HW233684   1.909   3.040   7.397  4.3004  1.5265  2.4236
 7351SOL     OW33685   0.739   1.284   2.745  0.4438  0.0352 -0.1881
 7351SOL    HW133686   0.773   1.267   2.657 -0.6405  1.4551 -0.8794
 7351SOL    HW233687   0.766   1.215   2.806 -1.5889 -1.0528 -0.5254
 7352SOL     OW33688   4.319   0.594   9.088 -0.1421  0.5071  0.0993
 7352SOL    HW133689   4.327   0.504   9.054 -0.6183 -0.0874  1.5417
 7352SOL    HW233690   4.256   0.591   9.161 -0.8984  0.1241 -0.5746
 7353SOL     OW33691   0.165   4.596   3.814 -0.5057  0.3204 -0.3639
 7353SOL    HW133692   0.086   4.646   3.833 -1.1208 -0.7373 -0.1861
 7353SOL    HW233693   0.135   4.531   3.751  1.3481 -0.7073 -0.1797
 7354SOL     OW33694   3.473   0.050   6.135 -0.0376  0.2956 -0.1487
 7354SOL    HW133695   3.454   0.132   6.090 -0.7073  1.0362  1.5000
 7354SOL    HW233696   3.541   0.012   6.078 -0.5227  0.6619 -0.9708
 7355SOL     OW33697   1.238   4.424   1.560  0.3689  0.0414 -0.0362
 7355SOL    HW133698   1.239   4.370   1.481 -3.1206  0.8984 -0.6937
 7355SOL    HW233699   1.215   4.508   1.519 -1.0200 -1.1489 -1.6796
 7356SOL     OW33700   0.383   4.461   7.808 -1.0989  0.0707  0.3699
 7356SOL    HW133701   0.373   4.367   7.824 -1.0704 -0.1835 -1.0908
 7356SOL    HW233702   0.426   4.458   7.723  0.2041  0.1749  1.0347
 7357SOL     OW33703   2.194   0.974  13.105 -0.0121  0.5080  0.4311
 7357SOL    HW133704   2.197   0.896  13.160 -2.5516 -0.0735 -0.2678
 7357SOL    HW233705   2.137   0.946  13.033  1.2335 -1.8110  0.3537
 7358SOL     OW33706   3.393   3.165  17.488  0.2740  0.5449 -0.0236
 7358SOL    HW133707   3.440   3.248  17.499  1.0335  0.1149  0.0305
 7358SOL    HW233708   3.447   3.119  17.423 -0.2319  2.1641 -1.6008
 7359SOL     OW33709   4.489   4.186   0.780  0.6212  0.4619  0.1680
 7359SOL    HW133710   4.539   4.239   0.718 -1.2098 -1.2809 -2.7997
 7359SOL    HW233711   4.509   4.231   0.862  1.1306 -0.3602  0.4855
 7360SOL     OW33712   1.307   0.779   1.242 -0.1525  0.1129 -0.3207
 7360SOL    HW133713   1.318   0.685   1.253 -0.0779  0.3270  1.3969
 7360SOL    HW233714   1.317   0.809   1.332 -1.7031 -0.3715  0.0105
 7361SOL     OW33715   3.797   1.065   2.801  0.0638  0.2970 -0.8560
 7361SOL    HW133716   3.779   1.050   2.894  1.0546 -0.3862 -0.7710
 7361SOL    HW233717   3.791   1.157   2.778 -1.8454  0.2539 -0.4981
 7362SOL     OW33718   4.370   1.028   9.059 -0.0783 -0.1370  0.1107
 7362SOL    HW133719   4.419   1.103   9.025 -0.3037 -0.1219 -0.1742
 7362SOL    HW233720   4.372   0.963   8.988  0.0900  1.9582 -1.8113
 7363SOL     OW33721   1.070   3.516   7.243  0.1262 -0.0362  0.0425
 7363SOL    HW133722   1.122   3.528   7.322 -1.2337 -1.6448  1.1939
 7363SOL    HW233723   1.007   3.583   7.270  0.4431  1.2156 -2.3741
 7364SOL     OW33724   2.909   2.899   9.345  0.1288  0.2633  0.4555
 7364SOL    HW133725   2.837   2.837   9.350  1.3260 -1.1773 -0.3524
 7364SOL    HW233726   2.931   2.916   9.437 -1.1814 -0.1871  0.8508
 7365SOL     OW33727   1.318   4.630  17.025 -0.0168 -0.1777  0.6614
 7365SOL    HW133728   1.355   4.567  17.086  0.4501 -0.8698 -0.3316
 7365SOL    HW233729   1.326   4.588  16.939 -1.4674  0.9770 -0.0376
 7366SOL     OW33730   2.887   3.228  14.133  0.2486  0.0420 -0.3416
 7366SOL    HW133731   2.834   3.150  14.117  1.8609 -1.5579  2.0347
 7366SOL    HW233732   2.837   3.299  14.093  0.4948  1.2063  1.4114
 7367SOL     OW33733   0.089   4.004  17.553  0.8489 -0.5981  0.0210
 7367SOL    HW133734   0.094   3.937  17.484 -0.6060 -0.7464  0.0521
 7367SOL    HW233735   0.180   4.017  17.579  0.5608  3.0422 -0.8654
 7368SOL     OW33736   4.343   1.366   3.901  0.2130 -0.1706 -0.0481
 7368SOL    HW133737   4.315   1.282   3.936 -1.2465  0.0295 -0.7750
 7368SOL    HW233738   4.316   1.362   3.809  2.6513  1.0223 -0.8289
 7369SOL     OW33739   3.971   0.829  16.815  0.1841  0.0924  0.0229
 7369SOL    HW133740   3.893   0.787  16.780  0.4728 -0.0355 -0.4732
 7369SOL    HW233741   4.037   0.760  16.800 -0.1535 -0.2976  0.3353
 7370SOL     OW33742   1.010   3.585   4.795 -0.0717  0.4905  1.0008
 7370SOL    HW133743   1.087   3.638   4.816  0.1136  0.3581  0.6481
 7370SOL    HW233744   0.990   3.625   4.710 -4.4499  2.0618  2.7928
 7371SOL     OW33745   3.123   0.112   8.036 -0.4319  0.3959 -0.3534
 7371SOL    HW133746   3.162   0.046   7.979  2.3855  2.5323 -0.8385
 7371SOL    HW233747   3.083   0.058   8.105 -0.2983  0.3228 -0.3337
 7372SOL     OW33748   0.268   3.385   3.094 -0.3517  0.1762 -0.0681
 7372SOL    HW133749   0.334   3.453   3.079  1.3056 -1.6273 -1.0451
 7372SOL    HW233750   0.198   3.402   3.030 -2.3442 -1.2200  1.7770
 7373SOL     OW33751   1.635   2.896   7.152 -0.3890 -0.4157  0.3435
 7373SOL    HW133752   1.601   2.978   7.188  0.7886 -0.1541  0.8831
 7373SOL    HW233753   1.588   2.887   7.070 -0.2041  0.7608  0.1092
 7374SOL     OW33754   2.138   1.665   6.692 -0.8779  0.6708  0.9116
 7374SOL    HW133755   2.205   1.721   6.652 -1.0864  0.2988  0.0342
 7374SOL    HW233756   2.093   1.726   6.750 -0.0480  0.5249  1.7024
 7375SOL     OW33757   0.912   4.586   6.786  0.0388 -0.6000 -0.1363
 7375SOL    HW133758   0.944   4.566   6.698  0.1932 -1.3488  0.0888
 7375SOL    HW233759   0.948   4.674   6.800  1.6863 -1.2851 -0.0944
 7376SOL     OW33760   2.307   3.943   7.858  0.3733  0.0230 -0.1974
 7376SOL    HW133761   2.258   3.862   7.872 -0.0583 -0.2407 -3.3046
 7376SOL    HW233762   2.354   3.949   7.941  2.1589 -1.1080 -1.1087
 7377SOL     OW33763   2.458   2.118   5.380 -0.1690  0.3190 -0.6410
 7377SOL    HW133764   2.542   2.080   5.354 -0.3414 -0.7556  0.3269
 7377SOL    HW233765   2.462   2.212   5.362 -0.4417  0.5817  0.6455
 7378SOL     OW33766   2.688   3.141   7.848 -0.7464 -0.2209 -0.2021
 7378SOL    HW133767   2.701   3.142   7.943 -1.7438 -0.3043 -0.0606
 7378SOL    HW233768   2.640   3.060   7.832  0.0998 -0.7497 -0.0307
 7379SOL     OW33769   1.761   1.266   2.314 -0.1366  0.5328 -0.2560
 7379SOL    HW133770   1.819   1.338   2.339 -0.8337  0.9771  0.0795
 7379SOL    HW233771   1.683   1.294   2.362 -1.1502 -0.7906 -1.1532
 7380SOL     OW33772   2.658   0.642   9.336  0.0261  0.4838  0.3048
 7380SOL    HW133773   2.738   0.591   9.353 -1.6362 -2.1226  0.1761
 7380SOL    HW233774   2.603   0.575   9.297  1.2362 -0.3758  0.0677
 7381SOL     OW33775   2.620   4.709   2.812 -0.2587  0.3953 -0.6876
 7381SOL    HW133776   2.565   0.037   2.852 -0.1104 -1.9081  3.4542
 7381SOL    HW233777   2.672   0.019   2.750 -3.0253  4.7285  0.4968
 7382SOL     OW33778   1.344   0.558   0.652  0.3125 -0.2184 -0.3320
 7382SOL    HW133779   1.425   0.546   0.702 -0.1130  0.1016  0.4259
 7382SOL    HW233780   1.297   0.484   0.691  1.0228 -0.3081  0.3658
 7383SOL     OW33781   3.035   0.390   1.824 -0.2207 -0.6264  0.2263
 7383SOL    HW133782   3.038   0.393   1.728  0.8254 -0.3177  0.2718
 7383SOL    HW233783   3.124   0.422   1.836 -0.3475 -0.3432  0.3845
 7384SOL     OW33784   0.299   2.409  13.339 -0.0415  0.5085  0.0203
 7384SOL    HW133785   0.349   2.336  13.374 -0.0753 -0.0998 -1.1957
 7384SOL    HW233786   0.277   2.381  13.250  3.0707 -1.8554 -0.0188
 7385SOL     OW33787   0.403   3.268   4.131 -0.0993  0.1689 -0.0288
 7385SOL    HW133788   0.353   3.262   4.212 -0.7185  2.1621 -0.2553
 7385SOL    HW233789   0.423   3.362   4.133  0.9369 -0.0545 -0.0179
 7386SOL     OW33790   4.481   3.204  10.443  0.3873  0.0644  0.2182
 7386SOL    HW133791   4.509   3.126  10.396  2.2507  0.0054  1.4251
 7386SOL    HW233792   4.505   3.269  10.378 -1.4901 -1.3410 -1.8952
 7387SOL     OW33793   1.128   4.245  16.503 -0.2921 -1.1650  0.4623
 7387SOL    HW133794   1.202   4.273  16.449 -0.1250  0.3264  1.4545
 7387SOL    HW233795   1.135   4.150  16.501 -1.6785 -1.2240 -1.5704
 7388SOL     OW33796   2.044   0.099  10.203 -0.0036  0.1434  0.6591
 7388SOL    HW133797   2.053   0.190  10.232 -1.2244 -1.1124  5.0785
 7388SOL    HW233798   1.950   0.087  10.216 -0.8873  1.9178 -4.0290
 7389SOL     OW33799   0.472   1.516   8.680 -0.2962  0.3539  0.4418
 7389SOL    HW133800   0.464   1.480   8.768 -1.2671 -1.4144 -0.3773
 7389SOL    HW233801   0.392   1.478   8.645 -0.9188  1.9777  0.1144
 7390SOL     OW33802   4.102   4.047   5.966 -0.6233 -0.2669  0.2278
 7390SOL    HW133803   4.184   4.078   6.005 -0.2648  0.5871 -1.1824
 7390SOL    HW233804   4.100   4.092   5.881  1.3395  0.2717  0.4538
 7391SOL     OW33805   1.942   4.676   6.018  0.0534 -0.1717  0.0034
 7391SOL    HW133806   1.898   4.661   5.934  0.0399 -0.9911  0.1605
 7391SOL    HW233807   1.883   4.739   6.060  2.7113  1.9026  0.6780
 7392SOL     OW33808   0.497   2.909   2.481  0.3180 -0.0073 -0.0411
 7392SOL    HW133809   0.561   2.954   2.537  0.9054 -1.5833  0.5296
 7392SOL    HW233810   0.538   2.917   2.395  0.8691  1.0945  0.3223
 7393SOL     OW33811   0.240   4.718   2.091 -0.1766  0.1724 -0.7149
 7393SOL    HW133812   0.256   4.629   2.059  1.3726  0.3573 -0.4689
 7393SOL    HW233813   0.330   0.006   2.072  0.1403  1.2595  2.2938
 7394SOL     OW33814   0.355   4.728   7.648  0.2214 -0.1044  0.2548
 7394SOL    HW133815   0.413   0.008   7.721  0.0602  0.5923  0.1929
 7394SOL    HW233816   0.321   0.076   7.631 -0.1784 -0.5463 -1.3065
 7395SOL     OW33817   0.818   0.568   3.953 -0.2680  0.3023  0.9215
 7395SOL    HW133818   0.836   0.480   3.988  0.4938  0.3550  0.6462
 7395SOL    HW233819   0.881   0.620   4.002 -0.2827 -0.3967  1.6881
 7396SOL     OW33820   1.711   4.502   2.235 -0.3225 -0.0109 -0.0434
 7396SOL    HW133821   1.731   4.414   2.203 -0.3039  0.2061 -0.6245
 7396SOL    HW233822   1.669   4.473   2.317 -0.7057  3.0612  0.8287
 7397SOL     OW33823   3.250   4.223   6.813  0.0960  0.2415  0.0314
 7397SOL    HW133824   3.186   4.295   6.808  1.1846  1.2185  0.2660
 7397SOL    HW233825   3.325   4.268   6.776  0.2931  0.9632  1.3117
 7398SOL     OW33826   2.135   3.954   9.929  0.7479 -0.6416 -0.2327
 7398SOL    HW133827   2.106   3.907   9.851  2.2877  1.4973 -2.1040
 7398SOL    HW233828   2.087   4.035   9.911  0.7494 -0.6294 -0.1812
 7399SOL     OW33829   4.407   3.612  14.429 -0.5710 -0.2286  0.1124
 7399SOL    HW133830   4.425   3.674  14.358 -0.2715 -1.7921 -1.1725
 7399SOL    HW233831   4.328   3.573  14.392  0.6008 -1.9821 -0.5280
 7400SOL     OW33832   4.722   2.110  10.248 -0.1352  0.3628  0.2932
 7400SOL    HW133833   4.651   2.090  10.187 -0.1910 -0.6174  0.6628
 7400SOL    HW233834   4.669   2.132  10.325  0.2276  1.0631  0.3357
 7401SOL     OW33835   0.146   4.651  13.099  0.7396 -0.2570  0.5105
 7401SOL    HW133836   0.165   4.564  13.135 -0.4154  0.0523  1.8981
 7401SOL    HW233837   0.177   4.642  13.009 -0.7207 -0.9164  0.0610
 7402SOL     OW33838   0.507   1.778   3.626 -0.7054  0.1453  0.0798
 7402SOL    HW133839   0.580   1.837   3.606 -0.4419  0.3861  1.7509
 7402SOL    HW233840   0.440   1.826   3.577 -2.0698 -1.3163  0.5275
 7403SOL     OW33841   1.200   1.580  10.766  0.7494 -0.3460  0.0919
 7403SOL    HW133842   1.123   1.637  10.768 -0.8138 -2.5787  2.9476
 7403SOL    HW233843   1.247   1.629  10.834 -1.3665  2.2739 -0.3200
 7404SOL     OW33844   1.052   0.579   3.087 -0.1109 -0.0872 -0.1302
 7404SOL    HW133845   1.090   0.667   3.090 -0.2275 -0.0871  1.3147
 7404SOL    HW233846   1.007   0.580   3.172 -0.6685  1.2655 -0.4349
 7405SOL     OW33847   1.775   1.542   0.304 -0.1564  0.1610  0.1433
 7405SOL    HW133848   1.865   1.523   0.279  0.0943  1.0309  0.3925
 7405SOL    HW233849   1.791   1.587   0.386 -0.0362  4.5186 -2.2639
 7406SOL     OW33850   3.275   1.618   3.741  0.0361  0.1691  0.1657
 7406SOL    HW133851   3.234   1.629   3.826 -0.0744 -2.6357  0.4480
 7406SOL    HW233852   3.227   1.680   3.686 -0.0878 -0.1037 -0.0312
 7407SOL     OW33853   1.043   1.372   6.131 -0.4501  0.2694  0.3397
 7407SOL    HW133854   0.977   1.412   6.074  0.8943 -0.9794 -2.0926
 7407SOL    HW233855   1.006   1.285   6.136 -1.4590  0.8143  2.1683
 7408SOL     OW33856   4.008   2.638   2.407  0.0726 -0.9608 -0.3459
 7408SOL    HW133857   3.955   2.559   2.418  0.6908 -1.4042 -0.5231
 7408SOL    HW233858   4.098   2.608   2.395  0.6575  0.4786  0.4614
 7409SOL     OW33859   0.467   2.025   0.035 -0.1443 -0.2384 -0.0516
 7409SOL    HW133860   0.464   1.995   0.125  0.8501 -1.1546 -0.3228
 7409SOL    HW233861   0.406   2.098   0.047 -0.5047 -0.5500 -0.0043
 7410SOL     OW33862   3.901   2.402  11.722 -0.1083 -0.5852  0.0830
 7410SOL    HW133863   3.965   2.397  11.651  0.3710  0.9008  0.4141
 7410SOL    HW233864   3.928   2.329  11.778 -0.4075 -1.5926 -1.0893
 7411SOL     OW33865   3.016   1.715   1.453 -0.1094 -0.1150  0.8987
 7411SOL    HW133866   3.014   1.704   1.358  1.1749  3.1108  0.5153
 7411SOL    HW233867   3.109   1.726   1.472  0.2242  3.7497 -2.9800
 7412SOL     OW33868   1.814   4.223   2.367 -0.5938  0.4159 -0.5223
 7412SOL    HW133869   1.827   4.221   2.462  0.3724  0.9501 -0.6417
 7412SOL    HW233870   1.903   4.220   2.332 -0.6326 -1.2571 -0.4999
 7413SOL     OW33871   1.623   0.726   8.337 -0.1995 -0.4814 -0.4383
 7413SOL    HW133872   1.621   0.722   8.242  0.2861 -0.7659 -0.4399
 7413SOL    HW233873   1.677   0.650   8.360 -0.5668 -0.6950 -0.2750
 7414SOL     OW33874   2.526   4.558   7.672 -0.3670 -0.6883 -0.2959
 7414SOL    HW133875   2.575   4.609   7.607 -0.2135  1.4475  1.4610
 7414SOL    HW233876   2.596   4.545   7.736 -0.0227  1.0870 -0.2968
 7415SOL     OW33877   1.148   3.353  17.169  0.0919 -0.1705  0.8459
 7415SOL    HW133878   1.083   3.400  17.115  1.0367 -0.3195 -0.4216
 7415SOL    HW233879   1.106   3.267  17.175 -1.3426  0.4542 -0.1983
 7416SOL     OW33880   4.004   4.645   8.535 -0.3420 -0.3110  0.1470
 7416SOL    HW133881   4.064   4.713   8.566  0.4375 -0.4722 -1.0242
 7416SOL    HW233882   3.959   4.688   8.461  2.5410  0.1826 -1.3176
 7417SOL     OW33883   1.930   1.987   1.279  0.3576 -0.2043  0.2164
 7417SOL    HW133884   1.943   2.074   1.241 -0.4955  0.8962  2.4237
 7417SOL    HW233885   1.956   1.924   1.212  1.5572  0.6219 -0.0989
 7418SOL     OW33886   3.647   1.928   0.460 -0.1448  0.4818  0.0462
 7418SOL    HW133887   3.656   1.926   0.556  0.3249  1.4374  0.0108
 7418SOL    HW233888   3.556   1.897   0.461 -0.6335  1.9238  0.6516
 7419SOL     OW33889   4.398   0.394  13.270  0.1916 -0.1593 -0.4357
 7419SOL    HW133890   4.479   0.346  13.283 -0.2349 -1.1658 -1.4771
 7419SOL    HW233891   4.394   0.434  13.357 -0.3695 -1.1395 -0.0174
 7420SOL     OW33892   1.362   1.150   7.730  0.1806  0.0808  0.2459
 7420SOL    HW133893   1.293   1.207   7.694 -0.2870 -0.5118  0.1979
 7420SOL    HW233894   1.350   1.160   7.825  0.6448 -1.2632  0.4534
 7421SOL     OW33895   1.121   0.877  12.381  0.0166 -0.0811  0.0585
 7421SOL    HW133896   1.146   0.872  12.289  1.0998 -0.7387  0.3940
 7421SOL    HW233897   1.026   0.860  12.382  0.0328 -0.1905 -0.2239
 7422SOL     OW33898   1.418   0.300   6.414 -0.0371  0.5757  0.1149
 7422SOL    HW133899   1.471   0.379   6.419  0.0778  0.5060  0.0082
 7422SOL    HW233900   1.363   0.329   6.341 -0.1915  2.4109  0.9742
 7423SOL     OW33901   0.195   3.944   8.862  0.6175  0.3583  0.0895
 7423SOL    HW133902   0.192   4.035   8.834 -1.7669  0.4716  0.6737
 7423SOL    HW233903   0.265   3.909   8.807 -1.1215  0.2745 -2.1146
 7424SOL     OW33904   2.419   4.515   2.187  0.0139  0.2042  0.0452
 7424SOL    HW133905   2.469   4.545   2.110 -0.7889 -1.9056 -1.3107
 7424SOL    HW233906   2.336   4.560   2.176  0.0743 -0.0556 -1.5338
 7425SOL     OW33907   1.222   0.570   6.503 -0.2130  0.2493 -0.4174
 7425SOL    HW133908   1.139   0.532   6.531  1.0568 -0.5734  2.1647
 7425SOL    HW233909   1.286   0.499   6.498  0.2961  0.5537  1.6868
 7426SOL     OW33910   3.158   1.531  16.940  0.1454 -0.6644 -0.2647
 7426SOL    HW133911   3.155   1.623  16.913  0.8334 -0.1934  1.2380
 7426SOL    HW233912   3.174   1.544  17.034 -0.3374  0.5237 -0.3422
 7427SOL     OW33913   3.782   0.502   8.222 -0.1086 -0.2168 -0.3519
 7427SOL    HW133914   3.825   0.534   8.142  0.9830 -1.5408 -0.2900
 7427SOL    HW233915   3.708   0.561   8.239  0.9822  1.6668 -2.1582
 7428SOL     OW33916   4.340   2.297   1.105 -0.0731 -0.1733 -0.2639
 7428SOL    HW133917   4.333   2.202   1.114  0.7178 -0.0047  2.0630
 7428SOL    HW233918   4.309   2.320   1.193 -0.6901 -1.9710 -0.0102
 7429SOL     OW33919   2.376   4.563   3.824  0.1110 -0.3719 -0.2462
 7429SOL    HW133920   2.346   4.492   3.768  1.4737 -1.0241 -0.1356
 7429SOL    HW233921   2.454   4.524   3.863  0.6113  0.6129 -0.2642
 7430SOL     OW33922   1.095   3.969   2.781 -0.3371  0.2120  0.0820
 7430SOL    HW133923   1.010   4.008   2.800  0.0632  2.1221 -2.0223
 7430SOL    HW233924   1.144   3.989   2.861 -1.0163 -0.6774  0.7265
 7431SOL     OW33925   3.840   4.168   7.704 -0.2044 -0.6960 -0.0356
 7431SOL    HW133926   3.841   4.249   7.654  1.0377 -0.6466  0.0807
 7431SOL    HW233927   3.760   4.126   7.670  0.8327 -0.6485 -2.5384
 7432SOL     OW33928   2.887   1.299   7.466  0.2854 -0.2459  0.0910
 7432SOL    HW133929   2.960   1.272   7.411 -0.9953 -1.1367 -1.1746
 7432SOL    HW233930   2.828   1.224   7.455 -0.7406  0.2226  2.3336
 7433SOL     OW33931   3.862   1.748   1.213  0.3083  0.0671  0.3052
 7433SOL    HW133932   3.838   1.672   1.161  1.4860  2.1393 -3.2659
 7433SOL    HW233933   3.821   1.819   1.164 -1.2548  0.1077  1.6629
 7434SOL     OW33934   4.132   4.720   6.051 -0.2103 -0.5840 -0.1083
 7434SOL    HW133935   4.041   4.719   6.081  0.1761 -2.0785  0.9892
 7434SOL    HW233936   4.113   4.724   5.957  2.9862  0.8750 -0.7096
 7435SOL     OW33937   1.751   3.013   4.436  0.5215  0.2146 -0.6181
 7435SOL    HW133938   1.672   2.960   4.428  0.6754 -0.4767  2.1697
 7435SOL    HW233939   1.724   3.079   4.501  0.4561 -0.1204 -0.3060
 7436SOL     OW33940   2.922   0.982  15.067 -0.2172  0.1426 -0.0821
 7436SOL    HW133941   2.931   1.026  15.152  1.3367 -1.0601  0.3817
 7436SOL    HW233942   3.011   0.947  15.064  0.6775  2.3601  0.5266
 7437SOL     OW33943   1.457   1.117   2.791  0.1569 -0.6049 -0.4299
 7437SOL    HW133944   1.536   1.142   2.742 -0.6197 -1.0173 -1.8868
 7437SOL    HW233945   1.391   1.181   2.765 -0.3021 -1.0270 -0.2987
 7438SOL     OW33946   3.652   2.577   6.048  0.7161  0.1270  0.2707
 7438SOL    HW133947   3.648   2.497   6.100 -4.6595 -0.2177 -0.6848
 7438SOL    HW233948   3.560   2.597   6.031  1.0431  1.1191 -0.3830
 7439SOL     OW33949   2.339   0.023  12.091  0.1356  0.0297 -0.0332
 7439SOL    HW133950   2.251   4.727  12.078  0.9645 -1.7702 -0.6163
 7439SOL    HW233951   2.334   0.109  12.050  1.1042  0.0010 -0.2135
 7440SOL     OW33952   4.437   3.021   0.641  0.2500 -0.2266 -0.4275
 7440SOL    HW133953   4.380   2.947   0.623 -2.0442  1.6792 -1.0017
 7440SOL    HW233954   4.467   3.036   0.551 -3.0494 -0.7494 -1.6046
 7441SOL     OW33955   3.888   2.667   5.670  0.1105  0.3727  0.0355
 7441SOL    HW133956   3.920   2.625   5.589  0.7690  0.0303  0.4706
 7441SOL    HW233957   3.970   2.668   5.719  0.7417  1.1570 -1.0506
 7442SOL     OW33958   3.807   2.223   6.553  0.0173 -0.0280  0.1787
 7442SOL    HW133959   3.820   2.228   6.648  0.8280  0.0703  0.0564
 7442SOL    HW233960   3.713   2.206   6.550 -0.2369  0.8822  2.8140
 7443SOL     OW33961   1.882   3.330  11.543  0.2415 -0.0719  0.1590
 7443SOL    HW133962   1.856   3.374  11.462 -0.5207  0.0607  0.4779
 7443SOL    HW233963   1.800   3.347  11.588  0.2080  1.0978 -0.3543
 7444SOL     OW33964   0.007   4.397   9.431 -0.3039 -0.5758 -0.4425
 7444SOL    HW133965   4.729   4.472   9.374  1.0478  0.5822  0.6507
 7444SOL    HW233966   4.673   4.342   9.409 -0.4971 -0.9403  1.1310
 7445SOL     OW33967   1.270   0.328   4.805  0.1934  0.0914  0.1444
 7445SOL    HW133968   1.334   0.382   4.759  1.3724 -1.0128  0.5014
 7445SOL    HW233969   1.320   0.248   4.820  0.3635 -0.0093 -1.0189
 7446SOL     OW33970   0.474   2.089  14.245  0.2534  0.5240 -0.0634
 7446SOL    HW133971   0.421   2.013  14.268 -0.1685  1.0267  0.6710
 7446SOL    HW233972   0.464   2.124  14.334  1.2331  2.2684 -0.6218
 7447SOL     OW33973   3.655   2.370   3.639 -0.3421  0.1473 -0.2143
 7447SOL    HW133974   3.561   2.387   3.647 -0.3966 -0.7405  1.0950
 7447SOL    HW233975   3.690   2.385   3.727  1.8812  0.5022 -1.1653
 7448SOL     OW33976   0.997   4.441   7.745 -0.3733 -0.4049  0.5823
 7448SOL    HW133977   1.007   4.347   7.762 -1.0227 -0.7604 -0.9955
 7448SOL    HW233978   0.953   4.461   7.828  0.6101  0.3128  0.9332
 7449SOL     OW33979   2.679   0.985   7.077 -0.2110  0.8332 -0.2426
 7449SOL    HW133980   2.633   1.044   7.137 -0.4574  0.1553  0.2351
 7449SOL    HW233981   2.764   0.985   7.119  0.2440  1.8739 -1.1513
 7450SOL     OW33982   0.369   4.228  13.101  0.3318  0.1717 -0.2020
 7450SOL    HW133983   0.459   4.263  13.105 -0.0866  1.0605  1.9257
 7450SOL    HW233984   0.362   4.152  13.158  0.3650 -0.7696 -1.4653
 7451SOL     OW33985   4.202   1.874   8.933  0.4063  0.4303 -0.0852
 7451SOL    HW133986   4.111   1.884   8.961  0.4580  2.5635 -0.6592
 7451SOL    HW233987   4.207   1.803   8.869  1.6583  0.5577 -0.1359
 7452SOL     OW33988   3.819   1.943  13.353  0.7409 -0.4617  0.3332
 7452SOL    HW133989   3.779   2.023  13.319  1.5666 -0.2367 -0.0924
 7452SOL    HW233990   3.740   1.915  13.400  1.2961  0.4942  1.8616
 7453SOL     OW33991   4.155   4.649  15.282 -0.1086 -0.0300 -0.5560
 7453SOL    HW133992   4.162   4.735  15.240 -1.2957  0.6086  0.5669
 7453SOL    HW233993   4.105   4.603  15.215  2.0082 -0.9443 -1.5144
 7454SOL     OW33994   0.619   0.825  12.479 -0.1161 -0.1001  0.4708
 7454SOL    HW133995   0.568   0.800  12.556 -0.9634  1.4935  0.4413
 7454SOL    HW233996   0.658   0.909  12.505 -1.6496  1.8378 -3.4528
 7455SOL     OW33997   1.749   1.976   9.031 -0.4704 -0.4165  0.1217
 7455SOL    HW133998   1.769   1.932   9.114 -2.2720  0.1573  0.8459
 7455SOL    HW233999   1.655   1.968   9.018 -0.3600 -1.9979  0.3083
 7456SOL     OW34000   3.131   4.295  17.486  0.1761  0.1166 -0.0581
 7456SOL    HW134001   3.137   4.251  17.401 -0.3418 -0.0225 -0.0221
 7456SOL    HW234002   3.109   4.385  17.460 -1.0044 -0.1870 -0.1108
 7457SOL     OW34003   0.030   3.445   5.400  0.5610 -0.2717 -0.2117
 7457SOL    HW134004   4.684   3.413   5.373 -0.1144  0.6513  0.8472
 7457SOL    HW234005   0.026   3.411   5.490 -3.3497  1.3328  0.2119
 7458SOL     OW34006   3.202   1.858   5.175 -0.1229  0.0770  0.1357
 7458SOL    HW134007   3.226   1.848   5.083  0.6983  1.3458  0.2077
 7458SOL    HW234008   3.149   1.779   5.183  1.5812 -1.0357  0.6196
 7459SOL     OW34009   1.328   4.649  14.589  0.8752  0.8454  0.6477
 7459SOL    HW134010   1.423   4.640  14.579  0.7684  1.0741 -0.5864
 7459SOL    HW234011   1.310   4.715  14.522  0.6255 -0.0380 -0.1619
 7460SOL     OW34012   0.310   1.380   6.977  0.8232 -0.1208 -0.5991
 7460SOL    HW134013   0.299   1.379   6.882  1.2741  1.8892 -0.6547
 7460SOL    HW234014   0.377   1.448   6.986  1.7541 -1.7152  4.7094
 7461SOL     OW34015   3.189   1.968   9.560  0.4229 -0.2264 -0.0884
 7461SOL    HW134016   3.235   2.052   9.555 -0.2022  0.1700  0.7272
 7461SOL    HW234017   3.234   1.917   9.628  0.9421  1.3149  0.7341
 7462SOL     OW34018   0.346   3.772   7.156 -0.1003 -0.0089 -0.1300
 7462SOL    HW134019   0.336   3.819   7.240  1.3794 -2.3851  1.3736
 7462SOL    HW234020   0.321   3.845   7.099  0.1938 -0.3456 -0.6900
 7463SOL     OW34021   0.370   2.785  14.078 -0.0665  0.3375  0.1390
 7463SOL    HW134022   0.393   2.794  13.986  0.8030 -0.1451  0.3031
 7463SOL    HW234023   0.410   2.865  14.114 -1.1701  0.7369  0.4786
 7464SOL     OW34024   3.064   0.948  10.901 -0.6171 -0.7863  0.1795
 7464SOL    HW134025   3.001   1.008  10.941 -1.4191 -0.4552 -1.5836
 7464SOL    HW234026   3.085   0.889  10.973 -0.8570  0.1395  1.0092
 7465SOL     OW34027   1.771   3.872  14.053  0.0239 -0.3223 -0.5391
 7465SOL    HW134028   1.848   3.890  14.107 -0.8621 -1.3746  1.0581
 7465SOL    HW234029   1.813   3.858  13.967  1.0313 -3.2475  0.4063
 7466SOL     OW34030   3.138   4.614   3.331  0.8586 -0.3994  0.5402
 7466SOL    HW134031   3.180   4.579   3.252 -0.7784 -0.4312 -0.3008
 7466SOL    HW234032   3.054   4.570   3.322  0.5763  0.0711  0.8956
 7467SOL     OW34033   0.867   3.694   7.049 -0.0409 -0.6216 -0.1802
 7467SOL    HW134034   0.910   3.718   7.131 -0.3849 -2.6218  0.5981
 7467SOL    HW234035   0.822   3.773   7.021  1.9994  0.2528 -0.9779
 7468SOL     OW34036   0.522   0.175   2.732  0.4684 -0.1481 -0.0123
 7468SOL    HW134037   0.437   0.215   2.753 -0.1053 -1.2128 -0.3447
 7468SOL    HW234038   0.513   0.080   2.731 -0.8258 -0.0648  2.2769
 7469SOL     OW34039   1.625   3.350   4.044 -0.3368  0.1427 -0.2238
 7469SOL    HW134040   1.711   3.371   4.079 -0.0991 -2.8515  1.0107
 7469SOL    HW234041   1.567   3.411   4.089  1.0737  0.5896  0.9754
 7470SOL     OW34042   1.983   3.429   3.320  0.5678  0.5339 -0.2861
 7470SOL    HW134043   2.011   3.391   3.237  0.2408 -0.9106  0.2763
 7470SOL    HW234044   2.062   3.473   3.351  2.0935 -1.4441 -1.3606
 7471SOL     OW34045   1.134   4.284   2.849  0.1199  0.2684  0.0425
 7471SOL    HW134046   1.095   4.309   2.933  0.3479  0.0653  0.2081
 7471SOL    HW234047   1.192   4.212   2.875  0.1610  0.1689 -0.3156
 7472SOL     OW34048   1.567   4.158   6.958 -0.3013  0.7526  0.3970
 7472SOL    HW134049   1.565   4.206   7.040  1.4179  0.9811  0.2876
 7472SOL    HW234050   1.610   4.220   6.899 -1.0565 -0.7464 -1.7507
 7473SOL     OW34051   0.538   3.217  13.336 -0.3727  0.0843 -0.2416
 7473SOL    HW134052   0.554   3.127  13.364 -1.0420 -0.3071 -1.1125
 7473SOL    HW234053   0.517   3.262  13.418  0.3278  1.0295 -0.5843
 7474SOL     OW34054   2.714   3.703   6.271 -0.1794 -0.6100  0.2079
 7474SOL    HW134055   2.665   3.784   6.289  0.4668  0.1215 -1.3246
 7474SOL    HW234056   2.638   3.645   6.270 -0.4352 -0.2789 -0.7888
 7475SOL     OW34057   2.935   0.279   3.772 -0.6562  0.3052  0.4475
 7475SOL    HW134058   2.906   0.319   3.690 -0.4885 -3.7925 -1.5637
 7475SOL    HW234059   2.906   0.348   3.831 -0.6792  1.1423 -0.5327
 7476SOL     OW34060   2.414   1.873   8.380  0.7163 -0.1702 -0.0154
 7476SOL    HW134061   2.400   1.897   8.471  1.2987  0.9774 -0.2287
 7476SOL    HW234062   2.457   1.787   8.382 -0.1345 -0.5868  0.3129
 7477SOL     OW34063   1.292   0.699   2.049 -0.7675  0.3294  0.2784
 7477SOL    HW134064   1.328   0.762   1.986 -1.1398  1.8955  1.6285
 7477SOL    HW234065   1.207   0.738   2.069 -1.2693  0.2630 -1.7503
 7478SOL     OW34066   4.049   0.933  15.548 -0.6754  0.3885  0.3538
 7478SOL    HW134067   4.034   0.865  15.482  0.5852  1.4664 -1.0422
 7478SOL    HW234068   3.963   0.937  15.589  0.5998  0.4410  3.0355
 7479SOL     OW34069   1.212   0.243   1.964  0.0852 -0.1567  0.1855
 7479SOL    HW134070   1.208   0.189   1.885  0.1795 -1.5639  1.1439
 7479SOL    HW234071   1.148   0.310   1.939  0.5426 -0.4141 -1.6391
 7480SOL     OW34072   2.117   2.500   0.474 -0.8029  0.4849  0.1564
 7480SOL    HW134073   2.190   2.491   0.412  2.3142 -0.5226  3.9485
 7480SOL    HW234074   2.059   2.427   0.450 -0.8632 -0.3404  2.8047
 7481SOL     OW34075   0.088   4.346   8.232  0.6733  0.3490  0.3993
 7481SOL    HW134076   0.164   4.292   8.208  1.7027  1.5131  1.0940
 7481SOL    HW234077   0.049   4.349   8.144 -0.4445  0.5663  0.9155
 7482SOL     OW34078   2.927   1.897   3.673  0.1966 -0.0938 -0.3830
 7482SOL    HW134079   2.874   1.844   3.732 -0.3127  1.7918  0.8463
 7482SOL    HW234080   2.870   1.970   3.650  1.9319  0.9727 -1.3034
 7483SOL     OW34081   2.103   4.482   3.130 -0.4533  0.4440 -0.7989
 7483SOL    HW134082   2.068   4.569   3.114 -1.7318  0.2077  0.6325
 7483SOL    HW234083   2.191   4.497   3.098 -0.5031 -0.5179 -1.3992
 7484SOL     OW34084   2.722   0.050   5.065 -0.0315  0.3054 -0.3021
 7484SOL    HW134085   2.708   4.729   5.137 -1.9205 -0.5982 -1.4247
 7484SOL    HW234086   2.738   4.732   4.991  2.2665 -0.9194  1.1809
 7485SOL     OW34087   1.638   1.779  14.671 -0.3016  0.0107 -0.2367
 7485SOL    HW134088   1.576   1.800  14.741  0.8491  1.7819  0.2657
 7485SOL    HW234089   1.607   1.828  14.595  1.8804  1.5242 -0.1875
 7486SOL     OW34090   4.015   1.359   2.907 -0.3375  0.2609 -0.6426
 7486SOL    HW134091   4.033   1.420   2.978 -0.6438 -1.4757  0.9483
 7486SOL    HW234092   4.084   1.375   2.844  1.0924  0.7056  1.0437
 7487SOL     OW34093   2.372   0.582   7.617  0.5434 -0.2153 -0.1812
 7487SOL    HW134094   2.287   0.544   7.596 -0.1453  0.1199  1.9492
 7487SOL    HW234095   2.436   0.522   7.579  0.2009  0.8587 -2.4204
 7488SOL     OW34096   4.545   1.590   7.843  0.1117 -0.7647 -0.3093
 7488SOL    HW134097   4.636   1.560   7.846  0.8403  1.2062 -2.1965
 7488SOL    HW234098   4.555   1.685   7.854  0.7780 -0.8876  0.1870
 7489SOL     OW34099   2.404   4.361   8.026  0.2559 -0.5529 -0.1562
 7489SOL    HW134100   2.421   4.455   8.020  1.0316 -0.6360  0.6592
 7489SOL    HW234101   2.320   4.363   8.071  1.0810 -1.4577  1.4623
 7490SOL     OW34102   0.760   0.621   2.927  0.5744 -0.6150 -0.1453
 7490SOL    HW134103   0.746   0.683   2.855 -2.5265 -0.1587  0.8250
 7490SOL    HW234104   0.848   0.645   2.955  0.1162  1.6273 -0.5910
 7491SOL     OW34105   2.141   1.779   1.697 -1.0649  0.2162 -0.3416
 7491SOL    HW134106   2.069   1.799   1.637 -2.6371  1.3913  1.9560
 7491SOL    HW234107   2.209   1.824   1.647 -1.7753  0.5477 -1.0210
 7492SOL     OW34108   0.077   0.557   6.251  0.8681  0.3399  0.3970
 7492SOL    HW134109   4.722   0.566   6.241  1.0615  1.6233 -0.3289
 7492SOL    HW234110   0.115   0.590   6.170 -0.0149 -2.5336 -1.1951
 7493SOL     OW34111   3.413   2.221   8.743  0.4605  0.0235 -0.1423
 7493SOL    HW134112   3.422   2.164   8.667  2.9477 -0.5209  0.5675
 7493SOL    HW234113   3.329   2.265   8.730  0.0396 -0.7873 -0.2134
 7494SOL     OW34114   2.091   3.891   9.677  0.2269  0.5874 -0.6229
 7494SOL    HW134115   2.032   3.949   9.629 -0.4246 -0.8551 -1.5483
 7494SOL    HW234116   2.175   3.918   9.638 -0.4012  1.1108 -1.6178
 7495SOL     OW34117   0.977   4.185   3.072  0.0451  0.0766  0.0039
 7495SOL    HW134118   0.916   4.204   3.142 -0.7966  0.5213 -0.8584
 7495SOL    HW234119   0.997   4.093   3.092  0.3339 -0.2305 -1.6326
 7496SOL     OW34120   4.688   4.654  12.457  0.3555 -0.1832  0.1406
 7496SOL    HW134121   4.672   4.565  12.425 -0.6708 -0.0708  0.3232
 7496SOL    HW234122   4.615   4.655  12.519 -0.0156 -1.5935 -0.2519
 7497SOL     OW34123   1.457   2.602   9.444  0.5077  0.1834  0.4356
 7497SOL    HW134124   1.425   2.690   9.429  0.8926  0.1258 -0.7048
 7497SOL    HW234125   1.388   2.556   9.396  1.1006  0.0094 -0.2578
 7498SOL     OW34126   4.586   3.778   3.155 -0.1200  0.7407  0.1467
 7498SOL    HW134127   4.542   3.863   3.157 -2.3420 -0.4293  0.7762
 7498SOL    HW234128   4.525   3.728   3.100  0.9601  0.9543 -1.2456
 7499SOL     OW34129   2.835   3.842   8.585  0.0130  0.0153  0.5692
 7499SOL    HW134130   2.859   3.816   8.673 -1.3462 -0.2900  0.8470
 7499SOL    HW234131   2.912   3.824   8.532  1.0873  1.7788  1.5295
 7500SOL     OW34132   1.143   1.958   6.078  0.1936  0.7817 -0.6648
 7500SOL    HW134133   1.157   1.976   6.171 -0.4788 -3.3473  0.2143
 7500SOL    HW234134   1.152   2.048   6.047  1.0578  0.3972 -1.5051
 7501SOL     OW34135   0.372   1.184   7.575  0.0131  0.3514  0.4841
 7501SOL    HW134136   0.304   1.118   7.586  1.1739 -0.5206  2.4050
 7501SOL    HW234137   0.444   1.131   7.542 -0.2463  0.6869 -0.6270
 7502SOL     OW34138   1.176   2.032   7.503 -0.0988 -0.1542 -0.0782
 7502SOL    HW134139   1.147   1.949   7.465 -0.6276  0.1349 -0.3166
 7502SOL    HW234140   1.166   2.083   7.423 -1.1763 -0.5675 -0.2009
 7503SOL     OW34141   3.103   2.097   2.467 -0.6834  0.1641  0.7406
 7503SOL    HW134142   3.052   2.146   2.531 -0.1159  0.1681  1.1893
 7503SOL    HW234143   3.155   2.039   2.522 -1.2439  1.3808  2.5418
 7504SOL     OW34144   1.291   1.445  11.579  0.3963 -0.0601  0.2113
 7504SOL    HW134145   1.233   1.372  11.599 -0.1030 -0.1632 -1.5957
 7504SOL    HW234146   1.302   1.495  11.660 -1.0766 -2.4460  1.8650
 7505SOL     OW34147   2.659   0.149   3.121 -0.0460  0.1323 -0.0412
 7505SOL    HW134148   2.635   0.088   3.191  0.0156 -0.1341 -0.2562
 7505SOL    HW234149   2.578   0.182   3.083 -0.4329  1.0350  1.5556
 7506SOL     OW34150   1.015   0.051   3.329  0.0132  0.5330  0.3118
 7506SOL    HW134151   0.981   0.034   3.241  0.2891 -2.3609  0.7650
 7506SOL    HW234152   0.935   0.047   3.381 -1.6223 -0.3931 -2.2541
 7507SOL     OW34153   4.310   4.554   4.467  0.4461  0.5296  0.2136
 7507SOL    HW134154   4.371   4.503   4.520  0.1575 -0.9886 -0.9116
 7507SOL    HW234155   4.334   4.507   4.386 -0.8444 -0.3734  0.3625
 7508SOL     OW34156   1.539   0.361  10.638  0.0692  0.8898  0.4990
 7508SOL    HW134157   1.480   0.289  10.660  0.1746  0.4825 -0.5186
 7508SOL    HW234158   1.597   0.306  10.585 -1.1971 -0.4738  0.5057
 7509SOL     OW34159   1.491   0.068   7.305  0.1551  0.5290 -0.1819
 7509SOL    HW134160   1.488   0.098   7.396  1.7642  1.6647 -0.5036
 7509SOL    HW234161   1.412   0.115   7.279 -0.8275 -0.6702  0.6281
 7510SOL     OW34162   3.452   1.158   4.822 -0.0080 -0.0869  0.2721
 7510SOL    HW134163   3.525   1.219   4.818  0.2098 -0.3615  0.0205
 7510SOL    HW234164   3.478   1.104   4.747  0.8309  1.3976 -0.4951
 7511SOL     OW34165   4.269   3.134   2.986  0.2962  0.0381 -0.6399
 7511SOL    HW134166   4.290   3.198   2.917  1.5508 -0.9711 -1.1935
 7511SOL    HW234167   4.303   3.053   2.948  1.5179 -0.4275  1.4061
 7512SOL     OW34168   2.929   4.040  12.642 -0.0420  0.0212  0.2702
 7512SOL    HW134169   2.851   3.992  12.615 -0.9083  1.6965 -0.1787
 7512SOL    HW234170   2.949   4.085  12.560  0.3782 -0.8628 -0.1136
 7513SOL     OW34171   2.158   1.955   0.845 -0.1716 -0.2727 -0.4499
 7513SOL    HW134172   2.091   1.901   0.885 -0.8552 -0.1945 -1.5017
 7513SOL    HW234173   2.206   1.980   0.925 -1.8652  0.4179  0.3487
 7514SOL     OW34174   0.222   1.198   5.180 -0.4071 -0.3519  0.4564
 7514SOL    HW134175   0.268   1.274   5.216 -1.1047  0.6792 -0.8139
 7514SOL    HW234176   0.138   1.236   5.157 -0.1675  0.4164  0.8645
 7515SOL     OW34177   2.732   0.419   7.692 -0.7302 -0.8783 -0.4689
 7515SOL    HW134178   2.685   0.401   7.610 -1.1331 -0.0845 -0.4143
 7515SOL    HW234179   2.790   0.345   7.707  0.2418  0.2011  1.0933
 7516SOL     OW34180   4.430   0.257  17.516 -0.1175  0.3705  0.0864
 7516SOL    HW134181   4.498   0.254  17.449  1.1903 -0.2514  1.4403
 7516SOL    HW234182   4.355   0.228  17.464 -0.6509  3.0357 -0.6188
 7517SOL     OW34183   3.344   1.035  10.893 -0.0219 -0.2971 -0.6643
 7517SOL    HW134184   3.254   1.004  10.898  0.2819 -1.1000 -0.2022
 7517SOL    HW234185   3.363   1.019  10.800  2.5301 -0.9868 -0.0106
 7518SOL     OW34186   0.236   4.309   7.285  0.2416 -0.4657  0.1016
 7518SOL    HW134187   0.145   4.322   7.259  0.4844 -0.4757 -0.7507
 7518SOL    HW234188   0.249   4.401   7.310 -0.9900 -0.3382  0.2797
 7519SOL     OW34189   3.089   3.169   0.841  0.5814  0.3758  0.4772
 7519SOL    HW134190   3.171   3.122   0.828 -0.0719 -0.6635  0.1000
 7519SOL    HW234191   3.122   3.234   0.903 -1.0737  0.3472  1.3711
 7520SOL     OW34192   1.397   1.503   3.464  0.1316  0.2472 -0.4395
 7520SOL    HW134193   1.406   1.450   3.385  0.2031 -0.6077  0.1374
 7520SOL    HW234194   1.356   1.437   3.521 -0.4187  0.6857 -0.3261
 7521SOL     OW34195   3.697   3.054  13.094  0.1861 -0.2728 -0.4614
 7521SOL    HW134196   3.733   3.077  13.008  0.0964  2.1190  0.1526
 7521SOL    HW234197   3.642   3.131  13.104 -0.6927 -0.9720  0.0560
 7522SOL     OW34198   4.029   1.203   7.199  0.2536 -0.2619 -0.2054
 7522SOL    HW134199   3.946   1.172   7.235  0.3144 -0.4652 -0.2385
 7522SOL    HW234200   4.008   1.186   7.107  1.6725  0.2017 -0.6237
 7523SOL     OW34201   3.812   3.806   2.551 -0.5548 -0.2796 -0.1624
 7523SOL    HW134202   3.849   3.766   2.629 -1.1018  1.5304  1.0258
 7523SOL    HW234203   3.867   3.885   2.549 -0.5953 -0.2797 -1.3205
 7524SOL     OW34204   0.844   2.439   6.918  0.1418 -0.3545  0.9832
 7524SOL    HW134205   0.808   2.359   6.955 -0.0403 -1.2226 -1.0589
 7524SOL    HW234206   0.920   2.400   6.874  1.0180 -0.4366  2.5778
 7525SOL     OW34207   2.602   0.615   3.357  0.1265 -0.3477  0.3035
 7525SOL    HW134208   2.570   0.569   3.279  0.3399 -1.0146  0.6046
 7525SOL    HW234209   2.586   0.547   3.423 -1.2133  0.3324  0.6740
 7526SOL     OW34210   2.821   3.468  10.372  0.0263  0.2193  0.4945
 7526SOL    HW134211   2.803   3.527  10.445 -1.2686 -0.1722  0.4893
 7526SOL    HW234212   2.782   3.392  10.415  0.1538 -0.4249 -0.5334
 7527SOL     OW34213   3.234   1.614  10.739  0.1619  0.2269  0.0686
 7527SOL    HW134214   3.208   1.542  10.682 -1.5314  1.1380 -0.3201
 7527SOL    HW234215   3.172   1.679  10.706  0.3295  0.7805  0.8396
 7528SOL     OW34216   4.390   3.622   2.262 -0.2332  0.2065  0.4818
 7528SOL    HW134217   4.455   3.568   2.309 -0.4137  0.3218  0.8660
 7528SOL    HW234218   4.426   3.607   2.175  0.7709  0.3189  0.8761
 7529SOL     OW34219   0.544   1.468   4.742  0.1991  0.0313 -0.7689
 7529SOL    HW134220   0.520   1.386   4.786 -0.3959 -0.9454 -2.9063
 7529SOL    HW234221   0.602   1.501   4.810 -0.0972  0.0070 -0.5035
 7530SOL     OW34222   1.985   1.196  14.821 -0.3119 -0.4360 -0.5346
 7530SOL    HW134223   1.914   1.257  14.842  2.1642  2.7407 -1.3110
 7530SOL    HW234224   2.003   1.150  14.903  2.2222 -0.6116 -1.1922
 7531SOL     OW34225   3.236   2.623  11.291  0.9077  0.3238 -0.0922
 7531SOL    HW134226   3.262   2.646  11.202  1.6028 -1.1656 -0.2861
 7531SOL    HW234227   3.222   2.529  11.280 -1.5836  0.4955  1.5034
 7532SOL     OW34228   2.156   3.314   0.282 -0.1675  0.0581  0.3991
 7532SOL    HW134229   2.246   3.308   0.251 -0.1185 -0.8492  0.7059
 7532SOL    HW234230   2.103   3.323   0.202  1.2143 -0.2897 -0.5507
 7533SOL     OW34231   1.882   3.893   6.601 -0.4496  0.0188  0.5095
 7533SOL    HW134232   1.832   3.873   6.681  0.1737  1.5193  1.2834
 7533SOL    HW234233   1.848   3.827   6.542 -0.1576  0.6310 -0.3378
 7534SOL     OW34234   1.655   1.717   6.706 -0.0482  0.2698 -0.0415
 7534SOL    HW134235   1.732   1.773   6.701  0.1089 -0.0378 -1.0221
 7534SOL    HW234236   1.700   1.634   6.724  0.4826  0.7089  0.6634
 7535SOL     OW34237   0.645   2.132   5.838 -0.1287  0.1585  0.1730
 7535SOL    HW134238   0.583   2.203   5.853 -1.7322 -0.2946 -4.1387
 7535SOL    HW234239   0.669   2.142   5.746  0.7111 -1.6560  0.2038
 7536SOL     OW34240   0.768   3.461   4.496  0.3662  0.7698 -0.0886
 7536SOL    HW134241   0.821   3.534   4.529 -0.6443  1.3629  0.2155
 7536SOL    HW234242   0.835   3.393   4.501  0.5327  0.9096 -0.4062
 7537SOL     OW34243   2.227   4.074   6.442 -0.0685  0.5378  0.2739
 7537SOL    HW134244   2.299   4.136   6.435  0.1217  0.0647 -2.1041
 7537SOL    HW234245   2.148   4.122   6.464 -1.1181 -1.1778  0.2605
 7538SOL     OW34246   2.960   4.104   8.387 -0.0048 -0.1474 -0.1601
 7538SOL    HW134247   2.954   4.048   8.310 -1.0880  1.2152 -1.0653
 7538SOL    HW234248   2.879   4.096   8.436  1.2415 -2.3769  1.5295
 7539SOL     OW34249   0.816   1.906   0.256 -0.4925 -0.5435 -0.2406
 7539SOL    HW134250   0.732   1.909   0.302 -0.4008 -1.3688 -0.0057
 7539SOL    HW234251   0.876   1.932   0.326  0.7193 -3.7785 -0.0587
 7540SOL     OW34252   3.615   1.841   5.908 -0.1048 -0.1776 -0.2159
 7540SOL    HW134253   3.560   1.918   5.893 -1.6054 -1.3001 -0.5392
 7540SOL    HW234254   3.629   1.815   5.817 -0.8327  2.2171 -0.9977
 7541SOL     OW34255   2.395   0.987   2.413  0.0532  0.1375 -0.9328
 7541SOL    HW134256   2.358   0.991   2.501  1.4352  0.0505 -0.3554
 7541SOL    HW234257   2.473   1.040   2.428  0.3599 -1.1270  1.9204
 7542SOL     OW34258   1.328   2.501   7.552  0.4969 -0.2565  0.3391
 7542SOL    HW134259   1.350   2.411   7.526 -1.8974 -0.5803 -0.6108
 7542SOL    HW234260   1.243   2.508   7.508 -0.6681 -2.0098  2.3011
 7543SOL     OW34261   3.658   3.172   6.313 -0.3174  0.3447 -1.0597
 7543SOL    HW134262   3.682   3.223   6.391 -1.8445 -0.1435 -0.2610
 7543SOL    HW234263   3.726   3.192   6.249 -1.0870  4.4310 -0.6216
 7544SOL     OW34264   0.465   1.782   9.576  0.6168 -0.4118 -0.0139
 7544SOL    HW134265   0.509   1.791   9.660  1.1127 -2.8304 -0.0207
 7544SOL    HW234266   0.500   1.863   9.538 -0.9326 -1.2378 -3.1641
 7545SOL     OW34267   0.181   1.668   8.485  0.3630  0.5544  0.3013
 7545SOL    HW134268   0.221   1.721   8.554  2.3847  0.0406 -0.4744
 7545SOL    HW234269   0.098   1.637   8.521 -0.6352 -0.0892 -2.5639
 7546SOL     OW34270   2.302   0.579   1.762  0.0496 -0.7143 -0.4688
 7546SOL    HW134271   2.288   0.669   1.733 -1.1128 -0.6733  0.2086
 7546SOL    HW234272   2.390   0.578   1.799 -0.5162 -2.0055  0.8526
 7547SOL     OW34273   1.125   3.376   6.642 -0.0585 -0.2320 -0.2216
 7547SOL    HW134274   1.040   3.419   6.630 -1.1047 -2.3619 -0.4599
 7547SOL    HW234275   1.137   3.392   6.735 -0.3866 -0.1980 -0.1841
 7548SOL     OW34276   2.652   1.725   5.844  0.0737  0.0928 -0.3652
 7548SOL    HW134277   2.621   1.786   5.777 -1.4462 -0.8123 -0.4977
 7548SOL    HW234278   2.675   1.788   5.912  1.9938 -1.8043  0.7616
 7549SOL     OW34279   0.486   2.649  14.861  0.0367  0.1136 -0.1343
 7549SOL    HW134280   0.540   2.709  14.912  1.9794 -3.2688  1.8085
 7549SOL    HW234281   0.404   2.635  14.909  0.8289 -1.1686  0.8374
 7550SOL     OW34282   3.059   3.173   4.315 -0.2920  0.6757  0.3931
 7550SOL    HW134283   3.066   3.146   4.224  0.5183  0.5531  0.4937
 7550SOL    HW234284   3.029   3.264   4.303 -0.0967  0.9675  2.1369
 7551SOL     OW34285   3.395   3.094   6.360  0.4707 -0.1139 -0.6223
 7551SOL    HW134286   3.400   3.004   6.329 -1.7416 -0.0655 -1.0665
 7551SOL    HW234287   3.489   3.113   6.368 -0.4067  3.3048  1.5869
 7552SOL     OW34288   0.602   2.476   6.500  0.7652  0.6788 -0.3581
 7552SOL    HW134289   0.666   2.423   6.454  1.7818  0.8591  0.8545
 7552SOL    HW234290   0.578   2.418   6.572  0.8917  1.1160  0.0368
 7553SOL     OW34291   1.477   2.649   0.707 -0.9508  0.1052 -0.8905
 7553SOL    HW134292   1.486   2.734   0.664 -0.0179 -0.6479 -2.1745
 7553SOL    HW234293   1.387   2.643   0.740 -0.0267  0.7026  1.7862
 7554SOL     OW34294   4.590   0.425   5.918  0.2350  0.0315 -0.1860
 7554SOL    HW134295   4.660   0.465   5.866 -1.6954  1.6284 -1.5348
 7554SOL    HW234296   4.581   0.491   5.987  2.2787  2.0108 -1.7994
 7555SOL     OW34297   1.979   0.128   8.541  0.1548 -0.2667  0.1595
 7555SOL    HW134298   2.021   0.190   8.601  0.7071  1.0580 -1.5843
 7555SOL    HW234299   1.972   0.054   8.601  3.4548 -1.0241 -0.3922
 7556SOL     OW34300   1.476   1.353   3.837  0.0822 -0.1429  0.0379
 7556SOL    HW134301   1.399   1.345   3.893 -0.2735 -0.3413 -0.4750
 7556SOL    HW234302   1.536   1.407   3.889  1.5709 -0.2929 -1.4993
 7557SOL     OW34303   2.272   0.474   5.880  0.1664  0.0904  0.3963
 7557SOL    HW134304   2.362   0.453   5.904 -0.3385 -0.3436  1.9196
 7557SOL    HW234305   2.248   0.504   5.968  0.1409  2.9302 -0.5758
 7558SOL     OW34306   1.165   3.726   6.385  0.0275 -0.3019  0.2636
 7558SOL    HW134307   1.221   3.798   6.412 -2.8252  2.2757 -0.6429
 7558SOL    HW234308   1.217   3.652   6.416  1.1001  0.2665 -0.2097
 7559SOL     OW34309   4.499   0.489   8.497 -0.4005  0.1164 -0.4172
 7559SOL    HW134310   4.580   0.439   8.510  0.3653  1.0149 -1.7894
 7559SOL    HW234311   4.528   0.580   8.493 -4.2466  1.3442 -1.0634
 7560SOL     OW34312   3.034   1.798   2.059  0.2850  0.0207 -0.7849
 7560SOL    HW134313   2.972   1.737   2.099  0.4450  0.9773  0.9082
 7560SOL    HW234314   3.070   1.841   2.137 -0.6101 -1.8779  0.6531
 7561SOL     OW34315   1.298   2.385   1.077 -0.1721 -0.2523  0.4424
 7561SOL    HW134316   1.324   2.312   1.022 -0.9515 -1.0542  1.1372
 7561SOL    HW234317   1.318   2.350   1.164 -0.8593  2.4495  1.6889
 7562SOL     OW34318   1.495   0.362   9.312  0.9922  0.5103  0.2841
 7562SOL    HW134319   1.525   0.404   9.231 -2.1210  0.5570 -0.8750
 7562SOL    HW234320   1.571   0.316   9.346  1.0883  0.2330 -0.3084
 7563SOL     OW34321   1.951   3.991   7.756 -0.1879  0.3565 -0.1096
 7563SOL    HW134322   1.884   3.941   7.803  0.7987  1.1184  2.0856
 7563SOL    HW234323   1.967   3.936   7.678 -0.0529  0.3145 -0.0540
 7564SOL     OW34324   4.176   1.763   6.058 -0.5155  0.4764 -0.3177
 7564SOL    HW134325   4.228   1.732   5.984 -0.5788 -1.8827  0.6054
 7564SOL    HW234326   4.247   1.798   6.112 -0.7723 -1.4174  1.2571
 7565SOL     OW34327   1.616   3.039  13.769  0.1357  0.7478  0.6089
 7565SOL    HW134328   1.608   3.029  13.864 -0.2938  0.1812  0.5153
 7565SOL    HW234329   1.674   3.115  13.765  0.6933  0.2759 -0.3016
 7566SOL     OW34330   1.617   0.314   8.798  0.5287 -0.0699 -0.0838
 7566SOL    HW134331   1.631   0.240   8.858 -1.6017 -0.2364  0.2093
 7566SOL    HW234332   1.522   0.304   8.788  0.5751  0.0307 -0.5982
 7567SOL     OW34333   0.280   0.279   4.710  0.1216  0.5806 -0.5793
 7567SOL    HW134334   0.372   0.303   4.695 -0.0788  1.5145 -0.3400
 7567SOL    HW234335   0.278   0.252   4.801  0.1870  0.9626 -0.4635
 7568SOL     OW34336   4.500   2.467   8.697  0.1921 -0.0614  0.3607
 7568SOL    HW134337   4.522   2.402   8.630 -0.3766  0.6644 -0.5425
 7568SOL    HW234338   4.430   2.516   8.653  0.1532 -0.3629  0.0822
 7569SOL     OW34339   0.409   2.890   9.969  0.0375 -0.0681 -0.4144
 7569SOL    HW134340   0.505   2.890   9.965 -0.0104  0.6676 -1.5310
 7569SOL    HW234341   0.385   2.935   9.888  0.6407 -0.2158 -0.6798
 7570SOL     OW34342   3.990   3.848   7.321  0.1805  0.4391  0.4073
 7570SOL    HW134343   4.079   3.859   7.354  0.5162  0.4285 -0.5057
 7570SOL    HW234344   3.941   3.902   7.383  2.6732 -0.1386  2.8958
 7571SOL     OW34345   2.746   1.313   0.159 -0.0676 -0.1018  0.2984
 7571SOL    HW134346   2.718   1.237   0.209  1.4571 -1.2463 -0.5648
 7571SOL    HW234347   2.665   1.324   0.109 -0.4705 -1.4875  0.6597
 7572SOL     OW34348   0.160   2.151   5.696 -0.1760  0.2736  0.4355
 7572SOL    HW134349   0.232   2.093   5.721  0.5169  0.8230 -0.3043
 7572SOL    HW234350   0.176   2.224   5.756 -0.7517 -0.5986  1.6510
 7573SOL     OW34351   1.361   2.949   6.298 -0.2046 -0.6357 -0.0187
 7573SOL    HW134352   1.347   2.925   6.206 -0.5508 -0.1476 -0.0942
 7573SOL    HW234353   1.454   2.931   6.311 -0.1573 -0.5163 -0.1862
 7574SOL     OW34354   4.081   2.228  17.012  0.3080 -0.2775 -0.1277
 7574SOL    HW134355   4.049   2.142  17.042  3.3873 -2.0883 -1.9815
 7574SOL    HW234356   4.002   2.281  17.002 -0.0926 -0.4592  2.0452
 7575SOL     OW34357   0.375   2.385   4.980  0.3810 -0.3450 -0.4521
 7575SOL    HW134358   0.451   2.442   4.970  1.2298 -1.2957  0.5827
 7575SOL    HW234359   0.397   2.321   5.048 -1.1594 -0.5174 -0.1264
 7576SOL     OW34360   1.716   2.959   2.966 -0.5370  0.0607 -0.2805
 7576SOL    HW134361   1.730   3.041   2.918 -2.1261  0.7787  0.4991
 7576SOL    HW234362   1.706   2.990   3.056  0.5293  1.5907 -0.6966
 7577SOL     OW34363   0.350   0.210  15.257 -0.1721  0.7851  0.3790
 7577SOL    HW134364   0.333   0.124  15.218  0.8450  0.3836  0.8278
 7577SOL    HW234365   0.297   0.262  15.197 -0.4745  1.2057  1.0120
 7578SOL     OW34366   1.186   2.420   0.032  0.8585  0.3277  0.1920
 7578SOL    HW134367   1.204   2.436   0.125 -0.9053 -0.3604  0.6459
 7578SOL    HW234368   1.214   2.329   0.027 -0.5298 -0.0518 -0.7079
 7579SOL     OW34369   4.580   1.781  12.029  0.0611 -0.4204 -0.1070
 7579SOL    HW134370   4.521   1.707  12.013 -1.5497  0.4301  1.8582
 7579SOL    HW234371   4.557   1.824  11.946  3.0681  0.6689 -0.3773
 7580SOL     OW34372   3.277   1.271   6.882  0.0197  0.2485  0.5449
 7580SOL    HW134373   3.218   1.341   6.911 -2.1528 -0.9080 -1.1209
 7580SOL    HW234374   3.209   1.213   6.846 -0.2059 -0.5622  2.2783
 7581SOL     OW34375   3.035   1.239  11.287  0.1296  0.3278 -0.1491
 7581SOL    HW134376   2.984   1.219  11.366 -3.1117  1.7173 -1.8681
 7581SOL    HW234377   3.081   1.159  11.263 -0.8192  0.0056 -0.8915
 7582SOL     OW34378   0.333   0.193   8.955  0.0504 -0.3159 -0.2982
 7582SOL    HW134379   0.275   0.118   8.966 -1.8227  1.0876 -0.5338
 7582SOL    HW234380   0.271   0.260   8.984  1.8825  1.6113 -0.8226
 7583SOL     OW34381   1.778   0.298   9.802  0.8118 -0.1121 -0.1323
 7583SOL    HW134382   1.749   0.212   9.773  0.7995 -0.7255  1.7329
 7583SOL    HW234383   1.749   0.354   9.729 -3.2265 -1.4788  0.4339
 7584SOL     OW34384   2.013   2.524   1.300  0.4508  0.2049  0.4038
 7584SOL    HW134385   2.037   2.560   1.385 -2.2950 -1.4447  1.8675
 7584SOL    HW234386   1.956   2.595   1.271  0.4484 -0.1639 -0.4953
 7585SOL     OW34387   2.429   2.926   7.989 -0.2146  0.1282  0.2752
 7585SOL    HW134388   2.482   2.859   7.946 -2.4924 -0.9216 -0.8952
 7585SOL    HW234389   2.490   2.997   8.009 -0.8750  1.2211 -1.6028
 7586SOL     OW34390   2.600   4.018   7.701  0.0097 -0.3762  0.0774
 7586SOL    HW134391   2.587   4.020   7.607 -0.8324  1.0881  0.2145
 7586SOL    HW234392   2.548   4.093   7.731 -0.0926 -0.5233  0.2708
 7587SOL     OW34393   3.396   2.750   0.758  0.0428  0.6486 -0.1438
 7587SOL    HW134394   3.429   2.752   0.669  2.1036 -1.2316  0.5641
 7587SOL    HW234395   3.470   2.799   0.793 -0.7171  0.5752  1.5713
 7588SOL     OW34396   0.429   2.308  17.021 -0.0417 -0.3134  0.4557
 7588SOL    HW134397   0.478   2.356  17.089 -1.3131 -0.5543  1.5408
 7588SOL    HW234398   0.367   2.373  16.990  2.2699  1.2646 -0.8329
 7589SOL     OW34399   1.627   2.072   7.470 -0.4240  0.5128  0.0408
 7589SOL    HW134400   1.635   2.006   7.538  0.2768 -0.2440 -0.7732
 7589SOL    HW234401   1.719   2.091   7.448 -0.0933  0.2954  1.2398
 7590SOL     OW34402   0.315   3.791   4.040  0.1852 -0.5258 -0.1206
 7590SOL    HW134403   0.223   3.767   4.045 -0.3413  1.7498  1.2355
 7590SOL    HW234404   0.337   3.763   4.129  0.4112 -0.4195 -0.1424
 7591SOL     OW34405   0.794   2.198   6.381  0.3355 -0.1795 -0.3430
 7591SOL    HW134406   0.789   2.187   6.476 -0.4659 -2.1848 -0.6205
 7591SOL    HW234407   0.738   2.124   6.359  0.6440 -0.7981  0.9541
 7592SOL     OW34408   1.738   3.134  15.186 -0.0403 -0.4684 -0.1038
 7592SOL    HW134409   1.819   3.181  15.209 -0.4814  0.0656  0.3453
 7592SOL    HW234410   1.674   3.203  15.202 -0.5819 -0.8394 -0.6536
 7593SOL     OW34411   2.714   1.739  10.978  0.4247 -0.0232 -0.0133
 7593SOL    HW134412   2.671   1.818  11.012  0.0481 -0.1915 -0.1018
 7593SOL    HW234413   2.695   1.746  10.884  0.1532  0.1028  0.0503
 7594SOL     OW34414   1.691   0.160  10.489  0.2283 -0.1324  0.2204
 7594SOL    HW134415   1.752   0.089  10.468  2.2603  1.2417  1.4444
 7594SOL    HW234416   1.729   0.236  10.446 -0.4899  0.2405  0.2444
 7595SOL     OW34417   3.544   1.179   1.822  0.2004  0.0633  0.4316
 7595SOL    HW134418   3.600   1.117   1.775 -1.0668 -0.2074 -0.6953
 7595SOL    HW234419   3.510   1.130   1.897  1.1059  0.3557  1.0417
 7596SOL     OW34420   3.238   2.861  17.006 -0.2298  0.4443 -0.1049
 7596SOL    HW134421   3.315   2.894  16.960  1.5429 -0.3957  2.2134
 7596SOL    HW234422   3.170   2.856  16.939 -0.3727 -0.3137  0.0960
 7597SOL     OW34423   4.421   3.134  15.509  0.4204  0.2856  0.2172
 7597SOL    HW134424   4.432   3.052  15.558 -0.9451  1.2856  2.2144
 7597SOL    HW234425   4.347   3.111  15.454  0.0331 -1.8773  1.6215
 7598SOL     OW34426   0.174   1.045  15.529  0.6087 -0.5275 -0.2725
 7598SOL    HW134427   0.086   1.056  15.564  0.6869 -0.2952 -0.1503
 7598SOL    HW234428   0.202   0.966  15.575  0.3489 -0.0282  0.7407
 7599SOL     OW34429   4.252   2.976   6.561 -0.6413 -0.2398  0.0989
 7599SOL    HW134430   4.318   3.045   6.571  0.4605 -1.3120  0.1930
 7599SOL    HW234431   4.307   2.913   6.514  2.2784  0.7232  2.2404
 7600SOL     OW34432   1.040   2.584   0.646  0.3730  0.2664 -0.0881
 7600SOL    HW134433   0.975   2.518   0.670 -0.1582  1.1890  1.0536
 7600SOL    HW234434   0.979   2.637   0.594 -0.1391  1.5471  1.8020
 7601SOL     OW34435   1.616   1.615   8.025  0.6796  0.2439 -0.3534
 7601SOL    HW134436   1.521   1.598   8.030  0.8825 -0.9602 -0.5933
 7601SOL    HW234437   1.651   1.526   8.023  1.2564  0.4759 -0.4266
 7602SOL     OW34438   2.249   2.307   0.185 -1.2069  0.6036  0.1124
 7602SOL    HW134439   2.171   2.273   0.230 -1.1072 -0.8795 -0.8558
 7602SOL    HW234440   2.325   2.258   0.217 -0.3393  0.7803 -1.7426
 7603SOL     OW34441   0.514   2.579   4.114  0.0093 -0.1053  0.6251
 7603SOL    HW134442   0.457   2.591   4.038  2.9569 -1.1958 -1.7876
 7603SOL    HW234443   0.478   2.493   4.134 -0.5746 -0.7478 -3.0839
 7604SOL     OW34444   2.250   2.555   4.332  0.4403  0.1121 -0.2867
 7604SOL    HW134445   2.296   2.635   4.305  0.4277  0.3031  0.2575
 7604SOL    HW234446   2.198   2.525   4.258  4.0118 -0.4654 -2.5522
 7605SOL     OW34447   0.362   1.303   7.856 -0.4856  0.0107 -0.0526
 7605SOL    HW134448   0.364   1.269   7.767  0.0899 -2.1903  0.8069
 7605SOL    HW234449   0.444   1.258   7.876 -0.9640 -0.8027  0.0609
 7606SOL     OW34450   3.756   3.046   3.421  0.0016  0.0803 -0.5414
 7606SOL    HW134451   3.841   3.089   3.412  1.4209 -3.0123 -1.9334
 7606SOL    HW234452   3.776   2.960   3.383  0.8611  0.5671 -1.1937
 7607SOL     OW34453   0.115   2.150  12.113  0.3373  0.4068 -0.0059
 7607SOL    HW134454   0.177   2.082  12.141 -2.0761 -1.8432 -0.1274
 7607SOL    HW234455   0.058   2.160  12.189 -2.0054 -1.8669 -1.4748
 7608SOL     OW34456   3.647   1.049  16.293  0.0195 -0.0760 -0.4784
 7608SOL    HW134457   3.595   0.971  16.274 -0.5709  0.6574 -1.8321
 7608SOL    HW234458   3.580   1.111  16.321  0.2768 -0.3406  0.7314
 7609SOL     OW34459   1.669   3.728   3.744  0.3656  0.2776 -0.5509
 7609SOL    HW134460   1.617   3.692   3.816 -2.6572  2.1174 -1.7917
 7609SOL    HW234461   1.714   3.798   3.790 -1.9222  1.9671 -0.8792
 7610SOL     OW34462   4.431   0.911  12.828  0.0410 -0.4060 -0.5366
 7610SOL    HW134463   4.464   0.822  12.812  1.5587  0.2246 -0.9564
 7610SOL    HW234464   4.472   0.920  12.915 -1.7978  0.2917  0.2526
 7611SOL     OW34465   1.615   1.540   0.549 -0.6470  0.0835 -0.4417
 7611SOL    HW134466   1.618   1.515   0.457 -0.0475 -3.2368  0.4858
 7611SOL    HW234467   1.680   1.611   0.548 -0.7990  0.1914 -3.2455
 7612SOL     OW34468   1.425   4.336   1.188 -0.2583  0.4154  0.0352
 7612SOL    HW134469   1.350   4.365   1.241  1.8118 -2.7053  4.7069
 7612SOL    HW234470   1.439   4.415   1.135 -2.9570  0.2913 -0.8635
 7613SOL     OW34471   1.831   2.051  17.443 -0.3642 -0.3220 -0.2104
 7613SOL    HW134472   1.917   2.091  17.456  0.6181 -2.1001 -1.2533
 7613SOL    HW234473   1.806   2.045  17.535 -1.0688  1.0921 -0.3113
 7614SOL     OW34474   3.063   3.830   5.934  0.5535 -0.0389 -0.4970
 7614SOL    HW134475   3.100   3.785   5.858 -0.6670 -1.7921 -0.0551
 7614SOL    HW234476   3.117   3.803   6.008 -1.0097  2.3187  1.5287
 7615SOL     OW34477   3.938   1.649  16.722 -0.2750 -0.1373  0.1941
 7615SOL    HW134478   3.858   1.610  16.688 -0.6241  0.3472  0.4621
 7615SOL    HW234479   3.932   1.651  16.817  2.2267 -1.6892  0.3774
 7616SOL     OW34480   4.274   3.626   6.150 -1.1120 -0.2073  0.1273
 7616SOL    HW134481   4.236   3.667   6.073 -0.5547 -0.2691 -0.1777
 7616SOL    HW234482   4.354   3.578   6.128 -0.8038 -0.3107  1.4336
 7617SOL     OW34483   2.881   3.247  10.171 -0.0304 -0.0781 -0.2505
 7617SOL    HW134484   2.822   3.309  10.214 -1.1495 -0.1102 -1.7386
 7617SOL    HW234485   2.865   3.163  10.215  0.4465 -0.4097 -0.7059
 7618SOL     OW34486   4.295   0.829   6.526 -0.0113  0.5481 -0.2975
 7618SOL    HW134487   4.272   0.820   6.618  1.3029  2.2092  0.1910
 7618SOL    HW234488   4.375   0.777   6.533 -1.4414 -1.5729  0.0642
 7619SOL     OW34489   3.826   2.367  17.517 -0.5306  0.1873 -0.0457
 7619SOL    HW134490   3.895   2.310  17.483 -2.0447  0.5487 -3.6486
 7619SOL    HW234491   3.779   2.387  17.436  1.0557  0.7452 -0.8355
 7620SOL     OW34492   1.895   1.955  13.265  0.7498 -0.2373 -0.5124
 7620SOL    HW134493   1.850   1.882  13.221  1.3203 -0.5516 -0.5694
 7620SOL    HW234494   1.814   2.000  13.289 -0.0744 -2.5607  1.0770
 7621SOL     OW34495   0.373   0.981  17.696  0.0887  0.1176 -0.0395
 7621SOL    HW134496   0.410   1.058  17.654  1.9316 -0.3475  0.7471
 7621SOL    HW234497   0.454   0.962  17.742  1.3305  0.7676 -1.9957
 7622SOL     OW34498   4.709   0.266  14.828  0.3516  0.7596  0.6425
 7622SOL    HW134499   0.049   0.221  14.855 -0.3149 -0.9032 -0.1262
 7622SOL    HW234500   4.642   0.201  14.850  1.5896 -1.7779 -3.0965
 7623SOL     OW34501   2.221   3.544   3.001 -0.2100  0.2593 -0.1870
 7623SOL    HW134502   2.187   3.633   2.996 -0.4619  0.0267 -2.5684
 7623SOL    HW234503   2.151   3.496   2.956 -0.0180  0.5329 -0.7798
 7624SOL     OW34504   3.955   3.351   8.171 -0.2945  0.4543 -0.1582
 7624SOL    HW134505   3.955   3.444   8.151 -1.4985  0.3210 -0.7518
 7624SOL    HW234506   3.927   3.340   8.262  1.2184 -0.1473  0.2422
 7625SOL     OW34507   3.254   3.929   7.130 -0.0066  0.4306 -0.5809
 7625SOL    HW134508   3.237   3.839   7.103  0.7310  0.1259 -0.0080
 7625SOL    HW234509   3.187   3.973   7.077 -2.0420 -0.9234  0.8595
 7626SOL     OW34510   2.809   1.683  10.487 -0.5573  0.6096 -0.1529
 7626SOL    HW134511   2.837   1.591  10.491 -0.5462  0.5982 -0.4616
 7626SOL    HW234512   2.890   1.723  10.518 -0.4591  0.9665 -0.8711
 7627SOL     OW34513   2.643   4.085   6.844 -0.5254  0.0969 -0.2183
 7627SOL    HW134514   2.689   4.151   6.792 -1.7860 -1.1816 -2.9816
 7627SOL    HW234515   2.633   4.139   6.922  1.5890 -0.6547  0.5808
 7628SOL     OW34516   2.991   2.829   1.775 -0.1221 -0.2408  0.0863
 7628SOL    HW134517   3.034   2.910   1.803  0.4714 -0.9774  1.2859
 7628SOL    HW234518   3.051   2.805   1.704  0.8107 -0.0430  0.8000
 7629SOL     OW34519   4.670   3.495   9.086  0.5880 -0.0118  0.0049
 7629SOL    HW134520   4.583   3.462   9.064 -0.1736  1.5311  0.6841
 7629SOL    HW234521   4.709   3.500   8.999  0.1281 -1.5814 -0.2917
 7630SOL     OW34522   0.594   2.272   9.082 -0.3739 -0.7444  0.0949
 7630SOL    HW134523   0.631   2.346   9.131 -2.8798  1.0554 -0.7045
 7630SOL    HW234524   0.502   2.288   9.104 -1.0296 -0.9910 -2.5791
 7631SOL     OW34525   3.152   3.000   9.080  0.1576 -0.5448  0.1108
 7631SOL    HW134526   3.102   2.936   9.029 -3.4823  1.4460  1.1966
 7631SOL    HW234527   3.127   2.984   9.171  1.0310 -2.8764 -0.0841
 7632SOL     OW34528   3.741   0.805   5.817  0.2038 -0.9179 -0.5984
 7632SOL    HW134529   3.801   0.869   5.776 -0.0179  0.4149  1.1593
 7632SOL    HW234530   3.710   0.764   5.736 -0.4092  1.8730 -1.7863
 7633SOL     OW34531   3.531   2.809   3.880 -0.1007  0.1933 -0.5458
 7633SOL    HW134532   3.470   2.736   3.889  1.3075 -0.9814 -0.5372
 7633SOL    HW234533   3.532   2.793   3.785 -0.3638 -0.0636 -0.5092
 7634SOL     OW34534   2.450   4.675   3.242 -0.4210  0.2626 -0.1605
 7634SOL    HW134535   2.500   4.694   3.322  0.6108  0.8511 -0.9499
 7634SOL    HW234536   2.360   4.685   3.273 -0.7305 -0.2035 -0.9228
 7635SOL     OW34537   1.557   2.577   6.389 -0.5007 -0.1038  0.4645
 7635SOL    HW134538   1.537   2.500   6.442  0.2609  0.2633  1.3111
 7635SOL    HW234539   1.490   2.567   6.322 -0.8458 -1.7989  1.0645
 7636SOL     OW34540   3.726   2.924  16.293  0.1576 -0.2496 -0.1717
 7636SOL    HW134541   3.713   3.008  16.249  0.3703 -0.8330 -1.3425
 7636SOL    HW234542   3.819   2.913  16.272  0.4501  1.1588  0.3293
 7637SOL     OW34543   3.364   2.440   0.594 -0.3178 -0.5497  0.1332
 7637SOL    HW134544   3.326   2.355   0.617 -1.5956  0.3415  1.3495
 7637SOL    HW234545   3.410   2.408   0.517 -0.3516 -3.2344  1.1874
 7638SOL     OW34546   4.462   1.640  15.267  0.3288 -0.7666  0.4536
 7638SOL    HW134547   4.525   1.590  15.320  0.1608  0.1698  1.5282
 7638SOL    HW234548   4.446   1.570  15.204 -3.1555  0.0336  0.4542
 7639SOL     OW34549   3.751   1.270   2.187  0.6025 -0.8252 -0.4615
 7639SOL    HW134550   3.765   1.215   2.264 -1.2681 -0.0410  0.4295
 7639SOL    HW234551   3.773   1.205   2.120 -1.1288 -1.9537  0.0694
 7640SOL     OW34552   2.309   0.598  13.999  0.2167  0.4953  0.6147
 7640SOL    HW134553   2.229   0.584  13.948  0.6088  1.0574 -0.1671
 7640SOL    HW234554   2.303   0.531  14.067  0.5603 -1.1680 -0.9988
 7641SOL     OW34555   1.562   1.920   0.951  0.0666 -0.1071  0.1580
 7641SOL    HW134556   1.638   1.976   0.968 -0.2176  0.2798  0.1564
 7641SOL    HW234557   1.580   1.864   0.876  0.1976 -0.9349  0.8075
 7642SOL     OW34558   4.619   0.268   9.767  0.0106  0.1346  0.1168
 7642SOL    HW134559   4.670   0.238   9.692 -0.3024 -0.3354  0.0939
 7642SOL    HW234560   4.572   0.185   9.776  1.1688 -0.5693 -0.2613
 7643SOL     OW34561   2.829   2.032  10.073  0.3485  0.2441  0.5353
 7643SOL    HW134562   2.769   2.044   9.999 -0.4657  0.3450  1.2223
 7643SOL    HW234563   2.863   1.951  10.034 -0.3561  0.1546  0.1055
 7644SOL     OW34564   0.205   2.574  16.369  0.3425 -0.0119  0.5940
 7644SOL    HW134565   0.191   2.484  16.399  0.0714  0.0442  0.6345
 7644SOL    HW234566   0.258   2.555  16.291  0.0168  1.5228  0.0042
 7645SOL     OW34567   0.112   0.816   5.556 -0.1021 -0.0570 -0.3667
 7645SOL    HW134568   0.175   0.853   5.494  2.0576 -1.4577  1.0322
 7645SOL    HW234569   0.034   0.832   5.502 -2.1774 -1.8061  2.1494
 7646SOL     OW34570   4.596   2.516   1.724 -0.3443  0.4390 -0.6514
 7646SOL    HW134571   4.519   2.565   1.755 -0.9684 -1.0143  0.0832
 7646SOL    HW234572   4.572   2.426   1.746 -2.7276  0.8217 -1.6752
 7647SOL     OW34573   1.313   2.437   9.294  0.2833  0.6179  0.2631
 7647SOL    HW134574   1.293   2.365   9.353 -1.0769  0.9624  0.2099
 7647SOL    HW234575   1.335   2.382   9.219 -0.6916  1.4218 -0.6098
 7648SOL     OW34576   2.270   0.118   5.511 -0.1280  0.4969  0.2954
 7648SOL    HW134577   2.242   0.129   5.602 -1.9144 -1.8474  0.0023
 7648SOL    HW234578   2.202   0.169   5.466  0.9020  0.9550 -0.7488
 7649SOL     OW34579   1.500   2.364   2.948  0.2429 -0.4126 -0.1812
 7649SOL    HW134580   1.486   2.456   2.926  1.0320 -0.3384 -0.3521
 7649SOL    HW234581   1.587   2.358   2.987  0.5810 -2.5874 -1.2919
 7650SOL     OW34582   0.549   2.739   0.571 -0.1698 -0.0946  0.2891
 7650SOL    HW134583   0.463   2.711   0.537 -0.6836 -0.2248  1.6935
 7650SOL    HW234584   0.565   2.665   0.630 -0.8517 -0.7959 -0.3930
 7651SOL     OW34585   4.476   2.788  17.619 -0.0287 -0.0174 -0.0316
 7651SOL    HW134586   4.474   2.884  17.617  1.9918  0.0005 -0.4623
 7651SOL    HW234587   4.383   2.777  17.639  0.2880  0.2641  1.6323
 7652SOL     OW34588   3.135   0.489   3.566  0.0591  0.3314  0.1839
 7652SOL    HW134589   3.110   0.472   3.657 -3.4325 -0.6410 -0.9674
 7652SOL    HW234590   3.055   0.462   3.522 -2.2143  3.7984  2.1773
 7653SOL     OW34591   1.906   3.651  11.655 -0.2762  0.2074 -0.1874
 7653SOL    HW134592   1.893   3.585  11.587 -0.8537 -2.9359  3.0188
 7653SOL    HW234593   1.853   3.631  11.731 -2.2586  0.1720 -1.5774
 7654SOL     OW34594   4.137   2.887  12.482  0.6198  0.4987 -0.5090
 7654SOL    HW134595   4.171   2.964  12.527 -1.1746  0.5957  0.6943
 7654SOL    HW234596   4.210   2.825  12.486  1.6644  1.7058 -1.0508
 7655SOL     OW34597   0.026   1.915  13.616  0.2153 -0.0698 -0.0891
 7655SOL    HW134598   0.070   1.833  13.596  0.1847 -0.5478  1.8130
 7655SOL    HW234599   0.068   1.972  13.551  0.5452  0.4466  0.5747
 7656SOL     OW34600   3.083   3.304   3.141 -0.3692  0.1885  0.0698
 7656SOL    HW134601   3.036   3.358   3.079  2.7813  0.4936 -2.0714
 7656SOL    HW234602   3.149   3.254   3.092  1.0585  4.2545 -2.1788
 7657SOL     OW34603   2.687   0.861   5.824 -0.4688 -0.1047  0.1185
 7657SOL    HW134604   2.716   0.779   5.782 -1.7130 -1.1730  1.3656
 7657SOL    HW234605   2.770   0.907   5.810  0.2625 -0.8181  2.1846
 7658SOL     OW34606   2.011   2.608   5.898  0.1921  0.1458  0.2085
 7658SOL    HW134607   1.953   2.553   5.950  1.2633 -0.2198  1.0139
 7658SOL    HW234608   1.994   2.571   5.812  2.9128 -0.7483  0.0620
 7659SOL     OW34609   1.764   4.079   0.913 -0.5080 -0.0971  0.2349
 7659SOL    HW134610   1.723   4.110   0.994 -0.8831 -0.6240  0.2449
 7659SOL    HW234611   1.726   3.993   0.898 -0.2887  0.0223 -1.0339
 7660SOL     OW34612   0.963   1.234   8.958 -0.2749  0.6041  0.3548
 7660SOL    HW134613   1.023   1.290   9.008 -0.5947  1.2052  0.0595
 7660SOL    HW234614   0.888   1.286   8.986 -0.5529 -0.4732  1.6132
 7661SOL     OW34615   1.543   0.621   3.957 -0.0231  0.0616 -0.3674
 7661SOL    HW134616   1.489   0.572   4.018 -2.6604  1.1264 -1.8430
 7661SOL    HW234617   1.482   0.683   3.917  0.5781 -0.1586 -1.6629
 7662SOL     OW34618   2.369   3.635   8.299  0.6722  0.3538 -0.0854
 7662SOL    HW134619   2.333   3.577   8.366 -0.0985  0.8315 -0.0923
 7662SOL    HW234620   2.404   3.573   8.235  0.1054 -0.6083  0.5407
 7663SOL     OW34621   4.499   3.099   3.770 -0.1628 -0.0275 -1.0792
 7663SOL    HW134622   4.498   3.092   3.674  1.2705  0.4564 -1.1402
 7663SOL    HW234623   4.574   3.041   3.786  0.5218  1.6560  1.6261
 7664SOL     OW34624   1.242   3.662  17.047 -0.9620 -0.2848 -0.0894
 7664SOL    HW134625   1.184   3.669  17.123 -0.6313 -1.4021  0.2725
 7664SOL    HW234626   1.326   3.684  17.085  0.7714 -3.4285 -2.0527
 7665SOL     OW34627   1.048   0.912   7.079 -0.4249  0.6267 -0.2902
 7665SOL    HW134628   1.038   0.990   7.024 -1.0169  1.7846  1.4703
 7665SOL    HW234629   1.121   0.936   7.136  0.3486 -0.5993 -0.7569
 7666SOL     OW34630   3.164   3.210   7.305 -0.0607  0.1671 -0.0922
 7666SOL    HW134631   3.136   3.124   7.335 -0.5078  1.1332  2.2569
 7666SOL    HW234632   3.152   3.267   7.381 -1.6484  0.3560 -0.4976
 7667SOL     OW34633   1.639   1.867   2.280 -0.0257 -0.3823 -0.0555
 7667SOL    HW134634   1.660   1.774   2.274  0.5787 -0.3701  1.8715
 7667SOL    HW234635   1.607   1.869   2.370  0.3664 -0.2000  0.0849
 7668SOL     OW34636   1.539   0.392  14.380 -0.2841  0.7910 -0.3875
 7668SOL    HW134637   1.563   0.304  14.408 -1.8066  0.4614 -0.0704
 7668SOL    HW234638   1.550   0.445  14.459  1.2493 -0.4886  0.2410
 7669SOL     OW34639   1.599   2.429   0.581  0.2256  0.3569  0.3314
 7669SOL    HW134640   1.565   2.507   0.625  0.5999  1.1380 -0.7704
 7669SOL    HW234641   1.538   2.421   0.507  0.1676  1.3711  0.2681
 7670SOL     OW34642   0.175   2.618   3.153  0.4438  0.5426 -0.1382
 7670SOL    HW134643   0.101   2.631   3.094 -0.8112 -1.5225  0.9964
 7670SOL    HW234644   0.217   2.547   3.104 -1.7805 -0.5666 -0.3947
 7671SOL     OW34645   3.180   3.294   8.260  0.2594  0.2455 -0.2711
 7671SOL    HW134646   3.094   3.317   8.225  0.6843  0.1650 -1.3665
 7671SOL    HW234647   3.214   3.212   8.224 -1.7869 -1.3866  1.5148
 7672SOL     OW34648   3.304   0.115   3.333  0.3239  0.1331 -0.0749
 7672SOL    HW134649   3.259   0.150   3.410  1.3761  0.3960  0.4116
 7672SOL    HW234650   3.261   0.030   3.323 -0.0218  0.2793  0.1650
 7673SOL     OW34651   0.124   3.307  10.814  0.4737 -0.5873  0.5125
 7673SOL    HW134652   0.128   3.396  10.848  1.6580 -0.3762 -0.1759
 7673SOL    HW234653   0.125   3.329  10.721  2.8709 -0.9900  0.4373
 7674SOL     OW34654   4.392   1.385  16.359 -0.4318  0.1248  0.5635
 7674SOL    HW134655   4.304   1.379  16.322  0.0108  4.5676 -1.2888
 7674SOL    HW234656   4.356   1.377  16.447  1.0948 -4.1653  0.7850
 7675SOL     OW34657   0.523   4.231   7.153  0.0889 -0.2425  0.3044
 7675SOL    HW134658   0.455   4.286   7.193 -1.4734 -0.9692 -1.3372
 7675SOL    HW234659   0.595   4.241   7.215  0.4681  0.7775 -0.2864
 7676SOL     OW34660   2.646   1.413  10.720  0.2068 -0.4262 -0.0255
 7676SOL    HW134661   2.732   1.443  10.692 -0.7706  1.5187 -0.9443
 7676SOL    HW234662   2.628   1.353  10.647 -4.7557  0.8639  0.1147
 7677SOL     OW34663   1.215   2.562   4.286 -0.4905  0.3898 -0.5310
 7677SOL    HW134664   1.294   2.513   4.266 -0.9123 -0.0019 -1.2392
 7677SOL    HW234665   1.163   2.495   4.330 -0.7804 -0.1431 -1.6749
 7678SOL     OW34666   2.976   1.698  12.499  0.0726 -0.5904 -0.2202
 7678SOL    HW134667   3.055   1.751  12.493 -0.5307  0.2559 -0.6895
 7678SOL    HW234668   2.984   1.664  12.588 -1.5838  1.1754  0.5940
 7679SOL     OW34669   4.372   4.298   7.183 -0.2466 -0.4691 -0.1191
 7679SOL    HW134670   4.354   4.205   7.168  1.1593 -0.4508 -1.9834
 7679SOL    HW234671   4.316   4.302   7.260 -0.9282  0.4781 -0.6717
 7680SOL     OW34672   0.706   1.016  13.312 -0.3789  0.1633  0.0199
 7680SOL    HW134673   0.719   1.019  13.407  0.5864 -0.2672 -0.0980
 7680SOL    HW234674   0.647   1.090  13.300 -0.7738  0.2982  2.8549
 7681SOL     OW34675   2.278   4.075   6.116  0.4071  0.4599 -0.3678
 7681SOL    HW134676   2.358   4.128   6.110  0.5301  0.4681  1.2718
 7681SOL    HW234677   2.273   4.057   6.210 -0.1121  0.1719 -0.4501
 7682SOL     OW34678   4.596   3.064   7.007  0.5828 -0.4894  0.4747
 7682SOL    HW134679   4.531   3.004   6.970 -1.4439  0.9659  1.6408
 7682SOL    HW234680   4.664   3.043   6.943 -0.0480 -0.9414 -0.0497
 7683SOL     OW34681   3.509   2.968  11.689  0.2472  0.1565  0.0234
 7683SOL    HW134682   3.573   2.967  11.618 -0.1733  0.1173 -0.3551
 7683SOL    HW234683   3.432   2.931  11.648  0.4620 -0.6536  0.3552
 7684SOL     OW34684   4.101   4.403   9.479  0.3735  0.2757  0.3552
 7684SOL    HW134685   4.190   4.382   9.505 -0.0410  0.4613  1.9316
 7684SOL    HW234686   4.055   4.416   9.562 -0.7438  0.2026 -0.2532
 7685SOL     OW34687   3.016   1.182  14.888  0.2837  0.4670  0.4575
 7685SOL    HW134688   3.084   1.217  14.946  1.9910 -1.1964 -0.5353
 7685SOL    HW234689   2.943   1.157  14.945  2.0400 -0.7819  2.1687
 7686SOL     OW34690   1.703   1.010  16.844  0.5313  0.4654  0.5287
 7686SOL    HW134691   1.609   1.026  16.850  0.2771 -1.0677  0.5824
 7686SOL    HW234692   1.721   0.960  16.924  0.3606  2.4295  1.7988
 7687SOL     OW34693   1.616   2.525   0.937 -0.9085 -0.6968  0.4323
 7687SOL    HW134694   1.680   2.558   0.874  1.6804 -0.4939  3.2294
 7687SOL    HW234695   1.541   2.555   0.885  0.0500  1.0799  0.0906
 7688SOL     OW34696   1.575   1.039  17.584 -0.0350 -0.2909  0.0264
 7688SOL    HW134697   1.551   1.095  17.658 -0.0639  0.3262 -0.4583
 7688SOL    HW234698   1.513   1.067  17.516  1.9471 -0.0114 -1.6556
 7689SOL     OW34699   4.667   4.634   9.313 -0.0395  0.0266  0.0664
 7689SOL    HW134700   4.609   4.708   9.331 -0.5071 -0.0046 -1.3116
 7689SOL    HW234701   0.008   4.683   9.326 -0.3613  0.5105  0.2755
 7690SOL     OW34702   4.540   2.062   1.852 -0.2259  0.3332 -0.3608
 7690SOL    HW134703   4.508   1.976   1.877 -1.8434  1.3148  0.9000
 7690SOL    HW234704   4.628   2.032   1.828 -0.2134 -0.8313  1.2174
 7691SOL     OW34705   4.315   2.988  11.510  0.5916 -1.1207 -0.8419
 7691SOL    HW134706   4.326   2.896  11.533  1.7103 -0.6131  0.7070
 7691SOL    HW234707   4.365   3.026  11.582 -0.8562 -1.2062  0.2081
 7692SOL     OW34708   1.096   1.691  17.247  0.2598 -0.0962  0.2827
 7692SOL    HW134709   1.103   1.739  17.164 -1.1762  0.2680  0.3746
 7692SOL    HW234710   1.098   1.758  17.315 -0.5993 -1.2329  1.4159
 7693SOL     OW34711   0.837   4.647   1.766 -0.1276 -0.3129  0.1108
 7693SOL    HW134712   0.875   4.680   1.848 -2.8633  1.0144  0.8373
 7693SOL    HW234713   0.745   4.647   1.789  0.0400  0.4417  0.7998
 7694SOL     OW34714   1.144   3.015   2.117  0.5228 -0.0961 -0.1612
 7694SOL    HW134715   1.236   3.039   2.115  0.0803  1.5601 -0.9801
 7694SOL    HW234716   1.149   2.924   2.087 -4.0337  0.1335 -1.6480
 7695SOL     OW34717   4.455   4.308  12.129  0.8500 -0.0783 -0.3082
 7695SOL    HW134718   4.436   4.255  12.207  2.4617  0.2315  0.2757
 7695SOL    HW234719   4.385   4.274  12.073  0.7009 -1.2231  0.5647
 7696SOL     OW34720   1.832   3.281   6.042  0.3629 -0.7698 -0.0297
 7696SOL    HW134721   1.763   3.336   6.079  1.0872 -1.2280  1.9617
 7696SOL    HW234722   1.894   3.272   6.114  1.5200  0.8624 -0.8231
 7697SOL     OW34723   2.820   0.525   1.924 -0.6616 -0.6084  0.2931
 7697SOL    HW134724   2.901   0.483   1.895 -0.6954 -0.1505 -0.4543
 7697SOL    HW234725   2.802   0.573   1.843 -2.3764 -0.0403  1.0116
 7698SOL     OW34726   1.729   1.357  17.030  0.4151 -0.0426 -0.2866
 7698SOL    HW134727   1.672   1.431  17.010 -0.2978 -0.6466 -0.4601
 7698SOL    HW234728   1.792   1.369  16.958  0.1889 -0.4055 -0.5426
 7699SOL     OW34729   4.124   2.867  11.766 -0.1202  0.2469  0.3409
 7699SOL    HW134730   4.171   2.840  11.845 -1.5889  1.5766  1.6658
 7699SOL    HW234731   4.128   2.783  11.721 -0.0975  0.4151  0.0291
 7700SOL     OW34732   0.010   1.011   9.609  0.3565 -0.3206 -0.2794
 7700SOL    HW134733   4.706   1.032   9.691  0.2335 -1.0228 -0.1664
 7700SOL    HW234734   4.714   0.922   9.610 -0.6141  0.1223  3.4616
 7701SOL     OW34735   1.372   3.107   4.585 -0.1885  0.6959  0.3405
 7701SOL    HW134736   1.365   3.035   4.647  2.2110  1.0722  1.0566
 7701SOL    HW234737   1.406   3.172   4.646 -1.3790 -0.8763  2.6411
 7702SOL     OW34738   1.071   2.738   1.996 -0.3588  0.4271 -0.3783
 7702SOL    HW134739   1.121   2.742   1.914  0.7556 -4.1909  0.0788
 7702SOL    HW234740   1.064   2.647   2.026  1.0043  1.2956  2.6355
 7703SOL     OW34741   2.949   2.018   7.713 -0.2935 -0.4342 -0.1292
 7703SOL    HW134742   2.995   1.966   7.778 -0.7585 -0.9599 -0.2152
 7703SOL    HW234743   2.861   1.987   7.737  0.2013 -0.5855  1.4637
 7704SOL     OW34744   1.320   2.512  10.269 -0.0025  0.4516 -0.1813
 7704SOL    HW134745   1.397   2.563  10.293 -0.3336  0.6406  0.4737
 7704SOL    HW234746   1.318   2.441  10.334  0.6024  0.6692  0.0808
 7705SOL     OW34747   0.163   3.342   8.887  0.2502  0.2225 -0.1096
 7705SOL    HW134748   0.229   3.278   8.861 -2.0281 -2.2005  0.0930
 7705SOL    HW234749   0.223   3.411   8.914 -0.3230 -0.0117  1.7236
 7706SOL     OW34750   1.833   3.357   7.325  0.6199 -0.0067 -0.7380
 7706SOL    HW134751   1.849   3.361   7.231 -0.5773 -1.2307 -1.0030
 7706SOL    HW234752   1.825   3.265   7.350 -0.0332  0.5958  1.2561
 7707SOL     OW34753   3.737   0.648   5.588 -0.3850 -0.4465  1.2689
 7707SOL    HW134754   3.778   0.677   5.506 -2.3269  1.1415  0.8570
 7707SOL    HW234755   3.690   0.572   5.555 -0.0611 -0.7723  1.5570
 7708SOL     OW34756   4.672   0.149   6.985 -0.0304  1.0398 -0.9044
 7708SOL    HW134757   4.711   0.163   6.899  1.7880  2.4736  0.1563
 7708SOL    HW234758   4.578   0.149   6.967 -0.0229  0.8871 -0.9423
 7709SOL     OW34759   0.015   3.589   8.617  0.6614  0.2755  0.7064
 7709SOL    HW134760   0.075   3.542   8.560 -1.6156 -0.7781 -0.7940
 7709SOL    HW234761   4.671   3.562   8.581  1.1867 -0.6624  0.1925
 7710SOL     OW34762   1.959   4.682   8.739 -0.7795 -0.0163  0.1801
 7710SOL    HW134763   1.912   4.640   8.811  0.8737 -3.3233 -0.6714
 7710SOL    HW234764   1.976   4.601   8.691  1.5771  1.9098 -2.2448
 7711SOL     OW34765   1.577   0.576   7.744  0.8163  0.3040 -0.4571
 7711SOL    HW134766   1.505   0.520   7.774 -0.2130  1.3224 -1.0030
 7711SOL    HW234767   1.527   0.656   7.726 -1.4466 -0.8308  0.7854
 7712SOL     OW34768   1.742   4.479   2.800 -0.1094 -0.0387  0.5574
 7712SOL    HW134769   1.690   4.399   2.788 -0.0655  0.1221 -0.7227
 7712SOL    HW234770   1.674   4.544   2.782  0.4292  0.4062  0.1194
 7713SOL     OW34771   0.922   0.919  16.584  0.3077  0.2315  0.3242
 7713SOL    HW134772   0.877   0.952  16.506  1.3911  0.5968 -0.1582
 7713SOL    HW234773   0.851   0.889  16.641 -0.1950 -0.5292 -0.6991
 7714SOL     OW34774   2.346   0.410  17.111  0.2269  0.1825  0.3697
 7714SOL    HW134775   2.328   0.335  17.054 -0.6968 -0.0539  0.9698
 7714SOL    HW234776   2.269   0.417  17.167 -0.7412  0.2814 -0.9731
 7715SOL     OW34777   3.314   1.962  12.223 -0.2561 -0.0817  0.0700
 7715SOL    HW134778   3.378   1.892  12.233 -0.1253 -0.1467 -1.1495
 7715SOL    HW234779   3.302   1.965  12.128  1.8493 -0.7265 -0.1973
 7716SOL     OW34780   4.068   3.433   8.679  0.3056 -0.1061 -0.3610
 7716SOL    HW134781   4.063   3.488   8.758 -0.0269  0.8850 -1.0704
 7716SOL    HW234782   4.061   3.347   8.720  1.2371 -0.5486 -1.1308
 7717SOL     OW34783   0.125   0.920  15.288  0.0520 -0.1251 -0.2441
 7717SOL    HW134784   0.143   0.978  15.363 -3.7732  0.1382  0.4429
 7717SOL    HW234785   0.144   0.836  15.329 -1.3843 -0.2423  0.1834
 7718SOL     OW34786   2.046   3.707   7.321  0.0034  0.1517  0.6546
 7718SOL    HW134787   2.040   3.615   7.295 -0.8315  0.3012  0.2963
 7718SOL    HW234788   2.140   3.724   7.313  0.1397 -0.2792  1.3789
 7719SOL     OW34789   1.456   3.025   8.175 -0.2051 -0.1257 -0.4277
 7719SOL    HW134790   1.388   3.026   8.243  0.0876  0.4980 -0.1408
 7719SOL    HW234791   1.420   3.074   8.101  0.1393  2.0286  0.8204
 7720SOL     OW34792   4.105   3.597   7.264 -0.4050 -0.3878 -0.5422
 7720SOL    HW134793   4.035   3.657   7.291  0.6963  0.8270 -0.3674
 7720SOL    HW234794   4.085   3.516   7.310  0.5014 -1.0254 -1.2587
 7721SOL     OW34795   2.651   0.646   2.336 -0.4370  1.0403 -0.1569
 7721SOL    HW134796   2.691   0.590   2.270  0.8112  0.0701  1.4233
 7721SOL    HW234797   2.566   0.652   2.292 -0.7148  0.1719  0.2766
 7722SOL     OW34798   1.022   4.664   1.564 -0.1278  0.2674 -0.0765
 7722SOL    HW134799   0.953   4.624   1.511 -0.0609  1.0532 -0.7540
 7722SOL    HW234800   0.964   4.689   1.635 -2.1046 -0.5427 -1.3837
 7723SOL     OW34801   1.397   0.517   9.701  0.2563 -0.5204  0.2829
 7723SOL    HW134802   1.329   0.553   9.644 -0.2552 -0.9414  0.6288
 7723SOL    HW234803   1.476   0.514   9.648  1.4603  1.3869  1.9768
 7724SOL     OW34804   2.103   1.099   8.062 -0.2757 -0.1343 -0.2594
 7724SOL    HW134805   2.097   1.018   8.012 -1.4221  0.1609 -0.5949
 7724SOL    HW234806   2.008   1.111   8.059 -0.1712  1.2824  2.0776
 7725SOL     OW34807   0.481   1.110   9.146 -0.5478  0.4590 -0.3235
 7725SOL    HW134808   0.464   1.090   9.054 -1.7140  3.2095 -0.6880
 7725SOL    HW234809   0.435   1.036   9.186  1.4746 -0.9515 -0.6207
 7726SOL     OW34810   0.846   2.542  13.523 -0.1668 -0.4882 -0.3961
 7726SOL    HW134811   0.825   2.630  13.556  1.6256  0.0423 -0.6918
 7726SOL    HW234812   0.864   2.559  13.430 -2.1273 -0.6721 -0.8209
 7727SOL     OW34813   1.446   3.831   3.047 -0.3263 -0.2566 -0.0441
 7727SOL    HW134814   1.447   3.852   3.140  0.1075 -0.3424 -0.0287
 7727SOL    HW234815   1.537   3.843   3.020 -0.6576  1.4036 -0.4854
 7728SOL     OW34816   2.281   3.550   7.847 -0.2153  0.0111 -0.3540
 7728SOL    HW134817   2.296   3.482   7.912  0.9663  1.9509  1.4142
 7728SOL    HW234818   2.233   3.620   7.891 -0.9871 -0.0157 -1.1422
 7729SOL     OW34819   0.328   2.910   6.569 -0.4586 -0.3104  0.1355
 7729SOL    HW134820   0.393   2.841   6.581  0.0136 -0.2556 -2.1725
 7729SOL    HW234821   0.253   2.876   6.619 -0.2083 -1.0012  0.0418
 7730SOL     OW34822   4.639   2.045   8.302 -0.8091 -0.5424  0.3303
 7730SOL    HW134823   4.686   1.962   8.315 -1.2508 -0.8266  0.0640
 7730SOL    HW234824   4.692   2.109   8.350  2.0847 -1.3212 -1.8459
 7731SOL     OW34825   3.863   1.692   8.395 -0.5473 -0.2205 -0.4087
 7731SOL    HW134826   3.932   1.709   8.460 -1.2021  2.4549 -0.4154
 7731SOL    HW234827   3.851   1.599   8.413 -2.3311 -0.0356 -0.6851
 7732SOL     OW34828   3.284   3.737   6.106 -0.0795  0.0248  0.1929
 7732SOL    HW134829   3.285   3.777   6.193  1.2764  0.2814  0.0491
 7732SOL    HW234830   3.365   3.773   6.070  0.0089 -2.7681 -2.3384
 7733SOL     OW34831   0.650   1.122   8.778  0.0315 -0.1293 -0.3258
 7733SOL    HW134832   0.590   1.077   8.838 -0.4623  0.3079 -0.4957
 7733SOL    HW234833   0.615   1.093   8.694 -0.5022  2.4223 -0.9625
 7734SOL     OW34834   4.219   0.231   2.266  0.5353  0.0235 -0.2522
 7734SOL    HW134835   4.251   0.272   2.186  0.3985  0.9104  0.1479
 7734SOL    HW234836   4.134   0.275   2.272 -0.0756 -1.2460  0.3537
 7735SOL     OW34837   2.056   3.958   3.919 -0.4153  0.1630 -0.2499
 7735SOL    HW134838   1.991   3.920   3.979 -3.8970  2.3291 -2.6861
 7735SOL    HW234839   2.031   3.902   3.846 -1.1642 -0.0026  0.1350
 7736SOL     OW34840   3.986   1.059   4.990 -0.2657 -0.5389  0.6444
 7736SOL    HW134841   4.009   0.993   4.925  2.7953  2.5974 -1.4406
 7736SOL    HW234842   4.062   1.044   5.046  0.7720 -0.8298 -0.8417
 7737SOL     OW34843   0.041   2.393   9.419  0.3311 -0.2444 -0.4789
 7737SOL    HW134844   0.091   2.431   9.491  0.1280 -0.2480 -0.3373
 7737SOL    HW234845   0.092   2.313   9.409  0.2929 -0.3114 -0.1371
 7738SOL     OW34846   1.544   1.275  11.799  0.3896 -0.3725  0.1497
 7738SOL    HW134847   1.536   1.259  11.893 -0.0537 -3.1118 -0.3423
 7738SOL    HW234848   1.639   1.283  11.792  0.2517 -0.2972 -1.6291
 7739SOL     OW34849   4.355   2.148   4.530  0.0765  0.2385  0.2246
 7739SOL    HW134850   4.439   2.110   4.556 -0.4360 -0.6740  0.5390
 7739SOL    HW234851   4.357   2.231   4.578 -1.0296  0.4902 -0.1554
 7740SOL     OW34852   4.456   0.097   9.034  0.1848 -0.5093 -0.4903
 7740SOL    HW134853   4.387   0.032   9.017  0.3110 -1.1890  1.4976
 7740SOL    HW234854   4.461   0.081   9.129 -0.2801  2.6767  0.0572
 7741SOL     OW34855   2.552   0.542  16.470 -0.3443  0.2850 -0.7698
 7741SOL    HW134856   2.564   0.636  16.487 -3.1486  0.8285 -1.9746
 7741SOL    HW234857   2.579   0.531  16.379 -1.1817  0.1356 -0.9980
 7742SOL     OW34858   3.299   1.064   5.930  0.5393 -0.1357  0.4249
 7742SOL    HW134859   3.222   1.107   5.892  1.6346  1.9534  0.5806
 7742SOL    HW234860   3.290   1.087   6.022 -0.4549 -2.0295  0.8077
 7743SOL     OW34861   4.168   2.445   3.285  0.3145 -0.3763 -0.1574
 7743SOL    HW134862   4.247   2.429   3.232  1.1715  0.5867  0.8247
 7743SOL    HW234863   4.200   2.514   3.343  2.1231 -0.3302 -1.1861
 7744SOL     OW34864   2.837   0.333  15.129  0.2561 -0.4684 -0.2676
 7744SOL    HW134865   2.784   0.399  15.085 -1.0789 -1.2781  0.1019
 7744SOL    HW234866   2.918   0.383  15.139  0.6554 -0.8406 -1.6416
 7745SOL     OW34867   0.549   0.368   3.569  0.0283  0.3541 -0.5082
 7745SOL    HW134868   0.569   0.439   3.630  0.4887  0.6358 -0.9792
 7745SOL    HW234869   0.522   0.296   3.626 -0.4591 -0.0143 -1.2010
 7746SOL     OW34870   2.173   0.832   6.623 -0.4893 -0.0093 -0.7257
 7746SOL    HW134871   2.244   0.776   6.593  2.0887  1.8358  1.9708
 7746SOL    HW234872   2.217   0.917   6.612  0.8836 -0.5447  0.7152
 7747SOL     OW34873   1.368   0.142   5.938 -0.4506 -0.6754 -0.1216
 7747SOL    HW134874   1.359   0.233   5.909 -0.5607 -0.5560  0.2979
 7747SOL    HW234875   1.342   0.147   6.030  1.8644  3.4446  0.3116
 7748SOL     OW34876   1.101   0.029   5.430  0.0655  0.5196 -0.2152
 7748SOL    HW134877   1.014   4.740   5.455  1.0680 -0.9762  1.5052
 7748SOL    HW234878   1.152   0.018   5.510 -0.6772 -2.2966 -0.1322
 7749SOL     OW34879   3.616   1.802   4.921 -0.0326 -0.1544  0.2785
 7749SOL    HW134880   3.675   1.835   4.988  0.8020  1.1884 -1.1028
 7749SOL    HW234881   3.637   1.709   4.908 -0.7293 -0.2913  0.1063
 7750SOL     OW34882   3.528   0.661   1.025 -0.4497  0.1626 -0.8509
 7750SOL    HW134883   3.588   0.601   1.069 -1.1881  0.1603  0.1673
 7750SOL    HW234884   3.442   0.636   1.061  0.5203 -1.6954  0.1728
 7751SOL     OW34885   4.709   1.747   3.946  0.1207  0.4681  0.0599
 7751SOL    HW134886   4.675   1.675   3.893 -0.2710 -0.3512  1.4208
 7751SOL    HW234887   4.690   1.715   4.034  0.9129  3.2914  1.2462
 7752SOL     OW34888   3.447   2.118   7.373  0.4933  0.3965 -0.6265
 7752SOL    HW134889   3.519   2.090   7.430 -0.2654 -1.0328 -0.3915
 7752SOL    HW234890   3.494   2.184   7.322 -2.2485  1.1433 -2.2072
 7753SOL     OW34891   3.141   1.286  11.584 -0.6726  0.1915  0.2002
 7753SOL    HW134892   3.230   1.253  11.574 -1.5685 -2.3690  0.8755
 7753SOL    HW234893   3.137   1.330  11.670  0.1296  0.1935  0.2360
 7754SOL     OW34894   3.964   0.151   3.189 -0.4219 -0.1815  0.0706
 7754SOL    HW134895   4.011   0.188   3.114 -1.0656  0.6670  0.0966
 7754SOL    HW234896   3.882   0.199   3.178  0.2611  1.1325  0.7251
 7755SOL     OW34897   2.114   3.557  15.262  0.1957  0.0009  0.1139
 7755SOL    HW134898   2.114   3.534  15.355  1.9081  3.2706  0.9442
 7755SOL    HW234899   2.140   3.649  15.274  0.3394 -0.2448  1.7365
 7756SOL     OW34900   1.309   4.500   8.551 -0.4094 -0.0702  0.1312
 7756SOL    HW134901   1.352   4.416   8.537  1.8132  1.0804  0.0117
 7756SOL    HW234902   1.233   4.487   8.607  1.4142  1.2894  2.9552
 7757SOL     OW34903   3.236   1.194   1.916  0.1371  0.0704 -0.1181
 7757SOL    HW134904   3.288   1.268   1.947 -1.3318  1.3592 -0.7491
 7757SOL    HW234905   3.155   1.198   1.966 -0.5987 -1.2241 -1.2024
 7758SOL     OW34906   1.585   0.829   3.673  0.3582  0.8193 -0.4061
 7758SOL    HW134907   1.498   0.820   3.712  0.8716 -0.5889  0.4492
 7758SOL    HW234908   1.627   0.859   3.753  2.0627  0.5515 -1.2043
 7759SOL     OW34909   3.251   3.613   7.830  0.1486  0.9679 -0.6147
 7759SOL    HW134910   3.273   3.527   7.866 -0.7486  1.1414  0.3388
 7759SOL    HW234911   3.164   3.597   7.793  0.5154 -0.0219 -1.0432
 7760SOL     OW34912   1.731   1.199   7.713 -0.2231 -0.2293  0.3856
 7760SOL    HW134913   1.808   1.209   7.657 -1.7360 -0.5027 -1.7978
 7760SOL    HW234914   1.683   1.121   7.684  3.4511 -2.5936  0.6613
 7761SOL     OW34915   2.932   2.278  11.107 -0.3664 -0.1022 -0.3040
 7761SOL    HW134916   2.860   2.338  11.123  0.3115  1.1004 -1.7917
 7761SOL    HW234917   2.981   2.281  11.189 -0.6080 -0.8496 -0.1373
 7762SOL     OW34918   1.645   4.559   5.115  0.1086 -0.3216 -0.2224
 7762SOL    HW134919   1.738   4.569   5.134 -0.3343 -0.4929  2.0444
 7762SOL    HW234920   1.640   4.594   5.027  1.0889 -0.7333 -0.4408
 7763SOL     OW34921   2.683   1.971   3.987 -0.7891  0.1461  1.0518
 7763SOL    HW134922   2.718   1.910   3.922 -0.9948  1.1244  0.0218
 7763SOL    HW234923   2.759   1.974   4.045 -0.0884  0.3402  0.1330
 7764SOL     OW34924   4.382   1.751   5.393  0.0600 -0.4667 -0.0920
 7764SOL    HW134925   4.446   1.804   5.344  1.2045 -0.2054  1.6832
 7764SOL    HW234926   4.327   1.828   5.402 -0.0919 -0.4209 -1.4042
 7765SOL     OW34927   4.290   1.976   9.662  0.1172  0.0270 -0.1839
 7765SOL    HW134928   4.296   1.916   9.737 -0.3828  1.2723  0.8502
 7765SOL    HW234929   4.200   2.005   9.674 -0.5673 -1.4489 -1.8295
 7766SOL     OW34930   4.187   1.983   1.947 -0.2557  0.5975 -0.1345
 7766SOL    HW134931   4.109   1.929   1.936  0.5391 -1.1756  2.7642
 7766SOL    HW234932   4.177   2.046   1.876 -0.4783  0.1693 -0.4783
 7767SOL     OW34933   4.691   1.223   6.855  0.4498 -0.1839  0.2966
 7767SOL    HW134934   4.632   1.292   6.884  2.7517  1.9466 -0.1711
 7767SOL    HW234935   0.006   1.269   6.793 -0.9375 -1.2275 -1.6996
 7768SOL     OW34936   2.464   0.229   7.058  0.6039 -0.2574  0.2608
 7768SOL    HW134937   2.409   0.307   7.070 -1.1064 -1.6214  1.1552
 7768SOL    HW234938   2.490   0.238   6.966  0.2889 -2.7824 -0.0635
 7769SOL     OW34939   4.691   1.329   5.821 -0.1096  0.3888 -0.2104
 7769SOL    HW134940   0.012   1.308   5.750 -0.4355  0.0859 -0.3987
 7769SOL    HW234941   0.005   1.326   5.900  0.2802 -1.3628 -0.5580
 7770SOL     OW34942   3.725   1.754   7.412 -0.6818  0.5939 -0.3296
 7770SOL    HW134943   3.681   1.671   7.395  0.3996 -0.5995  2.7064
 7770SOL    HW234944   3.704   1.774   7.503 -1.4618  1.4627 -0.7037
 7771SOL     OW34945   4.601   1.915  11.761 -0.2694  0.0535 -0.0150
 7771SOL    HW134946   4.649   1.858  11.701 -0.2202 -0.8288  0.8803
 7771SOL    HW234947   4.677   1.956  11.803 -2.6226  4.4425 -0.0984
 7772SOL     OW34948   3.899   4.495   5.667  0.0807  0.2964 -0.6188
 7772SOL    HW134949   3.872   4.540   5.747 -0.6820  4.4672 -3.1871
 7772SOL    HW234950   3.942   4.568   5.622 -2.1300  0.3931 -2.6170
 7773SOL     OW34951   3.774   1.700  13.173 -0.1816 -0.5980  0.9876
 7773SOL    HW134952   3.850   1.743  13.133 -1.4532  2.4495  1.7979
 7773SOL    HW234953   3.788   1.717  13.267  2.4480  1.4259  0.2257
 7774SOL     OW34954   2.221   2.200   5.555 -0.2246  0.2033  0.1952
 7774SOL    HW134955   2.189   2.290   5.549 -3.3825 -0.9053  0.3629
 7774SOL    HW234956   2.223   2.172   5.463  0.0881  0.6469  0.0703
 7775SOL     OW34957   1.395   3.668   0.284  0.3040  0.1599 -0.8724
 7775SOL    HW134958   1.401   3.654   0.190  2.3397  0.8188 -0.8345
 7775SOL    HW234959   1.448   3.601   0.325 -0.4725  0.0235 -0.0889
 7776SOL     OW34960   1.305   3.722   4.286 -0.0080 -0.1612 -0.3837
 7776SOL    HW134961   1.286   3.689   4.374  0.3060 -1.8992 -0.9669
 7776SOL    HW234962   1.356   3.654   4.242 -1.7391 -2.5841  1.3436
 7777SOL     OW34963   1.471   1.198   0.933  0.0567 -0.3785  0.9143
 7777SOL    HW134964   1.481   1.110   0.969 -0.8718 -0.6657  0.4753
 7777SOL    HW234965   1.493   1.190   0.840  1.7551 -0.6337  1.3322
 7778SOL     OW34966   3.909   3.370  13.669 -0.4482 -0.2239  0.2181
 7778SOL    HW134967   3.958   3.416  13.600 -0.0608  0.3494  0.8723
 7778SOL    HW234968   3.902   3.282  13.630  0.1683  0.9219 -2.4948
 7779SOL     OW34969   3.959   4.632   2.992 -0.4418 -0.1645 -0.0051
 7779SOL    HW134970   4.051   4.648   2.969 -0.9507 -0.1680 -2.0918
 7779SOL    HW234971   3.950   4.622   3.087 -1.0693  0.0634 -0.0387
 7780SOL     OW34972   0.240   2.113  12.456 -1.0232  0.8177  0.3751
 7780SOL    HW134973   0.223   2.037  12.399  0.2763  0.4955  0.4142
 7780SOL    HW234974   0.277   2.078  12.537 -2.3767  1.1425  1.1253
 7781SOL     OW34975   1.532   2.338  14.767  0.0139 -0.9795  0.2930
 7781SOL    HW134976   1.584   2.412  14.734 -1.5669 -0.1345 -0.3046
 7781SOL    HW234977   1.537   2.367  14.858 -1.7021  1.1644 -0.2911
 7782SOL     OW34978   1.341   4.600   9.747 -0.5357  0.4211 -0.1643
 7782SOL    HW134979   1.393   4.520   9.754 -0.8900 -0.0113 -2.3531
 7782SOL    HW234980   1.335   4.630   9.838  2.2717 -3.2000  1.2010
 7783SOL     OW34981   3.819   0.644   6.520  0.4776 -0.1838 -0.2691
 7783SOL    HW134982   3.891   0.628   6.580  1.6913  3.3562 -0.7676
 7783SOL    HW234983   3.763   0.708   6.565 -0.6576  0.2618 -2.3313
 7784SOL     OW34984   2.950   2.413  10.269 -0.1972  0.0413 -0.6630
 7784SOL    HW134985   2.860   2.439  10.288 -0.0813 -0.0401 -0.0156
 7784SOL    HW234986   2.971   2.481  10.206 -1.1321 -0.5531 -1.6236
 7785SOL     OW34987   0.711   3.587   5.895 -0.5793  0.1929 -0.1761
 7785SOL    HW134988   0.670   3.659   5.846 -2.3894 -0.1632  0.8125
 7785SOL    HW234989   0.780   3.641   5.934  0.4936 -1.1555 -0.2007
 7786SOL     OW34990   2.805   0.247   1.535  0.7222 -0.0648 -0.3439
 7786SOL    HW134991   2.752   0.222   1.460  0.8558  0.5904 -0.6578
 7786SOL    HW234992   2.772   0.184   1.599 -0.1988 -0.3494 -1.1051
 7787SOL     OW34993   3.832   2.091  10.983  0.2426  0.1108  0.3695
 7787SOL    HW134994   3.909   2.122  11.029  0.7404  0.7059 -0.8865
 7787SOL    HW234995   3.748   2.111  11.024 -0.4043  0.5224 -1.1509
 7788SOL     OW34996   3.663   3.502  15.078 -0.2569 -0.1892 -0.0565
 7788SOL    HW134997   3.719   3.564  15.125 -1.1937 -0.6190  1.6276
 7788SOL    HW234998   3.604   3.491  15.153 -1.8560  0.4015 -1.2387
 7789SOL     OW34999   3.952   3.089   6.595 -0.1021  0.1644 -0.0164
 7789SOL    HW135000   3.860   3.065   6.603 -0.0643 -0.2234 -0.7316
 7789SOL    HW235001   3.988   3.010   6.555  0.9198 -0.3302  1.9111
 7790SOL     OW35002   0.498   3.575  13.796 -0.3413  0.2293 -0.3815
 7790SOL    HW135003   0.418   3.623  13.774 -0.5681  0.4370  0.8775
 7790SOL    HW235004   0.530   3.546  13.711 -0.0641  0.2380 -0.2821
 7791SOL     OW35005   3.113   2.805  15.265  0.0522 -0.0085  0.7249
 7791SOL    HW135006   3.124   2.896  15.294 -0.7489  0.4362 -0.3243
 7791SOL    HW235007   3.143   2.810  15.174 -1.0698 -1.2522  0.2980
 7792SOL     OW35008   4.736   0.550   3.159 -0.4382 -0.0516  0.3293
 7792SOL    HW135009   4.734   0.636   3.117 -0.8550  0.0591  0.5752
 7792SOL    HW235010   4.652   0.515   3.129  0.2646 -2.4990  1.2629
 7793SOL     OW35011   2.348   2.334   6.694 -0.2739  0.3071  0.1273
 7793SOL    HW135012   2.338   2.414   6.747 -0.9470  0.2778  0.0397
 7793SOL    HW235013   2.334   2.261   6.755  1.1411  0.7978  1.0603
 7794SOL     OW35014   3.651   2.794   0.174 -0.1916  0.4649  0.1518
 7794SOL    HW135015   3.594   2.718   0.163  1.0270 -0.5992  1.0893
 7794SOL    HW235016   3.714   2.765   0.240  0.1165  3.5919  1.2065
 7795SOL     OW35017   0.452   0.795   1.841 -0.1713  0.1670 -0.5132
 7795SOL    HW135018   0.409   0.782   1.926  1.0938  0.5727  0.1853
 7795SOL    HW235019   0.414   0.881   1.824 -2.0242 -0.8960 -1.8123
 7796SOL     OW35020   1.733   4.213   3.205  0.3597 -0.0696  0.2725
 7796SOL    HW135021   1.825   4.206   3.180  1.4755  1.6318  3.8470
 7796SOL    HW235022   1.735   4.178   3.294  0.8406  0.2516  0.3855
 7797SOL     OW35023   2.536   3.578  13.775  1.1987 -0.1448  0.1551
 7797SOL    HW135024   2.570   3.661  13.741 -0.0060  0.1521 -0.3280
 7797SOL    HW235025   2.591   3.514  13.730 -1.5107 -0.0967 -3.2230
 7798SOL     OW35026   3.738   0.640   2.957  0.2531  0.2827 -0.2385
 7798SOL    HW135027   3.814   0.649   3.014 -0.5774  1.1301  0.7567
 7798SOL    HW235028   3.682   0.582   3.009 -1.0879  1.8094  0.0215
 7799SOL     OW35029   1.163   2.782  12.597 -0.0006  0.4718 -0.5945
 7799SOL    HW135030   1.146   2.832  12.517 -0.3995  1.0280 -0.1705
 7799SOL    HW235031   1.257   2.793  12.609 -0.1620 -0.3156  1.4238
 7800SOL     OW35032   4.442   4.124  17.166  0.1772  0.3914 -0.0419
 7800SOL    HW135033   4.366   4.153  17.116 -0.5793  2.2643  2.2099
 7800SOL    HW235034   4.411   4.035  17.181  1.6284 -0.2958 -1.1117
 7801SOL     OW35035   2.288   0.776  10.120 -0.1821  0.9346 -0.1449
 7801SOL    HW135036   2.358   0.842  10.122  0.8037 -0.1581  1.4270
 7801SOL    HW235037   2.281   0.752  10.212  0.3259  0.2205 -0.2903
 7802SOL     OW35038   3.859   3.168  11.747  0.4759  0.2623 -0.0218
 7802SOL    HW135039   3.948   3.164  11.782  0.7248 -0.7649 -0.7830
 7802SOL    HW235040   3.822   3.094  11.795 -0.0209  0.5862  0.0966
 7803SOL     OW35041   2.814   3.334   6.505  0.3401 -0.2432  0.5885
 7803SOL    HW135042   2.755   3.297   6.439 -0.7686  4.8759 -1.2741
 7803SOL    HW235043   2.759   3.395   6.553  0.7288 -0.0614  0.8018
 7804SOL     OW35044   2.296   1.904  13.307  0.5732  0.3062 -0.3672
 7804SOL    HW135045   2.389   1.917  13.292  0.6225 -1.8506 -1.8933
 7804SOL    HW235046   2.261   1.936  13.224 -0.3005 -1.3043 -0.6217
 7805SOL     OW35047   1.957   0.214   3.639 -0.0485  0.2756 -0.1142
 7805SOL    HW135048   1.936   0.159   3.714 -2.1919  0.4333 -0.6228
 7805SOL    HW235049   1.880   0.269   3.629 -0.1214  0.2828  0.4858
 7806SOL     OW35050   0.637   3.211  14.320 -0.1865 -0.3932 -0.2950
 7806SOL    HW135051   0.698   3.224  14.247  0.1640 -0.0163  0.0636
 7806SOL    HW235052   0.575   3.140  14.305  0.2922 -0.7412 -0.5999
 7807SOL     OW35053   2.081   4.416   2.520 -0.0612  0.0377  0.4964
 7807SOL    HW135054   2.022   4.408   2.445  1.5034  1.7572 -0.9106
 7807SOL    HW235055   2.041   4.348   2.575 -1.7979 -0.3400 -1.2158
 7808SOL     OW35056   3.034   3.447   4.206 -0.2110  0.2366 -0.3194
 7808SOL    HW135057   2.997   3.532   4.180  0.9972  1.7750  2.8970
 7808SOL    HW235058   2.968   3.389   4.169  0.1058 -0.4025  0.1248
 7809SOL     OW35059   4.258   3.062   2.305 -0.2171 -0.1282  0.6620
 7809SOL    HW135060   4.250   2.967   2.293 -1.3901  0.1625 -0.8393
 7809SOL    HW235061   4.254   3.072   2.400  0.9847 -2.0108  0.9110
 7810SOL     OW35062   3.948   2.265   2.901 -0.0188  0.1482 -0.0521
 7810SOL    HW135063   3.939   2.319   2.979 -3.3533 -0.4439 -0.0085
 7810SOL    HW235064   4.032   2.224   2.919 -0.4928 -1.7863 -2.1794
 7811SOL     OW35065   1.790   1.358   7.960 -0.0661  0.2942 -0.0760
 7811SOL    HW135066   1.767   1.287   8.020  1.5396  1.2994  1.7394
 7811SOL    HW235067   1.751   1.327   7.878  0.0099 -0.8681  0.3204
 7812SOL     OW35068   0.660   2.834  14.979  0.1050  0.1366 -0.6846
 7812SOL    HW135069   0.718   2.824  14.903  2.1625  0.7723  0.8036
 7812SOL    HW235070   0.719   2.857  15.051 -3.0481  0.8183  1.6834
 7813SOL     OW35071   1.096   0.655   1.051 -0.1808  0.7525  0.3034
 7813SOL    HW135072   1.138   0.695   0.975 -2.3938  1.5894 -0.4633
 7813SOL    HW235073   1.152   0.687   1.122 -2.5139  1.9973  1.5963
 7814SOL     OW35074   4.265   1.479  12.127  0.4376 -0.1014  1.0429
 7814SOL    HW135075   4.275   1.386  12.145 -0.2078 -0.3907 -0.0971
 7814SOL    HW235076   4.232   1.501  12.214 -2.0686 -0.0775  0.0670
 7815SOL     OW35077   4.645   4.104   8.795 -0.2660 -0.1869 -0.0352
 7815SOL    HW135078   4.695   4.137   8.870 -1.5106  1.0312  0.2417
 7815SOL    HW235079   4.569   4.161   8.799 -1.2595 -1.3957 -1.7736
 7816SOL     OW35080   2.992   0.444   1.555 -0.1468 -0.3140  0.3071
 7816SOL    HW135081   2.946   0.500   1.492 -1.0078 -0.4091  0.8522
 7816SOL    HW235082   2.937   0.366   1.560  0.4645 -0.8346 -1.4501
 7817SOL     OW35083   0.153   2.781   9.986  0.6178 -0.1657  0.3223
 7817SOL    HW135084   0.242   2.812  10.003  0.1284  0.8012  1.1074
 7817SOL    HW235085   0.164   2.769   9.892 -0.4368  2.2612 -0.1058
 7818SOL     OW35086   4.126   2.123   3.918  1.1195  0.2723  0.6096
 7818SOL    HW135087   4.196   2.171   3.875  1.5294 -0.6697  0.2126
 7818SOL    HW235088   4.074   2.190   3.963  0.8651 -0.0812  0.8426
 7819SOL     OW35089   1.004   1.120   1.050 -0.2031 -0.3356  0.1726
 7819SOL    HW135090   0.965   1.193   1.098 -2.0381 -0.4514 -1.1766
 7819SOL    HW235091   1.077   1.159   1.000  0.7948 -0.8432  1.2335
 7820SOL     OW35092   4.730   1.756   5.527  0.1165 -0.7185 -0.3315
 7820SOL    HW135093   4.737   1.851   5.536  0.4871 -0.8944  1.4080
 7820SOL    HW235094   0.024   1.747   5.439  0.6798  1.0916 -0.2925
 7821SOL     OW35095   0.404   4.252   6.214  0.1503 -0.1755  0.0342
 7821SOL    HW135096   0.384   4.159   6.225  0.7615 -0.1609  1.3051
 7821SOL    HW235097   0.498   4.249   6.195  0.0355 -0.6957 -0.4333
 7822SOL     OW35098   4.142   3.729   6.368 -0.2658  0.1762 -0.3965
 7822SOL    HW135099   4.212   3.760   6.427 -0.2076 -0.9691  0.1341
 7822SOL    HW235100   4.189   3.681   6.300  1.3644  0.9945  0.1491
 7823SOL     OW35101   2.311   0.962   6.275  0.8141  0.2724  0.2159
 7823SOL    HW135102   2.372   0.889   6.285 -0.4164 -0.9471 -1.2708
 7823SOL    HW235103   2.301   0.948   6.181 -0.9853  0.6591  0.3445
 7824SOL     OW35104   0.069   3.259   3.745  0.1069 -0.4393 -0.1862
 7824SOL    HW135105   0.091   3.213   3.826  0.6624 -1.3229 -0.8201
 7824SOL    HW235106   0.150   3.264   3.693  0.2296 -0.7290 -0.0227
 7825SOL     OW35107   3.834   2.964   9.603  0.4137 -0.1926 -0.5531
 7825SOL    HW135108   3.748   2.943   9.639  0.1666  0.4259 -0.7810
 7825SOL    HW235109   3.806   2.988   9.515 -1.2300  0.1550  0.0698
 7826SOL     OW35110   3.543   0.475   2.714  0.4573 -0.4313  0.2482
 7826SOL    HW135111   3.537   0.443   2.804  1.0781  1.1824  0.8714
 7826SOL    HW235112   3.461   0.458   2.668  0.2730  0.2498  0.3217
 7827SOL     OW35113   3.316   4.066  16.690  0.2735  0.0693  0.3434
 7827SOL    HW135114   3.262   4.089  16.766 -0.6891  1.2374 -0.6923
 7827SOL    HW235115   3.247   4.070  16.624 -0.3074  1.0495  0.9985
 7828SOL     OW35116   2.530   0.445   1.959 -0.1479 -0.9851  0.3952
 7828SOL    HW135117   2.547   0.438   1.865  3.2035 -1.7782  1.0489
 7828SOL    HW235118   2.445   0.403   1.959 -0.0067 -1.2686  1.0298
 7829SOL     OW35119   1.192   4.546  12.936 -0.0992 -0.3175  0.1002
 7829SOL    HW135120   1.144   4.492  12.873  0.6212 -0.1029 -0.6371
 7829SOL    HW235121   1.148   4.626  12.909 -2.4426 -1.1140  1.6201
 7830SOL     OW35122   0.671   4.436   8.458 -0.3719 -0.3431  0.1553
 7830SOL    HW135123   0.617   4.502   8.414  0.8242  0.4850 -0.0896
 7830SOL    HW235124   0.676   4.358   8.403 -0.4807 -2.3465  3.0542
 7831SOL     OW35125   3.325   1.151   7.368  0.0948  0.2323  0.9211
 7831SOL    HW135126   3.349   1.214   7.300 -0.3162  0.7125  1.2241
 7831SOL    HW235127   3.376   1.200   7.432 -1.5445  2.5550  0.4500
 7832SOL     OW35128   1.599   0.151   8.068  0.0057  0.6777  0.3320
 7832SOL    HW135129   1.677   0.099   8.047  0.3988  1.2781  0.2860
 7832SOL    HW235130   1.553   0.110   8.141 -0.2224  2.5457  1.2526
 7833SOL     OW35131   4.317   2.468   6.498  0.8239 -0.0831 -0.2117
 7833SOL    HW135132   4.225   2.446   6.484  0.1521  2.6173 -0.2032
 7833SOL    HW235133   4.329   2.547   6.444 -1.5048 -0.3488 -1.1516
 7834SOL     OW35134   1.714   0.487  17.243  0.0893  0.0732 -0.2289
 7834SOL    HW135135   1.733   0.561  17.300 -1.7339  0.0573  0.3996
 7834SOL    HW235136   1.624   0.504  17.217  0.4291  2.4140  0.1649
 7835SOL     OW35137   4.310   1.529   4.851 -0.1916  0.0796  0.0760
 7835SOL    HW135138   4.383   1.495   4.903 -0.5375  0.6376  0.9333
 7835SOL    HW235139   4.241   1.538   4.917  0.4198 -0.6080  0.8029
 7836SOL     OW35140   2.889   0.516   9.350 -0.0500 -0.2092 -0.5728
 7836SOL    HW135141   2.982   0.520   9.329 -0.2670 -0.1636 -1.5491
 7836SOL    HW235142   2.889   0.542   9.442  2.3283 -1.6386 -0.1966
 7837SOL     OW35143   1.991   2.469   7.739 -0.3554  0.2548 -0.0331
 7837SOL    HW135144   1.945   2.437   7.817  1.2085  1.1080  1.2264
 7837SOL    HW235145   1.909   2.496   7.696 -2.2693 -1.6734  2.3785
 7838SOL     OW35146   0.559   1.574   2.732  0.0205  0.2601 -0.3081
 7838SOL    HW135147   0.542   1.604   2.821  0.5758 -2.3147  0.6750
 7838SOL    HW235148   0.628   1.510   2.747  0.3426  0.9289  1.1021
 7839SOL     OW35149   1.261   1.372  11.878  0.6002  0.0852  0.1516
 7839SOL    HW135150   1.256   1.412  11.965 -1.1646  1.1796 -0.4613
 7839SOL    HW235151   1.352   1.341  11.882  0.1955 -1.2633 -1.6734
 7840SOL     OW35152   2.855   0.487  17.566 -0.1506 -0.1929 -0.1659
 7840SOL    HW135153   2.813   0.450  17.644 -1.3185  1.9897  0.2447
 7840SOL    HW235154   2.944   0.514  17.591 -2.0691  4.8155  1.2349
 7841SOL     OW35155   3.720   2.140  15.696  0.3671  0.5820  0.0664
 7841SOL    HW135156   3.774   2.217  15.678 -1.0314  1.5788  0.0610
 7841SOL    HW235157   3.679   2.149  15.782  1.4281  1.1632  0.5069
 7842SOL     OW35158   2.297   1.011   3.703  0.6118 -0.2437 -0.0900
 7842SOL    HW135159   2.313   1.095   3.746 -0.5822 -1.0990  2.0526
 7842SOL    HW235160   2.216   0.990   3.751  0.7299  3.2668  1.6236
 7843SOL     OW35161   1.480   4.210  15.303 -0.0562  0.2099 -0.1670
 7843SOL    HW135162   1.416   4.236  15.369 -3.0190 -2.6942 -1.9042
 7843SOL    HW235163   1.427   4.220  15.224 -0.9544 -1.7551  0.1767
 7844SOL     OW35164   0.530   2.239  11.353 -0.2678 -0.3090 -0.0897
 7844SOL    HW135165   0.596   2.274  11.293  0.0152 -1.3527 -0.3942
 7844SOL    HW235166   0.576   2.253  11.436 -2.2709 -0.6778  1.0701
 7845SOL     OW35167   4.690   2.976   2.467  0.3902 -0.2681  0.4441
 7845SOL    HW135168   4.668   3.045   2.530  0.5057  0.3747 -0.2184
 7845SOL    HW235169   0.010   3.016   2.405  0.7490  0.0278  0.9879
 7846SOL     OW35170   1.234   3.967  12.699 -0.3404 -0.2578 -0.0837
 7846SOL    HW135171   1.318   4.000  12.730 -0.6450  0.7339 -0.2851
 7846SOL    HW235172   1.180   4.036  12.739  0.1883  0.6009 -0.8674
 7847SOL     OW35173   1.579   0.100   6.291  0.0253  0.0915  0.6445
 7847SOL    HW135174   1.511   0.032   6.293  0.2202 -0.1201  0.0172
 7847SOL    HW235175   1.522   0.164   6.334  1.3036  0.6913  1.4334
 7848SOL     OW35176   1.415   1.807   9.314 -0.2070 -0.3049  0.6935
 7848SOL    HW135177   1.492   1.750   9.318 -1.0746 -1.5156  0.0944
 7848SOL    HW235178   1.343   1.745   9.327 -1.5694  1.0199 -0.4455
 7849SOL     OW35179   1.702   3.018   8.432  0.4313  0.1693 -0.3691
 7849SOL    HW135180   1.679   3.109   8.413  0.2537  0.0449 -0.7393
 7849SOL    HW235181   1.740   3.030   8.519 -0.8137  0.8067  0.0861
 7850SOL     OW35182   2.796   4.130  11.163  0.2857 -0.5059 -0.5473
 7850SOL    HW135183   2.790   4.210  11.215 -0.4801 -1.1789  0.3891
 7850SOL    HW235184   2.890   4.115  11.174 -0.3301 -2.4491  2.0389
 7851SOL     OW35185   3.703   2.493  17.706  0.4280 -0.1901  0.1661
 7851SOL    HW135186   3.640   2.508  17.636  0.3464  1.4888  0.6019
 7851SOL    HW235187   3.778   2.455  17.660  3.0883  3.4694  1.4107
 7852SOL     OW35188   1.094   4.460   3.536 -0.8300  0.7708  0.1526
 7852SOL    HW135189   1.097   4.502   3.451  0.5759  0.6245  0.1304
 7852SOL    HW235190   1.011   4.415   3.524 -0.3972 -0.1700  0.6635
 7853SOL     OW35191   2.441   2.405   2.768  0.1607 -0.3153  0.7349
 7853SOL    HW135192   2.387   2.483   2.779 -0.5322 -0.4987 -1.4062
 7853SOL    HW235193   2.469   2.423   2.679 -0.0599 -0.1873  0.6933
 7854SOL     OW35194   2.496   2.175  15.986  0.9180  0.0708 -0.3576
 7854SOL    HW135195   2.442   2.228  15.927  0.6789 -2.2724 -2.2967
 7854SOL    HW235196   2.514   2.095  15.936 -0.9463 -0.3016 -0.4465
 7855SOL     OW35197   3.347   0.265   4.893  0.3892  0.4861 -0.1507
 7855SOL    HW135198   3.424   0.232   4.938 -1.1542 -2.3320  0.3814
 7855SOL    HW235199   3.333   0.343   4.946  0.0335  0.6534 -0.4896
 7856SOL     OW35200   3.641   4.424   3.592 -0.0687  0.0398  0.0419
 7856SOL    HW135201   3.596   4.354   3.639 -1.9181  1.3993  0.2702
 7856SOL    HW235202   3.730   4.389   3.592 -0.2297 -0.3379 -1.3291
 7857SOL     OW35203   1.036   0.482  11.312  0.1061 -0.3212  0.3054
 7857SOL    HW135204   1.017   0.575  11.303 -3.9574 -0.9699  2.3379
 7857SOL    HW235205   1.013   0.453  11.223  0.1025 -0.3244  0.3074
 7858SOL     OW35206   0.976   0.965   5.813 -0.4475  0.2130  0.5070
 7858SOL    HW135207   1.007   1.051   5.786 -1.6525  1.0730  1.8739
 7858SOL    HW235208   1.050   0.921   5.853 -0.5331  1.5947  2.1580
 7859SOL     OW35209   2.984   1.402   1.070  0.2371  0.2094 -0.1402
 7859SOL    HW135210   2.927   1.338   1.112  0.3844 -0.0293 -0.3092
 7859SOL    HW235211   2.917   1.456   1.026  1.6348  0.8338 -1.5206
 7860SOL     OW35212   2.772   1.721   3.838 -0.1166 -0.2025 -0.1996
 7860SOL    HW135213   2.849   1.667   3.856  1.4594  2.6690  1.7086
 7860SOL    HW235214   2.707   1.691   3.901 -0.8120 -2.3406 -1.9397
 7861SOL     OW35215   1.994   4.066  15.186 -0.5171  0.6742 -0.4397
 7861SOL    HW135216   1.995   3.991  15.246  0.5076  0.0582 -1.2044
 7861SOL    HW235217   1.911   4.104  15.214 -1.1851 -0.0466 -1.4121
 7862SOL     OW35218   0.163   2.744   3.394  0.6475  0.3665  0.4627
 7862SOL    HW135219   0.252   2.733   3.429  0.7734  0.4186  0.1650
 7862SOL    HW235220   0.181   2.705   3.308 -2.2306 -0.3884  0.2066
 7863SOL     OW35221   1.589   1.968   7.718  0.5077  0.1765  0.2626
 7863SOL    HW135222   1.496   1.949   7.709  0.6308 -1.1002  1.6879
 7863SOL    HW235223   1.613   1.876   7.731 -0.4370 -0.2070 -0.7865
 7864SOL     OW35224   3.019   0.634  16.491  0.1960  0.4802  0.2628
 7864SOL    HW135225   2.946   0.682  16.451  0.3774  2.5067  2.3264
 7864SOL    HW235226   3.038   0.693  16.564 -1.4202  2.4712 -0.9094
 7865SOL     OW35227   0.996   3.730  12.433  0.1536 -0.1354 -0.8477
 7865SOL    HW135228   1.080   3.770  12.409  1.2225 -2.2616 -0.7375
 7865SOL    HW235229   0.944   3.799  12.473 -0.4876 -0.8105 -0.5241
 7866SOL     OW35230   3.781   3.594   7.028  0.2783 -0.1274 -0.1254
 7866SOL    HW135231   3.703   3.621   6.980  1.4318  0.5689 -1.6363
 7866SOL    HW235232   3.744   3.579   7.115 -2.5152 -1.0760 -1.4994
 7867SOL     OW35233   0.169   0.308  10.433  0.5170 -0.4515  0.1205
 7867SOL    HW135234   0.200   0.396  10.411 -0.4501 -0.8131 -2.6907
 7867SOL    HW235235   0.077   0.310  10.410 -0.1862  0.6749  3.1090
 7868SOL     OW35236   0.721   0.810   3.615 -0.2652 -0.0018 -0.7367
 7868SOL    HW135237   0.701   0.893   3.659 -0.6402  0.1802 -1.2593
 7868SOL    HW235238   0.637   0.780   3.579 -0.9705  0.8593  0.1990
 7869SOL     OW35239   1.791   1.433   6.964  0.1960  0.1506 -0.1575
 7869SOL    HW135240   1.821   1.346   6.988 -1.3899 -0.0196  1.1594
 7869SOL    HW235241   1.808   1.422   6.870 -0.9721 -0.2882 -0.3201
 7870SOL     OW35242   0.280   3.365   2.717 -0.0580  0.1591 -0.0757
 7870SOL    HW135243   0.358   3.419   2.729  1.3900 -1.6208 -1.5036
 7870SOL    HW235244   0.298   3.317   2.636  0.8482  1.3383 -0.5757
 7871SOL     OW35245   1.834   4.560   7.745  0.6286 -0.5059  0.5025
 7871SOL    HW135246   1.895   4.621   7.788 -0.1497  0.4676  0.2479
 7871SOL    HW235247   1.903   4.534   7.684 -0.7906 -0.7101 -1.0099
 7872SOL     OW35248   4.636   4.427  13.598  0.0270  0.1250  0.5846
 7872SOL    HW135249   4.575   4.450  13.668 -1.1504  1.1582 -0.7880
 7872SOL    HW235250   4.666   4.510  13.562 -1.9898  0.9834  0.8685
 7873SOL     OW35251   1.775   0.794  16.440  0.2083 -0.2193 -0.2355
 7873SOL    HW135252   1.726   0.776  16.360 -0.7555 -0.2876  0.3823
 7873SOL    HW235253   1.846   0.730  16.440  0.7742  0.3901 -2.4998
 7874SOL     OW35254   4.214   3.393   8.076  0.1008 -0.1608 -0.1289
 7874SOL    HW135255   4.212   3.302   8.048  1.9809 -0.4922  0.8131
 7874SOL    HW235256   4.119   3.403   8.085  0.1069 -0.1234 -0.1079
 7875SOL     OW35257   4.291   2.021   5.377 -0.2683  0.0183 -0.1321
 7875SOL    HW135258   4.272   2.011   5.284  0.1046  0.8667 -0.3017
 7875SOL    HW235259   4.368   2.078   5.371 -0.0661 -0.1313  1.0658
 7876SOL     OW35260   0.629   4.480  10.204 -0.6129 -0.2055  0.9762
 7876SOL    HW135261   0.595   4.402  10.160  1.2456  0.0781 -0.9111
 7876SOL    HW235262   0.714   4.450  10.237  0.5970 -0.5261 -2.4681
 7877SOL     OW35263   3.234   4.126   1.161  0.0365 -0.0194  0.1630
 7877SOL    HW135264   3.284   4.172   1.228  1.3482  1.0067 -1.5373
 7877SOL    HW235265   3.178   4.062   1.204 -0.5050 -0.9435 -1.8983
 7878SOL     OW35266   0.824   3.095   0.369  0.7291 -0.3581 -0.2215
 7878SOL    HW135267   0.879   3.033   0.320  1.1011  0.2474 -0.5640
 7878SOL    HW235268   0.744   3.041   0.370  2.0586 -2.3058  2.6645
 7879SOL     OW35269   4.153   0.204   8.117  0.1703  0.3894  0.3992
 7879SOL    HW135270   4.153   0.154   8.198  1.9383 -0.8593 -0.3440
 7879SOL    HW235271   4.220   0.270   8.136  0.9206  0.2312 -1.6869
 7880SOL     OW35272   3.270   4.654   3.956 -0.4731  0.8299 -0.0381
 7880SOL    HW135273   3.317   4.736   3.973  0.6417  0.8785 -3.3732
 7880SOL    HW235274   3.328   4.624   3.886  0.7013  1.3550  0.6954
 7881SOL     OW35275   4.360   2.590  11.064  0.3660  0.0753  0.0147
 7881SOL    HW135276   4.270   2.609  11.088 -0.5275 -0.6198 -2.7517
 7881SOL    HW235277   4.337   2.555  10.977  0.7547 -1.0072  0.3422
 7882SOL     OW35278   4.509   3.553   5.878  0.1360 -0.2225 -0.0648
 7882SOL    HW135279   4.510   3.480   5.817  1.8125  2.2746 -3.0569
 7882SOL    HW235280   4.602   3.562   5.900  0.1153 -0.9878  0.3351
 7883SOL     OW35281   0.781   0.338   2.951 -0.0252  0.1680  0.3401
 7883SOL    HW135282   0.756   0.430   2.954 -0.3117  0.1472 -1.2989
 7883SOL    HW235283   0.734   0.308   3.029 -2.7562  1.2916 -0.8447
 7884SOL     OW35284   3.913   3.424   7.418 -0.0994 -0.2592  0.1188
 7884SOL    HW135285   3.840   3.474   7.383  0.5660  0.5898 -0.0332
 7884SOL    HW235286   3.874   3.393   7.500 -1.0634 -0.8413 -0.5557
 7885SOL     OW35287   1.960   2.026   1.848 -0.0838  0.3823 -0.1961
 7885SOL    HW135288   2.026   1.963   1.877 -0.9608 -0.3527  0.2056
 7885SOL    HW235289   1.877   1.993   1.882 -0.3667  1.2364 -0.0605
 7886SOL     OW35290   0.175   3.416   1.254 -0.0218 -0.1628  0.2931
 7886SOL    HW135291   0.125   3.340   1.223  2.6420 -2.1478  0.9314
 7886SOL    HW235292   0.177   3.474   1.177 -0.0878  0.2901  0.6339
 7887SOL     OW35293   0.291   0.590  11.248 -0.1219  0.3145  0.0878
 7887SOL    HW135294   0.254   0.558  11.166  0.6444 -1.4582  0.4268
 7887SOL    HW235295   0.374   0.543  11.247 -0.2490  0.0500  1.2763
 7888SOL     OW35296   4.689   0.466   6.714 -0.1351  0.2047 -0.2055
 7888SOL    HW135297   0.016   0.509   6.767  1.4901  1.4135 -3.2725
 7888SOL    HW235298   4.726   0.380   6.729 -0.3239  0.2870  0.7568
 7889SOL     OW35299   3.988   3.470   4.027 -0.1261  0.1757  0.3095
 7889SOL    HW135300   3.981   3.430   3.940  0.0934  1.0722 -0.1240
 7889SOL    HW235301   3.895   3.486   4.039 -0.0472  0.2599  0.7970
 7890SOL     OW35302   3.366   1.509   2.772 -0.1489  0.0448  0.2995
 7890SOL    HW135303   3.343   1.593   2.814  2.8141  0.2677  1.5166
 7890SOL    HW235304   3.414   1.458   2.838  1.8581  0.7258 -0.6052
 7891SOL     OW35305   1.964   1.588   4.511  0.0448 -0.1434 -0.6738
 7891SOL    HW135306   1.904   1.589   4.437 -0.7201  3.1369 -0.0359
 7891SOL    HW235307   2.024   1.658   4.485 -0.5303  0.8090  0.5408
 7892SOL     OW35308   0.880   2.425   4.161 -0.0357  0.6942 -0.2636
 7892SOL    HW135309   0.857   2.402   4.071  2.5991 -0.6958 -0.5962
 7892SOL    HW235310   0.970   2.392   4.154 -1.0220 -1.7632 -1.1850
 7893SOL     OW35311   4.682   1.518   9.262 -0.3792  0.3298  0.5873
 7893SOL    HW135312   4.669   1.560   9.177  2.0948 -1.5276 -0.7052
 7893SOL    HW235313   4.684   1.598   9.315  0.7281 -0.1504  1.2769
 7894SOL     OW35314   2.561   1.307   5.638  0.4182  0.3236 -0.3421
 7894SOL    HW135315   2.519   1.239   5.584  0.9690 -0.5045  0.2774
 7894SOL    HW235316   2.482   1.341   5.679  0.5100 -0.9534  0.8792
 7895SOL     OW35317   3.671   3.607  12.766 -0.1824  0.5949 -0.3387
 7895SOL    HW135318   3.663   3.678  12.703  2.8757  0.4060 -0.9557
 7895SOL    HW235319   3.758   3.615  12.804 -0.1894  0.2285 -0.2429
 7896SOL     OW35320   2.499   3.241   5.816 -0.1505 -0.0729  0.7535
 7896SOL    HW135321   2.594   3.227   5.822  0.1032  0.8558 -1.2422
 7896SOL    HW235322   2.487   3.232   5.722  2.0740  1.9871  0.2673
 7897SOL     OW35323   3.431   3.479   7.420  0.3152 -0.5777  0.4192
 7897SOL    HW135324   3.379   3.468   7.340 -2.0534  1.1951  1.7026
 7897SOL    HW235325   3.431   3.391   7.457 -0.9826 -0.2324  1.2383
 7898SOL     OW35326   4.340   0.480   5.754 -0.7411 -0.4565  0.3355
 7898SOL    HW135327   4.420   0.430   5.739 -0.8546  0.3540 -3.0444
 7898SOL    HW235328   4.348   0.546   5.686 -1.2489 -0.6255  0.1096
 7899SOL     OW35329   4.409   1.151   8.329  0.1634  0.2741 -0.2626
 7899SOL    HW135330   4.407   1.152   8.425  3.3125 -0.0008 -0.1967
 7899SOL    HW235331   4.411   1.056   8.324 -0.7270  0.2598 -0.4501
 7900SOL     OW35332   2.250   3.018  16.907  0.5131 -1.0145  0.1731
 7900SOL    HW135333   2.292   3.072  16.840 -0.5795  0.1317  0.4042
 7900SOL    HW235334   2.210   3.081  16.968  1.6951  0.3222 -0.4457
 7901SOL     OW35335   2.481   3.773   5.556  0.0308 -0.0673  0.1343
 7901SOL    HW135336   2.483   3.847   5.495 -1.0256 -0.7224 -0.6782
 7901SOL    HW235337   2.525   3.709   5.500 -1.0331  0.0282 -0.7873
 7902SOL     OW35338   3.558   1.704   6.625  0.0798  0.2242  0.0263
 7902SOL    HW135339   3.605   1.644   6.684 -2.0440 -0.0798  1.4028
 7902SOL    HW235340   3.612   1.703   6.546 -1.1388  0.6322 -0.8031
 7903SOL     OW35341   3.447   3.245   7.192  0.5251  0.3346 -0.0940
 7903SOL    HW135342   3.363   3.220   7.231 -0.2514  2.8259 -0.2305
 7903SOL    HW235343   3.435   3.335   7.165  0.3908  0.1262 -0.7293
 7904SOL     OW35344   3.835   4.141   5.717 -0.0172 -0.6781 -0.5014
 7904SOL    HW135345   3.775   4.067   5.710 -1.6318  0.8335 -2.7290
 7904SOL    HW235346   3.822   4.164   5.809 -2.4080 -0.8275 -0.8083
 7905SOL     OW35347   2.258   2.088   6.044  0.2880 -0.9801 -0.0953
 7905SOL    HW135348   2.343   2.106   6.003  0.2574 -2.1696 -0.6978
 7905SOL    HW235349   2.231   2.017   5.984  2.0529 -1.6197 -0.1358
 7906SOL     OW35350   0.438   0.310   8.270 -0.6434 -0.1589 -0.6898
 7906SOL    HW135351   0.405   0.221   8.281  2.1949 -1.2997 -1.4980
 7906SOL    HW235352   0.501   0.296   8.199  0.2556  2.0129 -0.3302
 7907SOL     OW35353   4.551   1.482   4.999 -0.1378 -0.0636 -0.0525
 7907SOL    HW135354   4.562   1.573   4.974 -0.0759  0.3506  1.5081
 7907SOL    HW235355   4.494   1.483   5.075 -0.3362 -0.9921 -0.1810
 7908SOL     OW35356   0.846   1.626   8.798 -0.5811 -0.1131 -1.0897
 7908SOL    HW135357   0.812   1.547   8.841  0.9044 -0.9568 -1.4523
 7908SOL    HW235358   0.766   1.678   8.812 -0.6635 -0.0515 -1.8190
 7909SOL     OW35359   0.726   2.887   3.423  0.1680  0.0006  0.4676
 7909SOL    HW135360   0.732   2.805   3.373  1.7441 -2.4261  4.6526
 7909SOL    HW235361   0.652   2.918   3.371  0.3871  1.4887  1.0589
 7910SOL     OW35362   2.974   2.300  17.730 -0.2389  0.7210  0.1141
 7910SOL    HW135363   3.030   2.353  17.675  1.8497 -1.2236  0.3838
 7910SOL    HW235364   2.916   2.274  17.658 -1.7210  2.3278  0.7343
 7911SOL     OW35365   2.362   4.074  15.954  0.3468  0.0657  0.8226
 7911SOL    HW135366   2.379   4.168  15.950  0.2093  0.0675  0.2116
 7911SOL    HW235367   2.267   4.067  15.964 -0.0194  2.0266 -1.4350
 7912SOL     OW35368   0.710   0.890   1.180  0.0736  0.5739 -0.5897
 7912SOL    HW135369   0.621   0.909   1.151 -0.8778 -1.3384  1.1325
 7912SOL    HW235370   0.751   0.880   1.094  1.4699 -4.4124  0.6480
 7913SOL     OW35371   3.654   4.640   8.628 -0.5797  0.1144 -0.0852
 7913SOL    HW135372   3.622   4.640   8.537 -1.7796  0.9144  0.3344
 7913SOL    HW235373   3.574   4.663   8.675 -1.6633 -1.7705 -0.9717
 7914SOL     OW35374   1.019   4.560  16.987  0.6267  0.1724  0.2162
 7914SOL    HW135375   0.986   4.650  16.983  0.1141  0.0277  1.1102
 7914SOL    HW235376   1.112   4.574  17.002  0.0852  2.6876  1.1726
 7915SOL     OW35377   4.509   2.524  17.747  0.1245  0.0283 -0.5754
 7915SOL    HW135378   4.597   2.518  17.709  0.9475 -0.8398  1.4674
 7915SOL    HW235379   4.473   2.600  17.700  0.5932 -0.2322 -1.3637
 7916SOL     OW35380   3.281   0.745   7.214 -0.9069 -0.2214 -0.1764
 7916SOL    HW135381   3.260   0.711   7.301  0.8335  2.9334  1.4758
 7916SOL    HW235382   3.375   0.736   7.199 -0.8126 -2.1049  1.5077
 7917SOL     OW35383   1.747   3.683   5.362  0.4342  0.1802 -0.0180
 7917SOL    HW135384   1.783   3.762   5.319  0.5117 -0.3881 -1.0029
 7917SOL    HW235385   1.780   3.702   5.450  0.6901  1.0543 -0.2969
 7918SOL     OW35386   0.065   2.982   8.840 -0.6504  0.3509  0.0590
 7918SOL    HW135387   4.734   2.939   8.793  0.9455 -0.6954 -1.3899
 7918SOL    HW235388   0.118   3.015   8.768 -1.1593  2.1867  0.5045
 7919SOL     OW35389   1.142   4.545   4.317 -0.2690 -0.3679 -0.2745
 7919SOL    HW135390   1.198   4.542   4.239 -0.5861  1.6392 -0.5715
 7919SOL    HW235391   1.134   4.450   4.326 -3.2452 -0.2310 -1.2496
 7920SOL     OW35392   2.598   2.884   3.386 -0.1608 -0.3271  0.3187
 7920SOL    HW135393   2.680   2.933   3.381 -0.1271 -0.5571 -1.2024
 7920SOL    HW235394   2.625   2.793   3.374  4.3394  1.0500  0.0891
 7921SOL     OW35395   1.500   2.859  14.431  0.2221  0.0186  0.7066
 7921SOL    HW135396   1.440   2.808  14.485 -1.0115  1.3281  0.5824
 7921SOL    HW235397   1.533   2.789  14.374 -1.0308 -0.1341  0.1481
 7922SOL     OW35398   4.603   3.429   1.321 -0.1950  0.4283 -0.4936
 7922SOL    HW135399   4.557   3.445   1.239  1.5009  0.0830 -1.5082
 7922SOL    HW235400   4.642   3.514   1.339 -0.3853  0.7043 -1.3935
 7923SOL     OW35401   4.323   1.412   8.665 -0.9577 -0.6504  0.3542
 7923SOL    HW135402   4.234   1.383   8.687 -2.0909  3.0373  0.7069
 7923SOL    HW235403   4.369   1.330   8.648 -0.6822 -0.9126  2.3951
 7924SOL     OW35404   2.366   1.390   7.893  0.6297 -0.4362 -0.0293
 7924SOL    HW135405   2.379   1.300   7.861  1.3681 -0.4101  0.2095
 7924SOL    HW235406   2.371   1.437   7.811  4.4228 -0.7779  0.0073
 7925SOL     OW35407   2.155   3.152  10.416  0.1504  0.8031  0.2563
 7925SOL    HW135408   2.157   3.196  10.501 -0.1233  0.9538  0.1863
 7925SOL    HW235409   2.192   3.217  10.357  1.7063 -0.3203 -0.0014
 7926SOL     OW35410   3.684   3.110   3.698 -0.3412  0.1894  0.5226
 7926SOL    HW135411   3.687   3.197   3.660  0.4802  0.4179  1.1153
 7926SOL    HW235412   3.698   3.055   3.621  0.2034  1.0951 -0.0186
 7927SOL     OW35413   3.217   2.819  15.619  0.6120  0.3499 -0.1260
 7927SOL    HW135414   3.291   2.838  15.561  0.1708  0.2580 -0.7160
 7927SOL    HW235415   3.210   2.727  15.592 -0.1143  0.6237 -0.8673
 7928SOL     OW35416   1.607   0.464   7.319 -0.3078 -0.4664 -0.5657
 7928SOL    HW135417   1.536   0.443   7.380  0.9628 -0.7879  0.8258
 7928SOL    HW235418   1.563   0.474   7.235  0.7985  0.4095 -1.0365
 7929SOL     OW35419   0.760   0.538   3.696  0.0650 -0.0535 -0.4581
 7929SOL    HW135420   0.772   0.633   3.687  0.3054  0.1237  1.6590
 7929SOL    HW235421   0.778   0.534   3.790  1.5419 -0.6026 -0.7712
 7930SOL     OW35422   3.674   3.436  17.396  0.4034 -0.4798 -0.1277
 7930SOL    HW135423   3.714   3.498  17.458 -3.3443 -1.9502  3.8163
 7930SOL    HW235424   3.745   3.419  17.335  0.6364 -1.2893  0.3661
 7931SOL     OW35425   1.658   3.609   5.638 -0.1986  0.3251  0.6078
 7931SOL    HW135426   1.659   3.619   5.734 -1.3633 -0.3489  0.6933
 7931SOL    HW235427   1.735   3.553   5.635 -0.8098 -0.3524 -1.6741
 7932SOL     OW35428   4.159   2.593   1.741  0.0997  0.4097  0.0793
 7932SOL    HW135429   4.065   2.586   1.756  0.1872  0.7329  0.7722
 7932SOL    HW235430   4.185   2.522   1.800  0.6118 -0.0647 -0.7130
 7933SOL     OW35431   0.326   0.446   5.645 -0.3734 -0.3291  0.4939
 7933SOL    HW135432   0.357   0.415   5.731 -0.2066  0.1812  0.6143
 7933SOL    HW235433   0.353   0.373   5.589  1.4472  2.1609 -1.8764
 7934SOL     OW35434   0.264   1.091  13.556  0.1094 -0.2943  0.0510
 7934SOL    HW135435   0.233   1.143  13.482  0.6852 -0.4813 -0.3236
 7934SOL    HW235436   0.325   1.158  13.589  0.6047 -0.4438 -0.5575
 7935SOL     OW35437   1.738   3.754  12.522 -0.6264  0.0817 -1.2013
 7935SOL    HW135438   1.828   3.723  12.525 -0.8532 -0.4177  0.6450
 7935SOL    HW235439   1.743   3.802  12.605  1.0470 -0.3309 -1.0757
 7936SOL     OW35440   3.852   4.209   7.231 -0.1864 -0.7074  0.6359
 7936SOL    HW135441   3.783   4.143   7.233 -0.4428 -0.4232  1.1548
 7936SOL    HW235442   3.823   4.278   7.291  0.5203  0.6085 -0.5441
 7937SOL     OW35443   3.388   0.538  16.679 -0.0934 -0.2561  0.4199
 7937SOL    HW135444   3.380   0.535  16.774 -1.3154 -1.5489  0.2714
 7937SOL    HW235445   3.426   0.626  16.670  1.5100 -0.9975 -0.0952
 7938SOL     OW35446   3.068   1.923   6.051 -0.2444 -0.3956 -0.3950
 7938SOL    HW135447   3.033   1.861   6.115  0.1716  0.1305  0.3409
 7938SOL    HW235448   3.074   1.999   6.108  3.9227 -1.7424  0.9473
 7939SOL     OW35449   3.425   3.905   6.605  0.5086 -0.3934 -0.3396
 7939SOL    HW135450   3.439   3.929   6.697  0.0397 -1.8632  0.1236
 7939SOL    HW235451   3.513   3.921   6.572 -1.1117  4.5631 -2.1386
 7940SOL     OW35452   2.588   2.163  12.452 -0.0564 -0.0526  0.3531
 7940SOL    HW135453   2.682   2.181  12.440  0.0534 -0.1073  1.1410
 7940SOL    HW235454   2.557   2.208  12.373 -1.7049 -0.6441  0.6793
 7941SOL     OW35455   3.683   2.919  15.357 -0.4367 -0.2239  0.6791
 7941SOL    HW135456   3.595   2.917  15.395 -1.5495 -1.1830 -1.9380
 7941SOL    HW235457   3.677   2.834  15.313  3.3773 -0.0164 -0.2290
 7942SOL     OW35458   3.277   3.926   2.525  0.2329  0.0443  0.1108
 7942SOL    HW135459   3.225   3.853   2.558  1.9077 -1.1781  0.0533
 7942SOL    HW235460   3.313   3.963   2.605  0.7166 -0.0947 -0.0413
 7943SOL     OW35461   0.964   3.711   9.884 -0.2583 -0.3551  0.5347
 7943SOL    HW135462   0.975   3.668   9.799  1.9075  2.0834 -0.3773
 7943SOL    HW235463   0.871   3.703   9.906  0.5054 -1.2439  3.4015
 7944SOL     OW35464   2.026   2.243  12.602 -0.3897  0.0389  0.2291
 7944SOL    HW135465   2.017   2.149  12.585 -0.3310  0.2210 -0.8456
 7944SOL    HW235466   2.119   2.263  12.598 -0.3023 -0.2069  1.2015
 7945SOL     OW35467   3.704   3.565   7.304 -0.0307 -0.1715 -0.5105
 7945SOL    HW135468   3.715   3.655   7.333  0.5963 -0.9620  1.6871
 7945SOL    HW235469   3.620   3.539   7.341  0.9780 -1.1466  1.0916
 7946SOL     OW35470   2.166   3.515   7.606  0.4031  0.1040  0.0926
 7946SOL    HW135471   2.201   3.537   7.693 -1.9342 -0.6544  1.2038
 7946SOL    HW235472   2.071   3.513   7.619  0.2695  2.6883 -0.4029
 7947SOL     OW35473   3.174   2.644   1.375 -0.1385  0.0531 -0.2451
 7947SOL    HW135474   3.217   2.729   1.360 -2.9203  1.4063 -0.6505
 7947SOL    HW235475   3.114   2.648   1.300  1.6090 -0.7518 -1.6705
 7948SOL     OW35476   1.860   4.219  13.479 -0.5110 -0.1092 -0.3177
 7948SOL    HW135477   1.873   4.274  13.401  1.1986  0.7527  0.5791
 7948SOL    HW235478   1.870   4.133  13.438 -1.7630 -0.1214 -0.5964
 7949SOL     OW35479   3.762   1.961   2.425  0.4061  0.3530 -0.0718
 7949SOL    HW135480   3.829   1.969   2.492 -0.0584  0.7738  0.3371
 7949SOL    HW235481   3.744   2.050   2.394  0.9976  0.3348 -0.4516
 7950SOL     OW35482   4.192   3.783   5.955 -0.2226 -0.3106 -0.6112
 7950SOL    HW135483   4.120   3.724   5.935  0.1380 -0.9832  0.0760
 7950SOL    HW235484   4.148   3.867   5.958 -0.8449 -0.6407 -0.5470
 7951SOL     OW35485   1.379   1.727   5.959  0.4328 -0.3098 -0.1282
 7951SOL    HW135486   1.455   1.785   5.953  1.0459 -1.0475  0.4114
 7951SOL    HW235487   1.418   1.639   5.959  1.3714  0.1063 -0.6126
 7952SOL     OW35488   1.439   0.663   4.867  0.0962  0.0658  0.0957
 7952SOL    HW135489   1.486   0.734   4.910  0.3384  1.0290 -1.7379
 7952SOL    HW235490   1.407   0.612   4.941 -1.1024  0.9073  0.1472
 7953SOL     OW35491   3.157   2.039   3.738  0.5204  0.7806 -0.3973
 7953SOL    HW135492   3.114   2.121   3.715 -1.1896  0.1342  0.4098
 7953SOL    HW235493   3.088   1.975   3.716  1.1033  1.2435 -3.5081
 7954SOL     OW35494   2.427   3.108   8.363  0.4199  0.1016 -0.1270
 7954SOL    HW135495   2.473   3.037   8.407  0.0123  1.1381  1.9926
 7954SOL    HW235496   2.343   3.064   8.349 -1.3285  2.2660  3.4080
 7955SOL     OW35497   4.242   4.063   4.485  0.3570  0.0225 -0.1116
 7955SOL    HW135498   4.323   4.051   4.535 -0.3985  0.9929  1.3237
 7955SOL    HW235499   4.179   4.064   4.556 -0.3270 -0.4980 -0.7150
 7956SOL     OW35500   3.168   0.623   1.631  0.2647 -0.2720 -0.4126
 7956SOL    HW135501   3.107   0.556   1.602  1.4646 -0.7997 -1.7294
 7956SOL    HW235502   3.216   0.648   1.552  1.4680 -1.4825 -0.0631
 7957SOL     OW35503   3.749   1.986  11.428 -0.7122  0.4891 -0.2514
 7957SOL    HW135504   3.842   2.006  11.436 -0.7438  0.8180 -0.7204
 7957SOL    HW235505   3.752   1.895  11.457 -1.3189  0.4492 -0.3188
 7958SOL     OW35506   3.814   4.330  15.984 -0.3881 -0.3903  0.2452
 7958SOL    HW135507   3.784   4.305  15.897  2.2269  0.2622 -0.8533
 7958SOL    HW235508   3.878   4.263  16.009  0.0885  0.7955  2.3088
 7959SOL     OW35509   1.928   3.795   7.549 -0.5375 -0.2323  0.2586
 7959SOL    HW135510   1.966   3.771   7.465  0.7424 -0.6907  0.9592
 7959SOL    HW235511   1.837   3.775   7.529 -0.3281  0.4373 -1.2910
 7960SOL     OW35512   1.210   0.058   4.723 -0.1689 -0.0079  0.0510
 7960SOL    HW135513   1.119   0.063   4.695  0.1467 -0.5260 -1.0533
 7960SOL    HW235514   1.193   0.044   4.817  0.6013 -0.2401  0.1525
 7961SOL     OW35515   3.771   1.176   4.882 -0.4994  0.0205 -0.1143
 7961SOL    HW135516   3.810   1.189   4.796 -0.2460  2.3071  0.3532
 7961SOL    HW235517   3.839   1.124   4.925 -1.8075 -0.8275  0.9096
 7962SOL     OW35518   3.170   0.446  13.116 -0.0041  0.3316  0.1871
 7962SOL    HW135519   3.180   0.415  13.026 -3.4952  0.5866 -0.3112
 7962SOL    HW235520   3.235   0.399  13.167  0.5873  1.1038  0.1431
 7963SOL     OW35521   0.797   4.345   2.713 -0.4711 -0.1596 -0.3845
 7963SOL    HW135522   0.809   4.436   2.743  0.0419 -1.1244  2.3094
 7963SOL    HW235523   0.867   4.336   2.648  1.0203 -0.3820  1.2536
 7964SOL     OW35524   3.110   3.230  17.015 -0.2363 -0.0109 -0.3242
 7964SOL    HW135525   3.029   3.280  17.018  0.1286  0.5675 -0.0283
 7964SOL    HW235526   3.149   3.248  17.101 -2.0213  0.0216  0.4587
 7965SOL     OW35527   1.860   1.003   4.916  0.1038 -0.3475 -0.4825
 7965SOL    HW135528   1.937   1.053   4.890 -0.6533  1.0571 -0.0419
 7965SOL    HW235529   1.833   0.946   4.844 -3.7207 -1.3365  1.7310
 7966SOL     OW35530   2.875   3.607   3.205 -0.1777 -0.3204 -0.0537
 7966SOL    HW135531   2.849   3.577   3.292  0.5506  0.1916  0.3457
 7966SOL    HW235532   2.902   3.698   3.206 -2.1245  0.2397  1.3294
 7967SOL     OW35533   2.451   2.142  13.951 -0.3289 -0.4137 -0.0139
 7967SOL    HW135534   2.424   2.052  13.969  1.5583 -1.3151 -1.5779
 7967SOL    HW235535   2.413   2.151  13.863  1.3645 -2.7145 -1.0019
 7968SOL     OW35536   4.567   3.983   2.884  0.4086 -0.1393 -0.6729
 7968SOL    HW135537   4.636   4.039   2.849  0.2460 -0.5116 -1.5789
 7968SOL    HW235538   4.538   3.931   2.809 -0.2313 -2.0899  0.9086
 7969SOL     OW35539   0.138   1.358   9.162 -0.2511  0.4649 -0.3253
 7969SOL    HW135540   0.158   1.337   9.254 -2.2287 -1.0102 -0.2448
 7969SOL    HW235541   0.063   1.414   9.178  0.2234  0.9527  0.1785
 7970SOL     OW35542   4.164   3.459   8.433 -0.8240 -0.0187  0.2323
 7970SOL    HW135543   4.094   3.412   8.388 -0.8845 -0.2895  0.6032
 7970SOL    HW235544   4.126   3.474   8.520 -2.9209  3.3168 -1.2608
 7971SOL     OW35545   1.745   1.287  16.483 -0.4517 -0.0857  0.2949
 7971SOL    HW135546   1.706   1.360  16.530 -2.3025 -0.2315 -1.0139
 7971SOL    HW235547   1.702   1.206  16.512 -1.5176  1.0792  1.9321
 7972SOL     OW35548   0.808   1.867   2.443 -0.5203 -0.1720 -0.4566
 7972SOL    HW135549   0.718   1.847   2.416 -0.9768 -2.5268  2.7484
 7972SOL    HW235550   0.799   1.901   2.532  0.7349 -1.7076  0.2652
 7973SOL     OW35551   1.889   2.338  11.973 -0.2036 -0.3012  0.7408
 7973SOL    HW135552   1.877   2.365  12.064 -0.8259 -1.1084  0.9014
 7973SOL    HW235553   1.984   2.348  11.973 -0.1876 -0.4462 -0.2837
 7974SOL     OW35554   1.732   0.317   2.782 -0.1130  0.2815 -0.2147
 7974SOL    HW135555   1.647   0.356   2.805  1.0798  2.7412  0.0127
 7974SOL    HW235556   1.771   0.397   2.748  1.8762 -0.1297  1.1417
 7975SOL     OW35557   3.402   2.049   5.814  0.5931 -0.0300 -0.4574
 7975SOL    HW135558   3.448   2.126   5.782  0.9038 -0.5829 -1.3384
 7975SOL    HW235559   3.339   2.088   5.875 -0.1991 -1.3984 -0.4030
 7976SOL     OW35560   3.652   3.877   6.423  0.7051  0.0181 -0.1531
 7976SOL    HW135561   3.745   3.864   6.444  0.9758 -1.4638 -2.1688
 7976SOL    HW235562   3.638   3.830   6.340 -0.7969 -1.9840  1.2388
 7977SOL     OW35563   2.305   4.500   7.058  0.4676 -0.1208  0.0875
 7977SOL    HW135564   2.346   4.419   7.028  2.3857  0.2562  1.7510
 7977SOL    HW235565   2.227   4.459   7.097 -0.4290  0.9726 -0.5444
 7978SOL     OW35566   0.301   1.806   9.881  0.9145 -0.4217 -0.2253
 7978SOL    HW135567   0.305   1.719   9.919 -2.5911 -0.9492 -1.0377
 7978SOL    HW235568   0.353   1.852   9.947  1.0521  0.7022 -1.1158
 7979SOL     OW35569   4.403   2.211   6.030  0.6267 -0.1110 -0.1449
 7979SOL    HW135570   4.457   2.262   6.090  1.7167  2.0595 -2.9946
 7979SOL    HW235571   4.472   2.182   5.970 -0.4464 -0.0076 -1.4235
 7980SOL     OW35572   1.549   0.946   7.763 -0.0800 -0.1610  0.0051
 7980SOL    HW135573   1.494   0.881   7.720 -1.1710 -0.2255  1.5068
 7980SOL    HW235574   1.482   1.014   7.759  0.9170  0.9320  1.5456
 7981SOL     OW35575   0.144   1.541   5.549  0.2540 -0.0216 -0.0698
 7981SOL    HW135576   0.059   1.582   5.564 -0.0550 -0.7967  0.2798
 7981SOL    HW235577   0.191   1.608   5.500 -0.0421 -0.7525 -1.3629
 7982SOL     OW35578   4.062   4.415   4.986 -0.3460  0.6524 -0.5592
 7982SOL    HW135579   4.139   4.367   4.955  0.2171  0.9979  0.3176
 7982SOL    HW235580   4.099   4.486   5.038  0.2403 -0.9500  1.2216
 7983SOL     OW35581   4.494   4.516  14.087  0.0113  0.1848 -0.0055
 7983SOL    HW135582   4.468   4.463  14.162  2.1606 -1.4254 -0.3920
 7983SOL    HW235583   4.452   4.599  14.112 -0.1510 -0.2951  1.3082
 7984SOL     OW35584   1.930   1.614   3.740  0.5685  0.6430  0.3706
 7984SOL    HW135585   1.926   1.660   3.655  0.0274  0.3463  0.2369
 7984SOL    HW235586   1.840   1.603   3.769  0.4196  2.8950  0.8114
 7985SOL     OW35587   0.144   2.174   4.471 -0.8321  0.1722 -0.7471
 7985SOL    HW135588   0.223   2.127   4.446 -0.0803  0.1798  1.6280
 7985SOL    HW235589   0.177   2.262   4.454  1.6095 -0.2540  1.9068
 7986SOL     OW35590   4.002   2.621   3.619 -0.1645 -0.7774 -0.7833
 7986SOL    HW135591   3.969   2.559   3.554 -0.5949  0.7643 -2.0410
 7986SOL    HW235592   4.061   2.665   3.559 -1.0672 -1.1365 -1.9408
 7987SOL     OW35593   3.605   2.050   3.296 -0.2654 -0.2516  0.0134
 7987SOL    HW135594   3.689   2.036   3.341 -0.2075  2.4348  0.7439
 7987SOL    HW235595   3.608   1.971   3.242  1.5791  0.4645 -0.9299
 7988SOL     OW35596   3.575   1.817   3.143 -0.2925  0.2700  0.1960
 7988SOL    HW135597   3.587   1.767   3.062  0.8560 -0.1282  0.6156
 7988SOL    HW235598   3.560   1.748   3.207 -2.0108 -0.7172 -1.2497
 7989SOL     OW35599   2.918   2.898  15.010  0.0787  0.6092  0.2866
 7989SOL    HW135600   2.948   2.983  14.977 -1.5257  0.5441 -1.2925
 7989SOL    HW235601   3.006   2.864  15.023 -0.0244  1.0574  2.1774
 7990SOL     OW35602   1.693   4.150   7.674 -0.1273  0.0765 -0.0456
 7990SOL    HW135603   1.760   4.215   7.652  0.7723 -0.3937  1.2956
 7990SOL    HW235604   1.719   4.131   7.764  0.2868  4.0453  0.7128
 7991SOL     OW35605   4.281   1.281   5.992  0.0300  0.2235 -0.3426
 7991SOL    HW135606   4.211   1.247   5.935  0.4265 -0.2982 -0.5257
 7991SOL    HW235607   4.333   1.204   5.970 -0.8098 -0.7305  0.9618
 7992SOL     OW35608   3.550   3.213  14.526  0.0645 -0.4992 -0.2736
 7992SOL    HW135609   3.619   3.191  14.588 -0.0208  1.7647  0.6407
 7992SOL    HW235610   3.478   3.156  14.555  1.3182 -0.7938  2.2936
 7993SOL     OW35611   0.726   0.170   6.297 -0.2543  0.0114 -0.2169
 7993SOL    HW135612   0.652   0.113   6.278  1.6282 -1.6628 -2.6723
 7993SOL    HW235613   0.804   0.123   6.266 -1.0305 -1.2968 -0.1672
 7994SOL     OW35614   4.530   2.127  11.165  0.0592 -0.3622  0.3101
 7994SOL    HW135615   4.619   2.125  11.198  0.9238 -2.2284 -2.1102
 7994SOL    HW235616   4.485   2.161  11.243  1.0006 -1.0719  1.1668
 7995SOL     OW35617   3.502   4.352  15.721  1.2547 -0.3481  0.6148
 7995SOL    HW135618   3.481   4.441  15.690 -3.5290 -1.3479  0.9071
 7995SOL    HW235619   3.543   4.382  15.802 -1.0097  0.6798  1.3770
 7996SOL     OW35620   4.078   0.054   5.201 -0.4966  0.2093  0.0692
 7996SOL    HW135621   4.062   0.144   5.232 -1.0845  0.7396 -1.8152
 7996SOL    HW235622   3.989   0.026   5.181 -0.5726 -0.6356  1.6012
 7997SOL     OW35623   2.435   3.386  14.006 -0.0239  0.1688 -0.0264
 7997SOL    HW135624   2.349   3.357  13.976  0.1438  1.2310 -1.5629
 7997SOL    HW235625   2.444   3.475  13.972 -2.3700  0.0994 -0.8510
 7998SOL     OW35626   1.635   2.294   3.858 -0.3177  0.3223  0.0595
 7998SOL    HW135627   1.646   2.388   3.877  0.0047  0.1929  0.5098
 7998SOL    HW235628   1.583   2.303   3.778 -1.1355  1.4408  0.7220
 7999SOL     OW35629   4.420   4.287   2.824  0.2116  0.1511  0.4858
 7999SOL    HW135630   4.500   4.240   2.847  0.5789  0.6397  0.2266
 7999SOL    HW235631   4.387   4.234   2.752  2.5546  1.1956 -1.3705
 8000SOL     OW35632   1.817   0.984   8.869 -0.1306 -0.0406 -0.1113
 8000SOL    HW135633   1.840   0.900   8.831  1.2841 -0.1769  1.0096
 8000SOL    HW235634   1.888   0.983   8.934  1.1384 -2.1213 -1.5164
 8001SOL     OW35635   2.078   0.843   3.560 -0.2425 -0.2051 -0.0760
 8001SOL    HW135636   2.044   0.921   3.604  2.4609  1.4629 -0.9869
 8001SOL    HW235637   2.140   0.888   3.503 -0.9959  2.3970  1.1484
 8002SOL     OW35638   2.160   1.622   2.334  0.5208 -0.0429  0.0607
 8002SOL    HW135639   2.244   1.580   2.315  0.3370 -0.3835  0.0160
 8002SOL    HW235640   2.189   1.704   2.294 -0.2923  0.4756  0.5249
 8003SOL     OW35641   2.998   1.542   2.707 -0.3575  0.3620 -0.0207
 8003SOL    HW135642   3.053   1.524   2.784  1.2909 -0.0881 -1.3101
 8003SOL    HW235643   2.916   1.553   2.756  1.3229 -1.3046  3.1276
 8004SOL     OW35644   0.438   1.512   9.607 -0.4131 -0.0855  0.6167
 8004SOL    HW135645   0.435   1.607   9.607  0.9380 -0.0501 -2.2586
 8004SOL    HW235646   0.398   1.493   9.692  0.3825 -0.6326  0.8687
 8005SOL     OW35647   2.706   1.948  17.125  0.1944  0.8250 -0.0877
 8005SOL    HW135648   2.723   1.961  17.032  2.0670 -0.8043  0.0152
 8005SOL    HW235649   2.709   2.040  17.152  0.6699  1.0634 -0.9630
 8006SOL     OW35650   2.931   3.407   4.610 -0.7060 -0.3086 -0.0956
 8006SOL    HW135651   2.870   3.458   4.557  1.8699  1.4362 -1.3618
 8006SOL    HW235652   3.017   3.436   4.578 -0.9599  1.2695  0.6262
 8007SOL     OW35653   0.423   3.524   6.568 -0.0934  0.3179 -0.0193
 8007SOL    HW135654   0.473   3.501   6.646 -2.0573 -0.8580  0.9007
 8007SOL    HW235655   0.443   3.617   6.573 -0.7426  0.3699  1.6310
 8008SOL     OW35656   0.114   1.206  15.829  0.2682 -0.0774 -0.3494
 8008SOL    HW135657   0.071   1.151  15.895 -1.1296 -0.3755 -1.5094
 8008SOL    HW235658   0.085   1.178  15.742  0.4332 -0.3312 -0.3239
 8009SOL     OW35659   2.254   2.437   7.793 -0.3487  0.0865 -0.2757
 8009SOL    HW135660   2.277   2.350   7.761 -0.6893  0.0851 -0.5169
 8009SOL    HW235661   2.158   2.434   7.790 -0.3638 -1.1296  2.2829
 8010SOL     OW35662   3.535   2.339   0.380 -0.0016 -0.2099  0.2294
 8010SOL    HW135663   3.591   2.408   0.344 -2.0964  1.1456 -0.4184
 8010SOL    HW235664   3.546   2.261   0.326  0.4010  0.2949 -0.4202
 8011SOL     OW35665   4.226   2.794   8.387  0.2920 -0.2504 -0.0198
 8011SOL    HW135666   4.229   2.805   8.292 -1.7026  1.2559  0.0885
 8011SOL    HW235667   4.229   2.889   8.400 -1.1140 -0.7390  3.9701
 8012SOL     OW35668   1.989   1.620   1.275 -0.2220 -0.4626 -0.2903
 8012SOL    HW135669   2.040   1.630   1.355  0.1357 -0.9257 -0.4560
 8012SOL    HW235670   1.901   1.599   1.306  0.3079 -2.1263  0.1180
 8013SOL     OW35671   3.529   0.914   2.299  0.4786  0.0474  0.2844
 8013SOL    HW135672   3.580   0.923   2.379  2.8654  0.7129 -1.3126
 8013SOL    HW235673   3.492   0.826   2.309  0.6977  0.1519  1.9749
 8014SOL     OW35674   3.978   0.177   2.732 -0.0325 -0.2043  0.4267
 8014SOL    HW135675   3.914   0.240   2.699  1.7388  1.9986  1.1829
 8014SOL    HW235676   3.977   0.113   2.662  0.0475  0.9581 -0.6297
 8015SOL     OW35677   3.589   2.003   9.531  0.3362  0.4396  0.4540
 8015SOL    HW135678   3.630   2.016   9.445 -0.3083  0.1595  0.1000
 8015SOL    HW235679   3.656   1.948   9.570  1.7226 -0.1498 -2.7470
 8016SOL     OW35680   4.371   4.409   9.034 -0.2178  0.5525 -0.0215
 8016SOL    HW135681   4.459   4.402   9.071 -0.7087 -0.4546  0.9757
 8016SOL    HW235682   4.337   4.332   9.081  1.0105 -0.0228 -0.0852
 8017SOL     OW35683   2.536   0.121   9.159  0.4971 -0.2866 -0.1600
 8017SOL    HW135684   2.540   0.034   9.118 -1.6409  0.2942 -1.6067
 8017SOL    HW235685   2.540   0.084   9.247  1.8538  1.5083  0.5211
 8018SOL     OW35686   2.862   1.377   1.377  0.8273  0.0166  0.2493
 8018SOL    HW135687   2.791   1.441   1.377  0.4184 -0.4404  0.2760
 8018SOL    HW235688   2.919   1.423   1.438 -0.1776  0.3176  0.9611
 8019SOL     OW35689   1.953   2.752  16.715 -0.6712 -0.0225  0.3002
 8019SOL    HW135690   1.999   2.698  16.651 -1.8041 -1.3296  0.5988
 8019SOL    HW235691   1.937   2.688  16.783 -1.6322 -1.9500 -1.7456
 8020SOL     OW35692   3.502   3.651   1.731 -0.2746  0.7037  0.4314
 8020SOL    HW135693   3.529   3.693   1.650  0.9613  1.9073  1.4862
 8020SOL    HW235694   3.461   3.728   1.769  2.2151  1.6613  1.1789
 8021SOL     OW35695   3.293   1.554   7.954 -0.3306  0.4883 -0.5535
 8021SOL    HW135696   3.379   1.520   7.930 -0.4717  0.6863 -1.3394
 8021SOL    HW235697   3.262   1.598   7.875 -1.1448  1.4415  0.2806
 8022SOL     OW35698   2.506   0.886   7.800 -0.0132  0.4368  0.0107
 8022SOL    HW135699   2.551   0.882   7.716 -0.9444 -0.7817 -0.4445
 8022SOL    HW235700   2.536   0.804   7.841 -1.5753  0.4318  1.1503
 8023SOL     OW35701   0.364   1.554   3.503  0.1741 -0.2484  0.2969
 8023SOL    HW135702   0.304   1.516   3.567 -1.6839 -0.7882 -1.7754
 8023SOL    HW235703   0.407   1.623   3.554 -0.3960  0.7163 -0.5389
 8024SOL     OW35704   2.310   3.882   8.676 -0.1482 -0.1765 -0.3457
 8024SOL    HW135705   2.289   3.888   8.582 -2.8513 -1.1034  0.1881
 8024SOL    HW235706   2.403   3.858   8.672  0.1595  0.7222  1.5655
 8025SOL     OW35707   1.398   0.393  17.441 -0.7089  0.0011 -0.0154
 8025SOL    HW135708   1.396   0.471  17.385  0.1363  0.1462  0.1569
 8025SOL    HW235709   1.346   0.329  17.392  0.3077 -0.6418 -0.2623
 8026SOL     OW35710   3.501   0.942   4.207  0.4028  0.4177  0.0493
 8026SOL    HW135711   3.450   1.022   4.213 -1.5975 -0.8657  0.3628
 8026SOL    HW235712   3.449   0.882   4.153 -1.0200  2.1684 -0.4849
 8027SOL     OW35713   4.496   1.866   7.584 -0.4558 -0.6208 -0.4933
 8027SOL    HW135714   4.405   1.888   7.566  0.2753  2.3717 -0.4966
 8027SOL    HW235715   4.504   1.901   7.673 -1.4074  0.6662 -0.9158
 8028SOL     OW35716   1.657   3.527   8.255 -0.6471 -0.4888  0.6736
 8028SOL    HW135717   1.679   3.570   8.338 -1.3663  0.5392  0.3418
 8028SOL    HW235718   1.671   3.437   8.284 -0.7078 -0.2227  1.5531
 8029SOL     OW35719   4.629   1.371  12.649 -0.1930  0.1337  0.6009
 8029SOL    HW135720   4.622   1.283  12.686 -0.7781 -0.3747 -0.7122
 8029SOL    HW235721   4.583   1.358  12.566 -0.6567  0.5339  0.7989
 8030SOL     OW35722   3.089   0.096   3.535  0.1653 -0.2253  0.5525
 8030SOL    HW135723   3.135   0.145   3.604  0.3402 -0.6466  0.7335
 8030SOL    HW235724   3.069   0.011   3.573 -1.2836  2.1129  5.0994
 8031SOL     OW35725   0.362   0.805   4.482  0.2462 -0.3792 -0.1826
 8031SOL    HW135726   0.354   0.866   4.555  0.5413 -1.0464  0.4120
 8031SOL    HW235727   0.434   0.851   4.438 -1.0196  0.6631 -1.1636
 8032SOL     OW35728   1.351   1.266   8.382 -0.4417 -0.6965  0.6849
 8032SOL    HW135729   1.302   1.234   8.458 -2.4992  1.6614  0.3238
 8032SOL    HW235730   1.400   1.185   8.367  2.7232  1.6183 -1.6075
 8033SOL     OW35731   2.464   3.979   8.077  0.4140 -0.3671 -0.2273
 8033SOL    HW135732   2.429   4.014   8.159  1.1084 -1.6982  0.6522
 8033SOL    HW235733   2.525   4.050   8.057  0.3153 -0.2519 -0.1171
 8034SOL     OW35734   4.144   3.048   6.316 -0.5183  0.1847 -0.4601
 8034SOL    HW135735   4.128   2.954   6.323 -3.7107  0.6126 -2.1439
 8034SOL    HW235736   4.163   3.069   6.408 -1.0310 -1.7141  0.0795
 8035SOL     OW35737   0.460   0.881   6.666  0.4315  0.4125 -0.2756
 8035SOL    HW135738   0.531   0.894   6.604  1.5519 -0.3795  0.8206
 8035SOL    HW235739   0.513   0.839   6.734  1.1027 -0.6185 -1.4374
 8036SOL     OW35740   1.023   1.624   8.104  0.0931  0.5711 -0.2129
 8036SOL    HW135741   1.057   1.659   8.186  2.1838 -2.8971  0.4120
 8036SOL    HW235742   1.058   1.535   8.107  2.6894  1.5912 -0.0861
 8037SOL     OW35743   3.932   1.989   6.943 -0.9476  0.0639  0.2076
 8037SOL    HW135744   3.838   1.974   6.952 -0.3843 -2.0657  2.6101
 8037SOL    HW235745   3.958   1.957   6.857 -0.3312  0.2029  0.3396
 8038SOL     OW35746   0.548   2.795   2.203  0.3290  0.3179  0.1423
 8038SOL    HW135747   0.526   2.711   2.161  0.3385  0.1990  0.3757
 8038SOL    HW235748   0.495   2.859   2.155  0.6471 -0.0522 -0.7116
 8039SOL     OW35749   2.361   1.183   5.439  0.1716 -1.0471  1.2025
 8039SOL    HW135750   2.321   1.099   5.459 -2.9373  0.4140  1.0504
 8039SOL    HW235751   2.303   1.256   5.461  1.4200  0.7004 -1.2696
 8040SOL     OW35752   4.097   1.078  16.867 -0.0583 -0.0793 -0.2414
 8040SOL    HW135753   4.125   1.114  16.783  1.8382 -0.3695  0.2466
 8040SOL    HW235754   4.054   0.995  16.848  2.8192 -1.2353 -1.7852
 8041SOL     OW35755   2.321   4.505   5.984  0.0654 -0.8557  0.6206
 8041SOL    HW135756   2.372   4.488   6.063 -0.4326 -1.4257  0.8129
 8041SOL    HW235757   2.233   4.479   6.009 -0.4621 -0.5056 -0.8648
 8042SOL     OW35758   1.750   3.778   6.853  0.3605  0.4878  0.0384
 8042SOL    HW135759   1.704   3.785   6.936  1.7856  0.9651  0.7830
 8042SOL    HW235760   1.779   3.688   6.837  1.7285  0.8587  0.4569
 8043SOL     OW35761   2.785   4.117   9.042 -0.5700  0.5762 -0.0626
 8043SOL    HW135762   2.823   4.048   9.095 -2.0950 -0.1887  0.0432
 8043SOL    HW235763   2.833   4.102   8.960 -1.5517 -1.0929 -0.3243
 8044SOL     OW35764   2.012   4.027   0.294  0.0418  0.2364 -0.8546
 8044SOL    HW135765   1.940   4.088   0.313  1.3185  1.8930 -1.3507
 8044SOL    HW235766   1.980   4.003   0.207  0.2625 -1.1859 -0.5421
 8045SOL     OW35767   1.647   0.227   0.150 -0.2004 -0.9297 -0.1770
 8045SOL    HW135768   1.626   0.142   0.112  1.5461 -1.6510  0.4572
 8045SOL    HW235769   1.559   0.264   0.151  1.0712  2.1342 -0.4589
 8046SOL     OW35770   4.308   4.735   7.166  0.9512 -0.2029  0.3979
 8046SOL    HW135771   4.296   0.080   7.124 -1.4177 -1.1348 -0.7878
 8046SOL    HW235772   4.308   4.684   7.085 -1.0121  2.0370 -1.0313
 8047SOL     OW35773   1.440   4.110   8.146  0.0873 -0.3043  0.4009
 8047SOL    HW135774   1.432   4.061   8.229 -1.2838 -0.1597  0.3646
 8047SOL    HW235775   1.448   4.203   8.167 -2.4717  0.0675 -0.2402
 8048SOL     OW35776   1.122   0.357   0.466 -0.5996  0.0714 -0.7844
 8048SOL    HW135777   1.074   0.283   0.430  1.2630 -2.0767  1.2074
 8048SOL    HW235778   1.136   0.325   0.555 -0.6531 -2.0369 -1.5346
 8049SOL     OW35779   3.865   3.874  15.924 -0.3083  0.6161 -0.0580
 8049SOL    HW135780   3.917   3.879  16.003 -0.6314 -1.2904  0.2678
 8049SOL    HW235781   3.922   3.935  15.877  1.2240  0.4757  1.6293
 8050SOL     OW35782   3.907   3.799   6.508 -0.1965  0.2277  0.1763
 8050SOL    HW135783   3.971   3.814   6.577 -0.1791 -1.5790  0.5429
 8050SOL    HW235784   3.966   3.758   6.444  1.2573 -0.8794  2.2268
 8051SOL     OW35785   4.575   3.067   3.481 -0.1795 -0.1142  0.1628
 8051SOL    HW135786   4.607   3.156   3.498 -0.3615  0.3779 -2.0883
 8051SOL    HW235787   4.663   3.033   3.466 -1.4738 -3.5215  0.2679
 8052SOL     OW35788   0.403   3.242   9.111  0.7125  0.2465  0.4206
 8052SOL    HW135789   0.350   3.194   9.173 -0.5273  3.0262  1.4918
 8052SOL    HW235790   0.430   3.317   9.163 -0.0921  1.7037 -1.2617
 8053SOL     OW35791   0.099   0.375   0.107 -0.1981  0.1658 -0.1876
 8053SOL    HW135792   0.043   0.448   0.080  0.0343  1.2452  2.2673
 8053SOL    HW235793   0.041   0.309   0.068 -1.2486 -0.0868  1.8254
 8054SOL     OW35794   0.550   0.643   5.638  0.0709  0.0086  0.2030
 8054SOL    HW135795   0.602   0.723   5.648 -2.6533  2.1847 -2.6737
 8054SOL    HW235796   0.519   0.620   5.725 -0.7295 -1.3834 -0.4569
 8055SOL     OW35797   0.796   1.382   4.213 -0.5212 -0.2280 -0.1341
 8055SOL    HW135798   0.806   1.457   4.154  0.9235 -0.5350 -0.2860
 8055SOL    HW235799   0.868   1.323   4.191 -1.2829 -1.2431  0.1240
 8056SOL     OW35800   2.524   3.651   5.828 -0.0759  0.1807  0.1669
 8056SOL    HW135801   2.529   3.740   5.863 -2.2561 -0.5170  2.2529
 8056SOL    HW235802   2.495   3.669   5.739 -1.9621 -1.7936  0.3575
 8057SOL     OW35803   2.972   3.620  10.087  0.2212  0.6009  0.4868
 8057SOL    HW135804   3.041   3.559  10.058 -0.1502 -0.5610  2.0218
 8057SOL    HW235805   3.019   3.703  10.091 -0.3187  1.0103 -1.7996
 8058SOL     OW35806   3.104   2.059   7.506  0.4184 -0.2666 -0.1100
 8058SOL    HW135807   3.103   2.155   7.514 -1.6637 -0.3395  0.4102
 8058SOL    HW235808   3.057   2.038   7.586 -0.8622  0.8531 -0.5508
 8059SOL     OW35809   3.544   2.423   2.526 -0.2261 -0.3067 -0.0694
 8059SOL    HW135810   3.499   2.502   2.554  0.5141 -0.0653  0.4519
 8059SOL    HW235811   3.468   2.376   2.492 -0.9881  3.5666 -3.6815
 8060SOL     OW35812   2.555   0.517  14.223  0.3080  0.2389  0.0922
 8060SOL    HW135813   2.530   0.491  14.312  0.2362 -2.6675 -0.7771
 8060SOL    HW235814   2.496   0.591  14.210 -0.3674  0.1858  2.9078
 8061SOL     OW35815   1.394   4.348  15.928  0.5818  0.0612 -0.4996
 8061SOL    HW135816   1.311   4.300  15.926 -0.0685  1.1835 -0.3392
 8061SOL    HW235817   1.422   4.351  15.837  1.5871  0.6089 -0.1751
 8062SOL     OW35818   2.306   4.739  14.622  0.3197 -0.4317 -0.4090
 8062SOL    HW135819   2.399   0.009  14.601  0.6480 -0.0901  1.2369
 8062SOL    HW235820   2.312   4.651  14.660  0.1300 -1.2692 -2.3328
 8063SOL     OW35821   4.456   0.286  11.667  0.7732  0.2170  0.4757
 8063SOL    HW135822   4.389   0.297  11.734  1.1928  0.6137  0.8259
 8063SOL    HW235823   4.410   0.229  11.605  3.9485 -0.5111 -1.2353
 8064SOL     OW35824   1.558   2.633  16.946  0.6710  0.1486  0.2721
 8064SOL    HW135825   1.591   2.585  16.871 -0.8599  1.7459 -1.4292
 8064SOL    HW235826   1.635   2.629  17.003  1.4321  0.6485 -0.7327
 8065SOL     OW35827   3.534   3.811  14.327  0.2549 -0.0547 -0.3511
 8065SOL    HW135828   3.554   3.747  14.258 -3.0718  0.5248 -1.8378
 8065SOL    HW235829   3.621   3.844  14.350  0.1906 -1.1161  1.3845
 8066SOL     OW35830   0.457   4.160  12.573  0.4477 -0.2185  0.0217
 8066SOL    HW135831   0.406   4.198  12.645  1.9890  1.4569  0.2096
 8066SOL    HW235832   0.386   4.109  12.532 -1.6058  2.2825  0.4829
 8067SOL     OW35833   0.573   1.935   9.923  0.1489  0.3046 -0.5018
 8067SOL    HW135834   0.613   1.891   9.848  0.2998 -0.1608 -0.1461
 8067SOL    HW235835   0.603   1.881   9.996  0.8153 -0.2947 -1.2115
 8068SOL     OW35836   0.636   3.935   2.175  0.3984  0.2952  0.0914
 8068SOL    HW135837   0.544   3.932   2.199  0.5401  1.7748  0.8409
 8068SOL    HW235838   0.627   3.926   2.080 -0.1179 -0.6813  0.2366
 8069SOL     OW35839   2.866   2.124   2.203 -0.5304  0.3656  0.3134
 8069SOL    HW135840   2.871   2.141   2.109 -1.6569  1.3820  0.4321
 8069SOL    HW235841   2.948   2.165   2.229 -0.6394  1.3503 -0.8674
 8070SOL     OW35842   4.244   4.701   9.269 -0.1772  0.1286 -0.7913
 8070SOL    HW135843   4.245   4.660   9.183  1.9701 -1.2111 -0.1072
 8070SOL    HW235844   4.197   0.043   9.257  1.4177  1.1492  0.0110
 8071SOL     OW35845   1.584   1.241  12.366  0.6959 -0.0333  0.4349
 8071SOL    HW135846   1.492   1.260  12.384  0.5546 -0.2179 -0.1079
 8071SOL    HW235847   1.588   1.148  12.386  0.9510 -0.4752 -1.6902
 8072SOL     OW35848   3.832   3.392  13.027  0.2181  0.2886  0.3532
 8072SOL    HW135849   3.771   3.416  12.958  1.8201  2.6798 -0.2599
 8072SOL    HW235850   3.918   3.401  12.986 -1.1706 -0.9562 -2.7997
 8073SOL     OW35851   4.389   2.990   5.618  0.2688 -0.5006 -0.0704
 8073SOL    HW135852   4.341   3.057   5.666 -1.2506 -0.7136 -1.3093
 8073SOL    HW235853   4.452   2.958   5.682 -0.2077 -2.6487 -0.6731
 8074SOL     OW35854   2.146   1.333   3.577 -0.7242 -0.7054  0.0198
 8074SOL    HW135855   2.162   1.425   3.555  0.6119 -0.7789  0.6744
 8074SOL    HW235856   2.208   1.289   3.518 -1.0072  2.0352 -2.3565
 8075SOL     OW35857   4.378   2.654  12.308 -0.0300  0.3212 -0.2420
 8075SOL    HW135858   4.359   2.636  12.400  2.0759 -1.6227 -0.1785
 8075SOL    HW235859   4.470   2.627  12.301  0.0750  0.7901 -0.7162
 8076SOL     OW35860   4.245   3.709   2.498  0.8112  0.6800  0.4310
 8076SOL    HW135861   4.295   3.661   2.431  0.0379 -0.5087  0.6939
 8076SOL    HW235862   4.174   3.748   2.447  2.3225  2.4402 -0.3223
 8077SOL     OW35863   2.893   2.299   1.974 -0.0153 -0.0549 -0.1799
 8077SOL    HW135864   2.837   2.373   1.951  1.1390  0.6346 -0.7089
 8077SOL    HW235865   2.936   2.267   1.895  0.9480 -1.1670  0.7801
 8078SOL     OW35866   3.710   2.494   4.063  0.0597  0.4405  0.9387
 8078SOL    HW135867   3.742   2.561   4.002  2.6341 -1.2071  0.4597
 8078SOL    HW235868   3.748   2.518   4.147  0.1651  1.1285  0.6973
 8079SOL     OW35869   3.849   0.044   8.363 -0.2784 -0.4320 -0.3248
 8079SOL    HW135870   3.797   0.113   8.406  1.1511  0.2374  0.3114
 8079SOL    HW235871   3.781   4.717   8.371  0.0349 -0.8457 -1.1743
 8080SOL     OW35872   2.916   0.352   6.925  0.0272  0.5919  0.1018
 8080SOL    HW135873   2.836   0.381   6.882 -1.3322 -2.5824  0.5204
 8080SOL    HW235874   2.916   0.415   6.998 -0.0100 -2.2138  2.5184
 8081SOL     OW35875   1.481   2.005   7.206  0.2513  0.0651 -0.4580
 8081SOL    HW135876   1.392   2.036   7.188 -0.6822 -0.9316  2.3720
 8081SOL    HW235877   1.500   2.049   7.289 -1.0488 -0.5216  0.1458
 8082SOL     OW35878   2.935   2.130   0.177 -0.1661  0.1398  0.0208
 8082SOL    HW135879   2.962   2.176   0.098 -0.5761 -0.1995 -0.3161
 8082SOL    HW235880   2.865   2.188   0.206  0.8696  1.1934  0.4064
 8083SOL     OW35881   0.066   1.111   7.060  0.0644  0.4748 -0.1206
 8083SOL    HW135882   0.125   1.067   6.999 -0.1650 -0.5190  0.3713
 8083SOL    HW235883   0.022   1.172   7.001  0.4759  1.0866  0.2113
 8084SOL     OW35884   2.669   4.603  14.943 -0.5850 -0.7654 -0.2823
 8084SOL    HW135885   2.693   4.629  15.032 -0.3420 -1.7033 -0.0782
 8084SOL    HW235886   2.742   4.636  14.891 -2.1233 -0.1814 -2.0897
 8085SOL     OW35887   4.558   3.413  15.444 -0.3052 -0.1761 -0.5074
 8085SOL    HW135888   4.652   3.415  15.427  0.1007 -1.1424  1.5788
 8085SOL    HW235889   4.539   3.324  15.473  1.3148  0.6839  3.1490
 8086SOL     OW35890   3.559   4.038   0.784  0.6075  0.2855  0.1880
 8086SOL    HW135891   3.479   4.061   0.832  0.3060  0.5149 -0.4327
 8086SOL    HW235892   3.533   3.958   0.738 -1.8627  0.4892  1.2340
 8087SOL     OW35893   1.798   4.497   6.508 -0.7944  0.1925 -0.7061
 8087SOL    HW135894   1.737   4.448   6.562  1.1458 -1.2670  0.1446
 8087SOL    HW235895   1.770   4.584   6.538 -0.1997 -0.1066  0.7290
 8088SOL     OW35896   0.285   3.603   9.046 -0.8790 -0.8953  0.0504
 8088SOL    HW135897   0.229   3.579   9.119 -0.4376 -0.3812  0.5627
 8088SOL    HW235898   0.301   3.695   9.068  1.8869 -1.3923  0.1111
 8089SOL     OW35899   1.918   3.413   9.536  0.8325  0.0346 -0.8726
 8089SOL    HW135900   1.969   3.425   9.456  1.8295  1.3213 -0.0530
 8089SOL    HW235901   1.941   3.501   9.568  0.8227 -0.4399  0.4375
 8090SOL     OW35902   2.795   3.118  16.149 -0.6120 -0.5327  0.1980
 8090SOL    HW135903   2.812   3.173  16.226 -0.1052  1.6670 -1.4819
 8090SOL    HW235904   2.700   3.118  16.153 -0.5462 -5.1588  0.9506
 8091SOL     OW35905   2.229   3.586   3.385  0.2438 -0.5164 -0.4162
 8091SOL    HW135906   2.280   3.509   3.361 -0.7926 -1.1525 -0.5857
 8091SOL    HW235907   2.304   3.640   3.359 -0.2569  0.6725  0.5721
 8092SOL     OW35908   3.504   4.193   0.534 -0.1164  0.2558  0.1657
 8092SOL    HW135909   3.534   4.217   0.621  2.5478 -0.0798 -0.6400
 8092SOL    HW235910   3.410   4.213   0.531 -0.3337 -1.3024 -3.3312
 8093SOL     OW35911   0.838   2.025   4.111 -0.0576 -0.2231  0.3268
 8093SOL    HW135912   0.865   2.000   4.199 -0.7057  0.2449  0.6637
 8093SOL    HW235913   0.781   1.951   4.090 -1.7452  0.3056  2.9731
 8094SOL     OW35914   2.346   1.407   6.098 -0.1981 -0.1912 -0.3745
 8094SOL    HW135915   2.390   1.413   6.183  1.6594 -2.1541 -1.2037
 8094SOL    HW235916   2.346   1.498   6.066  0.5201 -0.3357 -0.8110
 8095SOL     OW35917   2.479   2.228   7.209  0.1602 -0.1436 -0.2222
 8095SOL    HW135918   2.477   2.298   7.143 -1.4023  0.8695  0.9046
 8095SOL    HW235919   2.573   2.228   7.226 -0.3250  1.1310  2.3824
 8096SOL     OW35920   0.700   1.968  12.773  0.1743 -0.7252  0.7282
 8096SOL    HW135921   0.734   2.010  12.695 -1.0601 -0.2958  0.4224
 8096SOL    HW235922   0.770   1.907  12.798 -0.7177 -2.9276 -2.1317
 8097SOL     OW35923   3.457   2.732  15.440  0.5913 -0.6767 -0.3699
 8097SOL    HW135924   3.392   2.662  15.435 -2.1047  1.8840 -0.6570
 8097SOL    HW235925   3.537   2.681  15.423  0.5160 -0.4321 -1.4654
 8098SOL     OW35926   0.295   0.151   6.684 -0.1442 -0.0761  0.3176
 8098SOL    HW135927   0.282   0.163   6.778 -0.3830  1.4568  0.0939
 8098SOL    HW235928   0.257   0.232   6.650  2.2401  1.4701  1.2807
 8099SOL     OW35929   3.128   4.308  16.143  0.1665 -0.3152 -0.1504
 8099SOL    HW135930   3.184   4.332  16.069  1.6245 -0.6796  0.8349
 8099SOL    HW235931   3.047   4.274  16.105 -0.4037 -1.2398  1.8830
 8100SOL     OW35932   2.108   2.717  14.292  0.3666 -0.6071 -0.1535
 8100SOL    HW135933   2.175   2.649  14.285  2.6143  1.5507  0.4871
 8100SOL    HW235934   2.144   2.792  14.245 -0.6315 -0.3213 -0.4454
 8101SOL     OW35935   2.798   4.107   0.275 -0.8304  0.1420  0.3002
 8101SOL    HW135936   2.828   4.048   0.344  0.0030  0.4658  0.2094
 8101SOL    HW235937   2.706   4.080   0.275 -0.5272 -0.8707 -2.7493
 8102SOL     OW35938   3.390   0.014  17.706  0.4999  0.6525  0.0488
 8102SOL    HW135939   3.300   4.726  17.689  1.3312 -0.9874 -1.7222
 8102SOL    HW235940   3.450   4.681  17.692  0.5423  0.4822  1.1449
 8103SOL     OW35941   3.191   1.010  11.361 -0.2020  0.3696 -0.1969
 8103SOL    HW135942   3.243   1.061  11.424 -0.9584  0.5549  0.2708
 8103SOL    HW235943   3.232   1.038  11.279  0.6856  1.3856  0.5790
 8104SOL     OW35944   2.633   0.654   3.884  0.0106  0.6505  0.0996
 8104SOL    HW135945   2.584   0.735   3.871  0.0373  0.7137  0.3877
 8104SOL    HW235946   2.575   0.602   3.829  0.0771 -0.0002  0.6508
 8105SOL     OW35947   1.533   3.125   7.292 -0.1512 -0.3065  0.3973
 8105SOL    HW135948   1.555   3.178   7.369  1.9057 -0.2924 -0.2048
 8105SOL    HW235949   1.439   3.111   7.302 -0.1873  0.1872  0.7743
 8106SOL     OW35950   1.286   3.263   9.252  0.3907 -0.8749 -0.3644
 8106SOL    HW135951   1.210   3.277   9.196  0.6602 -1.4318 -0.8653
 8106SOL    HW235952   1.343   3.337   9.231 -1.8818  0.7636 -0.8328
 8107SOL     OW35953   2.753   0.729   4.923  0.6729 -0.6339 -0.2284
 8107SOL    HW135954   2.753   0.744   5.018  1.9593  2.0223 -0.6667
 8107SOL    HW235955   2.661   0.734   4.897  0.7371 -2.3367 -0.8267
 8108SOL     OW35956   1.258   2.623   3.658 -0.4278  0.7302 -0.1089
 8108SOL    HW135957   1.344   2.610   3.619 -1.6068 -0.6964 -2.2563
 8108SOL    HW235958   1.278   2.656   3.746  1.2175  0.8168 -0.5197
 8109SOL     OW35959   2.569   3.648  10.354 -0.5556  0.0721 -0.1701
 8109SOL    HW135960   2.502   3.644  10.422 -2.0622 -0.2355 -1.6805
 8109SOL    HW235961   2.651   3.673  10.397  0.0067 -2.9461  0.5502
 8110SOL     OW35962   2.223   2.128  16.605  0.1361 -0.4791 -0.5137
 8110SOL    HW135963   2.240   2.068  16.533 -1.9206 -0.7889 -0.7330
 8110SOL    HW235964   2.273   2.207  16.582  0.4486 -0.0868  1.4752
 8111SOL     OW35965   2.134   1.320  10.803 -0.0653  0.2029  0.5607
 8111SOL    HW135966   2.177   1.335  10.719  0.6579 -0.4386  0.8121
 8111SOL    HW235967   2.208   1.347  10.858  1.0990 -0.2006 -0.8066
 8112SOL     OW35968   3.344   0.227   4.436 -0.1780  0.4185 -0.3984
 8112SOL    HW135969   3.398   0.149   4.428 -2.2575 -1.1384  0.7311
 8112SOL    HW235970   3.404   0.279   4.490 -0.9068  0.5379  0.2927
 8113SOL     OW35971   1.867   0.871   6.159  0.0943 -0.5228  0.1786
 8113SOL    HW135972   1.951   0.857   6.201  0.0897  0.2638  0.4653
 8113SOL    HW235973   1.888   0.876   6.066 -3.0972  1.0151 -0.4727
 8114SOL     OW35974   4.324   4.137   2.633 -0.2797  0.5554 -0.0592
 8114SOL    HW135975   4.314   4.044   2.652  2.3376  0.3434  0.2238
 8114SOL    HW235976   4.380   4.133   2.556 -0.4917  1.5144 -0.2712
 8115SOL     OW35977   3.430   2.721  11.471 -0.4290  0.0693  0.5866
 8115SOL    HW135978   3.347   2.680  11.447  0.0101 -0.3070 -0.3076
 8115SOL    HW235979   3.450   2.687  11.558 -3.0426 -1.2450  0.6879
 8116SOL     OW35980   3.205   1.698   7.182  0.0920  0.0419  0.3513
 8116SOL    HW135981   3.140   1.731   7.120  2.2865  0.8935 -1.4770
 8116SOL    HW235982   3.222   1.777   7.233  1.7408 -0.1137  0.0215
 8117SOL     OW35983   3.177   2.072   7.918 -0.3478 -0.6319 -0.0473
 8117SOL    HW135984   3.248   2.111   7.867 -2.3344  0.2176 -2.1568
 8117SOL    HW235985   3.211   1.983   7.931  3.3401  0.4914 -2.0914
 8118SOL     OW35986   4.638   2.893  10.049 -0.2024  0.2398 -0.8792
 8118SOL    HW135987   4.717   2.838  10.045 -0.7364 -0.5836  0.1379
 8118SOL    HW235988   4.592   2.857   9.973 -3.8597 -1.0670  1.9884
 8119SOL     OW35989   2.798   4.297  15.335 -0.7380 -0.4522  0.0844
 8119SOL    HW135990   2.849   4.320  15.258 -0.0604  0.0032  0.6749
 8119SOL    HW235991   2.708   4.320  15.311  0.0358  1.3052 -1.0943
 8120SOL     OW35992   0.939   0.253   9.053  0.5055  0.0596  0.5589
 8120SOL    HW135993   1.027   0.226   9.079 -0.1354  0.0964  2.7898
 8120SOL    HW235994   0.967   0.295   8.973 -0.4846 -1.8920 -0.8331
 8121SOL     OW35995   1.343   0.228   7.962 -0.6086 -0.6229  0.8745
 8121SOL    HW135996   1.404   0.164   7.999 -0.7090 -0.8070  0.7170
 8121SOL    HW235997   1.314   0.278   8.039  1.1289 -3.5329  3.4189
 8122SOL     OW35998   0.814   4.611   2.710  0.5588  0.0048 -0.2325
 8122SOL    HW135999   0.835   4.629   2.802  0.8111 -0.9314 -0.0979
 8122SOL    HW236000   0.740   4.670   2.696  1.2162  1.0952  0.8326
 8123SOL     OW36001   2.455   4.346   6.608 -0.1350 -0.2012  0.1242
 8123SOL    HW136002   2.538   4.343   6.656 -0.4144  1.4290  0.6901
 8123SOL    HW236003   2.461   4.439   6.585  3.0658 -0.1136  1.2053
 8124SOL     OW36004   1.544   4.028   3.634  0.5090  0.1840 -0.5913
 8124SOL    HW136005   1.619   4.088   3.631 -0.0200  0.8461 -0.5008
 8124SOL    HW236006   1.495   4.058   3.557 -1.7493 -0.6128  0.5545
 8125SOL     OW36007   0.581   4.719   5.887 -0.2104  0.0007  0.9717
 8125SOL    HW136008   0.634   4.640   5.879  2.3615  1.9871 -1.3475
 8125SOL    HW236009   0.506   4.706   5.828  1.3343 -1.5577 -0.6213
 8126SOL     OW36010   1.282   0.916   2.650  0.0658  0.3636  0.1347
 8126SOL    HW136011   1.213   0.979   2.672  1.1852  1.4550  0.5392
 8126SOL    HW236012   1.358   0.974   2.639 -0.4687  1.4288  2.1043
 8127SOL     OW36013   1.292   4.257   6.855  0.5266  0.0316  0.0004
 8127SOL    HW136014   1.375   4.239   6.899  0.8478  0.9243 -0.2330
 8127SOL    HW236015   1.263   4.328   6.913  1.0257 -1.4382  2.0387
 8128SOL     OW36016   1.151   1.341   4.438 -0.2594 -0.0838  0.2315
 8128SOL    HW136017   1.216   1.271   4.431 -2.0833 -1.9594  1.9794
 8128SOL    HW236018   1.095   1.294   4.500  1.3060 -4.6607 -1.8435
 8129SOL     OW36019   3.580   4.469  16.021  0.6108 -0.2931 -0.2798
 8129SOL    HW136020   3.662   4.420  16.010 -1.0722 -2.7640 -1.7677
 8129SOL    HW236021   3.583   4.486  16.115 -0.6748 -0.5190 -0.2097
 8130SOL     OW36022   3.602   1.435  14.474  0.6507  0.5330 -0.8045
 8130SOL    HW136023   3.527   1.375  14.472  0.0615  1.2191  0.3928
 8130SOL    HW236024   3.571   1.520  14.507 -0.4381 -0.3458  0.4452
 8131SOL     OW36025   1.330   1.907   7.679 -0.6018  0.4546 -0.0797
 8131SOL    HW136026   1.286   1.887   7.761  2.3139  0.1822  1.4276
 8131SOL    HW236027   1.263   1.934   7.617 -1.1135 -1.3696 -0.3207
 8132SOL     OW36028   0.345   3.185   1.707  0.2196 -0.4242  0.0724
 8132SOL    HW136029   0.407   3.180   1.780  0.5596 -2.7118 -0.3898
 8132SOL    HW236030   0.408   3.209   1.639 -0.3478 -1.1498 -0.7036
 8133SOL     OW36031   0.724   1.824   4.467 -0.3249  0.4712 -0.2537
 8133SOL    HW136032   0.710   1.814   4.561 -0.5335 -1.1911 -0.4742
 8133SOL    HW236033   0.736   1.732   4.445  2.3498  0.8325 -0.2884
 8134SOL     OW36034   2.832   2.449   0.510 -0.1998 -0.1556 -0.9164
 8134SOL    HW136035   2.765   2.508   0.543 -0.5235 -2.0358  1.7477
 8134SOL    HW236036   2.803   2.419   0.423 -1.6761  1.5833 -1.0104
 8135SOL     OW36037   0.160   3.909   2.950 -0.0188  0.0147 -0.0495
 8135SOL    HW136038   0.217   3.903   3.028 -0.5036 -1.7127  0.1648
 8135SOL    HW236039   0.142   4.003   2.957  0.1899  0.2422 -2.8465
 8136SOL     OW36040   0.371   0.342  16.729 -0.0273  0.0572 -0.2029
 8136SOL    HW136041   0.306   0.329  16.660  2.0032  1.7174 -2.4104
 8136SOL    HW236042   0.321   0.390  16.795 -0.3047 -0.8246  0.2305
 8137SOL     OW36043   2.765   0.799  15.548 -0.0792  0.1551 -0.0402
 8137SOL    HW136044   2.790   0.717  15.505 -2.3736 -0.8203  0.4545
 8137SOL    HW236045   2.847   0.823  15.591 -0.1009 -1.0273  0.6656
 8138SOL     OW36046   4.133   3.515  16.885 -0.1020  0.3665 -0.3517
 8138SOL    HW136047   4.081   3.435  16.889 -1.7541  1.5664  2.0269
 8138SOL    HW236048   4.202   3.493  16.822 -1.1366  1.6194 -1.9263
 8139SOL     OW36049   0.255   3.698   1.556  0.1449  0.3671 -0.2659
 8139SOL    HW136050   0.189   3.741   1.609 -0.9403  1.0743 -2.1826
 8139SOL    HW236051   0.338   3.746   1.559 -0.0913  0.7325  0.2158
 8140SOL     OW36052   0.215   3.743   6.366 -0.1909 -0.0319  0.0851
 8140SOL    HW136053   0.132   3.784   6.390 -0.0143  1.9869 -2.7749
 8140SOL    HW236054   0.182   3.673   6.310 -0.1817  0.1473 -0.1415
 8141SOL     OW36055   2.074   3.914   1.764 -0.1316  0.7103 -0.6592
 8141SOL    HW136056   1.982   3.942   1.768 -0.4429 -0.7470  2.4475
 8141SOL    HW236057   2.070   3.849   1.834 -0.2269  1.8136  0.3579
 8142SOL     OW36058   0.405   2.268   1.601  0.1818  0.3078  0.0030
 8142SOL    HW136059   0.353   2.294   1.678 -0.1349  0.2639 -0.1961
 8142SOL    HW236060   0.391   2.177   1.627  2.5872 -0.4055 -1.1437
 8143SOL     OW36061   3.237   1.944   7.304 -0.1246  0.3094  0.4423
 8143SOL    HW136062   3.204   1.984   7.384 -0.4552  1.0374 -0.0604
 8143SOL    HW236063   3.317   1.997   7.302 -0.3944  0.7464  1.3685
 8144SOL     OW36064   3.103   3.091  14.024  0.4591  0.3664  0.5237
 8144SOL    HW136065   3.091   3.097  13.929  0.5415  0.9004  0.5495
 8144SOL    HW236066   3.031   3.144  14.060  1.6642  2.0636  0.4164
 8145SOL     OW36067   0.876   4.574   4.194 -0.6124 -0.2205  0.2691
 8145SOL    HW136068   0.953   4.546   4.244  0.6600  0.2738 -1.4430
 8145SOL    HW236069   0.912   4.589   4.107 -4.4836 -0.4900 -1.3946
 8146SOL     OW36070   4.143   2.674  12.155  0.2090 -0.0014 -0.1247
 8146SOL    HW136071   4.192   2.691  12.074 -1.1053 -1.8037 -1.2919
 8146SOL    HW236072   4.213   2.683  12.220 -0.7902 -0.4160  1.0147
 8147SOL     OW36073   4.299   2.866   8.119 -0.4105  0.4121 -0.4571
 8147SOL    HW136074   4.338   2.947   8.086  1.1353 -0.1091  0.0628
 8147SOL    HW236075   4.372   2.806   8.106 -0.2825  0.5481 -0.3650
 8148SOL     OW36076   1.486   3.338   5.632 -0.2089  0.2374  0.2331
 8148SOL    HW136077   1.539   3.416   5.612  0.5867 -0.0738  1.1353
 8148SOL    HW236078   1.424   3.372   5.696  0.2969 -0.1676  0.9407
 8149SOL     OW36079   0.160   1.930   1.488 -0.6010 -0.4600 -0.1330
 8149SOL    HW136080   0.117   2.014   1.470  0.2389  0.3765  1.8050
 8149SOL    HW236081   0.225   1.972   1.545 -0.5538  1.2724 -1.4566
 8150SOL     OW36082   4.478   3.907   6.188 -0.2640  0.2383 -0.5646
 8150SOL    HW136083   4.479   3.846   6.114 -0.0380  0.5269 -0.8018
 8150SOL    HW236084   4.421   3.862   6.251  0.5364 -0.9082 -0.6522
 8151SOL     OW36085   0.201   2.392   8.738  0.2796 -0.1131  0.5336
 8151SOL    HW136086   0.286   2.350   8.750  1.7312  1.6550 -3.5071
 8151SOL    HW236087   0.194   2.375   8.644 -3.8710  0.2198  0.7869
 8152SOL     OW36088   0.801   3.119   6.278 -0.2664 -0.4532  0.0881
 8152SOL    HW136089   0.796   3.199   6.330 -0.5221 -0.3257 -0.1315
 8152SOL    HW236090   0.875   3.071   6.314  0.1079 -0.7570 -1.0749
 8153SOL     OW36091   3.276   2.946  11.181 -0.4929 -0.1602 -0.1675
 8153SOL    HW136092   3.316   2.988  11.257 -0.0216 -0.8260 -0.0477
 8153SOL    HW236093   3.247   3.024  11.133  0.9563  1.2885  1.3179
 8154SOL     OW36094   3.779   3.476   5.575  0.0504  0.2801  0.1923
 8154SOL    HW136095   3.696   3.471   5.623 -0.4722  2.2879 -0.5295
 8154SOL    HW236096   3.809   3.385   5.578  2.1060  0.9093 -2.0614
 8155SOL     OW36097   0.847   2.183   8.281  0.1677 -0.4713 -0.5400
 8155SOL    HW136098   0.847   2.226   8.195 -2.9481 -1.8315 -1.2373
 8155SOL    HW236099   0.934   2.204   8.314  0.0809  0.3843 -0.8337
 8156SOL     OW36100   1.918   0.517   3.086  0.7017  0.0378 -0.0098
 8156SOL    HW136101   1.846   0.455   3.094  0.9047  0.0126  1.6437
 8156SOL    HW236102   1.889   0.582   3.151 -0.2025 -0.9587  0.5727
 8157SOL     OW36103   3.229   0.703  13.190  0.7659 -0.3008 -0.0182
 8157SOL    HW136104   3.252   0.670  13.277  0.2500  1.6369  0.8405
 8157SOL    HW236105   3.179   0.625  13.167 -0.0368  0.3032 -0.3052
 8158SOL     OW36106   0.357   0.364   1.946  0.2193  0.7838 -0.0072
 8158SOL    HW136107   0.449   0.342   1.959 -0.0430  0.1557  0.7614
 8158SOL    HW236108   0.332   0.337   1.858 -1.1125  0.0521  0.5966
 8159SOL     OW36109   3.305   0.906   9.343 -0.5106 -0.0197  0.0171
 8159SOL    HW136110   3.247   0.938   9.274  2.0563  0.0085 -2.1165
 8159SOL    HW236111   3.338   0.822   9.311  1.1446  1.3260 -1.7446
 8160SOL     OW36112   3.537   0.867   2.995 -0.3436 -0.4339 -0.1040
 8160SOL    HW136113   3.588   0.816   2.932 -0.7797  0.3917 -1.1168
 8160SOL    HW236114   3.507   0.793   3.048  2.1210 -2.0496 -0.9719
 8161SOL     OW36115   2.342   2.472  14.988  0.1337  0.0922  0.2465
 8161SOL    HW136116   2.293   2.397  15.021  0.9038 -1.2187 -1.6055
 8161SOL    HW236117   2.424   2.448  15.032  0.4854  1.7702  0.5103
 8162SOL     OW36118   0.799   1.512   9.505 -0.5780 -0.2104 -0.5943
 8162SOL    HW136119   0.783   1.604   9.489 -0.9248  0.1274  1.6244
 8162SOL    HW236120   0.752   1.493   9.587 -0.2637 -2.4089 -0.9103
 8163SOL     OW36121   3.020   3.575   5.121  0.1826 -0.2783  0.6000
 8163SOL    HW136122   2.952   3.522   5.162 -1.7479  0.2829 -1.8813
 8163SOL    HW236123   3.088   3.569   5.188  0.0339 -1.7044  0.6223
 8164SOL     OW36124   4.099   3.412   5.509 -0.2139  0.3081  0.1606
 8164SOL    HW136125   4.090   3.450   5.421  2.0481 -2.0328 -1.0784
 8164SOL    HW236126   4.028   3.349   5.496 -1.1855  1.6898 -1.2987
 8165SOL     OW36127   3.654   0.718   2.700  0.1118  0.0543  0.4033
 8165SOL    HW136128   3.693   0.705   2.786  1.4934 -1.2084 -0.4179
 8165SOL    HW236129   3.634   0.628   2.673  0.5463  0.2496 -0.5388
 8166SOL     OW36130   4.262   3.046  14.463  0.1271  0.1269 -0.1518
 8166SOL    HW136131   4.335   3.100  14.494  0.6050 -0.1087 -0.8507
 8166SOL    HW236132   4.198   3.074  14.527 -0.7128 -0.1765 -0.8580
 8167SOL     OW36133   0.028   1.739  11.612 -0.1593 -0.5818  0.1717
 8167SOL    HW136134   0.085   1.775  11.681  0.6475  0.2179 -0.9095
 8167SOL    HW236135   0.030   1.801  11.539 -0.1702 -0.5030  0.2373
 8168SOL     OW36136   2.343   4.265   9.933  0.5430  0.2421 -0.4678
 8168SOL    HW136137   2.264   4.220   9.962  0.4382  0.9252  0.3192
 8168SOL    HW236138   2.326   4.286   9.841 -0.5409 -1.9620 -0.7654
 8169SOL     OW36139   1.515   2.404   9.653 -0.1835  0.1539 -0.3431
 8169SOL    HW136140   1.580   2.467   9.684 -0.0609 -0.1339 -0.0178
 8169SOL    HW236141   1.476   2.446   9.577 -1.6400 -0.6726 -0.0637
 8170SOL     OW36142   0.426   1.327   5.357 -0.0732  0.1686 -0.3876
 8170SOL    HW136143   0.489   1.312   5.286  2.4333  0.0383  1.8362
 8170SOL    HW236144   0.444   1.249   5.410  0.8051  0.7073  0.1005
 8171SOL     OW36145   0.891   3.559   6.335 -0.1922  0.2457  0.3490
 8171SOL    HW136146   0.954   3.562   6.263 -1.2129 -1.0672 -0.6074
 8171SOL    HW236147   0.824   3.619   6.302  0.9870  1.6417  0.4978
 8172SOL     OW36148   1.861   3.477  17.421 -0.1577 -0.1622  0.4421
 8172SOL    HW136149   1.775   3.515  17.404 -0.1885 -0.8784 -0.9743
 8172SOL    HW236150   1.896   3.534  17.490  1.7862 -0.2144 -0.5009
 8173SOL     OW36151   4.203   4.507   1.828 -0.4189  0.2456  0.0969
 8173SOL    HW136152   4.195   4.490   1.922  0.2137  0.0051  0.1029
 8173SOL    HW236153   4.146   4.440   1.791  1.4124  0.1029 -2.4398
 8174SOL     OW36154   4.411   0.621   3.251 -0.2898 -0.4581  0.0340
 8174SOL    HW136155   4.440   0.606   3.161 -1.3083  2.7612 -0.8478
 8174SOL    HW236156   4.477   0.569   3.296  1.4336  2.6962  1.1681
 8175SOL     OW36157   0.596   0.466   4.199 -0.1891  0.0706 -0.2413
 8175SOL    HW136158   0.676   0.499   4.158 -0.6268  1.3954 -0.0081
 8175SOL    HW236159   0.634   0.399   4.257 -0.0219 -0.9022 -1.4732
 8176SOL     OW36160   0.161   2.649   8.131  0.2118 -0.2955  0.2000
 8176SOL    HW136161   0.168   2.565   8.086 -0.0273 -1.2305  1.9010
 8176SOL    HW236162   0.138   2.625   8.221  0.0811 -0.3107  0.1632
 8177SOL     OW36163   2.472   0.694   6.256 -0.3818 -0.1342 -0.0147
 8177SOL    HW136164   2.544   0.749   6.224 -0.2855  1.7634  3.3847
 8177SOL    HW236165   2.517   0.611   6.236 -2.1978 -1.3929  1.1599
 8178SOL     OW36166   3.982   0.590   6.893  0.4068 -0.6097 -0.4238
 8178SOL    HW136167   3.992   0.592   6.798 -1.6030 -0.9085 -0.6402
 8178SOL    HW236168   3.894   0.626   6.896  1.7452  2.6011  0.7684
 8179SOL     OW36169   1.396   1.377  15.818 -0.3926 -0.2322 -0.3790
 8179SOL    HW136170   1.411   1.458  15.867 -0.4639  0.9266 -2.2398
 8179SOL    HW236171   1.422   1.322  15.891 -2.4083 -1.1709 -0.3933
 8180SOL     OW36172   3.210   1.019   4.135 -0.1665 -0.3972 -0.2525
 8180SOL    HW136173   3.168   0.966   4.067 -1.0048  0.5726 -0.4916
 8180SOL    HW236174   3.134   1.058   4.178 -0.4205  0.9216 -1.9097
 8181SOL     OW36175   1.203   4.727   6.409 -0.0329  0.3112  0.1684
 8181SOL    HW136176   1.141   0.058   6.425 -0.2157 -0.7785  4.2590
 8181SOL    HW236177   1.221   4.684   6.492  2.4198  0.6648 -0.1795
 8182SOL     OW36178   2.086   0.809   6.319 -0.3557  0.0429  0.3191
 8182SOL    HW136179   2.165   0.863   6.316 -0.5920  0.4801  1.8693
 8182SOL    HW236180   2.125   0.725   6.342  0.7303  0.5629  0.3645
 8183SOL     OW36181   3.102   0.677  15.896 -0.1708 -0.0320  0.4665
 8183SOL    HW136182   3.188   0.683  15.853  0.6711  1.3432  2.3262
 8183SOL    HW236183   3.131   0.671  15.988  1.8225  1.9765 -0.0135
 8184SOL     OW36184   0.250   3.735   1.944 -0.6705 -0.3087  0.0939
 8184SOL    HW136185   0.324   3.719   2.002 -0.6560 -0.6975 -0.0343
 8184SOL    HW236186   0.224   3.646   1.919 -0.6581 -0.5417  0.9111
 8185SOL     OW36187   1.835   2.814   4.084  0.2728  0.5745 -0.1105
 8185SOL    HW136188   1.894   2.821   4.160  0.6427 -1.6235 -0.2008
 8185SOL    HW236189   1.775   2.886   4.102 -0.7682 -0.5199  0.8030
 8186SOL     OW36190   3.357   1.290  14.480 -0.0772  0.1637  0.1359
 8186SOL    HW136191   3.271   1.331  14.472  1.7652  4.2606  1.4302
 8186SOL    HW236192   3.339   1.202  14.445 -1.0007 -0.1487  1.4059
 8187SOL     OW36193   2.016   2.844  16.148 -0.3279 -0.2029  0.1271
 8187SOL    HW136194   2.096   2.847  16.200 -0.7838  2.8898  0.6680
 8187SOL    HW236195   2.048   2.880  16.065 -1.9925 -2.2671 -1.4048
 8188SOL     OW36196   2.804   3.554   3.956 -0.1771 -0.7630 -0.2333
 8188SOL    HW136197   2.827   3.479   4.010  1.4646 -0.4497 -0.5141
 8188SOL    HW236198   2.787   3.621   4.022 -1.0240  0.0471 -1.2604
 8189SOL     OW36199   1.081   1.650  12.777  0.0652 -0.1529 -0.2903
 8189SOL    HW136200   1.049   1.565  12.809 -2.6564  0.7698 -0.5682
 8189SOL    HW236201   1.084   1.697  12.860  2.7959 -1.3137  0.2724
 8190SOL     OW36202   2.885   3.287   3.461  0.4144 -0.1291  0.0874
 8190SOL    HW136203   2.860   3.379   3.472  1.7809  0.5835 -2.7255
 8190SOL    HW236204   2.979   3.302   3.467  0.3466 -0.3402  1.7736
 8191SOL     OW36205   2.189   0.572   6.416  0.2695 -0.0229 -0.4467
 8191SOL    HW136206   2.264   0.513   6.419  0.0053 -0.3885 -1.0662
 8191SOL    HW236207   2.118   0.512   6.438  0.5305 -0.4792 -0.8575
 8192SOL     OW36208   2.882   3.384   4.856  0.5653  0.4183  0.0928
 8192SOL    HW136209   2.974   3.367   4.873  0.4859 -0.1016 -0.0067
 8192SOL    HW236210   2.893   3.386   4.761 -2.5468 -1.5948 -0.3153
 8193SOL     OW36211   0.307   0.173   3.885  0.2538 -0.2246  0.5086
 8193SOL    HW136212   0.373   0.242   3.891 -1.0008  1.1459 -1.4191
 8193SOL    HW236213   0.354   0.111   3.940  1.4169 -1.2341 -1.6126
 8194SOL     OW36214   4.124   4.068   3.101 -0.1546 -0.4937  0.2640
 8194SOL    HW136215   4.115   4.093   3.193 -2.0874  1.7554 -0.5303
 8194SOL    HW236216   4.198   4.127   3.082  0.2397 -1.5826 -1.6144
 8195SOL     OW36217   3.690   2.863   4.770 -0.1241  0.3713 -0.2251
 8195SOL    HW136218   3.607   2.839   4.729 -0.3219 -0.1345  0.4735
 8195SOL    HW236219   3.692   2.956   4.747 -1.6090  0.3674 -0.3751
 8196SOL     OW36220   0.691   0.931  14.935 -0.1875  0.6318 -0.5848
 8196SOL    HW136221   0.785   0.932  14.952 -0.1210 -2.1411 -0.7581
 8196SOL    HW236222   0.663   0.898  15.020  0.4476 -0.4562 -0.7981
 8197SOL     OW36223   4.073   1.023   3.951 -0.0979 -0.2155  0.2646
 8197SOL    HW136224   3.981   1.028   3.926 -0.1214 -0.6096  0.2688
 8197SOL    HW236225   4.092   0.940   3.908 -0.9444 -0.5964  0.6301
 8198SOL     OW36226   4.002   2.031  15.929 -0.0119  0.7845  0.1715
 8198SOL    HW136227   4.086   2.068  15.955 -0.3673  1.7223 -0.0432
 8198SOL    HW236228   3.947   2.070  15.997  1.5153  0.9808  1.2918
 8199SOL     OW36229   2.164   4.610   9.905  0.2305 -0.5759 -0.3161
 8199SOL    HW136230   2.082   4.626   9.859 -0.5229  1.7871  1.8381
 8199SOL    HW236231   2.205   4.697   9.898 -0.1314 -0.4373 -0.7296
 8200SOL     OW36232   0.971   3.151  17.123  0.5988 -0.0511  0.0420
 8200SOL    HW136233   1.024   3.086  17.076 -2.7203 -0.8664 -2.5398
 8200SOL    HW236234   0.909   3.089  17.162  2.9328 -0.7099  2.7305
 8201SOL     OW36235   0.476   0.999   3.104 -0.1706 -0.3784 -0.3608
 8201SOL    HW136236   0.438   0.924   3.150 -2.0664 -0.0422 -1.3447
 8201SOL    HW236237   0.427   0.993   3.022  0.7386  2.8056 -1.1451
 8202SOL     OW36238   4.377   1.125  16.918 -0.3033 -0.3236 -0.8078
 8202SOL    HW136239   4.385   1.172  16.835 -0.8108  0.5743 -0.3456
 8202SOL    HW236240   4.283   1.108  16.909 -0.5391  0.7418 -0.3882
 8203SOL     OW36241   4.591   4.655   7.114  0.0322 -0.5616 -0.2478
 8203SOL    HW136242   4.505   4.695   7.111 -0.7745 -2.2454  0.6433
 8203SOL    HW236243   4.648   4.728   7.089 -1.5586  0.4921 -0.7797
 8204SOL     OW36244   3.670   1.625   1.979  0.4397  0.2749  0.0020
 8204SOL    HW136245   3.701   1.706   2.021  0.2618  0.3591 -0.0300
 8204SOL    HW236246   3.582   1.656   1.957 -0.2633 -2.0879 -0.5823
 8205SOL     OW36247   1.134   4.234   5.710 -0.1174  0.0562 -0.2002
 8205SOL    HW136248   1.105   4.149   5.678  2.1795 -0.7181 -0.2185
 8205SOL    HW236249   1.220   4.247   5.669  0.6792  1.3457  1.8696
 8206SOL     OW36250   4.566   3.052   8.016 -0.5751  0.2727 -0.2239
 8206SOL    HW136251   4.586   3.112   7.944 -1.9668 -0.5951 -1.3526
 8206SOL    HW236252   4.619   2.973   8.004  1.0471  1.2391  0.6768
 8207SOL     OW36253   0.117   0.979   1.886 -0.1728 -0.1606 -0.2352
 8207SOL    HW136254   0.200   1.026   1.884 -0.0935 -0.2012  1.8053
 8207SOL    HW236255   0.148   0.899   1.929 -1.1432 -0.8886 -0.9039
 8208SOL     OW36256   2.874   3.961  16.603  0.7567 -0.5936 -0.0029
 8208SOL    HW136257   2.823   3.990  16.679  0.6002  0.9630 -0.7001
 8208SOL    HW236258   2.819   3.887  16.578  0.3826 -0.3458  0.0830
 8209SOL     OW36259   1.119   1.602   6.468  0.7704 -0.1720 -0.3086
 8209SOL    HW136260   1.077   1.522   6.497 -1.3471  1.1016  0.1890
 8209SOL    HW236261   1.170   1.571   6.394  0.7501  3.0443 -1.6901
 8210SOL     OW36262   3.627   2.453   1.802  0.2490 -0.6020  0.1995
 8210SOL    HW136263   3.655   2.544   1.802 -1.2900 -0.1373  0.1840
 8210SOL    HW236264   3.566   2.452   1.875  2.3089 -1.2648  1.9103
 8211SOL     OW36265   2.632   0.132  12.870 -0.2894 -0.1758  0.1056
 8211SOL    HW136266   2.651   0.041  12.846  3.3421  0.1024  1.9624
 8211SOL    HW236267   2.699   0.157  12.934 -2.0581  1.2425  1.4097
 8212SOL     OW36268   2.425   4.220   7.784  0.3245  0.2960  0.2476
 8212SOL    HW136269   2.425   4.269   7.867  0.3051  2.1176 -0.8380
 8212SOL    HW236270   2.337   4.182   7.794  0.6539 -0.5398 -0.0329
 8213SOL     OW36271   3.282   1.806  16.542 -0.1715 -0.1294  0.6746
 8213SOL    HW136272   3.332   1.724  16.543  0.5124  0.2917  0.6728
 8213SOL    HW236273   3.259   1.817  16.635  0.2452  0.5280  0.7006
 8214SOL     OW36274   3.836   2.031  16.738 -0.4585 -0.5009  0.1702
 8214SOL    HW136275   3.895   1.987  16.677  0.7103 -2.1263  2.4534
 8214SOL    HW236276   3.753   2.038  16.689  0.2915 -0.1078 -1.0444
 8215SOL     OW36277   0.951   4.740   9.974 -0.2261  0.1576 -0.4029
 8215SOL    HW136278   0.990   4.706   9.893 -2.2966 -0.1194 -1.2719
 8215SOL    HW236279   1.019   0.007  10.041 -0.0695 -0.7741 -0.4556
 8216SOL     OW36280   3.890   2.217   2.318 -0.2614 -0.7169 -0.3504
 8216SOL    HW136281   3.871   2.258   2.234 -2.3798 -1.7959 -0.3852
 8216SOL    HW236282   3.851   2.286   2.372  0.9906  0.4770 -0.9780
 8217SOL     OW36283   3.412   2.077   1.274  0.2804 -0.1906  0.0482
 8217SOL    HW136284   3.343   2.075   1.208  2.9738  0.8763 -2.7491
 8217SOL    HW236285   3.372   2.129   1.344  2.2809  0.7210  0.5279
 8218SOL     OW36286   0.406   0.706   8.923 -0.3923 -0.3129 -0.1732
 8218SOL    HW136287   0.356   0.633   8.887 -1.9067 -0.1254  1.5716
 8218SOL    HW236288   0.486   0.654   8.909  1.3826  2.2364  0.4187
 8219SOL     OW36289   2.458   0.622   4.145 -0.0197 -0.5251  0.4163
 8219SOL    HW136290   2.393   0.572   4.095 -1.9521 -1.2732  3.6534
 8219SOL    HW236291   2.399   0.672   4.202 -2.0598 -1.9003 -0.4505
 8220SOL     OW36292   3.083   3.820   1.696 -0.6683  0.0405 -0.1296
 8220SOL    HW136293   3.022   3.892   1.682 -0.4454  0.4744  1.1546
 8220SOL    HW236294   3.044   3.762   1.761 -0.1796  1.3419  1.3180
 8221SOL     OW36295   0.288   2.408   3.799  0.0874 -0.4592  0.0307
 8221SOL    HW136296   0.273   2.329   3.748  0.2734 -1.2888  1.2663
 8221SOL    HW236297   0.297   2.362   3.882 -1.7481  0.6533  0.8432
 8222SOL     OW36298   1.389   1.085   7.360 -0.5511 -0.0482  0.6797
 8222SOL    HW136299   1.345   1.025   7.420  0.8430 -2.6097 -0.8116
 8222SOL    HW236300   1.464   1.029   7.339 -1.5271 -1.5617  1.2266
 8223SOL     OW36301   2.379   3.210   4.019  0.7537 -0.0585  0.1037
 8223SOL    HW136302   2.393   3.138   3.958 -2.1626 -0.8260  0.3436
 8223SOL    HW236303   2.285   3.223   4.005  1.2437  1.9114 -1.3707
 8224SOL     OW36304   4.607   2.182   8.700  0.2181 -0.0227 -0.2571
 8224SOL    HW136305   4.639   2.231   8.775  1.2035  0.1837 -0.8184
 8224SOL    HW236306   4.639   2.227   8.622  1.8386  0.3377  0.6279
 8225SOL     OW36307   4.636   0.464   5.123 -0.3204 -0.4727 -0.2401
 8225SOL    HW136308   4.576   0.482   5.196  1.6839  1.1451  1.0230
 8225SOL    HW236309   4.570   0.465   5.054  0.1139  0.6979 -0.6381
 8226SOL     OW36310   0.768   2.992   8.021 -0.4256  0.1684 -0.2281
 8226SOL    HW136311   0.751   3.039   7.939  0.3872  2.5211  0.9424
 8226SOL    HW236312   0.838   3.049   8.055 -0.3112 -0.1803  0.1113
 8227SOL     OW36313   1.305   0.166  17.020  0.1616 -0.4452  0.8171
 8227SOL    HW136314   1.391   0.195  16.990  0.0292 -2.9890 -2.0301
 8227SOL    HW236315   1.304   0.071  17.006 -0.2960 -0.2535 -0.4343
 8228SOL     OW36316   1.869   0.499   7.465 -0.4147  0.3038  0.1474
 8228SOL    HW136317   1.784   0.507   7.422  0.4766  0.8140 -1.5070
 8228SOL    HW236318   1.850   0.539   7.550  0.8286 -0.0836  0.6090
 8229SOL     OW36319   3.086   3.287   8.616 -0.1246 -0.0231 -0.3311
 8229SOL    HW136320   3.110   3.229   8.544  3.3481  1.2878 -0.2296
 8229SOL    HW236321   3.103   3.233   8.694 -0.2396  1.9854  1.0828
 8230SOL     OW36322   0.681   3.525   6.711 -0.6241 -0.0056 -0.7667
 8230SOL    HW136323   0.767   3.512   6.670 -0.2466  1.1791 -0.3588
 8230SOL    HW236324   0.709   3.507   6.801  1.1494  1.1131 -1.0913
 8231SOL     OW36325   1.438   4.440   1.884 -0.3396 -0.2771  0.3769
 8231SOL    HW136326   1.451   4.522   1.932 -0.7338  0.3023 -0.5035
 8231SOL    HW236327   1.344   4.425   1.881 -0.2932 -0.5898  0.5381
 8232SOL     OW36328   2.120   1.331   1.670  0.2559  0.1175  0.2341
 8232SOL    HW136329   2.027   1.343   1.683  0.2966  2.4548 -1.5363
 8232SOL    HW236330   2.124   1.245   1.627  0.7985  0.4218 -0.3381
 8233SOL     OW36331   4.462   1.450  12.986  0.0320 -0.3598  0.4053
 8233SOL    HW136332   4.446   1.509  12.913  0.8996 -2.4391 -1.4930
 8233SOL    HW236333   4.464   1.366  12.940 -2.5123 -0.8881  1.2809
 8234SOL     OW36334   2.550   0.518   7.236  0.2441  0.5797 -0.3347
 8234SOL    HW136335   2.526   0.523   7.143  0.2014  1.2699 -0.2833
 8234SOL    HW236336   2.642   0.543   7.224  0.3663  0.1624 -0.2636
 8235SOL     OW36337   3.475   4.605   3.771  0.2278  0.2455 -0.8962
 8235SOL    HW136338   3.544   4.599   3.838  1.6275  0.9032 -2.2841
 8235SOL    HW236339   3.523   4.563   3.700  1.2998  0.3038 -0.2113
 8236SOL     OW36340   0.945   1.317  17.532 -0.3468 -0.8142 -0.1172
 8236SOL    HW136341   0.931   1.402  17.574  1.7448 -1.5096  2.0202
 8236SOL    HW236342   1.023   1.332  17.479 -1.1126  0.3426 -0.9073
 8237SOL     OW36343   1.966   2.120   8.971  0.2861 -0.1754  0.3347
 8237SOL    HW136344   1.880   2.078   8.981 -0.4114  0.6889 -1.8896
 8237SOL    HW236345   2.018   2.077   9.038 -0.4246 -2.1464 -0.3792
 8238SOL     OW36346   4.144   4.516   4.065 -0.2117 -0.3063  0.3336
 8238SOL    HW136347   4.146   4.587   4.128  1.1466  1.0865 -1.3008
 8238SOL    HW236348   4.179   4.443   4.116  0.1501 -0.4506 -0.1236
 8239SOL     OW36349   2.480   3.427  15.017  0.2442 -0.1758 -0.5729
 8239SOL    HW136350   2.539   3.379  14.959  2.1753  0.3108  0.9727
 8239SOL    HW236351   2.493   3.385  15.103  0.4775 -0.5964 -0.8135
 8240SOL     OW36352   0.587   3.164  13.977  0.4179  0.2075 -0.5840
 8240SOL    HW136353   0.545   3.147  13.892 -2.7811 -0.3673  1.1063
 8240SOL    HW236354   0.566   3.088  14.032 -0.1173  0.2573 -0.7186
 8241SOL     OW36355   2.952   0.195   7.567 -0.0406  0.1029  0.1249
 8241SOL    HW136356   2.995   0.120   7.527  1.3776  1.3130 -0.5973
 8241SOL    HW236357   2.960   0.167   7.659 -1.9610  0.9769  0.5654
 8242SOL     OW36358   3.188   0.328   7.225  0.6849 -0.2947  0.1325
 8242SOL    HW136359   3.150   0.379   7.296 -0.3686  0.7735 -1.1841
 8242SOL    HW236360   3.114   0.268   7.213  1.7178 -1.4839 -0.2967
 8243SOL     OW36361   0.564   1.015   7.182  0.2170 -0.1377 -0.2248
 8243SOL    HW136362   0.490   0.962   7.153  0.6684  0.1634 -1.8870
 8243SOL    HW236363   0.640   0.962   7.156  0.4336  1.2502 -2.3638
 8244SOL     OW36364   3.757   2.967  11.553  0.4610 -0.4321  0.0630
 8244SOL    HW136365   3.812   2.890  11.570 -1.1629 -1.5674  0.1359
 8244SOL    HW236366   3.808   3.045  11.577 -3.5971  1.8832  1.0796
 8245SOL     OW36367   0.027   2.928  11.793  0.8571 -0.3790  0.1442
 8245SOL    HW136368   0.024   2.997  11.859  1.4706 -0.3817  0.1792
 8245SOL    HW236369   0.073   2.958  11.715  0.6352  2.8116  1.2360
 8246SOL     OW36370   0.171   3.262  11.893 -0.6418  0.3432 -0.2463
 8246SOL    HW136371   0.230   3.192  11.919 -1.4895 -0.6357 -0.9368
 8246SOL    HW236372   0.230   3.336  11.906  0.7073 -1.0725  1.4928
 8247SOL     OW36373   1.835   1.048   3.616 -0.4410  0.3273  0.4542
 8247SOL    HW136374   1.772   1.015   3.552  1.8172 -2.7005 -0.1984
 8247SOL    HW236375   1.857   1.136   3.584 -2.9586  0.9749  0.5059
 8248SOL     OW36376   0.751   0.730   2.408  0.0430 -0.3314  0.3070
 8248SOL    HW136377   0.689   0.753   2.339  0.8409 -1.2369 -0.7280
 8248SOL    HW236378   0.701   0.674   2.467  2.3507 -1.5001  1.1494
 8249SOL     OW36379   3.802   4.322   2.420  0.0124  0.5843 -0.0072
 8249SOL    HW136380   3.780   4.319   2.513 -1.7971  0.3353 -0.4395
 8249SOL    HW236381   3.893   4.350   2.410 -0.4379  1.8285 -0.5909
 8250SOL     OW36382   1.809   3.147  10.197 -0.3040  0.3268 -0.0022
 8250SOL    HW136383   1.829   3.141  10.290  1.4019 -0.3495 -0.4193
 8250SOL    HW236384   1.868   3.212  10.158 -1.8151  0.5644 -1.9171
 8251SOL     OW36385   2.421   2.986   3.857  0.1001 -0.2063 -0.0889
 8251SOL    HW136386   2.363   2.921   3.896 -0.2619 -0.5383 -1.1919
 8251SOL    HW236387   2.431   2.942   3.773 -1.0804 -0.6425  0.0125
 8252SOL     OW36388   4.392   4.121   3.833 -0.6035 -0.2739 -0.3145
 8252SOL    HW136389   4.420   4.206   3.866  0.1650 -1.3954  1.9447
 8252SOL    HW236390   4.299   4.137   3.817 -0.7269 -1.6049 -0.9111
 8253SOL     OW36391   4.199   0.611  10.448 -0.0132 -0.0007  0.1192
 8253SOL    HW136392   4.206   0.702  10.475  0.9609  0.7972 -2.8197
 8253SOL    HW236393   4.128   0.587  10.507 -1.0040 -0.6728 -1.3610
 8254SOL     OW36394   0.458   4.161   2.505  0.7532 -0.3077  0.2984
 8254SOL    HW136395   0.510   4.102   2.450  0.2907 -0.0235 -0.4332
 8254SOL    HW236396   0.503   4.243   2.484 -1.0038  0.5385 -0.1162
 8255SOL     OW36397   4.577   3.851   8.916 -0.5478 -0.3090  0.2497
 8255SOL    HW136398   4.599   3.932   8.869  1.8436 -1.6622 -0.9682
 8255SOL    HW236399   4.652   3.792   8.908  0.6289  1.2993 -0.6520
 8256SOL     OW36400   1.388   2.208   6.008  0.5255  0.6182  0.3092
 8256SOL    HW136401   1.356   2.245   6.090  0.6086  1.5107 -0.0518
 8256SOL    HW236402   1.448   2.141   6.040  0.4211  1.5264  2.4051
 8257SOL     OW36403   0.622   3.251   3.174 -0.1598  0.8018  0.1325
 8257SOL    HW136404   0.593   3.320   3.115 -1.6507  1.0042  1.1093
 8257SOL    HW236405   0.675   3.302   3.235  1.4655  0.1460 -0.7177
 8258SOL     OW36406   0.676   4.265  12.843 -0.2575  0.7872  0.3633
 8258SOL    HW136407   0.713   4.258  12.931  2.4272  4.5073 -0.4592
 8258SOL    HW236408   0.745   4.319  12.805 -0.7150  1.4101  0.4134
 8259SOL     OW36409   1.947   3.976   7.304 -0.4914 -0.4026  0.1397
 8259SOL    HW136410   1.966   3.885   7.325  1.0154  0.2627  1.6685
 8259SOL    HW236411   1.940   3.966   7.209  0.1181 -0.3117  0.0811
 8260SOL     OW36412   2.382   3.020  14.480  0.1755 -0.3103 -0.1822
 8260SOL    HW136413   2.436   3.080  14.531  1.0197  0.7449 -2.3010
 8260SOL    HW236414   2.451   2.966  14.441  0.7761  0.2873  0.0415
 8261SOL     OW36415   3.846   2.158   8.564 -0.1794  0.5491 -0.0503
 8261SOL    HW136416   3.804   2.098   8.626  0.5700 -0.1859 -0.2564
 8261SOL    HW236417   3.898   2.105   8.503  0.7740 -1.8752  2.8737
 8262SOL     OW36418   3.436   0.867   5.806 -1.0521  0.3495 -0.4779
 8262SOL    HW136419   3.416   0.948   5.852 -0.5347  0.9239 -1.2678
 8262SOL    HW236420   3.437   0.898   5.716 -0.2569 -0.1337 -0.6392
 8263SOL     OW36421   2.888   2.793   3.820 -0.0009  0.7910 -0.1452
 8263SOL    HW136422   2.817   2.817   3.880  0.4159  1.1589  0.2046
 8263SOL    HW236423   2.964   2.801   3.878 -0.2167 -1.0303  0.3884
 8264SOL     OW36424   4.450   3.658  15.454 -0.0151  0.5377 -0.1165
 8264SOL    HW136425   4.493   3.573  15.446 -1.9211 -0.2677 -1.9395
 8264SOL    HW236426   4.512   3.705  15.510 -1.6495 -0.1213  2.2578
 8265SOL     OW36427   4.698   4.677   7.781 -0.3488  0.0076  0.1716
 8265SOL    HW136428   0.003   4.637   7.707  0.8224 -1.2379  1.5640
 8265SOL    HW236429   4.668   4.606   7.838 -1.8456 -0.3252 -1.0021
 8266SOL     OW36430   1.786   1.699   9.930  0.4350  0.4128 -0.0432
 8266SOL    HW136431   1.719   1.679   9.996  2.4152  1.6184  2.3320
 8266SOL    HW236432   1.749   1.778   9.891 -0.7122 -1.0108 -1.8218
 8267SOL     OW36433   0.582   0.785   6.128  0.1447 -0.1471 -0.6027
 8267SOL    HW136434   0.553   0.842   6.056 -1.5802  0.5809  0.6780
 8267SOL    HW236435   0.540   0.817   6.208  0.1786  0.8460 -0.9739
 8268SOL     OW36436   2.477   0.326  12.832 -0.0402 -0.2267  0.7978
 8268SOL    HW136437   2.399   0.283  12.797 -0.1476  0.1346  0.5888
 8268SOL    HW236438   2.531   0.249  12.848  0.0578  0.0496  1.8371
 8269SOL     OW36439   1.112   0.925   7.887 -0.3809 -0.4933  0.1398
 8269SOL    HW136440   1.077   0.850   7.935 -0.6852 -0.1669  0.4259
 8269SOL    HW236441   1.206   0.912   7.903 -0.0479  0.3359 -1.1085
 8270SOL     OW36442   4.459   1.436  15.050 -0.2182  0.6375  0.3628
 8270SOL    HW136443   4.512   1.375  14.999 -1.6075 -0.0774 -0.2398
 8270SOL    HW236444   4.384   1.446  14.992  0.9020  0.3753 -1.1134
 8271SOL     OW36445   1.907   3.194  15.547  0.1769  0.7589  0.5530
 8271SOL    HW136446   1.875   3.104  15.547  1.3717  0.3353  0.9922
 8271SOL    HW236447   1.991   3.178  15.590 -0.0737 -0.3701  0.6301
 8272SOL     OW36448   3.426   3.736   7.535  0.4861  0.3585  0.2307
 8272SOL    HW136449   3.439   3.642   7.519  1.9106  0.4836  0.6848
 8272SOL    HW236450   3.332   3.735   7.515  0.6721  1.0152 -0.6534
 8273SOL     OW36451   2.590   2.104   4.627  0.3218  0.2990  0.0067
 8273SOL    HW136452   2.571   2.014   4.651 -2.9392  0.8736 -0.4539
 8273SOL    HW236453   2.625   2.135   4.710  1.2444 -0.2444 -0.1785
 8274SOL     OW36454   3.956   3.735   7.675  0.4200  0.2538  0.1731
 8274SOL    HW136455   3.978   3.798   7.744 -0.2260 -1.1739  1.6765
 8274SOL    HW236456   4.044   3.700   7.659 -0.7209 -2.4913 -0.0231
 8275SOL     OW36457   2.046   4.342   3.814 -0.1431  0.1303  0.5894
 8275SOL    HW136458   2.131   4.370   3.780 -0.6269  0.8142 -0.0433
 8275SOL    HW236459   2.068   4.298   3.896  0.1017 -1.7518 -0.4845
 8276SOL     OW36460   1.118   3.432   5.144  0.4631 -0.3884  0.0790
 8276SOL    HW136461   1.132   3.342   5.172 -1.9554 -1.1609 -1.2166
 8276SOL    HW236462   1.091   3.416   5.053 -1.0416 -0.4474  0.5414
 8277SOL     OW36463   4.504   0.557   2.994 -0.1142 -1.3222  0.7052
 8277SOL    HW136464   4.413   0.541   2.970  0.3308 -1.1353 -1.0806
 8277SOL    HW236465   4.542   0.543   2.907  1.9359 -1.1203  1.5846
 8278SOL     OW36466   4.660   0.689   8.354 -0.0564 -0.4451  0.5278
 8278SOL    HW136467   4.675   0.604   8.312 -0.1288 -0.0842 -0.2176
 8278SOL    HW236468   0.012   0.711   8.366 -0.2430  1.5809 -1.8566
 8279SOL     OW36469   0.823   2.856  12.496  0.7225  0.4891  0.1246
 8279SOL    HW136470   0.904   2.899  12.468  1.5219 -0.9135  0.3244
 8279SOL    HW236471   0.810   2.890  12.584  0.5618  0.3193  0.1658
 8280SOL     OW36472   1.309   4.220  15.509  0.0445 -0.3625  0.4577
 8280SOL    HW136473   1.246   4.285  15.540 -0.7562 -1.1279  0.4405
 8280SOL    HW236474   1.257   4.139  15.510 -0.3633 -0.0943  1.0705
 8281SOL     OW36475   0.098   3.386  13.081 -0.1045 -0.4076  0.0257
 8281SOL    HW136476   0.188   3.418  13.095 -0.7745  0.7159  1.7622
 8281SOL    HW236477   0.108   3.333  13.002  2.7189  0.0309  0.0827
 8282SOL     OW36478   3.560   2.960   9.460  0.3168 -0.7819 -0.4649
 8282SOL    HW136479   3.546   3.001   9.546 -0.7819  0.2428 -1.1268
 8282SOL    HW236480   3.472   2.924   9.447  0.2686 -0.6369 -0.5425
 8283SOL     OW36481   3.730   1.720   6.423 -0.5597  0.0108 -0.0455
 8283SOL    HW136482   3.793   1.791   6.414  1.0862 -1.3690  0.6553
 8283SOL    HW236483   3.798   1.655   6.410  0.4933  1.0266  0.3644
 8284SOL     OW36484   0.966   0.373   1.944  0.0267  0.1473  0.1235
 8284SOL    HW136485   0.932   0.445   1.891 -1.0131  0.3527  1.0696
 8284SOL    HW236486   0.947   0.401   2.033 -0.9127  0.9341 -0.3265
 8285SOL     OW36487   4.654   2.480  14.995  0.1145  0.3355  0.2621
 8285SOL    HW136488   4.728   2.426  15.023 -2.0731 -2.5535  0.4634
 8285SOL    HW236489   4.655   2.557  15.051  2.1293  1.4302 -1.2632
 8286SOL     OW36490   3.295   3.237   2.992  0.4447  0.2003  0.2915
 8286SOL    HW136491   3.317   3.324   3.025  0.9291 -0.3120  1.3085
 8286SOL    HW236492   3.373   3.211   2.944  0.8932 -1.6777  2.0288
 8287SOL     OW36493   1.354   4.326   7.510  0.1594  0.0062  0.4494
 8287SOL    HW136494   1.367   4.253   7.451 -2.0443 -1.4957  1.7926
 8287SOL    HW236495   1.339   4.386   7.437  1.3220  0.4649  0.6016
 8288SOL     OW36496   4.308   1.331   9.291 -0.6411 -0.7949 -0.4689
 8288SOL    HW136497   4.267   1.250   9.321 -0.0549 -0.3262  1.6414
 8288SOL    HW236498   4.379   1.330   9.356 -0.1612 -2.0473 -1.0058
 8289SOL     OW36499   2.628   1.386  11.814 -0.2888 -0.5532 -0.0403
 8289SOL    HW136500   2.643   1.292  11.803  0.7504 -0.5567  1.4341
 8289SOL    HW236501   2.670   1.413  11.732 -1.2544  1.2168  0.0564
 8290SOL     OW36502   0.394   2.896  13.825  0.7796  0.3630  0.1219
 8290SOL    HW136503   0.453   2.834  13.782  0.1342 -1.0043  1.2055
 8290SOL    HW236504   0.307   2.859  13.809  0.5632  0.8972  0.0647
 8291SOL     OW36505   3.308   1.977  10.894 -0.6536  0.0095 -0.1129
 8291SOL    HW136506   3.294   1.896  10.945  1.1266  0.2374  0.7215
 8291SOL    HW236507   3.214   1.984  10.876 -0.2324  0.3449 -2.1089
 8292SOL     OW36508   0.886   1.595   9.819  0.2728  0.2071  0.0098
 8292SOL    HW136509   0.913   1.519   9.871  0.9545  0.5242  0.1290
 8292SOL    HW236510   0.975   1.626   9.800  0.1217  0.2279 -0.6606
 8293SOL     OW36511   3.275   2.313  13.629  0.1059 -0.3234  0.4810
 8293SOL    HW136512   3.363   2.283  13.654 -0.2829 -0.6405  1.4569
 8293SOL    HW236513   3.223   2.233  13.624 -1.6561  0.9396 -1.2716
 8294SOL     OW36514   2.833   3.873   7.074  0.2136  0.2975 -0.0807
 8294SOL    HW136515   2.907   3.912   7.028  0.4831 -0.7816 -0.5611
 8294SOL    HW236516   2.767   3.874   7.005 -0.2603 -2.5873  0.3431
 8295SOL     OW36517   1.862   2.964   7.003  0.4634  1.0842  0.6441
 8295SOL    HW136518   1.786   2.944   7.058 -0.3170  1.8919 -0.1473
 8295SOL    HW236519   1.923   2.980   7.075  0.2450 -1.6917  1.4620
 8296SOL     OW36520   0.359   1.001   4.686 -0.6206 -0.0752 -0.1605
 8296SOL    HW136521   0.358   1.084   4.639 -0.6265  0.3121  0.5220
 8296SOL    HW236522   0.302   1.020   4.761  2.0859  0.7619  1.6650
 8297SOL     OW36523   0.502   1.821   2.642 -0.1751  0.2253  0.5763
 8297SOL    HW136524   0.587   1.853   2.670 -0.9779  2.5025  0.4164
 8297SOL    HW236525   0.512   1.726   2.645  1.3255  0.3842  0.2417
 8298SOL     OW36526   1.028   1.207   7.946 -0.0794 -0.2462 -0.0944
 8298SOL    HW136527   1.000   1.254   7.867 -0.8901  0.2196  0.4775
 8298SOL    HW236528   1.051   1.123   7.906  1.2155 -0.7816  1.7838
 8299SOL     OW36529   1.589   3.265   7.519 -0.4626 -0.6239  0.7162
 8299SOL    HW136530   1.671   3.277   7.567 -0.7135 -0.9928  1.2325
 8299SOL    HW236531   1.526   3.303   7.580  1.0283 -1.2103  2.6098
 8300SOL     OW36532   2.208   0.838   6.042 -0.1795  0.2267 -0.8221
 8300SOL    HW136533   2.138   0.894   6.008 -2.0021 -1.8559 -0.4655
 8300SOL    HW236534   2.283   0.853   5.985 -0.3242 -1.8965 -1.5744
 8301SOL     OW36535   2.893   2.182   2.626 -0.2822  0.1149  0.0773
 8301SOL    HW136536   2.910   2.121   2.698  1.3213  0.4510 -0.0203
 8301SOL    HW236537   2.802   2.207   2.645 -0.4665 -0.4227 -0.0895
 8302SOL     OW36538   3.921   1.512   6.421 -0.1923  0.9462 -0.2962
 8302SOL    HW136539   3.986   1.542   6.484 -0.3794 -0.5701  0.6186
 8302SOL    HW236540   3.943   1.542   6.333  0.6015 -0.5672 -0.5972
 8303SOL     OW36541   4.383   2.147  17.418  0.2161 -0.1211  0.1945
 8303SOL    HW136542   4.366   2.175  17.328  1.9095 -0.0067 -0.0930
 8303SOL    HW236543   4.360   2.226  17.468  0.1502  0.8466 -1.3535
 8304SOL     OW36544   1.672   2.720  14.228  0.4484 -0.1742 -0.6419
 8304SOL    HW136545   1.749   2.713  14.286  1.7551  1.5766 -2.1736
 8304SOL    HW236546   1.617   2.651  14.265 -0.8137  1.1682 -0.0134
 8305SOL     OW36547   0.929   0.594   4.248 -0.0054 -0.4196 -0.1526
 8305SOL    HW136548   0.942   0.542   4.168 -0.7807  0.0288 -0.5712
 8305SOL    HW236549   1.019   0.594   4.282  0.8295  0.8433 -2.3617
 8306SOL     OW36550   2.393   3.634   6.837  0.6355  0.5934  0.5762
 8306SOL    HW136551   2.317   3.638   6.778  0.4865 -3.0126  0.5197
 8306SOL    HW236552   2.465   3.630   6.773 -1.0165 -3.5729 -0.9995
 8307SOL     OW36553   2.117   3.017  10.101  0.2044  0.6560 -0.2005
 8307SOL    HW136554   2.079   3.100  10.073 -1.8576 -0.4220 -0.5750
 8307SOL    HW236555   2.043   2.958  10.110 -0.2601  0.8213 -2.9949
 8308SOL     OW36556   3.217   3.257  17.286 -0.5985 -0.1325  0.0564
 8308SOL    HW136557   3.265   3.234  17.365 -1.7323  0.2998  0.8792
 8308SOL    HW236558   3.265   3.335  17.258  0.6989  0.0341  2.7342
 8309SOL     OW36559   4.012   2.508   7.054 -0.4986  0.1347  0.0722
 8309SOL    HW136560   4.014   2.426   7.105 -2.0783  0.9079  1.3828
 8309SOL    HW236561   4.003   2.480   6.963 -0.2605  1.1894 -0.2684
 8310SOL     OW36562   0.291   1.266   2.795  0.0905  0.0951  0.3665
 8310SOL    HW136563   0.279   1.338   2.858 -0.7221  0.1277  0.1660
 8310SOL    HW236564   0.326   1.317   2.722 -1.7072  0.3092 -0.3262
 8311SOL     OW36565   3.346   3.562   8.360 -0.1670  0.4285 -0.2439
 8311SOL    HW136566   3.405   3.583   8.287 -2.1652  2.8207 -1.1883
 8311SOL    HW236567   3.287   3.502   8.313 -0.4770  1.4477 -1.1592
 8312SOL     OW36568   1.279   3.226  16.856  0.2261 -0.3101  0.2640
 8312SOL    HW136569   1.225   3.289  16.904  1.1854  1.4697 -1.0302
 8312SOL    HW236570   1.300   3.164  16.926 -0.9584 -2.8851 -1.6603
 8313SOL     OW36571   2.336   1.151  17.243  0.2597 -0.0456 -0.8118
 8313SOL    HW136572   2.346   1.210  17.169 -1.6378  1.6070  0.2507
 8313SOL    HW236573   2.344   1.061  17.211 -1.9060 -0.0587 -1.3398
 8314SOL     OW36574   2.878   0.172   2.961  0.4307 -0.7029  0.0750
 8314SOL    HW136575   2.803   0.152   3.016 -0.3092 -2.1638 -1.4592
 8314SOL    HW236576   2.848   0.247   2.911  1.6625 -2.0600 -2.7123
 8315SOL     OW36577   4.255   3.873  16.359  0.0696  0.0197  0.5179
 8315SOL    HW136578   4.280   3.953  16.405  1.7763 -0.6929  0.8522
 8315SOL    HW236579   4.281   3.810  16.428 -2.1606 -0.0803  1.2607
 8316SOL     OW36580   4.414   2.309  10.455 -0.0835 -0.1563  0.1078
 8316SOL    HW136581   4.361   2.386  10.435  0.4593  0.2663  0.3319
 8316SOL    HW236582   4.484   2.357  10.497 -0.5126 -0.5634  1.2732
 8317SOL     OW36583   1.180   1.070  14.512  0.1514  0.1881  0.5925
 8317SOL    HW136584   1.084   1.070  14.519  0.0343  1.9390 -0.9835
 8317SOL    HW236585   1.200   1.153  14.468  0.2976  0.3332  0.9295
 8318SOL     OW36586   0.205   2.348   6.607 -0.2185 -0.1915 -0.0198
 8318SOL    HW136587   0.244   2.383   6.526  1.7334  1.1272  1.4926
 8318SOL    HW236588   0.112   2.337   6.586 -0.0902 -1.7335  0.2362
 8319SOL     OW36589   2.996   3.921   5.296  0.2750 -0.1372  0.0359
 8319SOL    HW136590   2.967   4.003   5.257  0.5392 -0.1345 -0.1559
 8319SOL    HW236591   3.088   3.943   5.283  0.0183  1.1313  0.3587
 8320SOL     OW36592   1.786   1.425   9.882 -0.4510  0.6642  0.1308
 8320SOL    HW136593   1.759   1.516   9.890  1.5963  1.2250  0.7366
 8320SOL    HW236594   1.748   1.396   9.965 -1.6082 -1.7356 -1.2220
 8321SOL     OW36595   3.956   2.589  13.910  0.3445  0.3666 -0.1386
 8321SOL    HW136596   3.935   2.634  13.828 -1.1768 -1.0888 -0.5632
 8321SOL    HW236597   3.960   2.667  13.965 -0.0298  0.6167 -0.4609
 8322SOL     OW36598   2.170   0.914   8.352  0.5136 -0.7118 -0.2612
 8322SOL    HW136599   2.142   1.002   8.327  0.7936 -0.5705 -0.0676
 8322SOL    HW236600   2.178   0.926   8.446  0.8946 -2.7168 -0.0347
 8323SOL     OW36601   1.740   1.005   9.656  0.5879  0.0155 -0.6803
 8323SOL    HW136602   1.793   0.962   9.723  0.3062  2.0515  0.8682
 8323SOL    HW236603   1.809   1.032   9.596  1.2562 -0.0400  0.0806
 8324SOL     OW36604   2.568   4.246   5.452 -0.0535 -0.5269  0.1554
 8324SOL    HW136605   2.632   4.315   5.468  1.4184 -1.7896 -0.3151
 8324SOL    HW236606   2.530   4.227   5.538 -1.9709 -1.3608 -0.8653
 8325SOL     OW36607   0.749   2.446   3.062 -0.5631 -0.1653 -0.4021
 8325SOL    HW136608   0.662   2.478   3.040 -1.5214 -0.6229  2.6257
 8325SOL    HW236609   0.779   2.428   2.973 -1.6134 -0.6535 -0.6547
 8326SOL     OW36610   2.101   2.387  17.706  0.4025 -0.3311  0.2953
 8326SOL    HW136611   2.168   2.364   0.013  1.4476 -1.1231 -1.0618
 8326SOL    HW236612   2.103   2.482  17.717 -1.0960 -0.2793  0.0727
 8327SOL     OW36613   3.767   0.305   8.428 -0.0381 -0.0603 -0.7663
 8327SOL    HW136614   3.807   0.383   8.389 -0.8432 -0.6970 -2.8224
 8327SOL    HW236615   3.677   0.320   8.400 -0.4261 -2.5073 -0.7696
 8328SOL     OW36616   3.982   0.296   5.259  0.4135 -0.1296  0.0014
 8328SOL    HW136617   4.037   0.372   5.238 -1.4514  1.9129  2.7111
 8328SOL    HW236618   3.909   0.329   5.310  0.1802  0.0037 -0.4158
 8329SOL     OW36619   0.018   4.129   2.221  0.2242 -0.3213 -0.3489
 8329SOL    HW136620   0.077   4.129   2.296 -1.1861  0.5912  0.7466
 8329SOL    HW236621   4.704   4.207   2.234  2.1410  1.1239 -0.9134
 8330SOL     OW36622   2.317   3.268   9.665 -0.1787  0.6301  0.0325
 8330SOL    HW136623   2.400   3.315   9.663 -0.2718  0.8092  0.3645
 8330SOL    HW236624   2.329   3.256   9.759  0.4199 -1.4528 -0.3054
 8331SOL     OW36625   3.923   4.550   0.119 -0.3529  0.3020 -0.5405
 8331SOL    HW136626   3.934   4.455   0.114  0.6774  0.4491 -0.9415
 8331SOL    HW236627   3.888   4.570   0.032 -1.5245 -0.2655 -0.2089
 8332SOL     OW36628   3.482   4.227   3.730  0.6091  0.5093 -0.1156
 8332SOL    HW136629   3.538   4.185   3.795 -2.3814 -2.0659  0.7941
 8332SOL    HW236630   3.398   4.211   3.773 -0.4261 -0.2168 -2.4150
 8333SOL     OW36631   0.791   1.777   9.436 -0.2246 -0.0852 -0.0021
 8333SOL    HW136632   0.874   1.791   9.391  0.3227  0.7505  1.2453
 8333SOL    HW236633   0.761   1.864   9.462 -0.0942  0.0576 -0.3347
 8334SOL     OW36634   0.472   3.779   2.496  0.3872 -0.8106  0.1851
 8334SOL    HW136635   0.415   3.814   2.565  0.5067 -0.1766 -0.0433
 8334SOL    HW236636   0.559   3.809   2.519 -0.8429  1.4535  1.8710
 8335SOL     OW36637   4.197   1.717   5.087  0.6785 -0.2362 -0.5901
 8335SOL    HW136638   4.139   1.727   5.012 -0.1737  0.8442  0.2143
 8335SOL    HW236639   4.158   1.650   5.143  1.9319 -0.5080 -0.0413
 8336SOL     OW36640   3.951   1.696   7.585 -0.7681  0.3481 -0.0489
 8336SOL    HW136641   3.903   1.680   7.504 -1.5409 -1.0614  0.6926
 8336SOL    HW236642   4.033   1.662   7.550 -0.8878 -0.9676  0.9572
 8337SOL     OW36643   0.300   2.611  13.513  0.2007 -0.2289 -0.1272
 8337SOL    HW136644   0.302   2.534  13.456 -0.2877 -1.5571  1.6760
 8337SOL    HW236645   0.388   2.647  13.503  0.6622 -1.4012 -0.2495
 8338SOL     OW36646   2.719   1.785  15.832 -0.3447 -0.1995  0.2691
 8338SOL    HW136647   2.795   1.781  15.775  0.6117  0.4256  1.4878
 8338SOL    HW236648   2.663   1.842  15.779  1.0638  0.7188 -0.2290
 8339SOL     OW36649   1.203   3.889  12.424 -0.3372 -0.6946 -0.1368
 8339SOL    HW136650   1.292   3.852  12.419  0.8836  2.4709 -2.3055
 8339SOL    HW236651   1.198   3.902  12.518  0.7069  1.5714 -0.3981
 8340SOL     OW36652   1.415   2.208   1.932  0.0627 -0.3658  0.0819
 8340SOL    HW136653   1.445   2.293   1.964 -0.4431 -0.1313 -0.0684
 8340SOL    HW236654   1.415   2.218   1.837  0.1550  4.1363  0.5504
 8341SOL     OW36655   0.869   0.791   4.883 -0.4007  0.4728 -0.6698
 8341SOL    HW136656   0.931   0.725   4.913  0.2903  1.2040 -0.4972
 8341SOL    HW236657   0.790   0.737   4.875 -1.0908  1.4156 -0.2935
 8342SOL     OW36658   3.205   3.712  15.333  0.0831  0.1024  0.4799
 8342SOL    HW136659   3.136   3.778  15.330 -0.1050 -0.0796  0.7253
 8342SOL    HW236660   3.175   3.655  15.263  0.4217  0.5434 -0.0166
 8343SOL     OW36661   0.861   1.185  14.151 -0.5035 -0.4808 -0.6525
 8343SOL    HW136662   0.946   1.207  14.112  0.6757 -0.0844  2.1663
 8343SOL    HW236663   0.810   1.262  14.126 -1.3925 -0.5682  0.8900
 8344SOL     OW36664   3.638   1.731   7.084  0.5447  0.0631  0.8779
 8344SOL    HW136665   3.588   1.650   7.074 -0.3031  0.4061  2.3592
 8344SOL    HW236666   3.652   1.723   7.179  0.2315 -0.8230  0.8466
 8345SOL     OW36667   1.747   1.650   8.929 -0.4919 -0.4853  0.4270
 8345SOL    HW136668   1.707   1.725   8.972  3.5044  0.5766  2.2972
 8345SOL    HW236669   1.775   1.592   8.999 -1.0930  0.3389  1.3412
 8346SOL     OW36670   1.854   0.504   7.949 -0.0362  0.1375 -0.2275
 8346SOL    HW136671   1.912   0.522   8.024 -1.2381  0.8264  0.5451
 8346SOL    HW236672   1.787   0.443   7.982  0.8447 -1.2204 -0.9444
 8347SOL     OW36673   1.748   1.969  15.567  0.2493 -0.3083  0.0877
 8347SOL    HW136674   1.677   1.981  15.629 -0.2496  0.4280 -0.6211
 8347SOL    HW236675   1.693   1.949  15.491 -0.4082  0.1142  0.4492
 8348SOL     OW36676   2.387   3.118   2.718 -0.0468 -0.3968 -0.3527
 8348SOL    HW136677   2.349   3.148   2.636 -1.1794 -1.0295 -0.0597
 8348SOL    HW236678   2.465   3.173   2.729  0.2687 -1.0445  0.6959
 8349SOL     OW36679   1.570   0.669   9.859  0.1515 -0.0924  0.0658
 8349SOL    HW136680   1.516   0.619   9.798  0.1586 -0.1840  0.1359
 8349SOL    HW236681   1.615   0.596   9.900 -1.1513 -0.1216  1.4451
 8350SOL     OW36682   4.053   0.609   7.329  0.2714  0.2030 -0.0576
 8350SOL    HW136683   4.081   0.657   7.251 -0.4633  0.2224 -0.3074
 8350SOL    HW236684   4.038   0.521   7.295  0.7647 -0.6304  1.8927
 8351SOL     OW36685   1.917   3.915   1.427 -0.1004  0.3956 -0.1120
 8351SOL    HW136686   1.955   3.923   1.339 -1.9218  1.2768 -0.8161
 8351SOL    HW236687   1.824   3.922   1.406 -0.5258 -2.3403  0.9234
 8352SOL     OW36688   0.834   4.136   9.533 -0.2598 -0.1418  0.3111
 8352SOL    HW136689   0.778   4.125   9.610 -1.2971  0.0499 -0.4088
 8352SOL    HW236690   0.909   4.105   9.583  0.3014 -0.2943 -0.6129
 8353SOL     OW36691   2.409   3.036   2.363  0.4259 -0.5456 -0.4566
 8353SOL    HW136692   2.477   2.969   2.357  3.2221  2.1642  1.0348
 8353SOL    HW236693   2.465   3.112   2.378  1.0441 -0.6631 -2.1527
 8354SOL     OW36694   3.110   0.577  17.637  0.0961 -0.0060 -0.0710
 8354SOL    HW136695   3.123   0.650  17.575 -0.2410 -0.1297 -0.2859
 8354SOL    HW236696   3.200   0.566  17.669 -0.5161 -0.1155  1.6068
 8355SOL     OW36697   3.279   3.030   8.745 -0.2500 -0.2431 -0.4583
 8355SOL    HW136698   3.321   3.020   8.660  0.9015  0.3638  0.0336
 8355SOL    HW236699   3.338   3.067   8.811  0.7278 -0.4654 -1.2255
 8356SOL     OW36700   1.037   0.226   6.427 -0.5708  0.2893 -0.5266
 8356SOL    HW136701   1.034   0.315   6.391  0.5273  1.0109  1.1640
 8356SOL    HW236702   0.946   0.196   6.432 -0.7790  1.2325  1.3281
 8357SOL     OW36703   3.736   2.077   9.281 -0.0846  0.5100 -0.4965
 8357SOL    HW136704   3.812   2.035   9.322  0.1246  0.2378 -1.1587
 8357SOL    HW236705   3.786   2.117   9.209  2.2886  1.8033  1.9068
 8358SOL     OW36706   1.364   3.336   4.391 -0.3539 -0.0696  0.3544
 8358SOL    HW136707   1.310   3.284   4.331  1.1166  0.0451 -1.0671
 8358SOL    HW236708   1.369   3.273   4.463 -2.6579 -0.0056  0.5732
 8359SOL     OW36709   2.921   1.799   9.968 -0.7229 -0.0509 -0.4482
 8359SOL    HW136710   2.916   1.816   9.874  0.2290 -0.9211 -0.6512
 8359SOL    HW236711   2.937   1.705   9.981  0.7184  0.4289  1.2242
 8360SOL     OW36712   1.899   1.014   2.306 -0.2121  0.6826 -0.4018
 8360SOL    HW136713   1.829   1.080   2.305 -0.9163 -0.1065 -2.1408
 8360SOL    HW236714   1.928   1.032   2.395  0.1154  1.7847 -0.7301
 8361SOL     OW36715   1.858   1.614   0.872 -0.4400 -0.1570 -0.2234
 8361SOL    HW136716   1.857   1.533   0.923  0.6847 -0.7968 -1.2191
 8361SOL    HW236717   1.893   1.680   0.932 -2.1023 -0.4916  1.1013
 8362SOL     OW36718   0.806   4.441   5.390 -0.5916 -0.7551 -0.1341
 8362SOL    HW136719   0.740   4.400   5.446  0.9404 -2.3552  0.4947
 8362SOL    HW236720   0.767   4.449   5.302 -0.2190 -2.6875 -0.4712
 8363SOL     OW36721   1.627   0.603   3.186 -0.0735 -0.1298 -0.0778
 8363SOL    HW136722   1.656   0.513   3.176 -0.8716 -0.2976 -0.8950
 8363SOL    HW236723   1.619   0.639   3.097  3.7013 -1.8300 -1.0998
 8364SOL     OW36724   4.359   1.274   3.612 -0.9496  0.1971 -1.0635
 8364SOL    HW136725   4.319   1.317   3.536  0.0128  1.4979 -0.8282
 8364SOL    HW236726   4.317   1.188   3.619 -2.1374  1.0310  1.8889
 8365SOL     OW36727   2.818   0.070  11.597 -0.1349  0.3579 -0.5679
 8365SOL    HW136728   2.799   0.154  11.637  0.7078  0.4244 -0.2992
 8365SOL    HW236729   2.864   0.039  11.675 -1.8023  1.9960  1.0359
 8366SOL     OW36730   2.628   0.289   8.760  0.0450  0.4287  0.0539
 8366SOL    HW136731   2.611   0.204   8.719  1.1590 -0.2665  1.0465
 8366SOL    HW236732   2.675   0.260   8.838  0.7623  0.0648 -0.5151
 8367SOL     OW36733   4.388   3.430   3.519  0.4737 -0.1441 -0.2122
 8367SOL    HW136734   4.407   3.522   3.503  2.0474 -0.5472 -0.6852
 8367SOL    HW236735   4.475   3.390   3.520  0.8646  0.6928 -0.6873
 8368SOL     OW36736   0.213   2.468   9.605  0.1870 -0.4302  0.4703
 8368SOL    HW136737   0.297   2.496   9.571 -0.4296  1.2250  0.3198
 8368SOL    HW236738   0.188   2.553   9.640  0.3128 -0.8045  1.4772
 8369SOL     OW36739   2.170   1.338   8.175  0.2547  0.2124  0.0261
 8369SOL    HW136740   2.175   1.264   8.113  2.4660 -0.2410  0.7412
 8369SOL    HW236741   2.247   1.316   8.228 -1.0433 -0.8771  1.4608
 8370SOL     OW36742   0.704   2.796   4.938  0.8434 -0.2178 -0.5446
 8370SOL    HW136743   0.787   2.801   4.985 -0.6759 -2.3156  2.3483
 8370SOL    HW236744   0.741   2.756   4.860 -1.0196  0.7384 -1.9202
 8371SOL     OW36745   0.327   1.704   7.759 -0.6724 -0.0651 -0.0514
 8371SOL    HW136746   0.338   1.704   7.854 -2.1746 -0.5591  0.1069
 8371SOL    HW236747   0.234   1.720   7.748 -0.3428  0.0048 -2.8295
 8372SOL     OW36748   1.481   4.284   3.915 -0.2414  0.1185  0.0343
 8372SOL    HW136749   1.435   4.314   3.837  1.2298 -1.2704 -1.3733
 8372SOL    HW236750   1.574   4.284   3.891 -0.2516 -1.7821 -0.0079
 8373SOL     OW36751   2.059   0.259  10.804 -0.8724  0.2583 -0.4516
 8373SOL    HW136752   2.013   0.208  10.737 -2.8647  0.2043  0.9384
 8373SOL    HW236753   2.005   0.338  10.798  0.1695  1.0163  0.2290
 8374SOL     OW36754   3.298   0.217   7.721  0.4915  0.3321 -0.0030
 8374SOL    HW136755   3.376   0.254   7.761 -0.4130  2.1142  0.1595
 8374SOL    HW236756   3.273   0.161   7.795 -2.0479  1.2331 -0.1586
 8375SOL     OW36757   4.222   3.648   0.363 -0.2627 -0.2388  0.3655
 8375SOL    HW136758   4.269   3.689   0.291 -0.5836  0.6159  0.6471
 8375SOL    HW236759   4.153   3.598   0.319  1.2927 -1.4852 -0.6382
 8376SOL     OW36760   1.751   1.428   6.216 -0.0261  0.8886 -0.0590
 8376SOL    HW136761   1.814   1.402   6.283  0.1948 -0.4780 -0.7858
 8376SOL    HW236762   1.769   1.522   6.214  0.3901  0.8271  0.7407
 8377SOL     OW36763   0.230   0.588  12.942  0.2323 -0.5301 -0.0300
 8377SOL    HW136764   0.163   0.597  13.009  0.3803  1.4107 -0.1366
 8377SOL    HW236765   0.174   0.563  12.868 -0.0439 -2.2949  0.7849
 8378SOL     OW36766   2.514   0.042   3.703 -0.1433 -0.0650 -0.2298
 8378SOL    HW136767   2.602   0.011   3.723  0.1689 -0.6380 -2.4335
 8378SOL    HW236768   2.463   4.718   3.752  0.7841 -0.2165  0.5341
 8379SOL     OW36769   3.912   3.222   5.474 -0.0408 -0.0230  0.2358
 8379SOL    HW136770   3.865   3.140   5.490  2.4925 -1.4670  0.4515
 8379SOL    HW236771   3.888   3.238   5.383  0.2221 -0.2407  0.1261
 8380SOL     OW36772   3.275   0.408   2.665  0.1246  0.1789 -0.4567
 8380SOL    HW136773   3.312   0.338   2.719  0.8102  1.0812  0.2445
 8380SOL    HW236774   3.194   0.435   2.710 -1.2694 -1.6556 -1.8550
 8381SOL     OW36775   0.017   0.289   2.207  0.4052  0.4636 -0.0168
 8381SOL    HW136776   4.692   0.351   2.176  0.0889 -0.0739 -0.4242
 8381SOL    HW236777   0.020   0.228   2.134  2.3161 -0.1717  0.5844
 8382SOL     OW36778   4.192   4.707  16.696 -0.2208  0.0877  0.9754
 8382SOL    HW136779   4.190   4.613  16.716 -1.5816  0.0477  0.6631
 8382SOL    HW236780   4.242   4.703  16.614 -0.1807  0.5112  0.9824
 8383SOL     OW36781   2.839   0.588  13.488 -0.2909  0.1134 -0.2390
 8383SOL    HW136782   2.920   0.558  13.447 -0.6968 -2.2154  0.6442
 8383SOL    HW236783   2.836   0.670  13.438  3.3364 -0.1750 -0.8817
 8384SOL     OW36784   1.676   4.164   4.137  0.1387  0.2709 -0.7746
 8384SOL    HW136785   1.756   4.212   4.155  1.4796 -2.8159  1.5058
 8384SOL    HW236786   1.626   4.237   4.101  0.2088  0.9224  0.4484
 8385SOL     OW36787   3.129   0.990   8.397 -0.0517 -0.2065  0.6551
 8385SOL    HW136788   3.171   1.068   8.433 -1.0772 -0.0257  1.4684
 8385SOL    HW236789   3.151   0.984   8.304 -0.0827  0.7298  0.5893
 8386SOL     OW36790   3.427   1.037  17.015 -0.0675  0.6027 -0.3208
 8386SOL    HW136791   3.407   1.045  17.109 -2.6148 -2.6633 -0.5922
 8386SOL    HW236792   3.341   1.062  16.982  0.5766  0.9221 -1.7411
 8387SOL     OW36793   2.051   1.550  14.158 -0.6932  0.0251 -0.1285
 8387SOL    HW136794   1.987   1.488  14.122 -1.3670  0.7279 -0.1328
 8387SOL    HW236795   2.036   1.623  14.098 -1.0898 -1.3761 -1.7554
 8388SOL     OW36796   0.568   1.297  15.337 -0.4160 -0.2621 -0.1403
 8388SOL    HW136797   0.539   1.211  15.367 -0.6696  0.2448  1.0765
 8388SOL    HW236798   0.501   1.329  15.277  1.5597  0.8115 -1.7593
 8389SOL     OW36799   2.308   3.985   9.569 -0.2558  0.1149  0.0196
 8389SOL    HW136800   2.402   3.974   9.580 -0.3015 -1.2263 -0.9630
 8389SOL    HW236801   2.308   4.080   9.563  1.9803  0.0562 -0.7035
 8390SOL     OW36802   3.054   0.614   1.027 -0.5630 -0.0959 -0.6562
 8390SOL    HW136803   3.018   0.688   1.075  0.7398 -0.7816  1.3763
 8390SOL    HW236804   3.044   0.642   0.936  0.1289  0.2723 -0.6194
 8391SOL     OW36805   2.370   1.116   7.399 -0.2758 -0.5231  0.4106
 8391SOL    HW136806   2.349   1.038   7.449 -2.3527 -0.6109 -0.5831
 8391SOL    HW236807   2.466   1.111   7.397 -0.3758 -1.7388 -0.8984
 8392SOL     OW36808   3.938   3.147   2.761 -0.3193 -0.1532 -0.0529
 8392SOL    HW136809   4.012   3.092   2.789  0.6719  3.2834  4.0787
 8392SOL    HW236810   3.953   3.165   2.668  0.4791  0.9640  0.2929
 8393SOL     OW36811   0.581   3.355   5.877  0.0326 -0.3330  0.4487
 8393SOL    HW136812   0.648   3.308   5.927  1.1356  1.7989  0.9768
 8393SOL    HW236813   0.629   3.435   5.859  0.5841 -0.5528  0.9455
 8394SOL     OW36814   3.704   3.494   2.946 -0.6662 -0.0969  0.1270
 8394SOL    HW136815   3.734   3.584   2.934 -1.3270  0.0601 -0.3158
 8394SOL    HW236816   3.786   3.445   2.940 -0.3369  0.4751 -0.0766
 8395SOL     OW36817   1.936   2.199   3.945 -0.2790 -0.3651  0.5121
 8395SOL    HW136818   1.956   2.198   3.851 -1.8477 -2.0849  0.1944
 8395SOL    HW236819   1.863   2.138   3.941 -1.7585  1.4497 -0.3714
 8396SOL     OW36820   1.521   3.327  17.598  0.4228  0.2122  0.6146
 8396SOL    HW136821   1.452   3.293  17.542  1.0809  3.4901 -2.2380
 8396SOL    HW236822   1.506   3.265  17.669  1.8994 -0.9193 -0.0620
 8397SOL     OW36823   2.688   1.837   7.086  0.0978  0.1007 -0.0711
 8397SOL    HW136824   2.622   1.804   7.148 -1.9524  3.1077 -0.6487
 8397SOL    HW236825   2.654   1.914   7.041 -0.7070 -2.4750 -3.8775
 8398SOL     OW36826   0.551   2.989   3.236  0.2458  0.0520 -0.1719
 8398SOL    HW136827   0.474   2.977   3.181 -0.2669  1.3071  0.2781
 8398SOL    HW236828   0.558   3.084   3.248 -3.0366  0.2641  0.0807
 8399SOL     OW36829   2.211   1.254  13.672  0.0972  0.1812  0.2983
 8399SOL    HW136830   2.241   1.167  13.643 -2.3583 -0.5825  0.0835
 8399SOL    HW236831   2.133   1.276  13.622  1.3874  1.4549 -1.1803
 8400SOL     OW36832   0.112   1.249   4.670 -0.5712 -0.4259  0.5342
 8400SOL    HW136833   0.051   1.294   4.729  0.6445  0.1601  1.3223
 8400SOL    HW236834   0.061   1.175   4.637  0.5790 -0.0234 -2.1633
 8401SOL     OW36835   2.046   4.215   8.011 -0.2325  0.3276 -0.0852
 8401SOL    HW136836   2.068   4.281   8.076 -1.0101  0.8033 -0.3087
 8401SOL    HW236837   2.112   4.225   7.943 -2.4947 -1.5949 -2.5768
 8402SOL     OW36838   0.540   3.925   9.413 -0.2497  0.0582  0.1035
 8402SOL    HW136839   0.457   3.877   9.410 -0.7131  0.8463  0.4458
 8402SOL    HW236840   0.570   3.896   9.499 -1.7802 -1.9727 -0.0675
 8403SOL     OW36841   3.020   0.405   8.810  0.0736  0.4415  0.0931
 8403SOL    HW136842   3.056   0.362   8.887  0.9480  2.7322  0.9612
 8403SOL    HW236843   2.955   0.461   8.852  1.0237 -1.1447  3.6694
 8404SOL     OW36844   1.557   1.309  13.263 -0.3452  0.2830  0.6507
 8404SOL    HW136845   1.510   1.250  13.322 -1.2153 -1.6400 -1.9523
 8404SOL    HW236846   1.629   1.251  13.239 -0.7981 -0.3465  0.8134
 8405SOL     OW36847   4.076   1.483  13.441 -0.1293 -0.4415  0.3900
 8405SOL    HW136848   4.004   1.542  13.416 -0.2277 -0.3252  0.9419
 8405SOL    HW236849   4.075   1.490  13.537  1.2796  1.5964  0.2627
 8406SOL     OW36850   2.112   2.841   3.400 -0.1596 -0.4633  0.7108
 8406SOL    HW136851   2.053   2.854   3.326 -2.2290 -0.8707  2.2980
 8406SOL    HW236852   2.181   2.788   3.362 -0.1434  0.1520 -0.1186
 8407SOL     OW36853   1.344   3.385  15.499 -0.1649 -0.3561 -0.3194
 8407SOL    HW136854   1.251   3.394  15.478 -0.1528 -0.7247 -0.5279
 8407SOL    HW236855   1.356   3.301  15.454 -0.1487  0.2227 -1.3922
 8408SOL     OW36856   3.124   2.683  14.594  0.1842  0.4921  0.1474
 8408SOL    HW136857   3.028   2.678  14.595  0.2706 -1.4821 -0.6825
 8408SOL    HW236858   3.147   2.738  14.519 -1.9707  0.4494 -0.5482
 8409SOL     OW36859   0.903   4.655   7.957 -0.2728 -0.2514  0.7659
 8409SOL    HW136860   0.984   4.687   7.918 -1.4660 -0.8728 -2.2057
 8409SOL    HW236861   0.844   4.718   7.916 -2.0355 -2.4270 -0.0191
 8410SOL     OW36862   2.936   3.243  10.572  0.6384  0.5905 -0.1026
 8410SOL    HW136863   2.851   3.211  10.541  0.9259 -2.5928  2.4135
 8410SOL    HW236864   2.915   3.297  10.648  0.7638  1.2468 -0.5351
 8411SOL     OW36865   3.077   4.463  15.540  0.1380  0.3752 -0.1704
 8411SOL    HW136866   3.112   4.374  15.530 -1.8821 -0.3157 -0.9966
 8411SOL    HW236867   3.034   4.448  15.624  1.3274  2.0968  0.7404
 8412SOL     OW36868   4.430   2.567   1.136  0.0885 -0.3192 -0.2698
 8412SOL    HW136869   4.371   2.500   1.102 -0.5456 -1.1671  2.5425
 8412SOL    HW236870   4.479   2.521   1.204 -2.6215  1.0016  2.5986
 8413SOL     OW36871   1.331   3.408   3.107  0.1676 -0.1552 -0.1697
 8413SOL    HW136872   1.273   3.480   3.085 -1.5884 -1.7140 -0.5923
 8413SOL    HW236873   1.389   3.451   3.170 -0.7456 -2.0223  1.9484
 8414SOL     OW36874   2.077   0.090   5.758  0.2605  0.3801 -0.0403
 8414SOL    HW136875   2.146   0.061   5.817  1.8554  4.2450 -0.0338
 8414SOL    HW236876   2.011   0.021   5.770  2.5278 -2.0801 -1.6450
 8415SOL     OW36877   1.936   1.174  15.807 -0.5614 -0.2926 -0.2495
 8415SOL    HW136878   1.854   1.169  15.855  1.5081 -0.2111  3.2548
 8415SOL    HW236879   1.912   1.129  15.726 -0.2790  1.2189 -1.1845
 8416SOL     OW36880   1.584   3.625   9.378  0.5847 -0.3529  0.3319
 8416SOL    HW136881   1.675   3.597   9.365  1.3102  1.3348  1.8222
 8416SOL    HW236882   1.606   3.706   9.424  1.0270 -1.3662  1.9292
 8417SOL     OW36883   2.120   0.471   7.604 -0.2644 -0.1206 -0.5188
 8417SOL    HW136884   2.154   0.430   7.524 -1.3444 -2.9869  0.5022
 8417SOL    HW236885   2.024   0.478   7.601 -0.2975 -0.2393  0.3219
 8418SOL     OW36886   1.861   2.531   6.381 -0.1343 -0.1141  0.0278
 8418SOL    HW136887   1.906   2.469   6.325  0.2822  0.3888 -0.1922
 8418SOL    HW236888   1.773   2.535   6.344  0.6423  0.1007 -1.7680
 8419SOL     OW36889   3.467   0.330   8.382  0.1151 -0.0366 -0.3096
 8419SOL    HW136890   3.410   0.255   8.366  0.1380 -0.0664 -0.2514
 8419SOL    HW236891   3.400   0.397   8.367 -0.3396 -0.1806  1.0350
 8420SOL     OW36892   1.099   2.123   8.014  0.0026 -0.6193 -0.1268
 8420SOL    HW136893   1.056   2.207   8.030  1.7216  0.0304  1.1288
 8420SOL    HW236894   1.189   2.142   7.986 -1.2308  2.3244 -2.0240
 8421SOL     OW36895   4.572   1.525   6.208 -0.1392 -0.0561  0.2284
 8421SOL    HW136896   4.530   1.609   6.189  1.5015  0.6523 -0.2253
 8421SOL    HW236897   4.495   1.470   6.199 -1.2898  1.0575  3.1755
 8422SOL     OW36898   4.727   0.618   4.112  0.2319  0.3802 -0.5911
 8422SOL    HW136899   0.009   0.616   4.205 -0.3436 -0.8886 -0.4822
 8422SOL    HW236900   0.060   0.676   4.090  2.4548 -1.8662  0.8895
 8423SOL     OW36901   1.016   4.233   4.905  0.0709 -0.8747 -0.1066
 8423SOL    HW136902   1.062   4.312   4.931  0.7429 -1.6734  1.1616
 8423SOL    HW236903   0.946   4.266   4.848 -0.5181  0.3069  1.2953
 8424SOL     OW36904   3.885   0.524   3.185  0.2433  0.3923 -0.3134
 8424SOL    HW136905   3.852   0.533   3.274  0.2329  1.0863 -0.3861
 8424SOL    HW236906   3.975   0.513   3.214  0.1340 -1.4249 -0.6471
 8425SOL     OW36907   0.236   0.078  14.437  0.1615 -0.4088  0.0211
 8425SOL    HW136908   0.308   0.135  14.408 -1.7465  2.0642  0.0823
 8425SOL    HW236909   0.287   0.005  14.470  0.1978  0.0056  0.8875
 8426SOL     OW36910   1.363   3.349   2.189 -0.4347  0.1315  0.0716
 8426SOL    HW136911   1.352   3.276   2.129 -2.1328  1.3919 -1.1641
 8426SOL    HW236912   1.321   3.309   2.266  0.6042  0.8578  1.0140
 8427SOL     OW36913   0.915   0.217   7.096  0.2211  0.5468 -0.4839
 8427SOL    HW136914   0.821   0.216   7.110  0.4565  0.1099  1.0590
 8427SOL    HW236915   0.932   0.309   7.072 -0.1231  0.8771  0.5372
 8428SOL     OW36916   3.007   1.486  10.217  0.2843  0.7122 -0.6560
 8428SOL    HW136917   3.042   1.550  10.279 -1.3091 -0.9563  1.9626
 8428SOL    HW236918   3.082   1.431  10.196  0.7730  1.0428  0.2488
 8429SOL     OW36919   0.485   0.862   4.235 -0.1667 -0.3370 -0.2974
 8429SOL    HW136920   0.533   0.781   4.256  2.0884  0.5844 -1.8857
 8429SOL    HW236921   0.546   0.895   4.169  1.3684 -2.9063 -0.1833
 8430SOL     OW36922   4.326   0.305   6.288 -0.3161 -0.2865 -0.0868
 8430SOL    HW136923   4.240   0.295   6.248 -0.1524  3.0997 -1.2999
 8430SOL    HW236924   4.305   0.367   6.358  2.6414  0.6341 -0.0305
 8431SOL     OW36925   1.353   3.050  17.053 -0.5666  0.0035  0.3164
 8431SOL    HW136926   1.332   2.999  17.131 -1.5028  1.7751  1.2354
 8431SOL    HW236927   1.444   3.024  17.040 -1.3724 -2.2181 -0.7940
 8432SOL     OW36928   2.560   4.262   8.374  0.6802  0.2562  0.0251
 8432SOL    HW136929   2.615   4.188   8.398  0.2127  0.7209  2.4507
 8432SOL    HW236930   2.596   4.343   8.409  2.6848 -0.5214 -0.2367
 8433SOL     OW36931   2.301   0.892   1.715  0.5902 -0.1220 -0.3145
 8433SOL    HW136932   2.395   0.911   1.721  0.1097  1.9176  0.6564
 8433SOL    HW236933   2.268   0.960   1.773  0.2217 -1.3080  0.8599
 8434SOL     OW36934   3.141   3.708   7.483  0.1826 -0.2728  0.3014
 8434SOL    HW136935   3.086   3.720   7.405 -1.9096  0.4163  1.8759
 8434SOL    HW236936   3.069   3.689   7.544  0.0107 -0.3761  0.0691
 8435SOL     OW36937   4.530   2.086   9.659  0.0369  0.2667 -0.0967
 8435SOL    HW136938   4.442   2.049   9.655 -0.2745  1.2085 -1.9353
 8435SOL    HW236939   4.515   2.162   9.603  1.3698  1.3181  0.9760
 8436SOL     OW36940   3.855   2.589  11.242 -0.2585 -0.6483  0.2606
 8436SOL    HW136941   3.807   2.550  11.316 -1.4935  0.9698  0.2981
 8436SOL    HW236942   3.879   2.511  11.191  2.3595  0.1451  0.2731
 8437SOL     OW36943   2.682   0.868  15.067  0.1524 -0.3642  0.0429
 8437SOL    HW136944   2.742   0.942  15.075 -2.5002  1.6584  1.1649
 8437SOL    HW236945   2.605   0.911  15.030  1.1549  0.2935 -1.2765
 8438SOL     OW36946   0.280   1.582  10.779 -0.3671  0.1387 -0.1525
 8438SOL    HW136947   0.355   1.626  10.738  1.0605 -1.0331  1.1814
 8438SOL    HW236948   0.313   1.541  10.859  0.2666  1.2293  0.1508
 8439SOL     OW36949   3.136   2.668   2.043  0.0093 -0.1862 -1.0731
 8439SOL    HW136950   3.146   2.762   2.029 -0.1931 -0.0609 -0.3871
 8439SOL    HW236951   3.041   2.669   2.056  0.0229 -0.4012 -0.9449
 8440SOL     OW36952   1.595   3.966   8.909 -0.1266  0.7944 -0.0248
 8440SOL    HW136953   1.604   3.871   8.919 -0.3515  0.7783  0.0320
 8440SOL    HW236954   1.567   3.981   9.000  1.5318  1.3647  0.3991
 8441SOL     OW36955   3.246   1.451   0.950  0.0628  0.2917  0.4622
 8441SOL    HW136956   3.204   1.503   0.882  1.3097  0.8933  0.1630
 8441SOL    HW236957   3.172   1.415   0.999 -0.7162  1.1291 -0.0943
 8442SOL     OW36958   4.537   0.153   9.317 -0.0217  0.5993  0.5672
 8442SOL    HW136959   4.514   0.130   9.407  1.5687  0.1956  0.8718
 8442SOL    HW236960   4.576   0.240   9.327 -0.7403  1.2958 -2.6288
 8443SOL     OW36961   0.597   2.831   6.330  1.0288 -0.1960 -0.0137
 8443SOL    HW136962   0.562   2.797   6.412  0.3922 -0.2195 -0.2932
 8443SOL    HW236963   0.691   2.820   6.341  1.0015  0.1573  0.5383
 8444SOL     OW36964   3.541   3.781   3.115  0.3894  0.0607 -0.3574
 8444SOL    HW136965   3.593   3.840   3.170 -0.9645 -1.4043  2.4809
 8444SOL    HW236966   3.594   3.795   3.036  0.3847  0.9621 -0.2040
 8445SOL     OW36967   0.970   0.454  12.315 -0.2348  0.2408 -0.0213
 8445SOL    HW136968   0.912   0.524  12.345  1.2295  0.4709  2.3046
 8445SOL    HW236969   0.906   0.387  12.290 -0.3292  0.5557 -0.6174
 8446SOL     OW36970   4.139   0.149   9.489 -0.3135  0.0847  0.0229
 8446SOL    HW136971   4.106   0.154   9.399 -0.1396 -2.6815 -0.1826
 8446SOL    HW236972   4.215   0.092   9.485 -0.1099  0.5141 -2.0477
 8447SOL     OW36973   4.338   4.338   0.578 -0.8526  0.2457 -0.0721
 8447SOL    HW136974   4.284   4.300   0.509  1.0964  0.9095 -1.9905
 8447SOL    HW236975   4.332   4.268   0.643 -0.0356 -1.4120 -1.7777
 8448SOL     OW36976   2.050   1.618   9.950  0.1245  0.9525 -0.4362
 8448SOL    HW136977   1.960   1.646   9.932 -0.8057 -2.7576 -1.5803
 8448SOL    HW236978   2.091   1.656   9.872 -4.6183  1.6934 -2.5897
 8449SOL     OW36979   0.922   3.010   4.827  0.2045 -0.2428 -0.0930
 8449SOL    HW136980   0.914   3.105   4.816  0.5771 -0.2981 -0.8919
 8449SOL    HW236981   0.944   2.987   4.736 -1.6308  1.3506 -0.9501
 8450SOL     OW36982   4.308   2.218   1.810  0.2597  0.1685 -0.3695
 8450SOL    HW136983   4.387   2.169   1.834 -0.1463  0.0882  0.7733
 8450SOL    HW236984   4.343   2.304   1.831  0.3238 -0.2131  1.0763
 8451SOL     OW36985   0.686   0.767  14.538 -0.6105 -0.1341 -0.2565
 8451SOL    HW136986   0.735   0.838  14.496  0.3455 -0.1498  0.8386
 8451SOL    HW236987   0.604   0.808  14.567 -2.5124 -4.9816  1.2732
 8452SOL     OW36988   3.553   0.425   9.202 -0.3748 -0.0340  0.3568
 8452SOL    HW136989   3.505   0.412   9.284 -1.0994 -2.1954 -0.4325
 8452SOL    HW236990   3.545   0.519   9.185 -2.9727 -0.5065 -0.9560
 8453SOL     OW36991   0.201   0.152  14.978  0.4695 -0.5033  0.0492
 8453SOL    HW136992   0.230   0.105  14.899  1.0954  1.7583 -1.0658
 8453SOL    HW236993   0.235   0.240  14.961 -1.0371  0.1085  0.2500
 8454SOL     OW36994   0.133   2.576  17.023  0.0867 -0.7992 -0.1380
 8454SOL    HW136995   0.111   2.522  17.099 -0.0833  0.9242  1.0664
 8454SOL    HW236996   0.043   2.596  16.994 -0.2007 -0.4773  0.9720
 8455SOL     OW36997   3.896   4.497   4.789 -0.6839  0.4252 -0.7222
 8455SOL    HW136998   3.811   4.493   4.834 -0.5839 -2.0655 -0.7713
 8455SOL    HW236999   3.946   4.452   4.857 -0.3704 -0.0069 -1.2410
 8456SOL     OW37000   2.221   0.232  16.943  0.0396  0.0516  0.4289
 8456SOL    HW137001   2.191   0.143  16.926  2.3602 -0.6790  0.2688
 8456SOL    HW237002   2.156   0.282  16.894  2.6780  2.4691 -0.5771
 8457SOL     OW37003   3.382   4.173   9.547 -0.7645 -0.4346 -0.0368
 8457SOL    HW137004   3.411   4.210   9.464 -2.8245  2.0951  0.3743
 8457SOL    HW237005   3.384   4.077   9.542 -0.0107 -0.4878  1.2938
 8458SOL     OW37006   2.988   2.446   2.658  0.2196  0.0559  0.0113
 8458SOL    HW137007   2.928   2.372   2.641  1.9675 -1.2652 -0.3658
 8458SOL    HW237008   2.932   2.496   2.718 -0.2852 -1.3667  0.7573
 8459SOL     OW37009   3.948   4.437   4.528  0.3880 -0.1250 -0.5279
 8459SOL    HW137010   3.925   4.449   4.620  1.9878 -3.4774  0.3201
 8459SOL    HW237011   4.021   4.497   4.515 -0.0864  0.9965  1.9361
 8460SOL     OW37012   3.859   0.551  15.931 -0.3900  0.5699  0.0737
 8460SOL    HW137013   3.862   0.600  15.848  3.0772  0.4984  0.1591
 8460SOL    HW237014   3.767   0.549  15.956 -0.3895 -0.8190 -0.0024
 8461SOL     OW37015   4.510   1.767   1.628  0.6216 -0.1632 -0.4079
 8461SOL    HW137016   4.586   1.819   1.654 -0.0210  2.3159 -3.5394
 8461SOL    HW237017   4.444   1.800   1.690 -0.5799 -2.3708 -0.4996
 8462SOL     OW37018   4.509   0.444   5.382 -0.6461  0.2188 -0.0075
 8462SOL    HW137019   4.495   0.357   5.419  0.3422  0.8633  1.9003
 8462SOL    HW237020   4.582   0.474   5.437 -0.4673  2.9240 -1.7116
 8463SOL     OW37021   0.658   2.259   4.562  0.2849  0.0864  1.0888
 8463SOL    HW137022   0.629   2.347   4.588 -0.1930  0.1358  0.3764
 8463SOL    HW237023   0.753   2.271   4.570  0.2326  1.1153  0.2007
 8464SOL     OW37024   3.576   2.631   7.146 -0.0241  0.2326  0.0403
 8464SOL    HW137025   3.544   2.719   7.164  3.5412  1.4521  0.5536
 8464SOL    HW237026   3.671   2.646   7.152  0.0106  0.6127 -1.3581
 8465SOL     OW37027   1.711   3.689   3.143  0.2588  0.6154 -0.5264
 8465SOL    HW137028   1.741   3.634   3.071  2.2170  0.0402  0.7261
 8465SOL    HW237029   1.749   3.772   3.114  1.1739 -0.0555 -1.2623
 8466SOL     OW37030   0.404   1.599   4.534  0.4811  0.1504  0.3318
 8466SOL    HW137031   0.434   1.541   4.604 -1.4835 -0.9250  0.2800
 8466SOL    HW237032   0.351   1.548   4.473  2.7391  0.2235 -1.7018
 8467SOL     OW37033   0.017   3.408   8.369 -0.1248 -0.3751  0.5010
 8467SOL    HW137034   4.682   3.458   8.336 -0.1692 -0.8672 -0.1228
 8467SOL    HW237035   4.718   3.324   8.391  0.9256 -0.3416  2.5559
 8468SOL     OW37036   4.087   0.189   9.199 -0.2154  0.1632  0.4674
 8468SOL    HW137037   4.072   0.280   9.175  1.9162  0.3849  0.0530
 8468SOL    HW237038   4.095   0.153   9.111 -1.1925 -1.6843  1.1227
 8469SOL     OW37039   0.403   0.227   6.258 -0.3649  0.1293 -0.1274
 8469SOL    HW137040   0.312   0.200   6.252  0.4932 -2.8172  0.4925
 8469SOL    HW237041   0.444   0.155   6.210  1.6186  1.1898 -0.0350
 8470SOL     OW37042   1.174   0.882   4.029  0.0304  0.1472  0.8161
 8470SOL    HW137043   1.097   0.936   4.048  0.2888  0.9655 -0.4479
 8470SOL    HW237044   1.243   0.942   4.055 -1.5515  2.4858 -0.4110
 8471SOL     OW37045   1.838   3.211  10.540 -0.2443  0.4272  0.0602
 8471SOL    HW137046   1.782   3.200  10.617  2.3414  0.8167  2.0206
 8471SOL    HW237047   1.859   3.119  10.521  1.2918  0.5112  1.2483
 8472SOL     OW37048   0.677   1.453  13.684  0.2836  0.6844  0.3645
 8472SOL    HW137049   0.629   1.404  13.751 -0.6607  0.5349 -0.4317
 8472SOL    HW237050   0.722   1.383  13.638 -0.8210 -0.8721  1.6639
 8473SOL     OW37051   1.465   0.609  17.257  0.1929 -0.5750 -0.8262
 8473SOL    HW137052   1.486   0.688  17.308 -0.6453 -0.5152 -0.5869
 8473SOL    HW237053   1.401   0.640  17.193 -0.3751  1.1595  0.5876
 8474SOL     OW37054   3.957   2.740   7.431  0.4900 -0.7118 -0.1678
 8474SOL    HW137055   3.986   2.826   7.459  0.7877 -0.9815  0.3697
 8474SOL    HW237056   3.885   2.767   7.375  1.2006  0.0838 -0.6834
 8475SOL     OW37057   1.494   0.119  12.225 -0.2786  0.0175  0.3284
 8475SOL    HW137058   1.486   0.073  12.309 -1.3185  1.9622  1.2923
 8475SOL    HW237059   1.431   0.187  12.248  0.3231  0.0311  1.9577
 8476SOL     OW37060   3.167   3.826   3.418  0.7016 -0.2662  0.0901
 8476SOL    HW137061   3.230   3.895   3.397  1.4024 -1.3294 -1.2630
 8476SOL    HW237062   3.193   3.756   3.359 -0.8082 -0.9884  0.2706
 8477SOL     OW37063   0.524   3.313   1.531  0.3633  0.5681  0.1926
 8477SOL    HW137064   0.527   3.266   1.448 -0.4556 -0.8752  0.9862
 8477SOL    HW237065   0.473   3.388   1.501 -0.1377 -0.8893 -2.5908
 8478SOL     OW37066   0.119   0.639   9.809 -0.2659  0.1164  0.6267
 8478SOL    HW137067   0.209   0.606   9.805  0.6075  2.7293 -0.8037
 8478SOL    HW237068   0.091   0.590   9.886  2.4617  1.2600  2.3560
 8479SOL     OW37069   2.259   3.818   4.835  0.3687  0.2187 -0.6474
 8479SOL    HW137070   2.330   3.760   4.862  0.2522  0.2234 -0.3308
 8479SOL    HW237071   2.228   3.849   4.920 -1.8441 -0.4723 -1.1971
 8480SOL     OW37072   3.271   0.332  15.741  0.0406 -0.2522 -0.5301
 8480SOL    HW137073   3.309   0.374  15.819 -1.1450 -0.7952  0.3410
 8480SOL    HW237074   3.292   0.244  15.772  2.3542  0.5707  0.2601
 8481SOL     OW37075   0.581   2.859  11.937 -0.0111  0.2268 -0.2996
 8481SOL    HW137076   0.560   2.772  11.969 -1.0728  0.4072 -0.5205
 8481SOL    HW237077   0.499   2.880  11.893  0.1475 -0.8386 -1.1010
 8482SOL     OW37078   4.389   3.612   7.017  0.3225 -0.2620 -0.1334
 8482SOL    HW137079   4.402   3.705   6.994 -0.8081 -0.1976 -0.5312
 8482SOL    HW237080   4.314   3.589   6.963 -0.0996 -1.1953  0.8787
 8483SOL     OW37081   3.570   4.419  15.325 -0.3713  0.1960  0.0546
 8483SOL    HW137082   3.624   4.462  15.259 -0.9094 -1.7856 -1.6538
 8483SOL    HW237083   3.567   4.487  15.392 -2.9874 -1.3119  1.4778
 8484SOL     OW37084   4.605   0.957   6.895 -0.2398 -0.3904  0.1635
 8484SOL    HW137085   4.612   1.052   6.886 -1.8841 -0.1193  1.7842
 8484SOL    HW237086   4.521   0.955   6.941 -0.6831 -1.3127 -0.6816
 8485SOL     OW37087   3.284   2.703   7.408  0.5423 -0.2126  0.0095
 8485SOL    HW137088   3.283   2.670   7.498  0.5343  2.2666  0.8995
 8485SOL    HW237089   3.302   2.621   7.361  0.0168  0.0532 -0.6457
 8486SOL     OW37090   3.504   3.876   7.974  0.1026  0.3253  0.7271
 8486SOL    HW137091   3.544   3.900   8.057  1.3230 -0.2759  0.3270
 8486SOL    HW237092   3.536   3.789   7.949 -1.4335 -0.4248  1.4040
 8487SOL     OW37093   2.586   0.193   7.316 -0.3498 -0.0721 -0.3763
 8487SOL    HW137094   2.504   0.145   7.304 -0.9128  0.6581  0.5939
 8487SOL    HW237095   2.584   0.253   7.242  0.5765 -1.6885 -1.7141
 8488SOL     OW37096   3.585   1.804   8.402 -0.3794  0.1071  0.0544
 8488SOL    HW137097   3.677   1.804   8.428 -0.2174  0.4918 -0.5085
 8488SOL    HW237098   3.596   1.844   8.316  0.3158 -0.3878 -0.0847
 8489SOL     OW37099   3.327   0.584   6.282  0.4866  0.1155  0.0373
 8489SOL    HW137100   3.261   0.623   6.339 -0.6395  0.5742 -1.5849
 8489SOL    HW237101   3.381   0.662   6.268  0.9779 -0.2322 -0.0418
 8490SOL     OW37102   1.385   1.420   6.836 -0.2308  0.2119 -0.0733
 8490SOL    HW137103   1.443   1.346   6.854  0.8725  1.1774  0.2895
 8490SOL    HW237104   1.407   1.492   6.894 -1.7243  0.3576  0.3047
 8491SOL     OW37105   1.039   2.161  16.603 -0.1079 -0.3305 -0.9225
 8491SOL    HW137106   1.075   2.228  16.545  2.1210 -1.2950 -0.6587
 8491SOL    HW237107   1.055   2.095  16.536  0.9170 -1.7165  0.7025
 8492SOL     OW37108   2.885   2.564   1.602  0.1039  0.0887  0.2549
 8492SOL    HW137109   2.825   2.632   1.632 -2.0982 -1.7489 -0.0656
 8492SOL    HW237110   2.943   2.570   1.678  0.8434  0.3627 -0.3179
 8493SOL     OW37111   0.096   2.626   4.097 -0.2452 -0.4990  0.0971
 8493SOL    HW137112   0.176   2.641   4.046 -1.8859  1.9632 -1.7759
 8493SOL    HW237113   0.023   2.648   4.040 -1.0682  0.7585  1.6690
 8494SOL     OW37114   1.641   4.043   5.684  0.0659 -0.1819  0.0803
 8494SOL    HW137115   1.604   4.126   5.713  0.7666 -0.2445  1.1663
 8494SOL    HW237116   1.562   3.997   5.657 -0.0444 -0.0978  0.2608
 8495SOL     OW37117   0.546   4.000   4.223  0.0241 -0.7979  0.3478
 8495SOL    HW137118   0.609   3.965   4.286  0.4681  0.9574  0.8757
 8495SOL    HW237119   0.569   3.962   4.138  0.1218 -0.2645  0.1367
 8496SOL     OW37120   2.910   3.367   5.300 -0.1085 -0.0349  0.4516
 8496SOL    HW137121   2.930   3.392   5.390 -0.5345 -0.5297  0.6870
 8496SOL    HW237122   2.978   3.304   5.275  1.1345  1.1864  0.7715
 8497SOL     OW37123   0.348   2.485   6.396  0.2076  0.0440 -0.3595
 8497SOL    HW137124   0.430   2.454   6.434 -0.4303  0.1837  1.1042
 8497SOL    HW237125   0.385   2.552   6.338  0.4253 -0.4101 -0.7426
 8498SOL     OW37126   0.347   0.834   8.689  0.5896 -0.2985 -0.5535
 8498SOL    HW137127   0.346   0.755   8.635  1.2243 -0.7151  0.0331
 8498SOL    HW237128   0.374   0.792   8.771 -0.1864  1.2354  0.5067
 8499SOL     OW37129   2.355   1.585   5.404  0.6737  0.3292  0.2897
 8499SOL    HW137130   2.331   1.669   5.443  1.4559  0.0493  1.3768
 8499SOL    HW237131   2.448   1.600   5.387  0.4973  1.8603  0.6685
 8500SOL     OW37132   2.633   1.071   0.210 -0.0836  0.2926  0.1680
 8500SOL    HW137133   2.574   1.050   0.283 -2.3270 -0.1172 -1.7481
 8500SOL    HW237134   2.712   1.021   0.233  0.4079  1.0770  0.1645
 8501SOL     OW37135   0.885   0.336   4.059  0.2338 -0.0132  0.1856
 8501SOL    HW137136   0.949   0.265   4.053  0.4719  0.0539  1.9593
 8501SOL    HW237137   0.816   0.293   4.110 -1.4490 -0.4984 -2.4767
 8502SOL     OW37138   2.948   2.807   3.551  0.2661  0.1206  0.1069
 8502SOL    HW137139   2.935   2.777   3.641  1.3806 -0.5919  0.0397
 8502SOL    HW237140   2.893   2.750   3.497  0.5264 -1.7326  1.8185
 8503SOL     OW37141   4.350   4.113   8.233  0.0623 -0.1027  0.2095
 8503SOL    HW137142   4.343   4.072   8.319  1.7284 -1.0990 -0.1347
 8503SOL    HW237143   4.371   4.204   8.257  0.9255 -0.0346 -0.8056
 8504SOL     OW37144   4.702   4.526   3.024  0.2095  0.3566  0.2383
 8504SOL    HW137145   4.706   4.464   2.952 -3.0267 -0.5066  0.8177
 8504SOL    HW237146   0.007   4.600   2.983 -1.3102 -0.2745 -2.5463
 8505SOL     OW37147   2.029   4.519   0.827  0.0072  0.1417  0.0099
 8505SOL    HW137148   2.074   4.573   0.892  2.3808 -1.0253 -0.6780
 8505SOL    HW237149   2.096   4.454   0.805  0.2550  0.7143 -0.9430
 8506SOL     OW37150   2.506   4.513   8.759  0.2869  0.0286 -0.1354
 8506SOL    HW137151   2.533   4.604   8.747  1.5431 -0.5728 -1.8691
 8506SOL    HW237152   2.444   4.518   8.685 -1.7804  0.3465  1.6207
 8507SOL     OW37153   1.939   3.069   5.354 -0.2324 -0.0795  0.8416
 8507SOL    HW137154   2.018   3.109   5.391  0.6682 -0.1698 -0.9856
 8507SOL    HW237155   1.875   3.136   5.378 -3.2259 -1.9327 -1.8503
 8508SOL     OW37156   0.561   0.466   5.072 -0.0801 -0.1224  0.4822
 8508SOL    HW137157   0.519   0.414   5.141 -1.9129 -2.1892 -2.1660
 8508SOL    HW237158   0.557   0.553   5.112 -0.0770  0.7243 -1.3460
 8509SOL     OW37159   3.555   3.678   6.917  0.0521 -0.1253 -0.5290
 8509SOL    HW137160   3.582   3.752   6.863  0.0341 -0.0848 -0.4813
 8509SOL    HW237161   3.483   3.642   6.866 -0.0330 -0.3364 -0.2610
 8510SOL     OW37162   3.259   3.817  15.664  0.0503  0.1790 -0.1449
 8510SOL    HW137163   3.239   3.811  15.571 -3.0183 -1.3150  0.6343
 8510SOL    HW237164   3.319   3.747  15.689 -1.3551 -0.7663  0.5664
 8511SOL     OW37165   1.600   4.208  14.386  0.1539  0.2481  0.6541
 8511SOL    HW137166   1.563   4.266  14.319  0.9212  0.8323  0.7362
 8511SOL    HW237167   1.591   4.120  14.351 -1.5176  0.7880 -0.2938
 8512SOL     OW37168   1.800   2.702   3.414 -1.1951  0.1542 -0.2422
 8512SOL    HW137169   1.826   2.732   3.501  4.2940 -1.8825 -1.1828
 8512SOL    HW237170   1.842   2.764   3.355 -1.0801  0.3070  0.0004
 8513SOL     OW37171   1.227   1.002   0.788  0.5869  0.2232 -0.0865
 8513SOL    HW137172   1.208   0.908   0.779  1.3114  0.4066 -3.6978
 8513SOL    HW237173   1.318   1.011   0.760  0.6403  3.0149  0.9849
 8514SOL     OW37174   3.334   0.660   0.283 -0.2529  0.4395 -0.2248
 8514SOL    HW137175   3.279   0.597   0.329  1.1360 -0.5732  0.0268
 8514SOL    HW237176   3.369   0.709   0.357 -1.6637  1.5578 -0.2847
 8515SOL     OW37177   4.189   1.646   5.594 -0.0834 -0.2649 -0.0533
 8515SOL    HW137178   4.239   1.646   5.512 -0.7440  0.8701 -0.4697
 8515SOL    HW237179   4.102   1.634   5.556  0.3210  2.5632 -1.9051
 8516SOL     OW37180   3.218   4.148   1.781  0.0097  0.1149 -0.3707
 8516SOL    HW137181   3.132   4.161   1.742  0.2136  2.1305 -0.1632
 8516SOL    HW237182   3.265   4.229   1.760  0.0361 -0.7368 -3.4914
 8517SOL     OW37183   2.615   0.489   1.431 -0.3218 -0.1415 -0.3016
 8517SOL    HW137184   2.588   0.532   1.350  1.2794  1.2033 -0.1139
 8517SOL    HW237185   2.583   0.403   1.405  0.7183 -0.8236  0.6457
 8518SOL     OW37186   1.433   2.835   6.955 -0.2795 -0.3354 -0.1753
 8518SOL    HW137187   1.351   2.885   6.962  1.7373  3.2091 -1.7773
 8518SOL    HW237188   1.393   2.768   6.899  1.1551 -0.8164 -0.6101
 8519SOL     OW37189   2.138   2.580  14.554  0.3001  0.0548 -0.3361
 8519SOL    HW137190   2.135   2.597  14.648  0.6449 -1.5349 -0.0407
 8519SOL    HW237191   2.223   2.537  14.546  1.0732  1.2043  1.9230
 8520SOL     OW37192   1.503   3.711  17.104  0.4127  0.9741  0.0144
 8520SOL    HW137193   1.541   3.726  17.017 -2.7444 -0.3276 -1.5984
 8520SOL    HW237194   1.576   3.742  17.158  0.6585 -2.3083  1.5623
 8521SOL     OW37195   0.997   4.462  13.404  0.1161 -0.0300  0.5720
 8521SOL    HW137196   0.983   4.401  13.476  1.2891  1.2088  1.8460
 8521SOL    HW237197   0.912   4.507  13.403  0.0184 -0.2771 -2.7005
 8522SOL     OW37198   3.828   0.898   7.155 -0.0700  0.1171 -0.9182
 8522SOL    HW137199   3.756   0.909   7.217 -0.7429 -0.0797 -1.6605
 8522SOL    HW237200   3.778   0.905   7.074 -1.8922 -2.9998 -0.0561
 8523SOL     OW37201   2.347   0.700   9.483  0.3853 -0.1691 -0.4379
 8523SOL    HW137202   2.359   0.762   9.411  0.7604 -2.2712 -2.1720
 8523SOL    HW237203   2.397   0.624   9.454  0.7243 -0.4625  0.9080
 8524SOL     OW37204   1.971   0.397   5.895  1.0127  0.3196 -0.1331
 8524SOL    HW137205   1.975   0.480   5.847 -0.0920  1.3875  1.6373
 8524SOL    HW237206   1.965   0.339   5.819  0.3374  2.8056 -1.9866
 8525SOL     OW37207   1.578   3.290  13.506 -0.3345 -0.3942 -0.2951
 8525SOL    HW137208   1.658   3.243  13.531 -0.3543  0.0491  0.6123
 8525SOL    HW237209   1.608   3.379  13.489 -0.5749 -0.0032  1.2821
 8526SOL     OW37210   1.389   2.138  14.332  0.0293  0.6654  0.1568
 8526SOL    HW137211   1.451   2.173  14.268  0.2367  0.7069  0.3810
 8526SOL    HW237212   1.359   2.058  14.288  1.1716 -0.8572  2.1487
 8527SOL     OW37213   0.697   0.502  15.942 -0.0864  0.1714  0.2465
 8527SOL    HW137214   0.768   0.460  15.894  1.6464  1.5744  1.5859
 8527SOL    HW237215   0.735   0.547  16.017  2.3084 -2.2162  0.4809
 8528SOL     OW37216   2.120   1.105   1.473  0.4541 -0.3355  0.6567
 8528SOL    HW137217   2.082   1.146   1.396 -1.1268 -0.9517  1.0933
 8528SOL    HW237218   2.212   1.104   1.449  0.1731  3.9242 -0.6104
 8529SOL     OW37219   1.935   1.809   7.860  0.3445 -0.6276  0.2504
 8529SOL    HW137220   1.965   1.820   7.769  1.1423  1.7631  0.7915
 8529SOL    HW237221   1.939   1.713   7.858 -1.6611 -0.7346  1.2984
 8530SOL     OW37222   0.711   1.338  13.960 -0.5660 -0.2726  0.2982
 8530SOL    HW137223   0.616   1.349  13.953 -0.7016 -0.7109  1.5734
 8530SOL    HW237224   0.734   1.418  14.006 -0.2868  0.0843 -0.4523
 8531SOL     OW37225   0.586   2.142   0.554  0.1103  0.1071  0.4720
 8531SOL    HW137226   0.511   2.183   0.596 -0.1197 -0.1683  0.3245
 8531SOL    HW237227   0.622   2.202   0.488 -0.7743 -0.3549 -0.4241
 8532SOL     OW37228   0.780   4.643  13.341  0.0266 -0.0698 -0.1689
 8532SOL    HW137229   0.714   4.690  13.392  1.0836  2.8898 -1.4618
 8532SOL    HW237230   0.845   4.713  13.352 -0.5024  0.0417  2.1812
 8533SOL     OW37231   1.088   4.615   3.971  0.2322  0.3648 -0.4424
 8533SOL    HW137232   1.156   4.666   3.927  0.2715  2.4034  1.9870
 8533SOL    HW237233   1.149   4.552   4.010 -1.8316 -0.6333  1.1447
 8534SOL     OW37234   3.472   3.229   2.767  0.6256 -0.1029  0.1005
 8534SOL    HW137235   3.521   3.148   2.767  0.8243  0.0232 -2.3259
 8534SOL    HW237236   3.524   3.279   2.704  0.1106  0.1218 -0.1463
 8535SOL     OW37237   3.348   4.050   4.396  0.2491 -0.4486  0.5019
 8535SOL    HW137238   3.286   4.123   4.390 -1.4362 -1.9589 -0.4260
 8535SOL    HW237239   3.312   4.008   4.475  0.4108 -0.0521  0.7880
 8536SOL     OW37240   2.301   1.104  15.240  0.0834  0.5312  0.1656
 8536SOL    HW137241   2.350   1.024  15.257 -1.4885 -0.5717 -0.4761
 8536SOL    HW237242   2.376   1.162  15.255 -1.2392  2.3006 -0.0329
 8537SOL     OW37243   0.483   1.634  14.247 -0.1999  0.4378  0.1818
 8537SOL    HW137244   0.471   1.601  14.336 -0.7796 -2.3622 -0.9356
 8537SOL    HW237245   0.528   1.566  14.197 -2.4060 -1.6968  1.1235
 8538SOL     OW37246   2.361   2.813   3.232 -0.2267 -0.2102 -0.2411
 8538SOL    HW137247   2.407   2.802   3.149  0.8582  2.3405  0.0028
 8538SOL    HW237248   2.427   2.855   3.288 -0.7587 -0.4627  0.5894
 8539SOL     OW37249   0.930   2.126  16.236 -0.1731  0.5285  0.4396
 8539SOL    HW137250   0.867   2.122  16.308  0.2207  1.2249  0.8199
 8539SOL    HW237251   0.992   2.056  16.257  1.7824  1.1042 -3.3849
 8540SOL     OW37252   3.864   1.887   5.377 -0.5349  0.5184  0.2887
 8540SOL    HW137253   3.909   1.921   5.454  1.3036  0.1834 -0.6551
 8540SOL    HW237254   3.884   1.958   5.316 -1.0388 -0.4919 -1.0391
 8541SOL     OW37255   4.063   0.881   3.159 -0.3585  0.1156  0.0689
 8541SOL    HW137256   4.089   0.800   3.116 -1.0960  0.2772 -0.6898
 8541SOL    HW237257   4.122   0.882   3.234 -0.3698 -2.1356  0.1115
 8542SOL     OW37258   0.250   3.900   3.447 -0.3204  0.0821 -0.1775
 8542SOL    HW137259   0.239   3.993   3.467 -0.6781  0.0239 -0.0983
 8542SOL    HW237260   0.160   3.867   3.437  0.3455 -1.5304 -0.7905
 8543SOL     OW37261   4.188   2.756   7.683  0.5668 -0.3614  0.0165
 8543SOL    HW137262   4.231   2.824   7.736  0.6233 -1.4065  1.3189
 8543SOL    HW237263   4.156   2.814   7.614  1.8499  1.4520  0.9313
 8544SOL     OW37264   4.215   3.942   0.396  0.5019  0.0530 -0.2051
 8544SOL    HW137265   4.248   3.855   0.420 -0.1414 -0.2278 -0.3192
 8544SOL    HW237266   4.259   3.995   0.462 -0.5505  1.8803 -0.9865
 8545SOL     OW37267   3.485   0.906   8.645 -0.3208  0.1478  0.8186
 8545SOL    HW137268   3.472   0.978   8.707  0.0112  0.8652  0.0535
 8545SOL    HW237269   3.524   0.941   8.565  1.3127 -1.0795  1.0681
 8546SOL     OW37270   2.637   2.354  12.845  0.3945 -0.0067  0.0915
 8546SOL    HW137271   2.720   2.373  12.801  0.4119 -1.7451 -0.6058
 8546SOL    HW237272   2.623   2.436  12.893  0.5631 -0.4320  0.8609
 8547SOL     OW37273   2.398   1.944   3.690 -0.3898 -0.3959  0.1140
 8547SOL    HW137274   2.404   1.970   3.782 -0.2181 -1.4980  0.4147
 8547SOL    HW237275   2.386   2.026   3.642  3.1480  0.0383 -0.0268
 8548SOL     OW37276   3.309   2.954   5.113 -0.1544 -0.2661 -0.0479
 8548SOL    HW137277   3.224   2.987   5.087  0.5935  1.1392 -0.7016
 8548SOL    HW237278   3.339   3.024   5.171 -2.1315 -0.3256  1.0461
 8549SOL     OW37279   3.311   4.190   8.265 -0.1780 -0.4927  0.0736
 8549SOL    HW137280   3.387   4.219   8.215 -0.4608  0.9450  0.4769
 8549SOL    HW237281   3.291   4.104   8.227 -2.0875 -0.0769  0.1188
 8550SOL     OW37282   0.955   0.778   3.472  0.5827 -0.0334 -0.9152
 8550SOL    HW137283   1.007   0.858   3.478 -0.2852  0.5685 -1.4203
 8550SOL    HW237284   0.871   0.804   3.510  0.5094 -0.9838 -0.4228
 8551SOL     OW37285   4.021   1.402   4.667 -0.2105 -0.1711  0.5413
 8551SOL    HW137286   4.114   1.383   4.682 -0.4250 -1.0832  0.7192
 8551SOL    HW237287   4.009   1.390   4.573  1.2108 -0.2457  0.3699
 8552SOL     OW37288   4.217   3.198   3.982  0.0487  0.5496 -0.2728
 8552SOL    HW137289   4.202   3.159   3.896  0.9072  1.5245 -0.8709
 8552SOL    HW237290   4.312   3.192   3.993  0.1841  4.5324  0.7341
 8553SOL     OW37291   1.029   2.284   9.090 -0.0505  0.2395 -0.0192
 8553SOL    HW137292   1.029   2.211   9.152  0.2559  1.2370  1.1591
 8553SOL    HW237293   1.005   2.234   9.012 -0.0244 -0.7716  0.6176
 8554SOL     OW37294   1.124   1.113   8.227  0.6703  0.7711 -0.1085
 8554SOL    HW137295   1.071   1.095   8.305  1.1174 -1.8400 -0.3879
 8554SOL    HW237296   1.056   1.140   8.166 -0.5540  0.9630  1.3573
 8555SOL     OW37297   4.290   3.725   4.355  0.3801  0.7271  0.4422
 8555SOL    HW137298   4.205   3.715   4.312 -0.2612 -0.9094  2.0652
 8555SOL    HW237299   4.346   3.686   4.287 -0.4752 -3.2030  1.9715
 8556SOL     OW37300   3.803   1.859  15.848 -0.5491 -0.2961 -0.0551
 8556SOL    HW137301   3.877   1.916  15.869 -0.8907  0.4412 -0.8696
 8556SOL    HW237302   3.739   1.930  15.840 -1.0466 -0.9300 -1.7018
 8557SOL     OW37303   4.421   0.891   2.103 -0.0134  0.1883 -0.4192
 8557SOL    HW137304   4.413   0.820   2.039  1.9811  1.0218 -1.5942
 8557SOL    HW237305   4.340   0.942   2.093 -0.0916  0.2330  0.4465
 8558SOL     OW37306   0.681   0.292   7.553 -0.0896  0.3976 -0.1265
 8558SOL    HW137307   0.608   0.282   7.491 -0.1734 -2.6906  0.4522
 8558SOL    HW237308   0.635   0.352   7.612 -1.1582 -0.6016  0.0657
 8559SOL     OW37309   3.486   4.442  16.638  0.1931 -0.0759 -0.0306
 8559SOL    HW137310   3.489   4.463  16.544  2.6649 -0.8610 -0.1309
 8559SOL    HW237311   3.415   4.378  16.632  0.0811  0.1793 -1.5365
 8560SOL     OW37312   2.271   3.563   2.671  0.0784 -0.1517  0.3770
 8560SOL    HW137313   2.188   3.514   2.668  0.2702 -0.4378 -0.3847
 8560SOL    HW237314   2.232   3.650   2.675 -0.8276 -0.4891 -0.9620
 8561SOL     OW37315   4.218   2.731   7.255 -0.9682  0.8409 -0.4053
 8561SOL    HW137316   4.237   2.819   7.223 -0.2193  1.0384  0.5839
 8561SOL    HW237317   4.125   2.745   7.276 -1.1880 -0.5505 -0.4926
 8562SOL     OW37318   3.740   2.678   0.703  0.2132 -0.1480 -0.6457
 8562SOL    HW137319   3.674   2.736   0.664  1.1499  1.2441 -0.1713
 8562SOL    HW237320   3.699   2.592   0.713 -0.4609  0.1284 -1.0399
 8563SOL     OW37321   2.757   2.534   1.890  0.5631 -0.5359 -0.5910
 8563SOL    HW137322   2.774   2.598   1.821 -1.9238  0.3116 -0.4301
 8563SOL    HW237323   2.663   2.520   1.876  0.7288 -0.1429 -2.0314
 8564SOL     OW37324   1.214   0.019   6.704 -0.5579 -0.1138  0.3629
 8564SOL    HW137325   1.219   4.691   6.771  2.1873  1.7995  2.1434
 8564SOL    HW237326   1.152   0.083   6.738 -1.1780 -0.8952  0.6922
 8565SOL     OW37327   3.020   4.707   4.769  0.0546 -0.0759 -0.4216
 8565SOL    HW137328   3.049   0.030   4.835  1.6532 -1.4278  0.1554
 8565SOL    HW237329   3.083   4.729   4.700  0.4325 -1.8892 -0.6670
 8566SOL     OW37330   1.561   4.495   0.990 -0.0774  0.0359  0.3731
 8566SOL    HW137331   1.626   4.448   0.938 -0.2157  0.5372 -0.2651
 8566SOL    HW237332   1.479   4.453   0.960 -0.0654  1.0142 -1.0409
 8567SOL     OW37333   2.486   2.534   3.339 -0.1446 -0.2436  0.0342
 8567SOL    HW137334   2.422   2.540   3.268 -0.7775 -1.6476  0.4811
 8567SOL    HW237335   2.428   2.534   3.416 -0.7186  1.1900 -0.4011
 8568SOL     OW37336   0.396   1.985   5.683 -0.3178  0.3973 -0.4638
 8568SOL    HW137337   0.347   1.903   5.691 -1.0898  0.5055 -4.0629
 8568SOL    HW237338   0.415   2.003   5.775  1.9813  0.8633 -1.0360
 8569SOL     OW37339   3.092   2.450   4.690 -0.1419  0.0209  0.4208
 8569SOL    HW137340   3.063   2.533   4.651  0.9456 -0.9277 -2.4044
 8569SOL    HW237341   3.185   2.462   4.710 -0.1675  2.1723 -0.6367
 8570SOL     OW37342   0.701   2.358   2.131 -0.1977 -0.0633  0.3745
 8570SOL    HW137343   0.739   2.336   2.216  0.8879 -2.0837 -0.6255
 8570SOL    HW237344   0.610   2.386   2.141 -0.3558 -0.4712  0.0966
 8571SOL     OW37345   2.067   0.142   8.205 -0.1214  0.1048  0.0345
 8571SOL    HW137346   2.031   0.213   8.258  0.5610  1.5206 -1.4090
 8571SOL    HW237347   2.020   0.060   8.224 -0.2848  0.1508 -0.1716
 8572SOL     OW37348   0.259   1.412   6.103 -0.0575 -0.1479  0.8639
 8572SOL    HW137349   0.179   1.360   6.094  0.8347 -1.2670 -0.6390
 8572SOL    HW237350   0.292   1.380   6.187 -0.0827 -0.6888  0.6694
 8573SOL     OW37351   0.719   1.183   5.555 -0.3457 -0.2245  0.4369
 8573SOL    HW137352   0.749   1.273   5.542 -0.3912 -0.4181 -0.9275
 8573SOL    HW237353   0.649   1.202   5.618  0.3161  0.0512  1.1016
 8574SOL     OW37354   0.595   3.968   3.212 -0.7953  0.2499 -0.2067
 8574SOL    HW137355   0.645   3.925   3.281 -1.8315 -1.3374 -0.4683
 8574SOL    HW237356   0.660   3.958   3.142  0.6631  0.1815  1.1648
 8575SOL     OW37357   2.119   0.409   4.447  0.1482 -0.3643 -0.5634
 8575SOL    HW137358   2.083   0.497   4.434  2.2497  0.4638 -0.9445
 8575SOL    HW237359   2.114   0.373   4.358  0.7753  1.0568 -1.1948
 8576SOL     OW37360   4.459   0.257   2.435  0.1824  0.1445 -0.5326
 8576SOL    HW137361   4.479   0.172   2.395 -1.2155  1.5131 -4.1450
 8576SOL    HW237362   4.365   0.259   2.416 -0.0035  3.7998  0.7908
 8577SOL     OW37363   0.667   3.755   8.893 -0.0129  0.1942 -0.9208
 8577SOL    HW137364   0.680   3.724   8.803 -0.8476 -0.5960 -0.7749
 8577SOL    HW237365   0.632   3.679   8.939 -1.7069 -0.1762 -2.7878
 8578SOL     OW37366   4.698   2.196  12.349 -0.1114 -0.0860  0.4808
 8578SOL    HW137367   0.019   2.210  12.421  1.5053 -2.4042 -0.4005
 8578SOL    HW237368   4.627   2.252  12.377 -0.3309 -0.2420  0.2411
 8579SOL     OW37369   1.854   3.241   7.655 -0.3363 -0.0893  0.2708
 8579SOL    HW137370   1.939   3.212   7.688  1.6729  2.3274 -2.6808
 8579SOL    HW237371   1.855   3.186   7.576  1.7950 -0.5457  0.6040
 8580SOL     OW37372   0.557   2.612   8.610 -0.2662  0.4175 -0.1222
 8580SOL    HW137373   0.569   2.578   8.699  1.1882 -0.0152 -0.4920
 8580SOL    HW237374   0.646   2.610   8.575 -1.2380  2.1506 -2.6759
 8581SOL     OW37375   1.207   3.091  12.641  0.4892  0.0520  0.1160
 8581SOL    HW137376   1.212   3.057  12.730 -1.0448  0.4225  0.3391
 8581SOL    HW237377   1.134   3.050  12.593  0.3279 -0.4359  0.7877
 8582SOL     OW37378   3.792   1.872   9.644 -0.2431 -0.2728 -0.3690
 8582SOL    HW137379   3.855   1.913   9.585  0.1375 -1.4149 -0.7599
 8582SOL    HW237380   3.843   1.847   9.721 -0.1525 -0.6679 -0.5585
 8583SOL     OW37381   3.989   2.129  11.368  0.1617  0.4779  0.4077
 8583SOL    HW137382   4.060   2.103  11.427  1.0091  2.2322  0.1468
 8583SOL    HW237383   4.036   2.171  11.295  0.2421  0.5926  0.5247
 8584SOL     OW37384   1.091   4.684   7.402 -0.3718  0.8417  0.0680
 8584SOL    HW137385   1.131   4.608   7.361  1.1788  0.5479  2.1558
 8584SOL    HW237386   1.108   4.659   7.493  1.0690 -1.0264 -0.7141
 8585SOL     OW37387   0.803   0.260   6.674  0.0692 -0.2327  0.7737
 8585SOL    HW137388   0.714   0.236   6.650 -0.0461  1.2095 -0.2581
 8585SOL    HW237389   0.781   0.339   6.722  0.7267  0.5597 -0.2258
 8586SOL     OW37390   1.430   2.510  13.385 -0.2545  0.4418  0.2617
 8586SOL    HW137391   1.465   2.531  13.298  0.6813 -0.1709  0.4956
 8586SOL    HW237392   1.485   2.436  13.409 -3.3952 -2.0675 -0.2116
 8587SOL     OW37393   2.668   1.569   2.526 -0.1136  0.2866  0.1510
 8587SOL    HW137394   2.603   1.534   2.587  1.2133 -4.5602 -1.2552
 8587SOL    HW237395   2.720   1.494   2.497 -1.2000  0.2381 -1.6608
 8588SOL     OW37396   0.872   1.780   1.694 -0.1660  0.0066 -0.6225
 8588SOL    HW137397   0.857   1.865   1.734  0.2428 -1.1501  2.0536
 8588SOL    HW237398   0.919   1.734   1.764 -0.9415 -1.1792 -0.8619
 8589SOL     OW37399   1.981   2.324   6.240 -0.3759 -0.3491 -0.0523
 8589SOL    HW137400   2.071   2.321   6.273 -0.4444 -1.4459  0.0265
 8589SOL    HW237401   1.975   2.228   6.239  0.8539 -0.4142 -0.9930
 8590SOL     OW37402   2.490   2.174   5.912 -0.4785 -0.1224  0.8622
 8590SOL    HW137403   2.445   2.194   5.830 -0.7956  0.7335  1.2441
 8590SOL    HW237404   2.539   2.101   5.874  0.9563  0.6947  1.1874
 8591SOL     OW37405   0.681   2.583  12.190  0.8822 -0.3797 -0.1014
 8591SOL    HW137406   0.683   2.487  12.195  2.2403 -0.3471  0.1488
 8591SOL    HW237407   0.700   2.586  12.096 -2.3223 -0.8274 -0.7422
 8592SOL     OW37408   4.674   2.694   4.817 -0.1339  0.0513  0.0362
 8592SOL    HW137409   4.596   2.697   4.762 -1.5037  0.1448  1.9818
 8592SOL    HW237410   4.706   2.784   4.824 -1.0099  0.4403 -0.9579
 8593SOL     OW37411   0.613   1.418   8.442 -0.4393  0.0656  0.3560
 8593SOL    HW137412   0.540   1.404   8.503 -0.4257  1.0329  0.5845
 8593SOL    HW237413   0.677   1.472   8.488  2.2934 -1.8554 -1.1548
 8594SOL     OW37414   2.398   3.911   5.920  0.0081  0.1888 -0.0397
 8594SOL    HW137415   2.324   3.961   5.954 -0.8787  0.1898 -1.9646
 8594SOL    HW237416   2.412   3.859   5.999  0.9009  0.7807  0.2057
 8595SOL     OW37417   2.086   1.129   2.917 -0.2557 -0.6080 -0.2361
 8595SOL    HW137418   2.095   1.062   2.985 -4.3341 -0.6937  0.2357
 8595SOL    HW237419   2.084   1.079   2.835  1.3058 -1.4632  0.2624
 8596SOL     OW37420   4.001   1.307  10.921  0.0652  0.0996 -0.7095
 8596SOL    HW137421   4.080   1.295  10.973 -0.0505 -0.4760 -0.6702
 8596SOL    HW237422   3.927   1.292  10.980  0.8962  2.0112  0.8276
 8597SOL     OW37423   2.875   4.140   4.593 -0.3562  0.4918  0.0321
 8597SOL    HW137424   2.935   4.182   4.655  0.9426  0.7109 -1.3500
 8597SOL    HW237425   2.911   4.157   4.506 -0.5643 -0.7192 -0.2885
 8598SOL     OW37426   3.052   4.486   4.052  0.0532  0.2824 -0.0566
 8598SOL    HW137427   3.118   4.555   4.057  1.9577 -1.5314 -0.3154
 8598SOL    HW237428   2.967   4.527   4.071  0.1495  0.2698  0.3983
 8599SOL     OW37429   4.199   0.351   7.613 -0.3688  0.2696  0.6459
 8599SOL    HW137430   4.137   0.396   7.670 -0.6321 -0.7977  1.2189
 8599SOL    HW237431   4.225   0.272   7.660  1.9211 -0.6672 -2.1888
 8600SOL     OW37432   3.993   4.209  10.220 -0.4693  0.0053  0.5480
 8600SOL    HW137433   3.936   4.280  10.250 -0.3726  0.1840  0.3068
 8600SOL    HW237434   4.073   4.260  10.219 -1.8623  2.1290 -1.2218
 8601SOL     OW37435   4.470   0.983  17.181  0.6103 -0.6905 -0.5943
 8601SOL    HW137436   4.460   1.041  17.257  1.4726 -1.8629  0.4181
 8601SOL    HW237437   4.489   1.042  17.108 -0.5569 -1.3533 -1.4234
 8602SOL     OW37438   0.280   1.693   0.337  0.3277 -0.0667 -0.1320
 8602SOL    HW137439   0.255   1.605   0.308 -0.3951  0.4823 -1.1872
 8602SOL    HW237440   0.363   1.667   0.377 -0.0477 -1.7789 -0.4712
 8603SOL     OW37441   3.512   3.880   2.269  0.0991  0.2317  0.0933
 8603SOL    HW137442   3.581   3.941   2.294 -0.3171  0.5949  0.3688
 8603SOL    HW237443   3.503   3.828   2.349  0.0483  0.3162  0.1427
 8604SOL     OW37444   4.259   1.037   6.779  0.2019 -0.5114  0.3523
 8604SOL    HW137445   4.281   1.088   6.857 -1.4528  0.5690  0.1234
 8604SOL    HW237446   4.285   0.950   6.808 -0.9916 -1.6973 -2.1814
 8605SOL     OW37447   2.401   0.995   8.113 -0.0438  0.3646 -0.1748
 8605SOL    HW137448   2.411   1.076   8.163 -0.4049 -1.1434  2.3733
 8605SOL    HW237449   2.322   1.006   8.060  0.8024  0.9209 -1.3204
 8606SOL     OW37450   0.232   1.954   0.272 -0.6689 -0.4616  0.1356
 8606SOL    HW137451   0.264   1.866   0.294 -0.1597 -0.7582 -1.7794
 8606SOL    HW237452   0.145   1.937   0.234 -0.3102 -1.5013 -0.2170
 8607SOL     OW37453   3.699   3.576   4.394 -0.2949  0.0639  0.7101
 8607SOL    HW137454   3.642   3.590   4.319  1.2620  2.2711 -0.0594
 8607SOL    HW237455   3.636   3.594   4.463  0.4396  0.7424  1.2037
 8608SOL     OW37456   1.464   1.405  10.538  0.1457 -0.4585 -0.0567
 8608SOL    HW137457   1.493   1.496  10.533 -1.0841  0.0311  1.4110
 8608SOL    HW237458   1.532   1.362  10.589 -1.1444 -1.7496  0.6014
 8609SOL     OW37459   2.736   0.714   5.203 -0.0993  0.2133 -0.3228
 8609SOL    HW137460   2.736   0.735   5.296 -0.9926 -1.0795 -0.0390
 8609SOL    HW237461   2.670   0.645   5.214  0.0758  0.2620  1.0289
 8610SOL     OW37462   1.367   3.685   6.006 -0.1770  0.2585  0.7176
 8610SOL    HW137463   1.389   3.660   6.096 -0.5948 -0.0904  0.7198
 8610SOL    HW237464   1.279   3.654   6.025 -1.1838  2.0446 -0.9959
 8611SOL     OW37465   3.215   2.538   0.813  0.2806  0.2735 -0.0681
 8611SOL    HW137466   3.210   2.510   0.721 -4.7059 -2.9341  1.1772
 8611SOL    HW237467   3.253   2.625   0.798  1.5039 -0.5099 -1.5857
 8612SOL     OW37468   1.614   2.942   4.852  0.4927 -0.7461  0.5438
 8612SOL    HW137469   1.561   2.887   4.794  1.1779 -0.1277 -0.6918
 8612SOL    HW237470   1.686   2.884   4.875 -0.3991 -2.2038 -0.2955
 8613SOL     OW37471   0.218   0.516  13.357  0.4258 -0.5547  0.4956
 8613SOL    HW137472   0.159   0.441  13.370 -0.4528  0.1016  0.2581
 8613SOL    HW237473   0.276   0.513  13.434 -0.4056 -2.1886  1.0740
 8614SOL     OW37474   4.460   3.874   3.711  0.1459  0.1364 -0.0634
 8614SOL    HW137475   4.412   3.941   3.761 -0.1116  1.0097 -1.4962
 8614SOL    HW237476   4.426   3.801   3.763  0.3937 -0.4671 -0.7600
 8615SOL     OW37477   4.356   4.504   8.054  0.1051 -0.4210 -0.5785
 8615SOL    HW137478   4.342   4.585   8.005 -1.8327  0.3642  1.2487
 8615SOL    HW237479   4.275   4.498   8.105  0.8764 -0.3421  0.6637
 8616SOL     OW37480   1.485   3.051   7.751  0.4702 -0.0959  0.4353
 8616SOL    HW137481   1.418   2.985   7.769  0.5637  0.1138  1.5301
 8616SOL    HW237482   1.570   3.010   7.770 -0.9940 -2.8576  1.0232
 8617SOL     OW37483   4.684   2.767  15.594  0.1414 -1.2296  0.0468
 8617SOL    HW137484   4.642   2.794  15.513  2.9451 -0.6571 -1.2149
 8617SOL    HW237485   4.707   2.854  15.626  0.0899 -1.0449 -0.4171
 8618SOL     OW37486   3.379   0.669  17.467 -0.0326 -0.3917 -0.5067
 8618SOL    HW137487   3.292   0.708  17.477 -0.5644 -1.7217  0.1538
 8618SOL    HW237488   3.393   0.631  17.554  2.6707  1.2404 -0.2241
 8619SOL     OW37489   1.622   3.878  11.191 -0.3491 -0.3184 -0.2677
 8619SOL    HW137490   1.703   3.870  11.140 -0.7287  0.0756 -0.9323
 8619SOL    HW237491   1.650   3.910  11.276 -1.3065 -1.1832  0.3748
 8620SOL     OW37492   4.238   1.043   3.634 -0.3113 -0.4919  0.6502
 8620SOL    HW137493   4.265   0.974   3.696 -0.7248 -0.6126  0.6980
 8620SOL    HW237494   4.145   1.025   3.615  0.0257 -0.3876 -1.1267
 8621SOL     OW37495   0.290   1.661   6.000  0.3062  0.9785  0.7923
 8621SOL    HW137496   0.264   1.577   6.039  0.6310 -0.5385 -2.2267
 8621SOL    HW237497   0.384   1.648   6.012  0.3952  0.0740 -0.9392
 8622SOL     OW37498   0.832   3.951   3.919  0.3711 -0.2864 -0.1767
 8622SOL    HW137499   0.845   3.940   3.825  0.0430  1.3493 -0.4114
 8622SOL    HW237500   0.916   3.991   3.944  0.7348 -1.5513  0.5992
 8623SOL     OW37501   2.676   0.670  14.709 -0.0208 -0.0459 -0.2499
 8623SOL    HW137502   2.665   0.747  14.654 -0.0070 -0.6143 -1.0599
 8623SOL    HW237503   2.768   0.669  14.735 -0.6249  0.7306  1.9407
 8624SOL     OW37504   1.647   1.248   0.590  0.7781 -0.0692 -0.1331
 8624SOL    HW137505   1.698   1.263   0.509 -0.6858 -1.2596 -1.2658
 8624SOL    HW237506   1.593   1.326   0.602  1.7656  0.7496 -0.9483
 8625SOL     OW37507   0.503   1.230  13.249 -0.1621  0.1024 -0.0422
 8625SOL    HW137508   0.563   1.294  13.288 -0.1518 -1.1073  1.9504
 8625SOL    HW237509   0.421   1.268  13.280 -0.2420 -0.3525  0.3154
 8626SOL     OW37510   2.336   1.293   9.150  0.3941 -0.0055 -0.3172
 8626SOL    HW137511   2.246   1.301   9.119  0.5620  1.6557 -0.3763
 8626SOL    HW237512   2.389   1.311   9.072 -0.3976  1.2470 -0.5669
 8627SOL     OW37513   1.968   0.296   5.565  0.5613 -0.7593 -0.2328
 8627SOL    HW137514   1.946   0.332   5.480  0.7358  0.9392  0.4430
 8627SOL    HW237515   2.046   0.346   5.589  0.1227 -0.6487  0.9847
 8628SOL     OW37516   1.673   4.459   8.618  0.4798  0.5519 -0.8907
 8628SOL    HW137517   1.643   4.388   8.675 -2.1196  1.0045 -1.7156
 8628SOL    HW237518   1.653   4.541   8.663  0.8461 -0.9307  1.9979
 8629SOL     OW37519   4.713   4.725   9.704  0.8497 -0.1630 -0.0421
 8629SOL    HW137520   0.060   0.021   9.723  1.6608 -1.7959 -0.6578
 8629SOL    HW237521   4.728   4.633   9.728  0.0237 -0.0976  0.7216
 8630SOL     OW37522   2.160   2.220   4.112  0.6537  0.7634 -0.1248
 8630SOL    HW137523   2.119   2.231   4.198 -1.5209  2.3256 -1.3835
 8630SOL    HW237524   2.084   2.205   4.057  0.5927  1.1721 -0.1495
 8631SOL     OW37525   3.759   1.769   7.938 -0.0115  0.1410 -0.4452
 8631SOL    HW137526   3.854   1.780   7.925 -0.0401  0.7710 -0.0854
 8631SOL    HW237527   3.722   1.777   7.850 -1.7674  1.1587  0.4066
 8632SOL     OW37528   2.072   1.634   8.344  0.0395  0.4243 -0.4847
 8632SOL    HW137529   2.115   1.635   8.258 -1.1452 -3.1050 -1.1066
 8632SOL    HW237530   2.001   1.575   8.320  1.6921 -0.6938 -2.6704
 8633SOL     OW37531   0.273   3.219   6.991  0.1877  0.0021  0.4022
 8633SOL    HW137532   0.273   3.253   6.902  0.8452  1.5558  0.9931
 8633SOL    HW237533   0.195   3.264   7.024 -0.2063  1.3145 -2.3510
 8634SOL     OW37534   0.224   3.323   7.678  0.2936  0.6565 -0.6000
 8634SOL    HW137535   0.193   3.294   7.764 -0.6577  1.9179 -0.5174
 8634SOL    HW237536   0.160   3.297   7.612  2.4310 -2.5375 -1.3889
 8635SOL     OW37537   2.856   1.197  11.480 -0.7243 -0.1025  0.3893
 8635SOL    HW137538   2.780   1.144  11.504 -0.5591 -0.7213 -0.4246
 8635SOL    HW237539   2.844   1.263  11.547 -1.3664  0.1424  0.0301
 8636SOL     OW37540   3.797   0.576   3.463 -0.1813 -0.3392 -0.0737
 8636SOL    HW137541   3.763   0.639   3.527 -1.3807 -0.8140 -0.2495
 8636SOL    HW237542   3.888   0.599   3.479 -0.1032 -0.7818  0.1063
 8637SOL     OW37543   3.464   3.972   8.411  0.8382  0.3173  0.2362
 8637SOL    HW137544   3.514   4.040   8.368  1.5484  0.4294  1.2305
 8637SOL    HW237545   3.432   4.010   8.493  1.0565  0.1372  0.4032
 8638SOL     OW37546   1.271   4.464   4.744  0.4882 -0.4150 -0.5816
 8638SOL    HW137547   1.226   4.383   4.720 -0.8938  0.2662 -0.2535
 8638SOL    HW237548   1.233   4.476   4.831  1.5667 -1.5796  0.0586
 8639SOL     OW37549   3.328   2.616   3.963  0.2730 -0.1592  0.1477
 8639SOL    HW137550   3.319   2.524   3.987 -2.2512 -0.2217 -0.9872
 8639SOL    HW237551   3.246   2.618   3.912  0.8002  1.1565 -0.6670
 8640SOL     OW37552   2.341   1.740  16.955 -0.1916 -0.6199  0.5124
 8640SOL    HW137553   2.389   1.714  17.034  0.6737 -2.2266 -0.5527
 8640SOL    HW237554   2.260   1.776  16.991  0.4724 -0.3827  1.7736
 8641SOL     OW37555   3.868   2.558   8.924  0.3039 -0.0312  0.5668
 8641SOL    HW137556   3.817   2.638   8.938  0.3879 -0.1808  1.7168
 8641SOL    HW237557   3.799   2.499   8.895 -0.1315  0.8667 -0.2316
 8642SOL     OW37558   3.722   1.328   2.714 -0.2097  0.4827  0.5158
 8642SOL    HW137559   3.641   1.323   2.664  1.4269  2.3543 -2.3263
 8642SOL    HW237560   3.697   1.351   2.804  0.8046 -1.1634  1.2105
 8643SOL     OW37561   4.270   2.515   8.507  0.3670  0.0962  0.2916
 8643SOL    HW137562   4.189   2.507   8.557  1.0017 -0.8473  1.1764
 8643SOL    HW237563   4.252   2.602   8.471  2.6669  0.4975  0.0814
 8644SOL     OW37564   2.556   1.148   3.979 -0.3858 -0.2570  0.5614
 8644SOL    HW137565   2.584   1.230   4.020 -1.2848  0.4324 -0.2089
 8644SOL    HW237566   2.496   1.188   3.916 -1.9771 -0.9793  1.6242
 8645SOL     OW37567   2.109   0.502  13.847 -0.1748  0.0628  0.1434
 8645SOL    HW137568   2.150   0.426  13.805  2.9478  2.3018 -0.8517
 8645SOL    HW237569   2.023   0.498  13.806 -0.7146 -1.5507  1.4284
 8646SOL     OW37570   1.994   2.853   3.903  0.2970  0.0501 -0.1095
 8646SOL    HW137571   1.924   2.839   3.967  0.6517 -2.0207 -0.1562
 8646SOL    HW237572   1.994   2.948   3.890 -3.2559 -0.2291 -2.0472
 8647SOL     OW37573   4.039   4.431   2.086 -0.3076  0.4125 -0.5376
 8647SOL    HW137574   3.973   4.470   2.143  0.5462 -1.5410  1.7564
 8647SOL    HW237575   3.990   4.356   2.052 -0.0271  0.7370 -1.6777
 8648SOL     OW37576   3.192   2.691   1.637 -0.0976  0.3844 -0.0653
 8648SOL    HW137577   3.287   2.709   1.638  0.2578 -1.8115  2.8873
 8648SOL    HW237578   3.183   2.659   1.548  0.9355 -0.0274 -0.0188
 8649SOL     OW37579   0.381   0.958   3.930  0.8044 -0.0388  0.1634
 8649SOL    HW137580   0.460   0.910   3.957  1.1067  1.8906  2.7026
 8649SOL    HW237581   0.386   1.035   3.986  0.9584 -0.3682  0.6021
 8650SOL     OW37582   1.625   1.414   7.273  0.4001 -0.3381 -0.4833
 8650SOL    HW137583   1.547   1.389   7.322  0.9798  0.0137  0.6186
 8650SOL    HW237584   1.617   1.365   7.192 -2.0632 -1.9515  0.7302
 8651SOL     OW37585   3.568   0.398   2.274 -0.5517 -0.0875 -0.0992
 8651SOL    HW137586   3.621   0.318   2.270  2.0491  1.4688  2.6303
 8651SOL    HW237587   3.619   0.443   2.206 -2.2917 -2.3469 -2.8808
 8652SOL     OW37588   0.356   2.001   5.978  0.7902 -0.7308  0.1708
 8652SOL    HW137589   0.293   1.934   6.005  1.3297 -2.2239 -2.2292
 8652SOL    HW237590   0.439   1.958   5.999 -0.4106 -2.6368  1.0786
 8653SOL     OW37591   0.325   2.870   7.175  0.2978  0.1630 -0.4683
 8653SOL    HW137592   0.330   2.854   7.081  0.4590 -0.1970 -0.3962
 8653SOL    HW237593   0.407   2.833   7.207  0.6532  1.6227  0.3026
 8654SOL     OW37594   0.024   1.257   1.807 -0.5967 -0.5199 -0.1497
 8654SOL    HW137595   4.708   1.181   1.794 -0.7767 -0.0654 -2.1165
 8654SOL    HW237596   0.016   1.301   1.722  1.4845 -2.4592 -1.3458
 8655SOL     OW37597   2.094   3.532  10.864  0.2419 -0.0908 -0.0672
 8655SOL    HW137598   2.134   3.446  10.877 -0.3986 -0.1081  1.7776
 8655SOL    HW237599   2.000   3.522  10.880  0.0691 -1.4605 -1.8891
 8656SOL     OW37600   3.241   2.043   4.657  0.1500 -0.1966 -0.1050
 8656SOL    HW137601   3.298   1.984   4.607 -0.5295  0.2698 -1.4470
 8656SOL    HW237602   3.180   2.074   4.590  0.1008  0.2410  0.1448
 8657SOL     OW37603   0.811   0.657   6.213 -0.2018 -0.4253 -0.4114
 8657SOL    HW137604   0.853   0.735   6.176 -2.4526 -0.1562 -2.4402
 8657SOL    HW237605   0.725   0.655   6.169 -1.1487  0.9303  1.3751
 8658SOL     OW37606   0.852   1.141  11.973 -0.6086 -0.4378  0.4367
 8658SOL    HW137607   0.906   1.202  11.923  0.3141 -1.7744 -0.2232
 8658SOL    HW237608   0.834   1.065  11.917  0.8195 -1.9296  1.9587
 8659SOL     OW37609   2.892   2.777   7.709 -0.0881 -0.1426 -0.3241
 8659SOL    HW137610   2.836   2.780   7.632 -1.1563 -0.4767  0.4400
 8659SOL    HW237611   2.932   2.691   7.696  2.3278  1.0407 -0.6027
 8660SOL     OW37612   2.211   3.157   6.454 -0.1909 -0.3842 -0.3063
 8660SOL    HW137613   2.215   3.176   6.548  1.1025 -1.9057 -0.0451
 8660SOL    HW237614   2.142   3.219   6.431 -1.2680 -0.6986  2.0012
 8661SOL     OW37615   4.576   1.073   3.887 -0.4410 -0.1145  0.2456
 8661SOL    HW137616   4.630   1.050   3.811 -0.5687  1.3696 -0.3134
 8661SOL    HW237617   4.498   1.020   3.874 -2.5819  2.5672  2.0354
 8662SOL     OW37618   4.288   0.086  10.751 -0.4232  0.5973  0.2039
 8662SOL    HW137619   4.208   0.038  10.771 -0.4512 -0.0623 -1.4584
 8662SOL    HW237620   4.323   0.028  10.684 -1.7817 -0.9838  0.8713
 8663SOL     OW37621   0.161   4.175   6.759 -0.3806 -0.0246 -0.0696
 8663SOL    HW137622   0.165   4.261   6.717  4.0433 -1.0787 -1.8362
 8663SOL    HW237623   0.249   4.164   6.795  0.8502  2.2130 -2.4291
 8664SOL     OW37624   4.347   4.542   4.795 -0.3834  0.2481 -0.5442
 8664SOL    HW137625   4.429   4.527   4.748  0.9972  1.6484  1.4607
 8664SOL    HW237626   4.379   4.538   4.885  0.0679  1.6589 -0.6348
 8665SOL     OW37627   3.997   0.452  16.131 -0.0512 -0.2306 -0.3836
 8665SOL    HW137628   3.948   0.507  16.070  2.2410  0.1796 -1.8575
 8665SOL    HW237629   4.010   0.380  16.069 -1.2265 -1.8973  1.3036
 8666SOL     OW37630   4.169   2.076  11.550 -0.6825 -0.3075 -0.3974
 8666SOL    HW137631   4.163   2.054  11.643 -1.0479 -0.6057 -0.4948
 8666SOL    HW237632   4.218   2.001  11.516  0.8832  0.2193  0.6622
 8667SOL     OW37633   4.368   3.287   1.952  0.1344  0.3151  0.6936
 8667SOL    HW137634   4.359   3.338   1.871  0.1117  2.0790  1.8142
 8667SOL    HW237635   4.355   3.198   1.920  0.8255  0.9649 -1.3771
 8668SOL     OW37636   0.070   3.779   7.931  0.7000 -0.0492 -0.3572
 8668SOL    HW137637   0.117   3.778   7.848 -0.4010  0.2470 -0.9846
 8668SOL    HW237638   4.726   3.745   7.899  0.8356  0.9722 -1.7885
 8669SOL     OW37639   2.473   3.434   3.161  0.4826  0.5208 -0.4935
 8669SOL    HW137640   2.539   3.388   3.108  0.8323 -1.3757  1.5921
 8669SOL    HW237641   2.399   3.435   3.101  0.3747 -0.9466 -0.3901
 8670SOL     OW37642   1.334   2.645   5.492 -0.3745  0.3414 -0.1845
 8670SOL    HW137643   1.271   2.588   5.537 -2.1873  1.5608 -1.1711
 8670SOL    HW237644   1.393   2.658   5.566 -1.2451 -1.0196  0.7595
 8671SOL     OW37645   1.404   0.046   9.195 -0.4449  0.1687  0.2245
 8671SOL    HW137646   1.442   0.036   9.282 -0.5346 -0.6622  0.1683
 8671SOL    HW237647   1.483   0.047   9.141 -0.9310  0.5662 -0.4850
 8672SOL     OW37648   0.653   0.537   6.859  0.0647 -0.0380  0.3996
 8672SOL    HW137649   0.583   0.508   6.800 -0.4812 -1.4998  1.7443
 8672SOL    HW237650   0.658   0.630   6.841 -0.0591 -0.2679 -0.8471
 8673SOL     OW37651   0.725   4.040  17.157  0.3393 -0.1889 -0.3650
 8673SOL    HW137652   0.781   3.976  17.112 -0.8303 -2.2455  1.0940
 8673SOL    HW237653   0.641   3.994  17.165  0.2054  0.0861 -0.2131
 8674SOL     OW37654   1.454   3.077   2.668 -0.3332 -0.5336  0.4579
 8674SOL    HW137655   1.507   3.143   2.623 -0.5987 -0.3042  0.4825
 8674SOL    HW237656   1.376   3.125   2.695 -0.4086 -1.0710  1.1941
 8675SOL     OW37657   4.300   2.523   2.200 -0.0441 -0.2050  0.2011
 8675SOL    HW137658   4.266   2.435   2.183 -2.0045  0.7888 -1.1128
 8675SOL    HW237659   4.368   2.499   2.263  1.2003  1.4953 -0.4982
 8676SOL     OW37660   0.207   0.479  10.804 -0.4315 -0.1928 -0.4832
 8676SOL    HW137661   0.233   0.415  10.737 -0.7003 -3.1317  2.2177
 8676SOL    HW237662   0.113   0.461  10.793  0.0429 -3.3767  0.5678
 8677SOL     OW37663   1.100   0.531   7.709  0.2483 -0.8491  0.5984
 8677SOL    HW137664   1.059   0.606   7.668 -1.2085 -0.4461  2.7723
 8677SOL    HW237665   1.042   0.460   7.682  0.1770 -0.2028 -0.8992
 8678SOL     OW37666   3.933   4.041   6.174  0.9686  0.3547  0.2325
 8678SOL    HW137667   3.991   4.030   6.099  2.0072  2.1844  0.7658
 8678SOL    HW237668   3.898   4.128   6.154  0.5169 -0.2715 -1.6932
 8679SOL     OW37669   2.636   2.744  15.230  0.6077  0.2123  0.2046
 8679SOL    HW137670   2.599   2.676  15.175  1.4542 -0.1200  0.0558
 8679SOL    HW237671   2.623   2.822  15.176 -0.5466  0.3864  0.7304
 8680SOL     OW37672   3.600   0.549  12.567  0.2878 -0.1611 -0.2509
 8680SOL    HW137673   3.622   0.625  12.620  2.0810  0.6782 -2.2162
 8680SOL    HW237674   3.548   0.503  12.633 -2.5169 -1.0381 -3.0410
 8681SOL     OW37675   0.607   1.512   3.714 -0.3622 -0.6052 -0.0355
 8681SOL    HW137676   0.588   1.593   3.666 -2.3901 -0.6991  0.6196
 8681SOL    HW237677   0.522   1.473   3.733 -0.2595 -0.9528 -0.2903
 8682SOL     OW37678   0.227   4.527   8.385  0.7323 -0.3591 -0.4889
 8682SOL    HW137679   0.182   4.462   8.331 -1.7784 -0.5127  1.7936
 8682SOL    HW237680   0.258   4.476   8.459 -0.2104 -0.9368 -0.4922
 8683SOL     OW37681   4.044   4.546   5.409  0.6729 -0.1808 -0.5288
 8683SOL    HW137682   4.070   4.458   5.384 -0.6534  0.0156 -2.5970
 8683SOL    HW237683   4.060   4.602   5.334  2.7921 -0.6595 -0.4198
 8684SOL     OW37684   3.757   3.030   9.027  0.3963 -0.0918 -0.0447
 8684SOL    HW137685   3.836   3.067   9.066 -0.1654  0.6083  0.4302
 8684SOL    HW237686   3.698   3.056   9.098  0.5354 -0.0776  0.0658
 8685SOL     OW37687   1.680   3.764   4.394  0.4802  0.1621  0.3151
 8685SOL    HW137688   1.668   3.819   4.472 -1.2852  1.1512 -0.6528
 8685SOL    HW237689   1.706   3.675   4.418  2.3562  1.4648  3.1554
 8686SOL     OW37690   3.226   3.946   8.128  0.6343  0.3416 -0.3344
 8686SOL    HW137691   3.265   3.917   8.046  0.9873  0.2067 -0.1207
 8686SOL    HW237692   3.153   3.887   8.145 -0.2941  0.8977 -2.3650
 8687SOL     OW37693   1.477   3.918  10.957 -0.1187 -0.0530 -0.5870
 8687SOL    HW137694   1.540   3.922  11.028  0.0929  1.2349 -0.8406
 8687SOL    HW237695   1.518   3.982  10.898 -2.0721  0.7873 -1.0435
 8688SOL     OW37696   4.311   1.420   8.354 -0.1913  0.7118  0.3714
 8688SOL    HW137697   4.240   1.408   8.291 -1.5719  0.4151  1.9862
 8688SOL    HW237698   4.341   1.331   8.370 -1.0356  0.2361 -0.6731
 8689SOL     OW37699   0.278   4.108   1.713 -0.4837  0.0972  0.4596
 8689SOL    HW137700   0.224   4.100   1.634 -0.2369  0.8866  0.2136
 8689SOL    HW237701   0.275   4.020   1.752 -1.2976 -0.5814 -1.1200
 8690SOL     OW37702   0.166   3.161   4.618  0.1762 -0.0478  0.2838
 8690SOL    HW137703   0.139   3.078   4.578 -0.8128 -0.4144  1.6955
 8690SOL    HW237704   0.244   3.166   4.563 -1.1186 -2.2217 -1.7717
 8691SOL     OW37705   0.086   0.691   3.642  0.1370  0.1363 -0.2184
 8691SOL    HW137706   0.155   0.653   3.588 -0.0868  0.1439 -0.5067
 8691SOL    HW237707   0.087   0.623   3.709  1.7794  2.3190  1.9748
 8692SOL     OW37708   4.448   2.995   4.388 -0.3420  0.5346 -0.1421
 8692SOL    HW137709   4.363   2.979   4.428  0.0001 -0.3632  0.2295
 8692SOL    HW237710   4.425   2.997   4.295  0.2361 -2.3887 -0.3357
 8693SOL     OW37711   2.406   3.307  13.028 -0.1051 -0.1637  0.1579
 8693SOL    HW137712   2.411   3.213  13.009  1.5760 -0.2985  1.2499
 8693SOL    HW237713   2.486   3.339  12.987  1.6571 -1.7947  2.3398
 8694SOL     OW37714   2.501   0.867   6.815 -0.2989 -0.4086  0.1657
 8694SOL    HW137715   2.512   0.958   6.842 -1.7696  0.1586 -1.1248
 8694SOL    HW237716   2.544   0.875   6.729 -0.7522  1.6209  0.1101
 8695SOL     OW37717   1.717   4.184   4.528 -0.4954 -0.4204 -0.0605
 8695SOL    HW137718   1.734   4.187   4.622 -0.4540 -1.2397 -0.0407
 8695SOL    HW237719   1.799   4.144   4.499 -0.6093  0.9109 -2.2296
 8696SOL     OW37720   1.278   4.028   5.994  0.4546 -0.5177  0.0753
 8696SOL    HW137721   1.373   4.025   5.985  0.5844  0.7376  1.0040
 8696SOL    HW237722   1.274   4.014   6.088  0.3061  0.0822  0.1548
 8697SOL     OW37723   1.894   1.322   9.659  0.3413 -0.9363 -0.2482
 8697SOL    HW137724   1.852   1.380   9.596 -1.1351  1.1432  2.6289
 8697SOL    HW237725   1.863   1.360   9.741  0.8945 -1.6114  0.2756
 8698SOL     OW37726   4.331   4.356   5.212 -0.0685 -0.7286 -0.0477
 8698SOL    HW137727   4.249   4.364   5.261 -0.4793 -0.2684 -0.7997
 8698SOL    HW237728   4.315   4.278   5.160 -0.5008 -1.2113  0.8281
 8699SOL     OW37729   1.330   0.172   4.168  0.1537 -0.3108  0.6665
 8699SOL    HW137730   1.404   0.117   4.192 -3.2590 -4.2746  2.0308
 8699SOL    HW237731   1.380   0.252   4.149  0.7006 -0.5306  1.1871
 8700SOL     OW37732   2.341   1.353  10.985  0.8572  0.2717 -0.6822
 8700SOL    HW137733   2.370   1.399  11.064 -0.2492 -1.3149  0.6399
 8700SOL    HW237734   2.358   1.261  11.005 -0.3295  0.1038 -0.4640
 8701SOL     OW37735   4.410   2.329   7.634  0.4061  0.4752 -0.2472
 8701SOL    HW137736   4.427   2.260   7.569  1.4759 -0.5273  1.1209
 8701SOL    HW237737   4.348   2.384   7.585 -0.0815  0.5396  0.4516
 8702SOL     OW37738   4.268   2.616   3.530  0.2076 -0.1846 -0.0617
 8702SOL    HW137739   4.333   2.569   3.478 -0.2220 -0.8911  0.0300
 8702SOL    HW237740   4.288   2.707   3.508 -0.0594  0.5762  2.8516
 8703SOL     OW37741   2.946   3.367  15.162 -0.1381 -0.3198  0.4287
 8703SOL    HW137742   3.030   3.412  15.158  1.4852 -3.4126 -0.1932
 8703SOL    HW237743   2.895   3.440  15.128  1.5171  1.1462  1.1217
 8704SOL     OW37744   1.143   1.401   9.136  0.9985  0.8268 -0.4610
 8704SOL    HW137745   1.166   1.345   9.210  0.3238 -1.6647 -2.1191
 8704SOL    HW237746   1.059   1.434   9.167  0.0863 -0.8729 -1.0967
 8705SOL     OW37747   2.900   4.615   6.312 -0.2627 -0.5103 -0.2136
 8705SOL    HW137748   2.886   4.579   6.224  0.3490 -2.7206  0.5798
 8705SOL    HW237749   2.906   4.531   6.358 -0.6522  0.3719  1.4510
 8706SOL     OW37750   2.893   1.025   8.529  0.1693  0.2067 -0.3041
 8706SOL    HW137751   2.970   1.020   8.473  0.0031 -1.1059 -0.4091
 8706SOL    HW237752   2.907   0.959   8.597 -1.4954  1.4592  1.2493
 8707SOL     OW37753   3.789   1.142   7.411  0.4747  0.1207  0.2617
 8707SOL    HW137754   3.699   1.123   7.385 -0.6137  0.6180  3.7536
 8707SOL    HW237755   3.793   1.110   7.501 -0.6723  2.0140  0.9986
 8708SOL     OW37756   1.360   1.664  12.377  0.1960 -0.0041 -0.4940
 8708SOL    HW137757   1.440   1.616  12.355  0.9770  0.7658  0.6362
 8708SOL    HW237758   1.334   1.605  12.447 -2.2905 -0.5511 -1.9018
 8709SOL     OW37759   2.986   1.196   6.118  0.5318  0.3405  0.3088
 8709SOL    HW137760   2.983   1.163   6.029  0.1722 -0.6165  0.6751
 8709SOL    HW237761   3.080   1.208   6.134  0.6866  0.1401 -0.4933
 8710SOL     OW37762   3.820   3.774   6.210  0.0056 -0.2026  0.1716
 8710SOL    HW137763   3.856   3.863   6.219 -2.6407  1.0977 -2.0634
 8710SOL    HW237764   3.861   3.759   6.124  2.1042  1.3785  0.8958
 8711SOL     OW37765   3.221   3.657   4.666 -0.1408 -0.6291  0.3757
 8711SOL    HW137766   3.204   3.571   4.629 -2.0904  1.1753 -2.8946
 8711SOL    HW237767   3.158   3.650   4.738 -1.5796 -0.5628 -0.8707
 8712SOL     OW37768   2.612   0.892   1.744 -0.0725 -0.5918  1.0805
 8712SOL    HW137769   2.688   0.947   1.762  1.1307 -2.1389  0.6306
 8712SOL    HW237770   2.605   0.845   1.827 -0.0594  0.8895  1.9310
 8713SOL     OW37771   0.716   2.740  16.235  0.2526 -0.2473 -0.0204
 8713SOL    HW137772   0.654   2.800  16.192  3.1690  0.0240 -3.8892
 8713SOL    HW237773   0.793   2.780  16.194  1.1174 -1.4734  0.4292
 8714SOL     OW37774   4.388   3.432   8.739 -0.2525  0.1796 -0.0560
 8714SOL    HW137775   4.377   3.338   8.732  0.9605  0.1735 -1.8295
 8714SOL    HW237776   4.418   3.440   8.829  1.0512 -1.5430 -0.3388
 8715SOL     OW37777   4.483   2.733   1.459  0.2534  0.8803  0.4369
 8715SOL    HW137778   4.466   2.728   1.553 -0.0327  0.1944  0.3507
 8715SOL    HW237779   4.412   2.679   1.422  1.7688  0.1733 -1.4443
 8716SOL     OW37780   0.139   0.466   5.434  0.3357 -0.1270 -0.3574
 8716SOL    HW137781   0.165   0.547   5.390 -2.1135 -1.3028 -4.0604
 8716SOL    HW237782   0.200   0.468   5.507 -0.7313 -3.8421  0.6352
 8717SOL     OW37783   3.276   3.374   5.513  0.5685  0.0968  0.3190
 8717SOL    HW137784   3.214   3.304   5.498  0.2565 -0.0750  2.3695
 8717SOL    HW237785   3.363   3.333   5.511  0.8898  0.8549 -1.2036
 8718SOL     OW37786   3.028   0.316   9.768  0.3594 -0.7048 -0.2079
 8718SOL    HW137787   3.008   0.222   9.765 -0.4646 -0.5268 -0.2398
 8718SOL    HW237788   3.123   0.308   9.782  0.2445 -1.7442 -0.0167
 8719SOL     OW37789   1.831   3.861  11.042 -0.0710 -0.3758  0.5373
 8719SOL    HW137790   1.884   3.870  11.121  0.7023 -0.1636 -0.0038
 8719SOL    HW237791   1.901   3.833  10.983  1.7059  0.1387  2.4094
 8720SOL     OW37792   0.079   2.089  17.325 -0.0541 -0.0678  0.8401
 8720SOL    HW137793   0.110   2.059  17.240 -0.3362  0.1170  0.6758
 8720SOL    HW237794   4.730   2.053  17.328 -0.1380  0.0191 -0.6134
 8721SOL     OW37795   2.867   0.532   8.999 -0.0866  0.5895  0.2965
 8721SOL    HW137796   2.928   0.465   9.030 -0.4101 -0.0556 -0.4586
 8721SOL    HW237797   2.858   0.585   9.078  3.6887 -1.0192  1.7991
 8722SOL     OW37798   0.643   1.982   5.320 -0.3470  0.6830  0.3604
 8722SOL    HW137799   0.643   2.043   5.246  0.2127  2.0242  1.4505
 8722SOL    HW237800   0.657   1.896   5.281  2.6027  1.4429 -0.2994
 8723SOL     OW37801   2.822   2.936  11.880  0.8110  0.4842  1.2353
 8723SOL    HW137802   2.907   2.963  11.846  0.1808  0.9904  0.0612
 8723SOL    HW237803   2.846   2.862  11.936 -1.9104 -0.8387  0.6535
 8724SOL     OW37804   1.900   2.530  16.912  0.1007  0.4710  0.0529
 8724SOL    HW137805   1.869   2.514  17.001 -0.8215  1.6477 -0.0497
 8724SOL    HW237806   1.987   2.490  16.903  0.3863  1.0751  0.1254
 8725SOL     OW37807   1.452   0.284   3.105  0.1178  0.1388  0.5532
 8725SOL    HW137808   1.374   0.303   3.157 -0.2991 -1.5155  0.5536
 8725SOL    HW237809   1.433   0.195   3.076 -1.2206  0.4619  0.4648
 8726SOL     OW37810   1.347   3.237   6.970 -0.2330  0.0746 -0.0655
 8726SOL    HW137811   1.303   3.154   6.958 -2.8539  1.8780 -3.1041
 8726SOL    HW237812   1.410   3.224   6.898  0.0671 -0.6655  0.3327
 8727SOL     OW37813   4.367   0.814  11.006  0.1000  0.4462 -0.0655
 8727SOL    HW137814   4.359   0.900  11.048  0.8111  0.3470  0.2808
 8727SOL    HW237815   4.330   0.758  11.074 -1.5680 -2.2250 -3.1634
 8728SOL     OW37816   4.616   2.016   3.284  0.5064 -0.2255 -0.0635
 8728SOL    HW137817   4.612   2.053   3.372 -3.5633  1.8550 -1.1143
 8728SOL    HW237818   4.524   1.995   3.270  1.0599 -2.6630  0.0527
 8729SOL     OW37819   3.333   0.192   2.825  0.3200  0.0043  0.0693
 8729SOL    HW137820   3.261   0.167   2.883 -1.6614  2.1936 -1.4529
 8729SOL    HW237821   3.402   0.130   2.846  0.5000  0.1201 -0.1798
 8730SOL     OW37822   2.680   3.260   5.204 -0.1986 -0.3612 -0.3773
 8730SOL    HW137823   2.762   3.291   5.243 -0.7370  1.4977 -0.7233
 8730SOL    HW237824   2.710   3.190   5.146  3.3454 -0.4936  1.6310
 8731SOL     OW37825   1.229   3.842   8.043 -0.0004  0.0952 -0.0802
 8731SOL    HW137826   1.134   3.839   8.039  0.0069  2.4266 -2.5506
 8731SOL    HW237827   1.250   3.877   8.129 -1.0450  1.0850 -0.2356
 8732SOL     OW37828   0.154   0.792   8.332 -0.1017  0.7412 -0.0703
 8732SOL    HW137829   0.249   0.779   8.345  0.1416  2.1483 -0.4744
 8732SOL    HW237830   0.135   0.866   8.390  1.2389  1.3607 -0.4098
 8733SOL     OW37831   3.657   0.779   8.210 -0.0066  0.1695 -0.5695
 8733SOL    HW137832   3.661   0.814   8.120  0.4872  0.0802 -0.5849
 8733SOL    HW237833   3.563   0.766   8.220  0.2050  0.2594  1.5004
 8734SOL     OW37834   3.688   2.363   4.961  0.0155 -0.0212  0.5782
 8734SOL    HW137835   3.733   2.402   5.035  0.8021 -1.7649  1.0147
 8734SOL    HW237836   3.762   2.315   4.926  0.4566  0.5143  0.7829
 8735SOL     OW37837   2.296   3.895   8.417  0.4871 -0.3495  0.0910
 8735SOL    HW137838   2.293   3.983   8.378  1.5014  0.3125  1.4994
 8735SOL    HW237839   2.307   3.840   8.340  3.0245  2.3285 -1.4423
 8736SOL     OW37840   0.284   2.931   6.886 -0.0349  0.5033 -0.3486
 8736SOL    HW137841   0.256   3.006   6.938  0.2793  1.5338 -1.6632
 8736SOL    HW237842   0.205   2.925   6.832  2.4138 -2.5832 -3.5856
 8737SOL     OW37843   3.376   1.728   3.435  0.4497 -0.2727 -0.0444
 8737SOL    HW137844   3.290   1.719   3.477 -0.6098  1.3431 -1.8285
 8737SOL    HW237845   3.380   1.823   3.424  1.7977 -0.3703 -0.3162
 8738SOL     OW37846   1.209   1.337   3.616 -0.0693  0.5001 -0.7819
 8738SOL    HW137847   1.168   1.330   3.702  2.0548 -0.9660  0.1209
 8738SOL    HW237848   1.139   1.380   3.566 -0.0355 -0.3097 -1.5316
 8739SOL     OW37849   0.030   2.173   1.507  0.0009 -0.1577  0.0734
 8739SOL    HW137850   4.722   2.172   1.424 -4.1716  0.7623  2.4864
 8739SOL    HW237851   4.695   2.191   1.564  0.5448 -1.6651  1.2981
 8740SOL     OW37852   4.427   4.329  16.641 -0.1116  0.5065  0.1188
 8740SOL    HW137853   4.508   4.345  16.690  0.0483 -0.2227  0.0979
 8740SOL    HW237854   4.356   4.367  16.692  1.1605  0.9270  1.5866
 8741SOL     OW37855   0.474   2.463   3.527 -0.5312  0.2708 -0.0985
 8741SOL    HW137856   0.455   2.444   3.619 -0.9353  0.8148 -0.0647
 8741SOL    HW237857   0.434   2.550   3.517  0.5577  0.6601 -0.9962
 8742SOL     OW37858   1.338   1.647   2.390 -0.4019 -0.1318 -0.6085
 8742SOL    HW137859   1.252   1.611   2.372 -1.1124 -0.7771  3.9358
 8742SOL    HW237860   1.394   1.599   2.329  1.0418  1.6846 -0.7208
 8743SOL     OW37861   0.324   3.782   9.396  0.4898 -0.7506 -0.0440
 8743SOL    HW137862   0.270   3.704   9.407 -0.0457 -0.7271 -2.4786
 8743SOL    HW237863   0.296   3.816   9.310 -1.2980  2.0150  1.6355
 8744SOL     OW37864   4.166   2.136   4.715 -0.3474  0.0470  0.1966
 8744SOL    HW137865   4.214   2.145   4.633 -0.6808  1.1691  0.1282
 8744SOL    HW237866   4.108   2.065   4.691 -1.4557  1.2063 -0.5114
 8745SOL     OW37867   4.492   0.576   4.686 -0.3001 -0.1571  0.2015
 8745SOL    HW137868   4.513   0.652   4.740 -0.1884 -1.5834  2.1949
 8745SOL    HW237869   4.396   0.577   4.691 -0.4017  0.3542 -1.9311
 8746SOL     OW37870   4.658   4.706   3.955  0.2169  0.8476 -0.0817
 8746SOL    HW137871   4.585   0.018   3.988 -0.0664  1.6053 -1.9229
 8746SOL    HW237872   4.650   4.632   4.015  0.5109  0.9534  0.0882
 8747SOL     OW37873   1.056   2.263  11.492  0.8042 -0.3555  0.0442
 8747SOL    HW137874   1.033   2.179  11.532  0.6661 -0.0267  0.6656
 8747SOL    HW237875   1.133   2.286  11.543  0.6749 -2.6380  1.2291
 8748SOL     OW37876   4.633   0.854  13.113  0.3967  0.5474  0.9861
 8748SOL    HW137877   4.543   0.865  13.143  1.1790  0.6862  3.2795
 8748SOL    HW237878   4.657   0.944  13.090  0.3894 -0.1170 -1.6701
 8749SOL     OW37879   2.943   2.688   6.211  0.0260 -0.4492 -0.4884
 8749SOL    HW137880   3.035   2.698   6.232  0.3134  0.8778 -2.2881
 8749SOL    HW237881   2.932   2.754   6.141 -0.8304 -1.1911 -1.0609
 8750SOL     OW37882   0.753   2.754   2.743 -0.6014  0.0279 -0.2789
 8750SOL    HW137883   0.836   2.707   2.735 -0.1601  0.8947 -0.8252
 8750SOL    HW237884   0.772   2.799   2.661  0.2397 -2.5858 -1.5200
 8751SOL     OW37885   2.489   3.683   5.213 -0.8685 -0.1982 -0.4987
 8751SOL    HW137886   2.544   3.661   5.289  2.3030  0.6698 -2.5621
 8751SOL    HW237887   2.533   3.630   5.146 -0.9957  0.3426 -0.9988
 8752SOL     OW37888   3.872   2.673   4.644  0.2958  0.3061 -0.0361
 8752SOL    HW137889   3.814   2.734   4.690 -1.2566 -1.5686  0.4939
 8752SOL    HW237890   3.819   2.594   4.635 -1.3727  1.4430 -0.1533
 8753SOL     OW37891   2.394   2.134   8.035  0.5008 -0.4602  0.4034
 8753SOL    HW137892   2.379   2.147   7.942  1.0779 -1.2266  0.2082
 8753SOL    HW237893   2.315   2.177   8.068  1.1185 -0.0772  1.3958
 8754SOL     OW37894   0.107   3.466   2.052  0.9407  0.3434 -0.5735
 8754SOL    HW137895   0.020   3.477   2.012  1.3126 -1.2791 -1.7980
 8754SOL    HW237896   0.134   3.387   2.005  3.0948  1.9495 -2.0369
 8755SOL     OW37897   4.351   0.665   1.968  0.4313  0.2070 -0.1880
 8755SOL    HW137898   4.386   0.678   1.880  1.2151 -1.4188 -0.1160
 8755SOL    HW237899   4.357   0.570   1.980 -1.6039  0.0098 -0.6659
 8756SOL     OW37900   4.524   0.478   3.886 -0.3295 -0.3558 -0.1878
 8756SOL    HW137901   4.451   0.540   3.888 -0.0847 -0.0673 -0.2748
 8756SOL    HW237902   4.546   0.479   3.979 -0.8933  0.7571 -0.0664
 8757SOL     OW37903   0.241   4.257   9.192 -0.4434  0.1765 -0.1446
 8757SOL    HW137904   0.308   4.232   9.254  1.3625  1.2928 -1.6361
 8757SOL    HW237905   0.229   4.351   9.206  0.8255  0.6647 -2.3215
 8758SOL     OW37906   4.064   3.084  15.969  0.4973  0.0433 -0.3846
 8758SOL    HW137907   4.079   3.008  16.025 -0.1779 -0.6085 -1.0903
 8758SOL    HW237908   4.088   3.159  16.024 -1.4249 -0.2501  0.8642
 8759SOL     OW37909   2.845   0.130   3.397 -0.7166 -0.0955  0.3397
 8759SOL    HW137910   2.934   0.130   3.434 -1.0799 -1.6676  1.2075
 8759SOL    HW237911   2.838   0.210   3.345 -0.9139  0.2569  0.9147
 8760SOL     OW37912   0.845   4.347  16.930 -0.3632  0.0006 -0.1082
 8760SOL    HW137913   0.891   4.408  16.987 -0.0484 -1.2322  0.9496
 8760SOL    HW237914   0.900   4.360  16.853 -1.3940  1.1058 -0.6584
 8761SOL     OW37915   0.465   4.033   9.170  0.5804 -0.2527  0.4729
 8761SOL    HW137916   0.494   4.052   9.259  0.1319  0.9500  0.3675
 8761SOL    HW237917   0.548   4.003   9.133  0.7827 -2.8835  3.0668
 8762SOL     OW37918   0.884   3.577   1.370  0.3489  0.0959 -0.6234
 8762SOL    HW137919   0.806   3.549   1.417  0.9244  1.5365  1.2249
 8762SOL    HW237920   0.940   3.512   1.412  1.6424  1.6695  0.1292
 8763SOL     OW37921   4.197   1.472   1.075  0.1958 -0.0876 -0.5537
 8763SOL    HW137922   4.263   1.429   1.131 -0.7614 -2.0137 -0.9005
 8763SOL    HW237923   4.187   1.542   1.139  2.1862  1.2627 -1.7039
 8764SOL     OW37924   4.672   1.765   2.906 -0.3580 -0.2968 -0.2799
 8764SOL    HW137925   4.669   1.823   2.981  2.5500 -0.3276 -0.1419
 8764SOL    HW237926   4.712   1.827   2.845  0.8387  0.4008  1.2173
 8765SOL     OW37927   0.492   3.346   7.712  0.7395 -0.4297  0.2053
 8765SOL    HW137928   0.407   3.330   7.674  1.2348  2.1801 -1.9928
 8765SOL    HW237929   0.509   3.283   7.782 -0.6622 -0.0700  0.8717
 8766SOL     OW37930   2.682   1.128   7.659 -0.3269  0.4551 -0.1341
 8766SOL    HW137931   2.674   1.184   7.736  3.0803  2.0257 -0.9306
 8766SOL    HW237932   2.773   1.098   7.667 -0.9461 -2.3182 -3.3332
 8767SOL     OW37933   2.159   2.288   9.341  0.2193 -0.2138  0.0839
 8767SOL    HW137934   2.067   2.291   9.313  0.0423 -2.9151  0.3970
 8767SOL    HW237935   2.174   2.381   9.360 -2.1794  0.0116  0.9236
 8768SOL     OW37936   1.483   2.555   8.482  0.1743  0.0388 -0.0056
 8768SOL    HW137937   1.518   2.553   8.571 -0.6649 -1.1957  0.3097
 8768SOL    HW237938   1.510   2.639   8.445 -0.1166  0.4305  0.6794
 8769SOL     OW37939   0.039   4.596   4.463 -0.0072 -0.2324 -0.1574
 8769SOL    HW137940   0.032   4.690   4.481 -0.7644 -0.4755  0.8194
 8769SOL    HW237941   0.048   4.604   4.368  1.8228  1.6476  0.1759
 8770SOL     OW37942   4.521   0.739   5.729 -0.0140  0.6122 -0.4018
 8770SOL    HW137943   4.456   0.759   5.662  0.1241  1.4521 -0.2790
 8770SOL    HW237944   4.564   0.824   5.724  2.9066 -0.8925 -0.6598
 8771SOL     OW37945   0.346   0.875   2.643  0.0477 -0.0451  0.6571
 8771SOL    HW137946   0.286   0.882   2.569 -1.8163  3.2655  2.4998
 8771SOL    HW237947   0.352   0.780   2.651 -0.7212 -0.1300  0.1781
 8772SOL     OW37948   0.201   0.967   6.886  0.1885  0.0161  0.2056
 8772SOL    HW137949   0.192   0.882   6.842  0.4613  0.1049 -0.0255
 8772SOL    HW237950   0.224   1.024   6.813  3.1451 -0.1078  1.0431
 8773SOL     OW37951   0.383   4.562   1.332  0.1798 -1.1257  0.0927
 8773SOL    HW137952   0.349   4.632   1.388  1.6911 -1.4785  1.4509
 8773SOL    HW237953   0.325   4.487   1.344 -0.9847 -0.7353 -3.1573
 8774SOL     OW37954   3.373   3.214  12.859  0.3568 -0.0262 -0.8462
 8774SOL    HW137955   3.317   3.288  12.836  0.3889  0.1368 -0.3891
 8774SOL    HW237956   3.410   3.238  12.944 -1.4008 -0.2908 -0.0120
 8775SOL     OW37957   2.726   1.918  12.285  0.2629 -0.2600  0.2273
 8775SOL    HW137958   2.811   1.888  12.317  0.7148  1.1628  0.3240
 8775SOL    HW237959   2.753   2.006  12.261 -0.8234 -0.3758 -1.4323
 8776SOL     OW37960   0.683   1.274   3.890  0.5102  0.0989 -0.1111
 8776SOL    HW137961   0.662   1.326   3.813 -3.4797 -0.3506  0.6573
 8776SOL    HW237962   0.625   1.311   3.958 -2.1892  1.4272 -3.1508
 8777SOL     OW37963   0.836   1.432   2.996 -0.6068 -0.3360  0.0080
 8777SOL    HW137964   0.753   1.384   3.001 -1.4798  1.2835  1.0253
 8777SOL    HW237965   0.897   1.377   3.045 -2.3030 -1.2913  1.0516
 8778SOL     OW37966   2.755   3.534   7.104 -0.0040  0.3538 -0.4478
 8778SOL    HW137967   2.779   3.626   7.095  3.5676 -0.4455  1.0401
 8778SOL    HW237968   2.688   3.550   7.170 -0.3099 -0.3552 -0.5818
 8779SOL     OW37969   2.169   2.399   2.148  0.2636  0.6011  0.1875
 8779SOL    HW137970   2.186   2.369   2.059 -0.4514  0.8854 -0.0415
 8779SOL    HW237971   2.073   2.389   2.149  0.2691  0.4745 -0.7178
 8780SOL     OW37972   1.221   2.621   0.991  0.0494  0.5841  0.5493
 8780SOL    HW137973   1.268   2.545   1.025 -1.4289  0.1199  1.5335
 8780SOL    HW237974   1.132   2.585   0.989 -0.3914  1.6823  0.1625
 8781SOL     OW37975   3.045   1.387   8.411  0.3628  0.9027  0.0149
 8781SOL    HW137976   3.086   1.377   8.325 -0.7680 -0.1139 -0.4174
 8781SOL    HW237977   3.052   1.481   8.428 -0.5664  1.1534 -0.9789
 8782SOL     OW37978   0.844   2.854   6.805  0.2330 -0.0542  0.8444
 8782SOL    HW137979   0.769   2.796   6.814  1.0853 -1.1318  0.9413
 8782SOL    HW237980   0.813   2.924   6.862  1.7670  1.5031 -0.2290
 8783SOL     OW37981   2.192   3.669  11.646 -0.1479 -0.3067  0.1832
 8783SOL    HW137982   2.256   3.740  11.661  1.1981 -1.3119 -0.8000
 8783SOL    HW237983   2.107   3.712  11.656 -1.6202 -2.7717 -1.8151
 8784SOL     OW37984   1.848   1.466   4.909  0.1530  0.3179 -0.0609
 8784SOL    HW137985   1.880   1.472   4.999 -2.2799 -2.1790  0.9540
 8784SOL    HW237986   1.818   1.376   4.900  1.3417 -0.0470 -0.4467
 8785SOL     OW37987   3.480   0.462  16.443 -0.0880  0.0948  0.5260
 8785SOL    HW137988   3.467   0.483  16.535  1.6871 -0.2969  0.8516
 8785SOL    HW237989   3.549   0.396  16.452 -2.3350 -2.1784  1.0032
 8786SOL     OW37990   2.347   2.520   8.636  0.4084  0.1632  0.1215
 8786SOL    HW137991   2.340   2.539   8.729  0.7865  0.8835  0.0094
 8786SOL    HW237992   2.348   2.608   8.598  3.2518  0.4896  0.9286
 8787SOL     OW37993   1.178   1.250   5.158 -0.4986  0.0341 -0.1553
 8787SOL    HW137994   1.123   1.219   5.231  1.3123  0.9163  1.5885
 8787SOL    HW237995   1.112   1.276   5.094 -1.1735  1.0522  0.9568
 8788SOL     OW37996   2.385   1.500  10.761  0.3980 -0.4867 -0.5380
 8788SOL    HW137997   2.349   1.480  10.848  0.5344  0.3566 -0.2888
 8788SOL    HW237998   2.476   1.470  10.765  0.4482 -0.1429  1.0008
 8789SOL     OW37999   0.657   1.059  12.191 -0.5589 -0.1297  0.1762
 8789SOL    HW138000   0.718   1.101  12.130  1.0942  0.0334  1.9829
 8789SOL    HW238001   0.633   1.137  12.240  1.2008 -1.2010  2.6904
 8790SOL     OW38002   4.291   3.235  14.932  0.0982  0.1741  0.3732
 8790SOL    HW138003   4.212   3.264  14.886  0.0076 -0.8517 -0.1235
 8790SOL    HW238004   4.252   3.167  14.987  1.3170 -1.0013 -0.2230
 8791SOL     OW38005   2.748   2.757   1.726  0.0013 -0.2865  0.0066
 8791SOL    HW138006   2.830   2.800   1.749 -0.5294  0.0272  1.3631
 8791SOL    HW238007   2.691   2.828   1.756 -0.6886 -0.8777  0.0812
 8792SOL     OW38008   2.269   3.971   5.657  0.0181 -0.0455 -0.2980
 8792SOL    HW138009   2.329   3.919   5.711 -2.4955 -2.2665  0.3720
 8792SOL    HW238010   2.232   3.906   5.597  1.5729 -2.0222  0.8985
 8793SOL     OW38011   1.240   4.351  10.385 -0.0635  0.2745 -0.1287
 8793SOL    HW138012   1.211   4.341  10.294  2.4438 -0.9606 -0.7806
 8793SOL    HW238013   1.299   4.426  10.380 -1.0581  1.0197 -0.6537
 8794SOL     OW38014   1.527   0.699  16.863 -0.0768  0.1214  0.1435
 8794SOL    HW138015   1.472   0.718  16.786 -0.3143 -0.2730  0.2185
 8794SOL    HW238016   1.451   0.682  16.918  0.1132 -0.5457  0.1948
 8795SOL     OW38017   3.512   1.455   8.475  0.1297  0.4783  0.1744
 8795SOL    HW138018   3.488   1.411   8.393  2.4527  2.4176 -1.5294
 8795SOL    HW238019   3.439   1.451   8.538 -0.1487  0.2649 -0.1581
 8796SOL     OW38020   1.786   3.689   5.023 -0.6233 -0.0525  0.3678
 8796SOL    HW138021   1.783   3.779   4.991  0.2094  0.0438  0.5772
 8796SOL    HW238022   1.845   3.650   4.959 -2.3003  0.6624 -1.5971
 8797SOL     OW38023   4.311   0.234   3.330 -0.1714 -0.3672  0.2211
 8797SOL    HW138024   4.299   0.223   3.424  2.7867 -1.1347  0.5184
 8797SOL    HW238025   4.405   0.222   3.318 -0.3116 -1.2888  0.0883
 8798SOL     OW38026   4.448   1.163   4.931  0.3295  0.2589  0.4627
 8798SOL    HW138027   4.364   1.199   4.960 -0.0022  0.6255 -0.9328
 8798SOL    HW238028   4.417   1.105   4.861 -0.2410 -0.0944  1.0054
 8799SOL     OW38029   2.301   0.185  16.359  0.8541  0.1106 -0.5655
 8799SOL    HW138030   2.228   0.175  16.298 -0.2326 -1.1935  0.9237
 8799SOL    HW238031   2.302   0.277  16.386  0.4932 -0.0866  0.1373
 8800SOL     OW38032   1.914   0.826   9.789  0.3254 -0.4586  0.0033
 8800SOL    HW138033   2.008   0.808   9.794  0.2370 -1.0578 -0.4331
 8800SOL    HW238034   1.891   0.803   9.879  3.1373 -1.9563  0.3470
 8801SOL     OW38035   2.535   0.116  11.518 -0.1298 -0.0875 -0.3859
 8801SOL    HW138036   2.627   0.142  11.522 -0.1290 -0.2164  0.3833
 8801SOL    HW238037   2.492   0.185  11.569 -1.2147 -1.8083  1.0201
 8802SOL     OW38038   2.384   1.763   7.056  0.2692  0.0489  0.1574
 8802SOL    HW138039   2.290   1.781   7.060  0.2265 -0.5903  2.0770
 8802SOL    HW238040   2.398   1.688   7.114  1.2370  0.6098  0.6464
 8803SOL     OW38041   0.569   4.062   6.644  0.0337 -0.0979  0.3281
 8803SOL    HW138042   0.592   3.970   6.659  0.7419  0.0207 -0.0572
 8803SOL    HW238043   0.497   4.067   6.707 -0.8894  3.6897 -1.0527
 8804SOL     OW38044   2.064   3.444  14.992  0.3132  0.1686  0.4203
 8804SOL    HW138045   1.978   3.466  14.958  0.0867  2.5614  2.5074
 8804SOL    HW238046   2.070   3.493  15.074  2.3969  2.0220 -0.8270
 8805SOL     OW38047   0.914   2.864  16.052  0.6281  0.5942 -0.5075
 8805SOL    HW138048   0.939   2.955  16.040 -1.1504  1.0948 -0.2480
 8805SOL    HW238049   0.896   2.849  15.959  0.5090 -1.4635 -0.1688
 8806SOL     OW38050   4.399   2.157  15.069 -0.1435 -0.1064 -0.1435
 8806SOL    HW138051   4.417   2.122  14.981  0.6252  3.5845 -1.4439
 8806SOL    HW238052   4.440   2.093  15.127 -0.0396  0.4132  0.3484
 8807SOL     OW38053   3.364   0.669   3.534 -0.7915 -0.1167  0.2090
 8807SOL    HW138054   3.289   0.612   3.518  0.3503 -0.8656 -2.3946
 8807SOL    HW238055   3.397   0.701   3.450 -3.1867  2.3353  0.2087
 8808SOL     OW38056   1.260   2.809  17.200  0.0123 -0.1863  0.6263
 8808SOL    HW138057   1.181   2.764  17.168 -0.2397  0.6738  0.0379
 8808SOL    HW238058   1.322   2.736  17.200 -1.6049 -1.5732  0.0458
 8809SOL     OW38059   4.725   0.465  16.779 -0.2165 -0.0085  0.2572
 8809SOL    HW138060   4.676   0.387  16.804 -0.1077 -0.3078 -0.4525
 8809SOL    HW238061   0.060   0.465  16.839  0.9044  1.4946 -1.1236
 8810SOL     OW38062   1.486   3.903   4.849  0.2257  0.4870 -0.1127
 8810SOL    HW138063   1.496   3.829   4.909  2.1562 -0.2972 -1.4098
 8810SOL    HW238064   1.554   3.878   4.787 -0.7636 -0.3887 -0.8416
 8811SOL     OW38065   3.666   0.995   6.951  0.5047 -0.2016 -0.0298
 8811SOL    HW138066   3.647   1.085   6.924  0.1972  0.3403  2.0164
 8811SOL    HW238067   3.586   0.950   6.922 -0.6343  2.4876 -1.0055
 8812SOL     OW38068   0.570   3.961   4.712 -0.0302 -0.0708  0.1745
 8812SOL    HW138069   0.595   4.034   4.655 -0.9864 -1.2633 -1.8007
 8812SOL    HW238070   0.559   3.889   4.649  0.7115  1.5760 -1.8196
 8813SOL     OW38071   0.451   2.156  12.214 -0.4448  0.1700  0.3024
 8813SOL    HW138072   0.421   2.077  12.259 -0.3432 -0.5258 -0.8336
 8813SOL    HW238073   0.441   2.229  12.274 -1.1871 -0.3169  0.7740
 8814SOL     OW38074   3.944   2.703   9.756  0.4953 -0.3571 -0.0958
 8814SOL    HW138075   3.934   2.798   9.764  1.0410 -0.2448 -0.7650
 8814SOL    HW238076   4.012   2.694   9.689  0.2162  1.3399 -0.6124
 8815SOL     OW38077   1.069   0.047  16.865 -0.4186 -0.2887 -0.5951
 8815SOL    HW138078   1.045   0.015  16.779 -3.2595  1.7012 -0.5470
 8815SOL    HW238079   1.138   0.113  16.853  0.2041 -1.3113 -2.5369
 8816SOL     OW38080   4.195   1.183  15.110  0.2517  0.7474  0.0978
 8816SOL    HW138081   4.138   1.136  15.049 -0.1831 -0.6748  1.6080
 8816SOL    HW238082   4.249   1.112  15.144  1.9495  1.5781 -0.8455
 8817SOL     OW38083   2.901   0.549   7.316  0.2450  0.0380  0.5024
 8817SOL    HW138084   2.990   0.546   7.349  0.5752  0.3327 -0.3672
 8817SOL    HW238085   2.877   0.457   7.329  0.3635 -0.0060  0.4089
 8818SOL     OW38086   0.952   0.838   8.243 -0.1966 -0.5527  0.1485
 8818SOL    HW138087   0.971   0.748   8.272  2.4417 -0.6138 -1.7197
 8818SOL    HW238088   0.914   0.866   8.326  1.4614 -1.1994  1.1404
 8819SOL     OW38089   2.835   1.669   2.239  0.3535  0.5501 -0.0017
 8819SOL    HW138090   2.880   1.607   2.296 -0.5519 -1.0181 -1.0026
 8819SOL    HW238091   2.842   1.743   2.300  1.1839  1.3206 -1.0447
 8820SOL     OW38092   1.612   3.816   9.578 -0.1111 -0.3138  0.0681
 8820SOL    HW138093   1.539   3.822   9.640  1.5079 -1.6272  2.1324
 8820SOL    HW238094   1.682   3.860   9.626 -1.8545 -0.2143  2.5550
 8821SOL     OW38095   1.438   3.505   6.791  0.5597  0.3171  0.2639
 8821SOL    HW138096   1.346   3.501   6.818  0.0620  1.7929 -1.2118
 8821SOL    HW238097   1.461   3.414   6.771 -0.8288 -0.2235  1.1261
 8822SOL     OW38098   3.406   0.139   4.018  1.1457 -0.8504  0.3695
 8822SOL    HW138099   3.497   0.137   3.989  1.3733  0.1663  1.0090
 8822SOL    HW238100   3.390   0.230   3.993 -0.9432 -1.0698  0.9344
 8823SOL     OW38101   0.532   3.928   8.400 -0.6354 -0.1785  0.1626
 8823SOL    HW138102   0.449   3.973   8.413 -0.2908  0.0277  1.5790
 8823SOL    HW238103   0.502   3.842   8.428  0.4424  0.4330  3.1641
 8824SOL     OW38104   3.666   3.417   3.447  0.3442  0.0672  0.2675
 8824SOL    HW138105   3.696   3.489   3.503 -0.8281  0.5524  0.2683
 8824SOL    HW238106   3.747   3.395   3.400 -1.3382 -1.4677 -1.9119
 8825SOL     OW38107   3.539   1.293   3.354  0.0104  0.0816 -0.0806
 8825SOL    HW138108   3.556   1.288   3.448  1.5441  0.6408 -0.3240
 8825SOL    HW238109   3.626   1.319   3.323  0.4179 -0.5794  0.4973
 8826SOL     OW38110   2.170   1.835   5.364  0.1910  0.1619 -0.0549
 8826SOL    HW138111   2.185   1.796   5.278  1.5305 -0.4679  0.4799
 8826SOL    HW238112   2.138   1.917   5.325 -1.3833  0.2726  1.4498
 8827SOL     OW38113   1.639   0.117   4.286 -0.0039 -0.1608 -0.2470
 8827SOL    HW138114   1.721   0.140   4.329  0.5881 -0.3042 -1.2825
 8827SOL    HW238115   1.574   0.164   4.337  2.2332  0.8943  1.6469
 8828SOL     OW38116   2.113   1.061  10.972  0.0841  0.3232 -0.1527
 8828SOL    HW138117   2.179   0.991  10.975 -0.0818  0.2119  0.8137
 8828SOL    HW238118   2.150   1.116  10.904  0.3310 -1.5681 -1.5650
 8829SOL     OW38119   0.637   3.551  13.375 -0.5388 -0.1427 -0.0313
 8829SOL    HW138120   0.695   3.520  13.306  0.7716  0.0520  0.9694
 8829SOL    HW238121   0.568   3.593  13.323 -1.6964 -1.6700  0.2968
 8830SOL     OW38122   3.231   1.609   5.792 -0.3019  0.1114 -0.3770
 8830SOL    HW138123   3.281   1.613   5.711  2.1392 -2.0317  1.0370
 8830SOL    HW238124   3.159   1.669   5.771  0.4466  1.3038  0.4555
 8831SOL     OW38125   2.570   3.909  16.521 -0.1446  0.2221 -0.6760
 8831SOL    HW138126   2.641   3.849  16.498  1.1843  1.2460  0.7491
 8831SOL    HW238127   2.501   3.845  16.505 -0.1736 -0.2096  1.1219
 8832SOL     OW38128   3.361   0.368   9.384  0.0522  0.7156 -0.6614
 8832SOL    HW138129   3.294   0.406   9.329 -0.8429 -0.4550 -0.3785
 8832SOL    HW238130   3.327   0.412   9.462 -1.3578 -3.5574  1.1236
 8833SOL     OW38131   2.417   3.427   6.020  0.2703  0.1582  0.2138
 8833SOL    HW138132   2.447   3.488   5.953  1.9055 -2.5408 -1.4840
 8833SOL    HW238133   2.438   3.344   5.978  0.7118  0.8355 -0.9016
 8834SOL     OW38134   0.457   4.651   2.730  0.0399 -0.3275 -0.5129
 8834SOL    HW138135   0.478   4.558   2.722  0.4958 -0.0678 -2.3031
 8834SOL    HW238136   0.402   4.655   2.651  0.8039  1.4465 -0.9580
 8835SOL     OW38137   0.472   2.053   2.404  0.2387  0.2966 -0.2508
 8835SOL    HW138138   0.530   1.978   2.387  0.3945  0.5958 -1.0810
 8835SOL    HW238139   0.526   2.122   2.365  0.2900 -0.2181 -1.1054
 8836SOL     OW38140   3.834   0.220   2.071 -0.1758  0.0635  0.5650
 8836SOL    HW138141   3.853   0.218   2.165 -0.0449  2.0310  0.5715
 8836SOL    HW238142   3.853   0.312   2.056  3.2488 -0.5274  1.2769
 8837SOL     OW38143   4.235   3.170   5.723  0.0148  0.3291  0.0594
 8837SOL    HW138144   4.198   3.143   5.807 -1.2735  0.3738 -0.5005
 8837SOL    HW238145   4.170   3.230   5.688 -1.1931 -1.0062  0.0063
 8838SOL     OW38146   0.299   0.214   6.971  0.3204 -0.2619  0.0802
 8838SOL    HW138147   0.291   0.195   7.064 -1.5094  0.6732  0.1254
 8838SOL    HW238148   0.312   0.309   6.974 -1.3826  0.0797 -2.7236
 8839SOL     OW38149   1.627   1.147   9.409  0.2313  0.5593  0.0575
 8839SOL    HW138150   1.645   1.121   9.499 -0.3065  0.3245  0.0984
 8839SOL    HW238151   1.624   1.061   9.366  0.7702 -0.4087  1.9205
 8840SOL     OW38152   3.365   0.772  11.902  0.0847  0.2390 -0.4395
 8840SOL    HW138153   3.314   0.833  11.954  0.1773 -0.0613 -0.0036
 8840SOL    HW238154   3.453   0.777  11.940 -1.4501  0.9845  2.9975
 8841SOL     OW38155   1.178   3.168   6.474 -0.6115  0.5559  0.1086
 8841SOL    HW138156   1.171   3.238   6.538 -1.4019  2.4650 -2.0579
 8841SOL    HW238157   1.103   3.113   6.497 -0.1446  0.3528  1.1531
 8842SOL     OW38158   3.887   3.219  15.187 -0.1169  0.3190 -0.4986
 8842SOL    HW138159   3.952   3.153  15.210  1.2244  1.3330 -1.3388
 8842SOL    HW238160   3.924   3.300  15.223 -1.0181  1.2160 -1.5750
 8843SOL     OW38161   1.852   3.331   7.050  0.0018  0.4387  0.3484
 8843SOL    HW138162   1.775   3.308   7.101 -1.0753  2.2163 -0.4517
 8843SOL    HW238163   1.818   3.386   6.979  0.4358 -1.9223 -1.6665
 8844SOL     OW38164   3.854   1.656   9.468 -0.3532 -0.2079  0.1395
 8844SOL    HW138165   3.841   1.565   9.496 -0.0713  0.3519  2.0735
 8844SOL    HW238166   3.825   1.704   9.546  1.2638 -1.2203  1.3633
 8845SOL     OW38167   1.114   0.981  13.791 -0.3825 -0.2395  0.0177
 8845SOL    HW138168   1.138   1.019  13.876 -1.1797  0.4306 -0.0562
 8845SOL    HW238169   1.120   0.890  13.820  0.1893  0.4644  2.0639
 8846SOL     OW38170   0.396   4.261   5.047 -0.0888  0.2513 -0.0278
 8846SOL    HW138171   0.305   4.285   5.030  0.1618  0.2593 -1.3996
 8846SOL    HW238172   0.420   4.216   4.966  1.0578 -1.5445  1.3348
 8847SOL     OW38173   3.178   0.431   4.683 -0.0368  0.6085 -0.5425
 8847SOL    HW138174   3.250   0.383   4.725  0.8212  2.4003  0.0336
 8847SOL    HW238175   3.135   0.368   4.626  2.3397 -0.2782 -1.3586
 8848SOL     OW38176   4.128   1.756   8.205 -0.0497  0.0631  0.6360
 8848SOL    HW138177   4.218   1.783   8.221 -0.2156 -0.1649  1.9401
 8848SOL    HW238178   4.129   1.733   8.112  0.7168  0.8744  0.4497
 8849SOL     OW38179   2.389   1.655   5.943 -0.4471  0.1325  0.9812
 8849SOL    HW138180   2.347   1.723   5.890 -0.2973 -2.5207 -2.5674
 8849SOL    HW238181   2.479   1.681   5.925 -0.0957 -1.4088  0.5064
 8850SOL     OW38182   1.013   1.648   3.207 -0.1980  0.7969  0.8831
 8850SOL    HW138183   1.062   1.619   3.284  1.5558  2.1033  0.2540
 8850SOL    HW238184   1.046   1.582   3.146 -0.0236  1.2769  0.4627
 8851SOL     OW38185   4.251   3.081   1.392  0.4796 -0.1781  0.2146
 8851SOL    HW138186   4.274   3.024   1.319 -0.2397 -0.4265  0.1749
 8851SOL    HW238187   4.239   3.013   1.459 -0.5173 -0.6392 -0.4357
 8852SOL     OW38188   2.032   3.330   2.760  0.2282 -0.1386  0.1246
 8852SOL    HW138189   2.027   3.237   2.738 -1.0970  0.2455 -1.2403
 8852SOL    HW238190   1.949   3.370   2.735  1.7936  2.1787 -1.3801
 8853SOL     OW38191   3.468   2.679   4.216 -0.4428 -0.0888  0.2345
 8853SOL    HW138192   3.507   2.630   4.144 -1.6462 -1.0708  0.2491
 8853SOL    HW238193   3.448   2.763   4.174 -0.7102 -0.5958 -0.6603
 8854SOL     OW38194   3.088   0.625   6.797  0.6920 -0.3167 -0.5061
 8854SOL    HW138195   3.126   0.598   6.880 -0.9406 -1.7320 -0.2101
 8854SOL    HW238196   3.138   0.566   6.741  1.8306 -0.4979  0.7120
 8855SOL     OW38197   4.208   2.435   3.760 -0.0247 -0.0424 -0.1571
 8855SOL    HW138198   4.113   2.431   3.758 -0.0908  0.7510  2.1014
 8855SOL    HW238199   4.239   2.497   3.694  0.9274  0.5553  0.8530
 8856SOL     OW38200   4.211   2.288   2.084  0.5314 -0.2729  0.4031
 8856SOL    HW138201   4.205   2.252   2.173  0.8177 -1.2387  0.0314
 8856SOL    HW238202   4.293   2.244   2.062  1.3677  1.4163  0.2109
 8857SOL     OW38203   1.763   4.370   9.096 -0.6593  0.0947  0.2504
 8857SOL    HW138204   1.823   4.296   9.085 -1.3375 -0.3956 -0.1585
 8857SOL    HW238205   1.745   4.379   9.190 -0.4639 -3.2948  0.6092
 8858SOL     OW38206   0.700   0.170  12.919  0.6526  0.3722 -1.0449
 8858SOL    HW138207   0.679   0.092  12.867 -0.4582 -0.2133  0.2972
 8858SOL    HW238208   0.617   0.187  12.964  1.5355  1.8036  0.0415
 8859SOL     OW38209   3.956   3.623  16.008  0.2234  0.5105  0.2052
 8859SOL    HW138210   4.001   3.601  15.926 -0.8088  1.7773 -0.6967
 8859SOL    HW238211   4.026   3.670  16.054  0.0084  0.3601  0.6757
 8860SOL     OW38212   0.513   3.480  14.281 -1.0073  0.3043  0.9034
 8860SOL    HW138213   0.469   3.466  14.197  1.7406 -0.1650 -0.4772
 8860SOL    HW238214   0.605   3.456  14.271 -1.0920  0.7541 -1.0332
 8861SOL     OW38215   4.123   4.146   3.822  0.4217 -0.0599  1.0576
 8861SOL    HW138216   4.086   4.125   3.908 -1.3909 -0.6994  0.1298
 8861SOL    HW238217   4.064   4.091   3.770 -0.0861  1.0662  0.4573
 8862SOL     OW38218   3.216   2.698   8.198 -0.1239 -0.3525 -0.1673
 8862SOL    HW138219   3.188   2.754   8.270  1.0341  0.0974 -0.0682
 8862SOL    HW238220   3.214   2.615   8.246  3.0458  0.3832  1.2296
 8863SOL     OW38221   2.946   3.198   0.464 -0.3721 -0.4424 -0.1058
 8863SOL    HW138222   3.020   3.140   0.481 -0.3650 -0.5694 -0.5701
 8863SOL    HW238223   2.885   3.186   0.536 -0.2612  1.9392  0.4090
 8864SOL     OW38224   0.949   3.753   7.318 -0.0792  0.2596  0.0785
 8864SOL    HW138225   0.894   3.730   7.392  1.2114  0.5781  1.1402
 8864SOL    HW238226   0.957   3.849   7.320  1.2647  0.1088  1.3103
 8865SOL     OW38227   2.657   4.237   2.877 -0.2091  0.2915  0.2343
 8865SOL    HW138228   2.744   4.260   2.910 -1.0079  1.3634  1.6062
 8865SOL    HW238229   2.635   4.313   2.822 -1.7198  1.3508  2.3173
 8866SOL     OW38230   3.636   3.613   5.378 -0.1227 -0.5224 -0.3862
 8866SOL    HW138231   3.692   3.569   5.442 -2.1110 -0.4199  1.4233
 8866SOL    HW238232   3.636   3.694   5.429 -1.1022 -0.4959 -0.4228
 8867SOL     OW38233   1.622   1.027  16.474  0.0831  0.6429 -0.0843
 8867SOL    HW138234   1.536   0.993  16.500 -1.1062  1.2082 -3.2819
 8867SOL    HW238235   1.674   0.947  16.463 -0.8000  0.0946 -0.2791
 8868SOL     OW38236   3.540   1.992   1.974  0.5338 -0.3241 -0.3455
 8868SOL    HW138237   3.449   2.016   1.990  0.6528 -0.7748  0.9503
 8868SOL    HW238238   3.577   2.070   1.932 -0.4620 -0.7515 -2.0219
 8869SOL     OW38239   0.166   3.875  15.235 -0.1013 -0.6347 -0.1587
 8869SOL    HW138240   0.213   3.812  15.181  0.1521 -0.0013 -0.6689
 8869SOL    HW238241   0.158   3.822  15.314 -0.1811  1.5273  1.2852
 8870SOL     OW38242   3.081   2.258   8.134  0.0535  0.0835  0.3845
 8870SOL    HW138243   3.079   2.174   8.180 -0.3163 -1.2214 -1.9875
 8870SOL    HW238244   3.124   2.230   8.053 -3.2925  0.6304 -1.6163
 8871SOL     OW38245   0.963   0.667   2.194  0.1095  0.0613 -0.0953
 8871SOL    HW138246   0.929   0.688   2.281 -0.4780 -2.0089  0.1567
 8871SOL    HW238247   0.977   0.575   2.216  1.1805 -0.7418 -4.1370
 8872SOL     OW38248   0.950   0.904   9.030 -0.4149 -0.0458  0.0912
 8872SOL    HW138249   1.035   0.861   9.039  0.2250  0.9683 -1.0196
 8872SOL    HW238250   0.976   0.993   9.005 -0.8565 -0.3789 -1.5292
 8873SOL     OW38251   3.278   0.214   3.717 -0.0130 -0.3259  0.3650
 8873SOL    HW138252   3.284   0.280   3.786 -1.0130 -1.4050  1.4820
 8873SOL    HW238253   3.372   0.197   3.706  0.1627  0.1914  1.0729
 8874SOL     OW38254   4.634   0.582  16.549 -0.4773 -0.5119  0.2489
 8874SOL    HW138255   4.655   0.537  16.467  0.2858 -0.2161  0.2834
 8874SOL    HW238256   4.678   0.534  16.620 -0.1238 -1.1867 -0.4231
 8875SOL     OW38257   3.813   4.410  10.316 -0.2174  0.2384 -0.4320
 8875SOL    HW138258   3.806   4.421  10.410  0.2734  1.8881 -0.5851
 8875SOL    HW238259   3.773   4.488  10.278  1.0689  0.7332 -0.7954
 8876SOL     OW38260   1.510   2.532   7.729  0.7573  0.5657  0.1584
 8876SOL    HW138261   1.462   2.511   7.649 -0.6844  2.7587  0.4418
 8876SOL    HW238262   1.533   2.444   7.759  0.8850  0.7528  0.6196
 8877SOL     OW38263   1.127   2.706   6.249  0.1217  0.4645  0.0755
 8877SOL    HW138264   1.179   2.694   6.169 -0.3335 -2.1044  0.1620
 8877SOL    HW238265   1.048   2.654   6.237  1.5890 -2.1391  1.6593
 8878SOL     OW38266   2.235   2.567   1.123 -0.3110 -0.5334 -0.5981
 8878SOL    HW138267   2.291   2.634   1.162 -0.0266 -0.8523 -0.4591
 8878SOL    HW238268   2.151   2.570   1.169 -1.2548 -1.3872 -2.2700
 8879SOL     OW38269   0.067   0.513   3.844 -0.3415  0.2855 -0.1560
 8879SOL    HW138270   4.720   0.478   3.824 -1.2263  1.1219  2.1703
 8879SOL    HW238271   0.058   0.526   3.938 -1.9345  0.7917 -0.3693
 8880SOL     OW38272   4.042   3.153   0.561  0.4766  0.0460  0.4643
 8880SOL    HW138273   4.070   3.197   0.480 -1.5573  0.7334  0.1429
 8880SOL    HW238274   3.951   3.183   0.567  0.7516  1.0652 -0.3070
 8881SOL     OW38275   2.488   4.561  12.224 -0.6003  0.3867  0.3541
 8881SOL    HW138276   2.420   4.618  12.188 -0.4129  0.4090  0.0364
 8881SOL    HW238277   2.503   4.586  12.315  0.5490  1.5740 -0.1572
 8882SOL     OW38278   1.453   4.375   8.216 -0.1140 -0.5832  0.5236
 8882SOL    HW138279   1.447   4.388   8.121  0.6280  2.0176  0.8285
 8882SOL    HW238280   1.361   4.364   8.238 -0.3954 -0.9456 -0.8493
 8883SOL     OW38281   1.800   0.736   7.160 -0.0792 -0.4378 -0.5923
 8883SOL    HW138282   1.895   0.729   7.155 -0.0996  0.2019 -1.8107
 8883SOL    HW238283   1.770   0.658   7.114  0.0053  0.0549 -1.4736
 8884SOL     OW38284   0.996   1.438   3.433  0.0279  0.4813 -0.2683
 8884SOL    HW138285   0.907   1.470   3.419  0.2427  1.1457 -0.1346
 8884SOL    HW238286   0.986   1.346   3.457  1.2786  0.5849  0.6713
 8885SOL     OW38287   4.589   2.836   5.455 -0.1708  0.2666  0.3949
 8885SOL    HW138288   4.526   2.894   5.499  1.9724  2.2281  0.8536
 8885SOL    HW238289   4.637   2.893   5.396 -0.4653  3.3605  3.1617
 8886SOL     OW38290   4.160   1.892  14.600  0.0516 -0.1857 -0.1978
 8886SOL    HW138291   4.234   1.849  14.557 -0.6687 -1.0488 -0.5864
 8886SOL    HW238292   4.112   1.925  14.524 -0.3082  0.4875  0.3203
 8887SOL     OW38293   2.056   3.828   0.748 -0.0502  0.2329  0.5005
 8887SOL    HW138294   2.102   3.835   0.664 -1.1360 -0.1442 -0.1257
 8887SOL    HW238295   2.107   3.767   0.800  0.2520 -0.7871 -0.9963
 8888SOL     OW38296   3.537   3.833   6.038 -0.2789  0.0213 -0.2975
 8888SOL    HW138297   3.553   3.913   6.089  2.4254  0.0527 -1.2081
 8888SOL    HW238298   3.567   3.861   5.951  0.4917  1.1251  0.3228
 8889SOL     OW38299   4.561   4.244   3.417 -0.2516  0.1484 -0.3532
 8889SOL    HW138300   4.616   4.290   3.354  1.0208 -0.8302  0.0398
 8889SOL    HW238301   4.541   4.316   3.476 -0.7605 -0.5455  0.3191
 8890SOL     OW38302   3.763   3.710   5.025 -0.3591  0.5111  0.0206
 8890SOL    HW138303   3.668   3.714   5.035 -0.4577 -1.3840 -0.1508
 8890SOL    HW238304   3.776   3.739   5.116 -0.1534 -0.6686  0.3643
 8891SOL     OW38305   4.014   0.926   2.679 -0.8554 -0.2733 -0.1290
 8891SOL    HW138306   3.934   0.968   2.712 -0.9464  0.6670 -1.5817
 8891SOL    HW238307   4.056   1.002   2.638 -0.2318 -0.7634 -0.3809
 8892SOL     OW38308   1.727   4.555   0.518 -0.0969  0.7400 -0.3191
 8892SOL    HW138309   1.637   4.575   0.546 -0.1590 -1.7174  1.1790
 8892SOL    HW238310   1.779   4.628   0.552  1.6427  0.1323 -1.7295
 8893SOL     OW38311   3.174   2.770   4.507 -0.2521  0.5532  0.6053
 8893SOL    HW138312   3.157   2.728   4.423  0.2981  0.3122  0.6156
 8893SOL    HW238313   3.215   2.852   4.480 -3.4405  1.3021 -1.9508
 8894SOL     OW38314   0.763   1.812  13.511 -0.3527  0.0196 -0.1818
 8894SOL    HW138315   0.686   1.767  13.475  1.2666 -1.6391 -1.6054
 8894SOL    HW238316   0.749   1.902  13.482 -2.4357 -0.6131 -1.1384
 8895SOL     OW38317   0.802   1.338   5.823 -0.2277 -0.0729 -0.7873
 8895SOL    HW138318   0.763   1.400   5.761 -0.0002  0.1515 -0.7012
 8895SOL    HW238319   0.718   1.305   5.856  1.4111 -0.9339  2.4909
 8896SOL     OW38320   4.239   2.425   5.416 -0.0614  0.0200 -0.1898
 8896SOL    HW138321   4.294   2.501   5.398  0.9388 -1.1596 -2.1338
 8896SOL    HW238322   4.293   2.348   5.398 -2.1491 -1.3412 -0.7149
 8897SOL     OW38323   2.048   1.189  12.922  0.1721 -0.6441  0.2376
 8897SOL    HW138324   1.966   1.144  12.940  0.2917 -1.1341 -0.4075
 8897SOL    HW238325   2.047   1.261  12.985 -1.0237 -0.6230  0.1948
 8898SOL     OW38326   0.683   4.643   7.288  0.4169 -0.3363  0.2079
 8898SOL    HW138327   0.660   4.734   7.271 -1.4346 -0.6933  0.7889
 8898SOL    HW238328   0.733   4.609   7.214  2.6538 -0.3998  1.7187
 8899SOL     OW38329   4.666   3.338   3.499  0.3046  0.6501 -0.1046
 8899SOL    HW138330   4.713   3.337   3.582  3.6030 -0.4448 -2.0062
 8899SOL    HW238331   4.720   3.390   3.441  0.0613  0.1180 -0.8068
 8900SOL     OW38332   2.823   0.039   3.782  0.0247 -0.3035 -0.1420
 8900SOL    HW138333   2.873   0.115   3.755 -1.0282  0.2413 -0.5848
 8900SOL    HW238334   2.792   0.067   3.868  1.8945 -0.1894  0.4803
 8901SOL     OW38335   3.277   4.296   1.407 -0.1527 -0.5541 -0.3368
 8901SOL    HW138336   3.357   4.300   1.459  0.0382 -2.9023 -0.4446
 8901SOL    HW238337   3.261   4.389   1.391 -1.5215 -0.7671 -0.2606
 8902SOL     OW38338   3.044   3.781   4.345  0.5616 -0.0702  0.1755
 8902SOL    HW138339   2.993   3.818   4.417  2.0259 -0.2376  1.2918
 8902SOL    HW238340   3.109   3.733   4.396  1.9710  2.4914  0.7387
 8903SOL     OW38341   1.991   4.299   7.120  0.2083 -0.0499 -0.3614
 8903SOL    HW138342   2.001   4.227   7.057  0.5409 -0.0243 -0.3385
 8903SOL    HW238343   1.920   4.344   7.074  0.1015 -1.7817 -1.9119
 8904SOL     OW38344   3.435   2.851   8.956 -0.4316  0.8601 -0.4318
 8904SOL    HW138345   3.413   2.942   8.975 -0.4224  0.5597  1.0553
 8904SOL    HW238346   3.394   2.805   9.029 -0.1134  0.4439 -0.5197
 8905SOL     OW38347   1.012   2.480  15.889 -0.7511  0.0173 -0.2288
 8905SOL    HW138348   0.971   2.394  15.890 -0.6616 -0.0438 -3.0172
 8905SOL    HW238349   1.006   2.494  15.795  4.3126 -0.6211 -0.6464
 8906SOL     OW38350   0.785   0.260   5.561 -0.0388 -0.3751 -0.1229
 8906SOL    HW138351   0.780   0.190   5.496 -1.2550 -0.3210 -0.0865
 8906SOL    HW238352   0.800   0.209   5.641 -0.5144 -3.0481 -1.7196
 8907SOL     OW38353   4.656   0.911   6.141  0.2823 -0.4113  0.3621
 8907SOL    HW138354   4.651   0.951   6.228  2.2039  0.3624  0.1264
 8907SOL    HW238355   4.639   0.819   6.159  2.3135 -1.0682 -1.1020
 8908SOL     OW38356   2.432   1.841   6.799 -0.7905 -0.5990 -0.2848
 8908SOL    HW138357   2.468   1.765   6.753  1.4854  0.1401  0.2808
 8908SOL    HW238358   2.424   1.804   6.887  1.2541 -0.0706  0.1212
 8909SOL     OW38359   4.508   1.290  16.733  0.2369 -0.2912 -0.1166
 8909SOL    HW138360   4.552   1.362  16.778 -1.9583 -0.7460  2.7286
 8909SOL    HW238361   4.458   1.346  16.674 -0.1925  0.4600  0.9759
 8910SOL     OW38362   4.031   3.678   3.792  0.0375  0.0518  0.2561
 8910SOL    HW138363   4.034   3.621   3.869 -1.2218  0.1971  0.4021
 8910SOL    HW238364   4.039   3.620   3.716  0.1650  0.7471 -0.2672
 8911SOL     OW38365   2.380   4.251   6.974  0.2014 -0.1206  0.4304
 8911SOL    HW138366   2.312   4.245   6.907  0.0440  2.0427  0.3729
 8911SOL    HW238367   2.353   4.179   7.031 -0.4885 -0.0862  0.1466
 8912SOL     OW38368   3.424   3.182   1.797  0.5003 -0.6930  0.3149
 8912SOL    HW138369   3.372   3.242   1.742  1.5896 -0.6935 -0.7020
 8912SOL    HW238370   3.430   3.235   1.877 -0.2660  0.7222 -0.5435
 8913SOL     OW38371   0.985   0.695   6.817 -0.0204  0.5069 -0.3718
 8913SOL    HW138372   0.967   0.786   6.840  0.5616 -0.1419  2.6921
 8913SOL    HW238373   1.079   0.704   6.830  0.1057  0.3010 -1.1711
 8914SOL     OW38374   0.000   2.251  11.882 -0.1170  0.0365  0.1919
 8914SOL    HW138375   0.037   2.266  11.969  0.8377  1.0921 -0.3784
 8914SOL    HW238376   0.085   2.255  11.837 -1.4693  0.9666 -2.2759
 8915SOL     OW38377   3.591   0.646  16.008  0.5191  0.1284  0.0389
 8915SOL    HW138378   3.596   0.680  16.097 -1.8866  1.0428 -0.1773
 8915SOL    HW238379   3.646   0.716  15.971 -0.6265  2.4859  2.8061
 8916SOL     OW38380   2.741   3.765   7.388 -0.2062  0.2535 -0.0748
 8916SOL    HW138381   2.740   3.734   7.478  4.5471 -2.6088 -1.0054
 8916SOL    HW238382   2.695   3.848   7.400  0.9927  0.9820 -0.4631
 8917SOL     OW38383   1.901   3.121   6.449  0.0470 -0.7328  0.0772
 8917SOL    HW138384   1.926   3.079   6.367  1.3507 -1.8023  1.0170
 8917SOL    HW238385   1.904   3.047   6.509  0.5063 -0.9052 -0.1587
 8918SOL     OW38386   3.002   2.067   7.205 -0.0758 -0.1798 -0.5270
 8918SOL    HW138387   3.069   2.008   7.239 -0.2015  0.1521  0.2939
 8918SOL    HW238388   2.990   2.027   7.119 -1.4934 -2.3012  0.6535
 8919SOL     OW38389   3.262   3.204  11.036  0.1828 -0.1104  0.3760
 8919SOL    HW138390   3.278   3.175  10.946  1.9375 -0.6789  0.8594
 8919SOL    HW238391   3.352   3.223  11.063 -0.2373  2.5148 -0.0519
 8920SOL     OW38392   1.932   3.572   8.900  0.3295  0.3459  0.1913
 8920SOL    HW138393   1.947   3.480   8.921 -0.1267  0.5962  1.6660
 8920SOL    HW238394   2.011   3.607   8.942 -0.9889  0.3853  2.6862
 8921SOL     OW38395   4.052   1.154   1.885  0.0028  0.7380 -0.2595
 8921SOL    HW138396   4.038   1.244   1.911 -0.5708  0.3059  0.9173
 8921SOL    HW238397   4.099   1.165   1.802  1.2115 -0.6104  0.2523
 8922SOL     OW38398   0.159   0.071   2.365 -0.0367  0.0579 -0.3680
 8922SOL    HW138399   0.204   0.156   2.372  0.0856  0.0385 -0.8947
 8922SOL    HW238400   0.174   0.051   2.272  1.6750  3.4524 -0.8434
 8923SOL     OW38401   0.237   2.062   8.107 -0.2010 -0.2344 -0.1418
 8923SOL    HW138402   0.333   2.057   8.107 -0.2609 -1.4565 -2.6988
 8923SOL    HW238403   0.202   1.992   8.160  1.4957  0.0937  1.4235
 8924SOL     OW38404   1.083   4.593  14.336  0.1580 -0.6263  0.1650
 8924SOL    HW138405   1.147   4.569  14.269  1.4462  0.5115  0.9837
 8924SOL    HW238406   1.012   4.626  14.281  1.3440  2.0993  0.2405
 8925SOL     OW38407   2.721   0.336  14.727  0.2658 -0.1419 -0.0327
 8925SOL    HW138408   2.787   0.292  14.780 -0.3616 -1.2648 -0.1977
 8925SOL    HW238409   2.779   0.396  14.681 -1.8466  0.0104 -2.5358
 8926SOL     OW38410   2.290   3.901   8.950 -0.3408 -0.1791 -0.4523
 8926SOL    HW138411   2.289   3.902   8.855  2.6621 -1.8235 -0.5020
 8926SOL    HW238412   2.373   3.854   8.954 -0.1448  0.2041 -0.0159
 8927SOL     OW38413   4.543   4.233  10.891  0.3771 -0.5001 -0.3064
 8927SOL    HW138414   4.623   4.182  10.904  0.5409  0.2104  1.5033
 8927SOL    HW238415   4.568   4.317  10.853 -0.2798 -0.3801 -0.4809
 8928SOL     OW38416   2.333   4.027   3.886 -0.1786  0.4376  0.1420
 8928SOL    HW138417   2.241   4.001   3.889  0.4626 -1.5163  2.9693
 8928SOL    HW238418   2.357   3.969   3.813  0.0373  1.3372 -0.5030
 8929SOL     OW38419   1.053   1.381   3.894  0.5387  0.1659 -0.1046
 8929SOL    HW138420   1.012   1.300   3.864  1.6740  0.5637 -2.6795
 8929SOL    HW238421   0.983   1.444   3.877  0.1133 -0.4775 -0.7080
 8930SOL     OW38422   1.489   1.187   3.586 -0.6266  0.5773  0.8052
 8930SOL    HW138423   1.446   1.190   3.672  1.2296 -0.0619  1.7708
 8930SOL    HW238424   1.447   1.110   3.549 -0.0149  0.5297  0.2176
 8931SOL     OW38425   4.731   1.587   6.416  0.0816  0.0149  0.2015
 8931SOL    HW138426   4.680   1.560   6.340  0.0870  2.3772 -0.6502
 8931SOL    HW238427   4.678   1.548   6.486 -1.3577 -0.7328 -1.3062
 8932SOL     OW38428   3.784   2.411   9.550  0.9639  0.2070  0.3439
 8932SOL    HW138429   3.742   2.369   9.475  2.0455  1.2794 -0.8865
 8932SOL    HW238430   3.727   2.488   9.554 -2.2714 -2.1994 -0.1383
 8933SOL     OW38431   0.629   3.589   7.736  0.0238  0.2908 -0.1500
 8933SOL    HW138432   0.573   3.512   7.726  2.2308 -1.0743 -1.9287
 8933SOL    HW238433   0.716   3.564   7.764  0.6510  1.8542 -0.6791
 8934SOL     OW38434   0.866   2.267   6.025  0.0500  0.2008 -0.4781
 8934SOL    HW138435   0.871   2.177   6.058  2.5396 -0.0514 -1.5369
 8934SOL    HW238436   0.817   2.250   5.945 -0.1353 -0.8454 -0.1461
 8935SOL     OW38437   1.393   0.895   5.165  0.5181 -0.0271  0.0564
 8935SOL    HW138438   1.309   0.897   5.118  0.4239  0.8422  0.2572
 8935SOL    HW238439   1.424   0.982   5.141  0.2664  0.2730  0.8261
 8936SOL     OW38440   4.196   2.008   7.996 -0.0294 -0.0540 -0.1683
 8936SOL    HW138441   4.147   1.946   7.942 -0.7923  0.0663  0.3827
 8936SOL    HW238442   4.210   2.082   7.937  0.7125 -0.1492 -0.1162
 8937SOL     OW38443   2.654   2.239   2.738  0.1589 -0.0406  0.6799
 8937SOL    HW138444   2.655   2.191   2.821 -1.5594  0.0478  0.7493
 8937SOL    HW238445   2.574   2.289   2.753 -0.6415 -1.4755  1.1890
 8938SOL     OW38446   1.502   0.002   0.654 -0.0060 -0.0642 -0.0219
 8938SOL    HW138447   1.422   4.706   0.691  0.4940  0.6022  1.7155
 8938SOL    HW238448   1.466   0.079   0.609  1.1425  0.0758 -0.7084
 8939SOL     OW38449   1.617   2.988  11.096 -0.2015 -0.3030 -0.2010
 8939SOL    HW138450   1.525   3.012  11.085 -0.2662 -0.6569 -0.4213
 8939SOL    HW238451   1.608   2.894  11.086  0.4421 -0.2827 -1.0048
 8940SOL     OW38452   4.434   4.398  14.320  0.1477 -0.0638  0.1943
 8940SOL    HW138453   4.463   4.426  14.407  0.9946 -0.2230 -0.0438
 8940SOL    HW238454   4.368   4.332  14.340 -0.1667 -0.4706 -2.1194
 8941SOL     OW38455   3.298   1.863   9.027 -1.1151  0.4769 -0.0170
 8941SOL    HW138456   3.374   1.882   9.082 -1.0551  1.0691 -0.3032
 8941SOL    HW238457   3.295   1.767   9.029  0.0367  0.4132 -1.2701
 8942SOL     OW38458   2.996   2.612   6.920 -0.0289  0.2491 -0.8082
 8942SOL    HW138459   2.941   2.673   6.969 -0.9915 -0.6897 -0.7127
 8942SOL    HW238460   2.992   2.534   6.975 -1.4222  1.3514  0.6257
 8943SOL     OW38461   0.164   0.198   7.711 -0.2450 -0.2674 -0.0387
 8943SOL    HW138462   0.200   0.157   7.789  0.0678 -0.5220 -0.3136
 8943SOL    HW238463   0.077   0.221   7.742 -0.2786  1.8700 -1.7551
 8944SOL     OW38464   2.658   2.964  15.089 -0.4722  0.7211 -0.6078
 8944SOL    HW138465   2.682   3.033  15.151 -0.4979 -2.1468  2.5406
 8944SOL    HW238466   2.744   2.928  15.070  0.0538  0.6570  1.9305
 8945SOL     OW38467   3.158   4.694   4.496  0.4268  0.2970  0.4173
 8945SOL    HW138468   3.096   4.639   4.449 -1.5762  3.0706 -0.1997
 8945SOL    HW238469   3.239   4.664   4.455 -0.0406  1.5206 -1.4087
 8946SOL     OW38470   0.521   3.671  16.535 -0.6967 -0.0431  0.3633
 8946SOL    HW138471   0.598   3.719  16.504 -0.1595 -0.9010  0.3840
 8946SOL    HW238472   0.534   3.660  16.629  1.2829  0.6341  0.1804
 8947SOL     OW38473   4.537   3.338   7.079 -0.9339  0.6763  0.5498
 8947SOL    HW138474   4.462   3.386   7.044 -1.1726  0.3423  0.6060
 8947SOL    HW238475   4.538   3.253   7.034 -2.3115  0.0442  1.7010
 8948SOL     OW38476   3.086   2.512   1.808 -0.3046 -0.6023  0.1134
 8948SOL    HW138477   3.118   2.537   1.895  2.3906  0.7888 -1.2705
 8948SOL    HW238478   3.130   2.576   1.753 -0.6254 -1.5093 -1.1939
 8949SOL     OW38479   0.365   3.056   7.405 -0.0071 -0.0174  0.3411
 8949SOL    HW138480   0.353   3.021   7.318  0.7765 -1.5187  0.8386
 8949SOL    HW238481   0.362   3.147   7.375 -1.9440  0.1033  0.9495
 8950SOL     OW38482   2.958   1.102   3.031 -0.2878  0.3543 -0.4921
 8950SOL    HW138483   2.945   1.136   3.119  3.1499  2.1849 -0.6783
 8950SOL    HW238484   2.865   1.089   3.014  0.2033 -1.0921 -2.1327
 8951SOL     OW38485   3.421   0.700   3.798  0.0122 -0.3537 -0.4077
 8951SOL    HW138486   3.498   0.745   3.765  1.2842  0.3159  3.4535
 8951SOL    HW238487   3.385   0.657   3.721  0.2892 -0.1029 -0.6771
 8952SOL     OW38488   4.241   1.748   3.996  0.0083  0.0530 -0.1782
 8952SOL    HW138489   4.280   1.677   3.944  1.3662  0.9781 -0.4276
 8952SOL    HW238490   4.279   1.830   3.966 -0.4250  0.9018  1.6151
 8953SOL     OW38491   3.331   0.526   5.409  0.0886  0.1063 -0.1239
 8953SOL    HW138492   3.388   0.570   5.345  0.4163 -0.7908 -0.4491
 8953SOL    HW238493   3.252   0.577   5.388 -0.4665 -0.5908  0.2533
 8954SOL     OW38494   1.839   3.457  10.415  0.0337 -0.1006 -0.0294
 8954SOL    HW138495   1.818   3.365  10.434  1.5002 -0.5107 -0.4120
 8954SOL    HW238496   1.934   3.457  10.409 -0.0188 -0.2087 -0.8013
 8955SOL     OW38497   1.315   3.174   3.901  0.4657 -0.5706 -0.0379
 8955SOL    HW138498   1.365   3.150   3.823  2.4127 -0.3981  1.1510
 8955SOL    HW238499   1.373   3.138   3.969  0.6613  1.1698  0.7445
 8956SOL     OW38500   0.446   2.622  11.928 -0.1351  0.6950 -0.2002
 8956SOL    HW138501   0.387   2.681  11.881 -1.1791 -0.9772 -0.9850
 8956SOL    HW238502   0.488   2.575  11.856  3.2001  0.7015  1.7624
 8957SOL     OW38503   2.224   1.088   6.511  0.1920  0.0517 -0.4296
 8957SOL    HW138504   2.299   1.135   6.547 -0.1643  0.6165 -0.4412
 8957SOL    HW238505   2.268   1.049   6.435  0.0422 -0.8506 -0.0559
 8958SOL     OW38506   3.763   1.271   4.450 -0.3749 -0.1743 -0.0763
 8958SOL    HW138507   3.750   1.320   4.368  1.6123  1.3868  0.5530
 8958SOL    HW238508   3.858   1.262   4.463 -0.3349 -1.8395 -1.5310
 8959SOL     OW38509   3.240   2.496  11.580 -0.3860  0.1812  0.2008
 8959SOL    HW138510   3.173   2.435  11.612  0.5563 -1.0942 -0.2741
 8959SOL    HW238511   3.297   2.436  11.533 -0.1211 -0.0311  0.7910
 8960SOL     OW38512   4.360   2.041   3.535  0.0261 -0.4329 -0.1499
 8960SOL    HW138513   4.299   2.087   3.477 -0.9284 -0.9149  0.4701
 8960SOL    HW238514   4.310   2.035   3.617  1.6508 -1.0716  0.7952
 8961SOL     OW38515   0.859   4.110   2.446 -0.4714 -0.2973 -0.0194
 8961SOL    HW138516   0.917   4.139   2.376  2.3974 -2.6018  1.3908
 8961SOL    HW238517   0.906   4.158   2.514  0.0815  1.2331 -1.4744
 8962SOL     OW38518   2.212   3.972  11.083  0.1278 -0.3932 -0.4506
 8962SOL    HW138519   2.187   4.052  11.130 -2.0324 -0.9938 -0.5826
 8962SOL    HW238520   2.306   3.959  11.097  0.5465  1.1780 -1.8192
 8963SOL     OW38521   0.112   1.007   9.121 -0.0781  0.2372 -0.0653
 8963SOL    HW138522   0.193   0.960   9.103 -0.3588 -0.8597  1.6209
 8963SOL    HW238523   0.137   1.044   9.206 -1.1295  0.2909  0.2214
 8964SOL     OW38524   2.132   2.693   4.527 -0.5390  0.3411 -0.7481
 8964SOL    HW138525   2.173   2.628   4.471  1.0358 -0.8796  1.8452
 8964SOL    HW238526   2.091   2.639   4.595 -0.0761  0.6289 -0.2337
 8965SOL     OW38527   3.563   1.772  10.943  0.2410 -0.5401  0.1130
 8965SOL    HW138528   3.578   1.858  10.904 -1.2512 -1.1457 -1.7815
 8965SOL    HW238529   3.528   1.732  10.863 -0.4871  2.6152 -1.1567
 8966SOL     OW38530   4.366   4.583   5.712  0.6843 -0.0668 -0.1880
 8966SOL    HW138531   4.332   4.671   5.726 -1.2087 -1.0453  1.4113
 8966SOL    HW238532   4.363   4.583   5.616  1.7215  1.9801 -0.2170
 8967SOL     OW38533   0.486   3.030   1.073 -0.7538  0.1583  0.2738
 8967SOL    HW138534   0.520   3.063   0.990 -0.5215  0.3502  0.4460
 8967SOL    HW238535   0.555   2.966   1.091 -1.4674 -1.1344 -1.5820
 8968SOL     OW38536   0.439   4.251   9.402  0.0073  0.3687 -0.3978
 8968SOL    HW138537   0.527   4.264   9.367 -0.1102 -0.0586 -0.8531
 8968SOL    HW238538   0.461   4.214   9.488 -2.1085  0.4282  0.1734
 8969SOL     OW38539   4.106   1.493   5.241 -0.2333 -0.1722 -0.3221
 8969SOL    HW138540   4.056   1.527   5.316 -0.5734  1.5081 -1.3355
 8969SOL    HW238541   4.037   1.464   5.182 -0.7045  1.7340 -0.6986
 8970SOL     OW38542   3.593   3.099   6.982 -0.1615  0.2003 -0.0526
 8970SOL    HW138543   3.627   3.119   7.070  0.7937 -1.3135 -0.0766
 8970SOL    HW238544   3.508   3.143   6.978 -0.6957 -0.9168 -1.0008
 8971SOL     OW38545   1.875   4.631   3.262 -0.5262 -0.4351  0.0039
 8971SOL    HW138546   1.807   4.587   3.212 -0.1048 -1.3426  0.2252
 8971SOL    HW238547   1.893   4.570   3.334 -0.6701 -1.2984 -0.6981
 8972SOL     OW38548   3.623   3.475   8.420  0.0864 -0.3879 -0.1514
 8972SOL    HW138549   3.538   3.500   8.457  0.0809  1.6562 -1.5471
 8972SOL    HW238550   3.642   3.559   8.378  1.7747 -0.9175 -0.4199
 8973SOL     OW38551   0.770   1.562   4.420 -0.3576  0.2660 -0.0763
 8973SOL    HW138552   0.862   1.585   4.437 -0.3282 -0.7686  1.1522
 8973SOL    HW238553   0.782   1.498   4.350 -1.7576  1.8705 -1.7875
 8974SOL     OW38554   1.077   2.781  11.398  0.0774  0.3754 -0.7939
 8974SOL    HW138555   1.004   2.839  11.418 -1.9260 -1.5725 -2.5141
 8974SOL    HW238556   1.055   2.694  11.431 -1.9054  0.6663 -1.3929
 8975SOL     OW38557   3.837   2.315   2.062  0.1484  0.1310  0.1915
 8975SOL    HW138558   3.805   2.278   1.980 -0.1133 -1.3530  0.9714
 8975SOL    HW238559   3.770   2.375   2.094 -1.7955 -2.1279  0.3434
 8976SOL     OW38560   3.996   1.838   3.476 -0.3876 -0.3917  0.2102
 8976SOL    HW138561   3.990   1.911   3.414 -2.2855 -0.9829 -0.2958
 8976SOL    HW238562   3.983   1.875   3.563  1.1423  0.5245  0.0451
 8977SOL     OW38563   3.707   0.225   5.701 -0.5904 -0.3848 -0.0710
 8977SOL    HW138564   3.615   0.199   5.691 -0.7718 -0.2271  1.1248
 8977SOL    HW238565   3.722   0.257   5.790  0.1092  0.7239 -0.5914
 8978SOL     OW38566   0.375   0.717   4.934 -0.0538 -0.4398 -0.4188
 8978SOL    HW138567   0.442   0.769   4.890 -0.0435  0.9287  1.2252
 8978SOL    HW238568   0.326   0.780   4.987  1.6332  0.5796 -0.0805
 8979SOL     OW38569   0.002   1.287   7.986 -0.2424  0.1940  0.0007
 8979SOL    HW138570   0.041   1.199   7.989  0.5974  0.6481  2.2663
 8979SOL    HW238571   4.649   1.266   7.987 -0.3888  0.9476  1.9719
 8980SOL     OW38572   3.831   1.499   5.130 -0.7477  0.3113  0.4267
 8980SOL    HW138573   3.785   1.575   5.165 -1.2653  0.2968 -0.2124
 8980SOL    HW238574   3.793   1.490   5.042  0.4580 -1.0329  0.0350
 8981SOL     OW38575   1.666   3.792   4.703 -0.2946  0.4350  0.4700
 8981SOL    HW138576   1.666   3.699   4.725  2.3977  0.1585 -0.6286
 8981SOL    HW238577   1.760   3.810   4.697 -0.1664  0.0663  1.3426
 8982SOL     OW38578   0.197   3.564  17.486 -0.1251 -0.4490 -0.5637
 8982SOL    HW138579   0.176   3.547  17.578 -0.8935  2.9732 -0.0986
 8982SOL    HW238580   0.262   3.497  17.468  1.1088  0.0897  1.8907
 8983SOL     OW38581   4.133   1.230   7.719 -0.5828  0.0394  0.2857
 8983SOL    HW138582   4.201   1.203   7.657 -0.9286  0.9931 -0.5036
 8983SOL    HW238583   4.173   1.301   7.770  1.4632 -0.3988 -0.7085
 8984SOL     OW38584   0.464   2.341   6.739 -0.8692  0.2529 -0.4016
 8984SOL    HW138585   0.379   2.309   6.711 -0.5072 -0.6998 -0.4015
 8984SOL    HW238586   0.456   2.422   6.789  0.6576 -0.7284  1.4058
 8985SOL     OW38587   4.698   1.511   7.442 -0.7745 -0.3610  0.2322
 8985SOL    HW138588   4.693   1.428   7.395  0.5583 -0.3798  0.1218
 8985SOL    HW238589   4.654   1.475   7.519  0.7503 -4.1860 -0.6586
 8986SOL     OW38590   1.311   2.696   3.126  0.3208 -0.2114  0.0085
 8986SOL    HW138591   1.314   2.785   3.091 -2.3477 -0.8913 -2.0193
 8986SOL    HW238592   1.405   2.685   3.138  0.5540  0.5620 -1.1063
 8987SOL     OW38593   2.135   2.572  14.845 -0.6231  0.8463  0.4146
 8987SOL    HW138594   2.157   2.664  14.858  1.8949  0.3026 -0.0882
 8987SOL    HW238595   2.204   2.527  14.894  0.1766  0.3463 -1.1635
 8988SOL     OW38596   2.938   3.661   7.646  0.3513 -0.1771  0.9682
 8988SOL    HW138597   2.857   3.616   7.623 -0.2120  1.5567 -0.4499
 8988SOL    HW238598   2.914   3.738   7.697 -1.7356  0.3224 -0.7616
 8989SOL     OW38599   1.912   3.431   4.043  0.0035 -0.6003 -0.0076
 8989SOL    HW138600   1.959   3.349   4.063 -0.2515 -0.3799  1.5401
 8989SOL    HW238601   1.938   3.450   3.953 -0.8419 -1.2694 -0.3965
 8990SOL     OW38602   1.746   3.061   5.139  0.2124  0.3251 -0.1372
 8990SOL    HW138603   1.807   3.110   5.193  0.0804 -0.0661  0.3648
 8990SOL    HW238604   1.663   3.105   5.155 -0.5343 -0.5281 -1.5736
 8991SOL     OW38605   4.113   0.236  16.005  0.3882 -0.2872 -0.4646
 8991SOL    HW138606   4.152   0.174  15.942  0.2113 -0.8650 -0.0075
 8991SOL    HW238607   4.152   0.211  16.089  1.5174 -0.0791 -0.9324
 8992SOL     OW38608   3.994   1.759   2.869  0.3708 -0.1216  0.3990
 8992SOL    HW138609   4.072   1.711   2.897  0.3899 -0.1452  0.3036
 8992SOL    HW238610   3.932   1.687   2.856  1.1282 -0.5679 -0.7102
 8993SOL     OW38611   3.561   2.855   0.556 -0.2620  0.5207  0.2218
 8993SOL    HW138612   3.507   2.910   0.500 -0.4801  2.9049  2.7371
 8993SOL    HW238613   3.647   2.871   0.516 -0.0934 -0.8034  0.0474
 8994SOL     OW38614   2.801   3.771  16.420  0.6424 -0.4219 -0.0687
 8994SOL    HW138615   2.792   3.707  16.349 -0.4601 -1.6102  1.1579
 8994SOL    HW238616   2.839   3.846  16.374 -0.2311  0.0576  0.0009
 8995SOL     OW38617   1.018   2.598   3.755  0.5901 -0.3601  0.1230
 8995SOL    HW138618   1.094   2.615   3.699  0.0098 -0.1917 -0.6093
 8995SOL    HW238619   1.021   2.659   3.829 -0.4739 -0.4635  0.2518
 8996SOL     OW38620   4.612   4.538   2.168  0.2362  0.1472  0.2525
 8996SOL    HW138621   4.593   4.577   2.083 -1.5541 -1.4323 -0.0864
 8996SOL    HW238622   4.685   4.478   2.155  1.2844  1.3463  0.6442
 8997SOL     OW38623   1.272   3.139   5.723  0.2550  0.3899 -0.3315
 8997SOL    HW138624   1.262   3.044   5.729  0.9688  0.2473 -1.3321
 8997SOL    HW238625   1.241   3.156   5.634  0.3286 -0.1022 -0.4496
 8998SOL     OW38626   3.060   1.885   0.391 -0.2476 -0.4126  0.4543
 8998SOL    HW138627   3.097   1.969   0.363 -0.7463 -0.9855 -1.8926
 8998SOL    HW238628   2.974   1.879   0.349 -0.9020  2.7100  1.3409
 8999SOL     OW38629   4.321   3.832   4.978 -0.9945 -0.3987 -0.4638
 8999SOL    HW138630   4.360   3.777   5.046  0.9285 -1.8233 -2.7314
 8999SOL    HW238631   4.231   3.800   4.990 -0.2794 -1.3891  2.1954
 9000SOL     OW38632   3.009   2.188   1.178 -0.3818 -0.1187 -0.0234
 9000SOL    HW138633   2.976   2.173   1.267 -2.7812 -0.1533 -0.9386
 9000SOL    HW238634   3.018   2.099   1.145 -0.2411 -0.7448  1.6812
 9001SOL     OW38635   4.352   2.905   9.414 -0.0665  0.8028 -0.1083
 9001SOL    HW138636   4.380   2.821   9.450 -0.7008 -0.0294 -1.5343
 9001SOL    HW238637   4.344   2.951   9.497 -1.7553 -1.0209  0.7301
 9002SOL     OW38638   3.826   0.763   5.351 -0.0004 -0.2043  0.0943
 9002SOL    HW138639   3.818   0.691   5.288  2.4271 -0.9380  0.6223
 9002SOL    HW238640   3.765   0.830   5.321  1.3910  0.6751 -0.8002
 9003SOL     OW38641   1.955   0.751   2.475 -0.1548 -0.5261 -0.0905
 9003SOL    HW138642   1.968   0.756   2.380 -0.3915  2.2113  0.0197
 9003SOL    HW238643   2.018   0.688   2.508  1.1915  1.0251  0.3055
 9004SOL     OW38644   3.687   1.755   5.240 -0.0398  0.1944 -0.2097
 9004SOL    HW138645   3.619   1.795   5.295  0.1716  1.3340 -0.7801
 9004SOL    HW238646   3.761   1.797   5.285 -0.2832 -0.5399  0.8838
 9005SOL     OW38647   3.453   1.406   5.077  0.2011 -0.5815 -0.1377
 9005SOL    HW138648   3.382   1.350   5.045  0.4718 -0.6379 -0.6283
 9005SOL    HW238649   3.514   1.336   5.099  1.3423  0.2804 -0.5603
 9006SOL     OW38650   1.602   0.889   9.309  0.2457 -0.3818  0.3163
 9006SOL    HW138651   1.583   0.816   9.250  1.4639  0.8292 -1.5451
 9006SOL    HW238652   1.693   0.872   9.331  0.2603 -0.7221 -0.0091
 9007SOL     OW38653   3.898   0.230   3.465 -0.0413  0.1572  0.1512
 9007SOL    HW138654   3.945   0.202   3.387 -0.5234  1.2561 -0.5367
 9007SOL    HW238655   3.809   0.254   3.437 -1.0883 -1.9779  1.6293
 9008SOL     OW38656   2.539   2.879   6.354  0.6935  0.0236  0.2357
 9008SOL    HW138657   2.448   2.897   6.330  0.4039  0.6680  1.8129
 9008SOL    HW238658   2.528   2.786   6.375  1.6994 -0.4319 -1.3549
 9009SOL     OW38659   2.833   2.072   5.600  0.3941 -0.2241 -0.3526
 9009SOL    HW138660   2.833   2.153   5.651  1.7763 -0.4321 -0.0060
 9009SOL    HW238661   2.927   2.052   5.605  0.7568  1.0094 -1.9394
 9010SOL     OW38662   1.497   0.884   4.592  0.3407 -0.0482  0.2739
 9010SOL    HW138663   1.485   0.810   4.533  2.5809  0.1371 -0.4154
 9010SOL    HW238664   1.449   0.848   4.666  0.8690  1.9060  1.6022
 9011SOL     OW38665   3.900   2.254   0.651  0.8969 -0.0423 -0.4458
 9011SOL    HW138666   3.903   2.318   0.580 -1.0568  0.4974 -0.0436
 9011SOL    HW238667   3.926   2.305   0.729  0.2833  1.4020 -1.1764
 9012SOL     OW38668   2.613   2.727   7.904  0.3961  0.0520  0.1270
 9012SOL    HW138669   2.636   2.637   7.926  0.3636  0.2102  0.8354
 9012SOL    HW238670   2.674   2.744   7.832  1.1883 -0.8886  0.5755
 9013SOL     OW38671   0.612   2.938  16.047 -0.5872 -0.1626 -0.5766
 9013SOL    HW138672   0.592   2.989  16.125 -0.8650 -0.8314 -0.2161
 9013SOL    HW238673   0.683   2.982  16.000 -0.8749 -0.0585 -0.9166
 9014SOL     OW38674   4.441   1.268  11.950  0.1978 -0.1302  0.0166
 9014SOL    HW138675   4.464   1.216  12.027 -0.4620  0.3159  0.5172
 9014SOL    HW238676   4.357   1.233  11.921 -0.5306  0.3234  1.5890
 9015SOL     OW38677   1.382   2.059  16.665 -0.1969 -0.2017 -0.0502
 9015SOL    HW138678   1.428   2.029  16.588  0.6608  1.5356 -0.2118
 9015SOL    HW238679   1.435   2.135  16.688 -1.1293  1.0180 -1.9849
 9016SOL     OW38680   3.430   4.012  11.154  0.3181 -0.5843 -0.3358
 9016SOL    HW138681   3.408   4.042  11.066  1.3817  1.0102 -0.0526
 9016SOL    HW238682   3.395   4.077  11.216 -0.3905 -0.8879 -0.4178
 9017SOL     OW38683   4.623   0.006   8.076  0.4715  0.1614  0.4556
 9017SOL    HW138684   4.617   4.675   8.012 -0.4366  0.6169  0.0331
 9017SOL    HW238685   4.707   0.050   8.067  1.1514 -1.1851  0.1757
 9018SOL     OW38686   1.512   1.805  13.242  0.6646 -0.4810  0.4352
 9018SOL    HW138687   1.490   1.712  13.243  1.4983 -0.6801  0.2016
 9018SOL    HW238688   1.432   1.829  13.290  1.5157  0.6492  1.2858
 9019SOL     OW38689   1.677   2.083  13.296  0.7134 -0.1684 -0.2654
 9019SOL    HW138690   1.646   2.163  13.337  0.0028 -0.5899  0.0259
 9019SOL    HW238691   1.591   2.048  13.274  0.4549  1.5761 -1.9887
 9020SOL     OW38692   3.267   1.576   6.182 -0.1321  0.5646 -0.3955
 9020SOL    HW138693   3.351   1.608   6.217 -0.1216 -0.4262  0.4898
 9020SOL    HW238694   3.307   1.511   6.125 -0.3061 -1.9163  2.3294
 9021SOL     OW38695   0.210   0.007   1.473 -0.0350 -0.0659 -0.3287
 9021SOL    HW138696   0.225   0.092   1.432 -3.1241  0.6214 -0.0322
 9021SOL    HW238697   0.114   0.010   1.475  0.0407  1.0516  1.2330
 9022SOL     OW38698   0.375   3.712   8.437  0.8036 -0.3828 -0.0796
 9022SOL    HW138699   0.339   3.745   8.355  1.2542  0.1273 -0.0760
 9022SOL    HW238700   0.328   3.631   8.454  0.1421  0.2005  0.9039
 9023SOL     OW38701   2.972   0.522   5.619  0.6724  0.0317 -0.0528
 9023SOL    HW138702   2.999   0.482   5.536 -2.7294  0.9237 -1.5666
 9023SOL    HW238703   3.035   0.594   5.619  0.0026  0.6273 -1.8749
 9024SOL     OW38704   2.816   0.193   4.722  0.0758 -0.2261  0.1296
 9024SOL    HW138705   2.902   0.209   4.685 -0.4186 -0.9979 -1.3612
 9024SOL    HW238706   2.798   0.100   4.707  0.0838 -0.3469  0.8539
 9025SOL     OW38707   3.406   0.718   8.265  0.6405 -0.4966  0.4639
 9025SOL    HW138708   3.331   0.777   8.273  0.8366 -0.2789  0.6830
 9025SOL    HW238709   3.386   0.653   8.332  1.9431  0.3875  1.7079
 9026SOL     OW38710   1.859   2.305   0.619 -0.1865  0.0771 -1.3667
 9026SOL    HW138711   1.843   2.226   0.568  1.8347 -1.0136 -0.3377
 9026SOL    HW238712   1.788   2.359   0.586 -1.7323 -2.9850 -3.0413
 9027SOL     OW38713   0.320   4.639  13.451  0.4564  0.1113  0.1454
 9027SOL    HW138714   0.391   4.703  13.451  1.2272 -0.7523  0.5953
 9027SOL    HW238715   0.329   4.590  13.370 -2.7681  1.4738 -1.0577
 9028SOL     OW38716   0.964   3.263   7.176 -0.8435 -0.1893  0.5527
 9028SOL    HW138717   1.040   3.248   7.232 -1.6858 -0.4213  1.6395
 9028SOL    HW238718   0.961   3.359   7.181  0.5643 -0.1880  1.3559
 9029SOL     OW38719   3.020   0.829   9.354 -0.1738  0.8739  0.2866
 9029SOL    HW138720   3.113   0.806   9.355 -0.5181 -0.5242  1.2311
 9029SOL    HW238721   3.016   0.864   9.265 -1.2648 -0.1748 -0.0817
 9030SOL     OW38722   3.493   0.591   4.906  0.2199 -0.0380  0.2746
 9030SOL    HW138723   3.425   0.586   4.974  1.2483 -0.4437  1.2748
 9030SOL    HW238724   3.454   0.655   4.846  0.1489  1.3819  1.8212
 9031SOL     OW38725   1.116   4.120   4.581 -0.2180  0.1136  0.1096
 9031SOL    HW138726   1.185   4.054   4.571 -1.0531 -0.4987 -1.6153
 9031SOL    HW238727   1.137   4.146   4.670  0.3708  1.6804 -0.4927
 9032SOL     OW38728   1.181   3.563   8.165 -0.9546 -0.0299  0.1830
 9032SOL    HW138729   1.229   3.610   8.234  0.0336  1.5156 -1.5602
 9032SOL    HW238730   1.252   3.513   8.125 -0.9464  0.8770 -0.9402
 9033SOL     OW38731   0.186   1.785   9.480  0.0436 -0.0666  0.1015
 9033SOL    HW138732   0.278   1.756   9.483  0.3668  1.1261  1.5766
 9033SOL    HW238733   0.185   1.862   9.536 -0.0277  0.2691 -0.3624
 9034SOL     OW38734   4.709   0.314   1.132 -0.0603  0.3102 -0.1813
 9034SOL    HW138735   0.036   0.252   1.103 -1.0252 -1.9187  2.2823
 9034SOL    HW238736   4.624   0.274   1.110 -0.4692  0.2214  1.5703
 9035SOL     OW38737   0.178   0.078   9.333 -0.2698  0.3794 -0.3959
 9035SOL    HW138738   0.272   0.063   9.325 -0.4675  0.3334 -2.5370
 9035SOL    HW238739   0.169   0.072   9.429  1.9905  0.7577 -0.1751
 9036SOL     OW38740   2.872   1.836   1.828  0.2920 -0.3234  0.0356
 9036SOL    HW138741   2.923   1.847   1.909  1.0412  0.2096 -0.5120
 9036SOL    HW238742   2.782   1.840   1.861  0.9271  0.1978  1.7258
 9037SOL     OW38743   1.916   1.421  16.823 -0.3761  0.6665  0.0904
 9037SOL    HW138744   1.835   1.453  16.783 -0.7604 -0.9573 -0.4147
 9037SOL    HW238745   1.959   1.410  16.738 -0.3102 -2.9754  0.6271
 9038SOL     OW38746   3.435   1.389   4.325 -0.0294  0.1225  0.0479
 9038SOL    HW138747   3.458   1.428   4.240  1.5504 -0.5968  0.1291
 9038SOL    HW238748   3.458   1.468   4.374  0.4067  1.4158 -2.2305
 9039SOL     OW38749   4.237   2.845   4.942  0.1794  0.1482 -0.3987
 9039SOL    HW138750   4.160   2.897   4.966  0.0700 -0.2264  0.0668
 9039SOL    HW238751   4.205   2.791   4.870  0.3642  0.4120 -0.6777
 9040SOL     OW38752   1.652   0.096  11.411 -0.0804 -0.5656 -0.4627
 9040SOL    HW138753   1.724   0.133  11.462 -1.4777  1.9459 -0.2875
 9040SOL    HW238754   1.583   0.162  11.416 -1.3345 -1.6039 -3.9472
 9041SOL     OW38755   0.765   2.652  14.557  0.0720 -0.5588  0.0435
 9041SOL    HW138756   0.775   2.586  14.488 -0.2026 -1.4862  0.8932
 9041SOL    HW238757   0.776   2.731  14.504  0.4600 -0.8791 -0.3553
 9042SOL     OW38758   3.589   4.143   2.781 -0.2155 -0.1809  0.1280
 9042SOL    HW138759   3.613   4.083   2.711 -1.6934 -0.2641 -0.3256
 9042SOL    HW238760   3.563   4.213   2.720  1.7491  2.4096  2.2663
 9043SOL     OW38761   4.194   1.729  11.337 -0.6455  0.2440 -0.1781
 9043SOL    HW138762   4.121   1.758  11.392 -1.6051 -1.1835 -0.7183
 9043SOL    HW238763   4.261   1.793  11.361  0.9742 -1.6828  0.4928
 9044SOL     OW38764   0.564   1.197   2.105 -0.1984 -0.3875  0.1689
 9044SOL    HW138765   0.513   1.215   2.183  0.0999 -0.8845  0.4767
 9044SOL    HW238766   0.494   1.155   2.054  0.0986 -0.6496 -0.0268
 9045SOL     OW38767   1.227   2.755   0.439  0.3301 -0.0417  0.5963
 9045SOL    HW138768   1.271   2.827   0.483  0.9009  0.0014 -0.0488
 9045SOL    HW238769   1.231   2.676   0.493 -0.6500  0.3824  1.2859
 9046SOL     OW38770   2.913   2.281   6.475  0.2144  0.3430 -0.0018
 9046SOL    HW138771   2.927   2.370   6.506  3.1765  0.0578 -0.5620
 9046SOL    HW238772   2.820   2.287   6.452  0.3026  3.0041  0.3530
 9047SOL     OW38773   3.505   0.323   7.942 -0.5103 -0.2540 -0.1366
 9047SOL    HW138774   3.482   0.302   8.033  0.6254 -0.3857  0.1219
 9047SOL    HW238775   3.438   0.388   7.924  0.8332  0.9401 -0.8615
 9048SOL     OW38776   0.130   1.747   9.222 -0.2007 -0.2039 -0.1235
 9048SOL    HW138777   0.169   1.761   9.309 -1.6322 -1.2380  0.6717
 9048SOL    HW238778   0.182   1.670   9.199 -0.6315 -0.2324 -0.9932
 9049SOL     OW38779   2.688   1.962   2.341 -0.1560 -0.9709  0.0302
 9049SOL    HW138780   2.644   2.036   2.382  0.0131  0.8395 -3.0778
 9049SOL    HW238781   2.741   2.010   2.278  1.0792  0.5334  2.2047
 9050SOL     OW38782   4.425   3.172   6.578 -0.3422  0.0264 -0.0950
 9050SOL    HW138783   4.502   3.216   6.542 -1.4496  0.7344 -1.6150
 9050SOL    HW238784   4.371   3.251   6.583 -3.6665 -2.3812  1.6637
 9051SOL     OW38785   3.340   3.234  15.152  0.2111 -0.0233 -0.0678
 9051SOL    HW138786   3.429   3.207  15.176  0.4895  1.1276  0.1995
 9051SOL    HW238787   3.290   3.174  15.207  0.1080  1.1426  1.1238
 9052SOL     OW38788   2.886   0.987   6.257 -0.1537 -0.2902 -0.9323
 9052SOL    HW138789   2.910   1.065   6.207  1.5322 -0.9128 -1.0809
 9052SOL    HW238790   2.953   0.982   6.325  0.0853  0.6725 -1.0951
 9053SOL     OW38791   0.467   2.605   4.414 -0.1879 -0.0073  0.3890
 9053SOL    HW138792   0.523   2.572   4.484  0.0034  2.0506  1.2198
 9053SOL    HW238793   0.519   2.584   4.336  0.8368  1.6621  0.6166
 9054SOL     OW38794   4.277   1.850  15.429 -0.0553  0.4646 -0.5931
 9054SOL    HW138795   4.287   1.768  15.379 -1.0527 -1.3395  2.2025
 9054SOL    HW238796   4.185   1.846  15.454 -0.1614  3.6807 -0.5374
 9055SOL     OW38797   1.304   4.150  13.136  0.0450 -0.5966  0.2673
 9055SOL    HW138798   1.393   4.178  13.112 -0.3623  0.6741  0.2607
 9055SOL    HW238799   1.269   4.229  13.178 -0.4996 -1.3757  1.2891
 9056SOL     OW38800   2.902   0.980   7.241 -0.9723  0.8566  0.2336
 9056SOL    HW138801   2.947   1.057   7.276 -1.0196  0.5412  0.9803
 9056SOL    HW238802   2.907   0.920   7.315  0.1881 -1.8584 -2.0583
 9057SOL     OW38803   4.515   0.170   7.548 -0.2849  0.3759 -0.4835
 9057SOL    HW138804   4.452   0.137   7.612  1.9245  0.2564  1.6034
 9057SOL    HW238805   4.533   0.085   7.507 -2.9421 -0.0699 -0.7372
 9058SOL     OW38806   3.437   3.339   3.333 -0.2991 -0.3657 -0.7115
 9058SOL    HW138807   3.521   3.372   3.365  0.7244 -0.9068 -2.8794
 9058SOL    HW238808   3.424   3.408   3.268 -0.1708 -0.6131 -0.9987
 9059SOL     OW38809   3.318   0.821   2.562 -0.1913 -0.3769  0.3264
 9059SOL    HW138810   3.329   0.916   2.564  0.9161 -0.4767 -0.7459
 9059SOL    HW238811   3.384   0.799   2.495 -0.9234  0.3982 -0.6440
 9060SOL     OW38812   1.689   0.325   3.180  0.5056 -0.0114  0.0453
 9060SOL    HW138813   1.596   0.311   3.161  0.4900 -0.6143  0.5669
 9060SOL    HW238814   1.714   0.234   3.197  0.5974  0.2044  1.0191
 9061SOL     OW38815   4.729   0.865  10.991  0.1566  0.2098 -0.8567
 9061SOL    HW138816   0.077   0.901  10.988  0.6507 -0.8801  0.5219
 9061SOL    HW238817   4.693   0.884  11.078 -1.2749 -3.8160 -0.5640
 9062SOL     OW38818   1.786   0.024  10.176 -0.2229 -0.0547 -0.0150
 9062SOL    HW138819   1.793   4.674  10.207  0.1661  0.3600  1.1085
 9062SOL    HW238820   1.701   0.034  10.133  0.2240  0.8844 -0.6873
 9063SOL     OW38821   0.915   3.636   8.420  0.3080 -0.6488 -0.2189
 9063SOL    HW138822   0.968   3.621   8.499  0.5127 -0.6357 -0.3529
 9063SOL    HW238823   0.973   3.686   8.362 -0.3800  0.7681  0.2941
 9064SOL     OW38824   3.754   0.614   6.197  0.4810  0.5459 -0.4846
 9064SOL    HW138825   3.778   0.595   6.288 -0.3782  0.0405 -0.3597
 9064SOL    HW238826   3.834   0.650   6.159 -0.1679  2.8618  0.3268
 9065SOL     OW38827   0.191   1.042   0.799  0.0611  0.6233  0.2548
 9065SOL    HW138828   0.247   1.082   0.732  1.0067  0.8161  1.1505
 9065SOL    HW238829   0.184   0.952   0.768  1.5892  1.0073 -1.2370
 9066SOL     OW38830   4.521   2.769   5.925  0.1263  0.0420  0.5732
 9066SOL    HW138831   4.585   2.754   5.994  2.3100  0.1754 -1.4138
 9066SOL    HW238832   4.578   2.822   5.870  0.3995  0.4236  1.2202
 9067SOL     OW38833   3.188   1.886  11.492  0.2504 -0.3439  0.4385
 9067SOL    HW138834   3.248   1.911  11.422  0.7508  0.1623  1.0464
 9067SOL    HW238835   3.135   1.818  11.450  1.5750 -1.8529  1.2093
 9068SOL     OW38836   1.533   1.894   3.757  0.0688 -0.2451  0.0927
 9068SOL    HW138837   1.555   1.908   3.665  1.4044  0.3449  0.5141
 9068SOL    HW238838   1.448   1.936   3.770  0.2916  0.3471 -0.4035
 9069SOL     OW38839   2.057   3.873   6.818 -0.2252 -0.2636  0.2389
 9069SOL    HW138840   2.141   3.916   6.803 -0.5216  0.9676  2.0659
 9069SOL    HW238841   2.013   3.904   6.739  0.3956  0.4329  0.1606
 9070SOL     OW38842   4.583   0.814   0.778 -0.5521  0.4006 -0.0286
 9070SOL    HW138843   4.508   0.859   0.739 -0.6734 -1.6774 -2.1369
 9070SOL    HW238844   4.555   0.723   0.781 -0.2234  0.2756 -0.7583
 9071SOL     OW38845   3.051   4.557   5.184 -0.4473  0.1221  0.3063
 9071SOL    HW138846   3.011   4.615   5.120 -0.6331 -1.2541 -0.8354
 9071SOL    HW238847   3.114   4.512   5.127 -1.1703 -1.5828  0.8317
 9072SOL     OW38848   4.359   4.511  15.849  0.2487 -0.2838  0.2815
 9072SOL    HW138849   4.445   4.538  15.818  0.0518 -0.5769 -0.5050
 9072SOL    HW238850   4.376   4.493  15.942  0.0973 -0.4692  0.2748
 9073SOL     OW38851   2.260   2.760   7.062 -0.0615  0.2690 -0.2931
 9073SOL    HW138852   2.166   2.763   7.040 -0.1591  1.8334  0.3277
 9073SOL    HW238853   2.264   2.791   7.152 -3.5044 -2.1842  0.6934
 9074SOL     OW38854   3.982   0.139  12.412  0.5625  0.7452 -0.0013
 9074SOL    HW138855   3.916   0.135  12.480  1.7840 -0.9510  1.1000
 9074SOL    HW238856   4.063   0.102  12.448  0.0425  1.3010  1.7145
 9075SOL     OW38857   4.094   0.651   6.156 -0.2675 -0.3495 -0.1754
 9075SOL    HW138858   4.023   0.706   6.125  0.0492 -0.2888 -0.7783
 9075SOL    HW238859   4.158   0.659   6.085 -0.8308  1.1961 -0.5034
 9076SOL     OW38860   3.759   4.234   3.840  0.4242  0.2652  0.5477
 9076SOL    HW138861   3.792   4.189   3.918  0.4262  1.3686  1.1824
 9076SOL    HW238862   3.799   4.178   3.774  0.0682  0.0279  0.5341
 9077SOL     OW38863   2.516   0.830   0.405  0.0219  0.0371  0.3306
 9077SOL    HW138864   2.456   0.896   0.439  0.7354  1.1348 -0.5603
 9077SOL    HW238865   2.491   0.759   0.464 -0.6675 -0.9879 -1.1722
 9078SOL     OW38866   1.278   4.098  10.398  0.0234 -0.5051  0.0404
 9078SOL    HW138867   1.246   4.123  10.311  0.9125 -0.2056 -0.2031
 9078SOL    HW238868   1.259   4.182  10.440 -0.2248  0.1311 -1.3507
 9079SOL     OW38869   2.746   3.548  15.079  0.4050  0.4069  0.3743
 9079SOL    HW138870   2.785   3.618  15.027  1.7163 -1.1970 -0.7890
 9079SOL    HW238871   2.653   3.552  15.056  0.1113 -0.7071  1.3729
 9080SOL     OW38872   3.500   1.320   2.554  0.3263 -0.0632  0.5754
 9080SOL    HW138873   3.468   1.404   2.588  1.4345  0.0672  1.3266
 9080SOL    HW238874   3.512   1.343   2.462  0.1378  1.5254  0.9386
 9081SOL     OW38875   0.855   2.595  15.158 -0.4019  0.7240 -0.2465
 9081SOL    HW138876   0.828   2.683  15.185  0.1101  0.9310 -0.4311
 9081SOL    HW238877   0.770   2.565  15.125  0.5492 -0.7686 -1.2835
 9082SOL     OW38878   0.105   2.854   7.334  0.0112  0.2030 -0.0025
 9082SOL    HW138879   0.137   2.838   7.423  2.3977 -2.3215 -1.3051
 9082SOL    HW238880   0.180   2.844   7.277 -0.5335  0.7270 -0.8069
 9083SOL     OW38881   1.962   4.292   5.257  0.6124  0.2692  0.3357
 9083SOL    HW138882   1.974   4.214   5.203  3.7302 -0.3185  1.8633
 9083SOL    HW238883   2.043   4.289   5.309  0.6583 -2.2473  0.1183
 9084SOL     OW38884   4.123   2.958   4.142 -0.5172 -0.8817  0.4080
 9084SOL    HW138885   4.076   2.977   4.061  0.3909  1.0110  0.3422
 9084SOL    HW238886   4.103   2.865   4.151  2.1358 -1.4412  0.4860
 9085SOL     OW38887   1.706   0.048  17.216 -0.2377 -0.2478 -0.0923
 9085SOL    HW138888   1.629   0.031  17.269 -0.6857  3.1556  0.3405
 9085SOL    HW238889   1.726   0.128  17.264 -2.3851 -1.1331  2.2663
 9086SOL     OW38890   0.286   0.398   2.198 -0.1843 -0.4189  0.1381
 9086SOL    HW138891   0.194   0.372   2.206 -0.7267  0.7936 -2.0250
 9086SOL    HW238892   0.300   0.381   2.104 -0.2351 -0.8793  0.2114
 9087SOL     OW38893   0.068   2.131   3.965 -0.2149 -0.2712  0.3560
 9087SOL    HW138894   0.086   2.193   3.895  0.0229 -1.7487 -0.8734
 9087SOL    HW238895   0.020   2.182   4.031 -0.3552 -1.3760  1.1107
 9088SOL     OW38896   0.341   4.500   5.240  0.5072 -0.3202  0.5237
 9088SOL    HW138897   0.349   4.404   5.238 -0.1758 -0.3752  0.1672
 9088SOL    HW238898   0.274   4.505   5.172 -0.2359  1.7592  1.4175
 9089SOL     OW38899   3.193   4.444   6.154  0.1070 -0.2575 -0.3011
 9089SOL    HW138900   3.254   4.381   6.117  0.7732 -0.5114  1.2570
 9089SOL    HW238901   3.123   4.408   6.209  0.7435 -1.2388 -0.1412
 9090SOL     OW38902   3.584   3.960   2.595  0.4705 -0.2956  0.4866
 9090SOL    HW138903   3.562   4.020   2.523 -0.5886  2.4384  3.1056
 9090SOL    HW238904   3.658   3.911   2.558 -0.5146 -0.1743 -1.6690
 9091SOL     OW38905   4.159   0.633  13.472 -0.3087  0.4674  0.7986
 9091SOL    HW138906   4.238   0.586  13.498  0.2181  1.2392  0.6138
 9091SOL    HW238907   4.098   0.560  13.482  1.7081 -1.0082  2.2573
 9092SOL     OW38908   2.661   2.689   5.717 -0.5227  0.0572  0.4854
 9092SOL    HW138909   2.634   2.655   5.632 -0.7403 -3.1197  1.8317
 9092SOL    HW238910   2.578   2.725   5.748 -0.0745  1.9493 -0.5489
 9093SOL     OW38911   0.692   2.145   5.551 -0.1531 -0.1717 -0.2506
 9093SOL    HW138912   0.712   2.092   5.474  2.1661 -0.9036  0.8336
 9093SOL    HW238913   0.603   2.174   5.530  0.6534  0.3909 -2.9552
 9094SOL     OW38914   2.056   2.627   1.545  0.4208 -0.2115 -0.0867
 9094SOL    HW138915   2.040   2.710   1.591 -0.7763 -0.3560 -0.2406
 9094SOL    HW238916   2.014   2.572   1.611  0.0065 -2.9641 -2.6608
 9095SOL     OW38917   0.894   1.800   8.450 -0.0407 -0.4243  0.3139
 9095SOL    HW138918   0.979   1.798   8.407 -0.5515 -0.1285 -0.6985
 9095SOL    HW238919   0.866   1.708   8.451  3.0533 -1.3637  0.5749
 9096SOL     OW38920   0.772   3.982   8.564  0.3688 -0.1642  0.1863
 9096SOL    HW138921   0.842   3.968   8.500  1.9134 -1.7650  2.1819
 9096SOL    HW238922   0.692   3.983   8.512  0.6182  1.2292 -0.1599
 9097SOL     OW38923   2.541   1.424   2.723  0.2700  0.7108  0.3537
 9097SOL    HW138924   2.566   1.332   2.731 -0.1107  0.3673 -2.3720
 9097SOL    HW238925   2.447   1.417   2.737  0.2344 -1.0845 -0.7057
 9098SOL     OW38926   2.469   1.744   3.141 -0.0313  0.1370  0.2004
 9098SOL    HW138927   2.490   1.748   3.048  0.6637 -3.1397  0.1897
 9098SOL    HW238928   2.392   1.799   3.136  1.4438  2.2489  0.8279
 9099SOL     OW38929   2.570   3.815   8.673 -0.5868 -0.3408  0.1044
 9099SOL    HW138930   2.530   3.738   8.633 -2.0825  0.5227 -0.0360
 9099SOL    HW238931   2.652   3.829   8.625 -0.0113 -1.1636  0.8459
 9100SOL     OW38932   4.541   4.245   5.446  0.2138  1.0449  0.4874
 9100SOL    HW138933   4.488   4.324   5.455  0.4381  1.0866  1.4374
 9100SOL    HW238934   4.567   4.233   5.538 -1.2578  1.7669  0.9945
 9101SOL     OW38935   4.718   4.341  12.153  0.3912  0.0244  0.6909
 9101SOL    HW138936   0.004   4.251  12.133  0.3015  0.4904 -1.4901
 9101SOL    HW238937   4.623   4.332  12.147  0.3622  1.6586 -1.2380
 9102SOL     OW38938   3.384   2.201   9.546 -0.6817  0.0368  0.1174
 9102SOL    HW138939   3.446   2.129   9.555  0.7733  1.0491 -1.8075
 9102SOL    HW238940   3.424   2.251   9.475 -1.9197  3.9985  2.1937
 9103SOL     OW38941   4.710   2.341   4.678  0.6128 -0.2629  0.5634
 9103SOL    HW138942   0.036   2.359   4.745 -0.4224 -1.1168  1.8120
 9103SOL    HW238943   0.001   2.263   4.632  1.4344  0.7616 -0.5967
 9104SOL     OW38944   3.296   3.732   8.559 -0.8469  0.8122 -0.7429
 9104SOL    HW138945   3.351   3.809   8.541 -0.9439  1.4002  1.3755
 9104SOL    HW238946   3.315   3.662   8.497 -1.0149 -1.0054  1.2571
 9105SOL     OW38947   1.797   3.023   1.191 -0.9196  0.6008  0.3071
 9105SOL    HW138948   1.813   3.086   1.120  0.0028  0.7524  0.6449
 9105SOL    HW238949   1.873   3.047   1.244 -0.8162  1.6814 -0.3233
 9106SOL     OW38950   1.407   3.622   4.758  0.1739 -0.0589  0.0007
 9106SOL    HW138951   1.499   3.628   4.734 -0.0320  1.5793 -0.4313
 9106SOL    HW238952   1.403   3.646   4.851  0.1732  1.1632 -0.3156
 9107SOL     OW38953   3.963   1.948   3.741  0.0897 -0.7456  0.2191
 9107SOL    HW138954   4.017   1.979   3.814 -2.9406 -2.6583  3.2728
 9107SOL    HW238955   3.876   1.972   3.772  1.6676 -0.7776  4.7235
 9108SOL     OW38956   1.342   0.212   0.121 -0.1064 -0.3348  0.2844
 9108SOL    HW138957   1.301   0.250   0.044  3.8639 -0.9850 -2.1935
 9108SOL    HW238958   1.280   0.148   0.156 -0.9417 -0.0732 -0.7360
 9109SOL     OW38959   3.410   4.074  10.845  0.2820  0.3909  0.1386
 9109SOL    HW138960   3.359   4.012  10.793 -0.3635 -0.9259  2.3645
 9109SOL    HW238961   3.487   4.019  10.856 -0.8873 -1.0143  1.3087
 9110SOL     OW38962   1.780   4.330   9.934  0.0545 -0.4628 -0.1628
 9110SOL    HW138963   1.862   4.354   9.978 -0.6728  0.6233  0.5838
 9110SOL    HW238964   1.743   4.271  10.001  0.0231 -1.4281 -1.0278
 9111SOL     OW38965   1.556   2.798   8.385  0.3925  0.5136 -0.2757
 9111SOL    HW138966   1.524   2.835   8.303 -1.4943 -0.2138  0.1302
 9111SOL    HW238967   1.601   2.877   8.415 -2.4161  1.9062  0.2244
 9112SOL     OW38968   1.258   1.141   5.748 -0.2936  0.0119 -0.0864
 9112SOL    HW138969   1.169   1.176   5.740 -0.5088  0.0789  2.5912
 9112SOL    HW238970   1.292   1.172   5.832  1.0818 -0.0783 -0.6190
 9113SOL     OW38971   3.746   1.666   0.519  0.5029 -0.2123  0.2556
 9113SOL    HW138972   3.821   1.641   0.465  0.7338 -0.6747  0.8001
 9113SOL    HW238973   3.764   1.751   0.559  0.5404 -1.4032  2.7589
 9114SOL     OW38974   4.524   0.862  10.307  0.1865  0.3134 -0.2960
 9114SOL    HW138975   4.574   0.837  10.385 -0.6227  0.7269  0.3509
 9114SOL    HW238976   4.465   0.929  10.341  0.1651  0.7324 -1.1831
 9115SOL     OW38977   2.115   0.506   2.898 -0.1769 -0.2876 -0.0189
 9115SOL    HW138978   2.148   0.417   2.911  0.8838  0.1984  0.6376
 9115SOL    HW238979   2.046   0.508   2.964 -1.3349  0.9196 -1.2630
 9116SOL     OW38980   0.915   0.451  11.545 -0.2025  0.0089  0.3466
 9116SOL    HW138981   0.951   0.522  11.598  1.1085  0.0764 -0.6657
 9116SOL    HW238982   0.964   0.464  11.465  1.1535  2.1760  1.5251
 9117SOL     OW38983   1.944   0.585   0.900 -0.7582 -0.1173 -0.6051
 9117SOL    HW138984   2.030   0.602   0.860 -0.2796  0.6275  0.7550
 9117SOL    HW238985   1.895   0.559   0.822 -0.0911 -0.6327 -0.8550
 9118SOL     OW38986   2.997   2.607  10.081 -0.4890  0.0285  0.2523
 9118SOL    HW138987   3.070   2.654  10.121  0.6722 -1.1656 -0.4405
 9118SOL    HW238988   2.941   2.680  10.053  1.0414  0.4799 -1.6769
 9119SOL     OW38989   1.737   2.351   1.109  1.0345 -0.0655  0.3153
 9119SOL    HW138990   1.711   2.366   1.200  1.6368  0.9559  0.3305
 9119SOL    HW238991   1.672   2.406   1.066  0.1774 -1.1188  0.2761
 9120SOL     OW38992   3.186   0.903  15.051 -0.5622 -0.3496 -0.2466
 9120SOL    HW138993   3.242   0.871  14.980 -0.7222 -4.1931  1.3548
 9120SOL    HW238994   3.219   0.854  15.127 -1.0354 -1.2583 -0.6161
 9121SOL     OW38995   4.607   0.207   6.343 -0.2294 -0.3728 -0.2687
 9121SOL    HW138996   4.604   0.112   6.350 -2.5570 -0.2088  0.9277
 9121SOL    HW238997   4.515   0.233   6.332 -0.5217 -0.2872  2.3613
 9122SOL     OW38998   3.099   3.383   5.907  0.1239 -0.3721 -0.4036
 9122SOL    HW138999   3.137   3.401   5.992 -1.4766 -1.0192  0.4560
 9122SOL    HW239000   3.167   3.331   5.865  0.9984 -0.3767  1.0299
 9123SOL     OW39001   0.939   0.302   7.672  0.8424  0.5618 -0.5158
 9123SOL    HW139002   0.995   0.257   7.609 -0.0695 -0.6262 -0.4850
 9123SOL    HW239003   0.857   0.316   7.624  0.7893 -2.7658 -1.3780
 9124SOL     OW39004   2.746   0.255   6.501  0.2608  0.4675 -0.2707
 9124SOL    HW139005   2.665   0.265   6.451 -0.6019 -2.2821  0.5871
 9124SOL    HW239006   2.758   0.345   6.531  1.0383  0.1978  0.2421
 9125SOL     OW39007   2.927   2.633   8.946 -0.1331  0.2361  0.1128
 9125SOL    HW139008   3.001   2.690   8.968 -0.0592 -0.1524  0.8629
 9125SOL    HW239009   2.956   2.588   8.867  1.0718 -0.0781  0.7304
 9126SOL     OW39010   2.626   4.211   8.074 -0.0590  0.8063  0.6568
 9126SOL    HW139011   2.636   4.245   8.163  1.8111  1.3428  0.2447
 9126SOL    HW239012   2.547   4.261   8.056 -0.6159  0.0204  0.9601
 9127SOL     OW39013   1.889   0.184   7.580 -0.7182  0.2903 -0.1564
 9127SOL    HW139014   1.926   0.133   7.508 -1.2016 -1.1962  0.6474
 9127SOL    HW239015   1.826   0.239   7.534  0.5949 -0.3253 -2.7037
 9128SOL     OW39016   0.796   2.894  12.090  0.3199  0.0831  0.5549
 9128SOL    HW139017   0.813   2.985  12.111 -0.9737 -0.7700  5.2622
 9128SOL    HW239018   0.703   2.890  12.065  0.3071  0.2943  0.5742
 9129SOL     OW39019   2.985   1.652   4.901  0.3064  0.1617 -0.3733
 9129SOL    HW139020   2.933   1.581   4.864 -0.7440  0.5847  0.3203
 9129SOL    HW239021   3.044   1.674   4.828 -0.6380  1.2040 -0.8066
 9130SOL     OW39022   1.526   2.322   6.468 -0.1698 -0.8516  0.2956
 9130SOL    HW139023   1.616   2.314   6.499 -0.3383 -0.8948  0.7754
 9130SOL    HW239024   1.470   2.267   6.523 -0.9471 -1.3849 -1.0102
 9131SOL     OW39025   1.988   3.694   8.181  0.0636  0.6032 -0.4783
 9131SOL    HW139026   1.945   3.620   8.136  0.6838 -1.1696  1.8569
 9131SOL    HW239027   1.996   3.658   8.269 -0.3300  0.9319 -0.3121
 9132SOL     OW39028   3.367   1.634   5.570 -0.0219  0.1318 -0.3323
 9132SOL    HW139029   3.448   1.679   5.595 -0.0320 -0.8932  1.5712
 9132SOL    HW239030   3.382   1.625   5.476 -1.1071  0.4661 -0.5418
 9133SOL     OW39031   0.713   3.163   9.931 -0.3532 -0.1984 -0.8207
 9133SOL    HW139032   0.688   3.071   9.945 -2.0260 -0.0145 -2.7513
 9133SOL    HW239033   0.650   3.210   9.985 -1.8763 -3.6482  0.4199
 9134SOL     OW39034   3.406   3.132   8.967  0.1056  0.2362  0.3244
 9134SOL    HW139035   3.329   3.101   9.015 -0.1937  1.9201  0.9058
 9134SOL    HW239036   3.420   3.212   9.018  1.6567 -0.4170  0.9405
 9135SOL     OW39037   0.471   2.087   2.049 -0.2946  0.2911 -0.0745
 9135SOL    HW139038   0.515   2.104   1.966 -2.4273  1.0966 -1.0321
 9135SOL    HW239039   0.500   1.998   2.070  1.3089  0.7208 -0.4895
 9136SOL     OW39040   2.714   4.343   6.053 -0.0702 -0.3498 -0.0804
 9136SOL    HW139041   2.680   4.356   5.965 -2.5237  1.2538  1.0884
 9136SOL    HW239042   2.689   4.253   6.071  4.0331 -0.9949  2.4463
 9137SOL     OW39043   1.137   3.591   6.090  0.5656  0.1337 -0.2886
 9137SOL    HW139044   1.157   3.504   6.123 -2.1207 -0.2016  0.4739
 9137SOL    HW239045   1.056   3.573   6.042  0.3518  0.7562 -0.1612
 9138SOL     OW39046   3.942   2.965  14.861  0.2526 -0.1223 -0.6318
 9138SOL    HW139047   3.876   2.900  14.883  0.8218 -0.8781 -1.1596
 9138SOL    HW239048   4.015   2.934  14.913 -1.5022 -0.9067  1.3574
 9139SOL     OW39049   2.769   2.219   7.266 -0.1560  0.2575  0.0575
 9139SOL    HW139050   2.749   2.188   7.354 -2.4910  2.4034  0.2625
 9139SOL    HW239051   2.840   2.157   7.246  1.0842  1.2485  1.3789
 9140SOL     OW39052   0.662   3.098   4.304  0.7977 -0.0084  0.0452
 9140SOL    HW139053   0.698   3.043   4.373  1.9290 -1.0251 -1.3601
 9140SOL    HW239054   0.681   3.185   4.339 -0.5417  0.7843 -1.1862
 9141SOL     OW39055   2.403   3.352   6.507 -0.5614 -0.0609  0.1363
 9141SOL    HW139056   2.436   3.283   6.450 -0.8776  0.9298 -1.2284
 9141SOL    HW239057   2.354   3.305   6.574 -0.5358 -0.7552 -0.3367
 9142SOL     OW39058   4.730   4.509  17.366  0.1331 -0.2783 -0.1797
 9142SOL    HW139059   0.018   4.449  17.435  1.2103  0.0193 -0.3597
 9142SOL    HW239060   4.650   4.551  17.398 -0.9150 -1.8998 -0.6702
 9143SOL     OW39061   0.196   2.481  12.036 -0.1558  0.8122  0.2070
 9143SOL    HW139062   0.201   2.422  12.111  2.0945  0.0616 -0.5433
 9143SOL    HW239063   0.282   2.471  11.995 -1.9538 -3.4922 -2.4921
 9144SOL     OW39064   1.065   0.201  12.389 -0.0435  0.3178 -0.3640
 9144SOL    HW139065   0.996   0.163  12.335 -0.7516  0.7417  0.2430
 9144SOL    HW239066   1.032   0.290  12.400 -2.5711 -0.7623  0.7585
 9145SOL     OW39067   1.575   3.477  15.435  0.1840  0.4751  0.1596
 9145SOL    HW139068   1.482   3.466  15.453 -0.2561  2.0528 -1.1456
 9145SOL    HW239069   1.580   3.448  15.344 -0.7444 -1.4004  0.7136
 9146SOL     OW39070   1.322   2.263   1.305 -0.1890  0.0227  0.2370
 9146SOL    HW139071   1.271   2.275   1.385 -0.4268  0.5956 -0.0028
 9146SOL    HW239072   1.409   2.299   1.320 -0.7836  1.4363  0.3446
 9147SOL     OW39073   1.366   4.567   5.172 -0.4283 -0.1256  0.1368
 9147SOL    HW139074   1.376   4.511   5.248 -0.9314  0.2544  0.4794
 9147SOL    HW239075   1.455   4.559   5.138 -0.0913 -0.7139  1.1636
 9148SOL     OW39076   0.659   0.057   8.543 -0.2978  0.0012 -0.0587
 9148SOL    HW139077   0.595   0.015   8.599 -0.2420  1.3697  1.0259
 9148SOL    HW239078   0.648   0.017   8.457  1.2429 -2.7643  1.0313
 9149SOL     OW39079   2.453   2.278   3.981  0.7171  0.1516 -0.1940
 9149SOL    HW139080   2.454   2.352   3.920  3.1244  0.0219 -0.3136
 9149SOL    HW239081   2.387   2.293   4.048  0.0857 -1.1081 -0.5346
 9150SOL     OW39082   0.365   0.555   7.138 -0.8674  0.2407 -0.1654
 9150SOL    HW139083   0.321   0.538   7.055 -2.0107 -0.1521  0.5255
 9150SOL    HW239084   0.301   0.606   7.188  1.0626  0.8078  1.7102
 9151SOL     OW39085   3.229   0.832  16.492  0.1429 -0.1272 -1.1011
 9151SOL    HW139086   3.201   0.761  16.550  1.4627  0.0825 -0.1835
 9151SOL    HW239087   3.149   0.858  16.448 -1.2640 -2.1303  0.2948
 9152SOL     OW39088   4.672   1.256   5.201 -0.2193 -0.5257  0.5056
 9152SOL    HW139089   4.604   1.262   5.268  0.8408 -0.1128  1.5694
 9152SOL    HW239090   4.655   1.330   5.144  0.3716  0.0158  1.0329
 9153SOL     OW39091   1.685   1.096   2.625 -0.6709 -0.7770  0.5045
 9153SOL    HW139092   1.699   1.005   2.596 -0.2530  0.1889 -2.3026
 9153SOL    HW239093   1.770   1.138   2.612 -0.3161 -2.0894 -1.5614
 9154SOL     OW39094   3.126   2.909   6.534 -0.3730 -0.3111  0.3233
 9154SOL    HW139095   3.111   2.852   6.609  1.5861 -0.9408  0.2225
 9154SOL    HW239096   3.074   2.987   6.554  2.5911  1.1969  2.0076
 9155SOL     OW39097   0.170   2.614   4.696 -0.3314  0.0610  0.3086
 9155SOL    HW139098   0.185   2.529   4.654 -1.2262 -0.7469  1.6144
 9155SOL    HW239099   0.079   2.605   4.723 -0.3027 -1.0052  0.0607
 9156SOL     OW39100   2.634   2.372   3.527 -0.3984 -0.1154 -0.3188
 9156SOL    HW139101   2.602   2.286   3.499  0.5348 -0.5556 -0.0313
 9156SOL    HW239102   2.588   2.427   3.464 -2.6946  1.1511  2.4390
 9157SOL     OW39103   1.654   0.915   7.294 -0.3352  0.3511 -0.6718
 9157SOL    HW139104   1.720   0.983   7.300  0.4027 -0.3799 -0.5468
 9157SOL    HW239105   1.699   0.848   7.242  1.4004  0.5574  0.5913
 9158SOL     OW39106   0.775   4.514   4.971 -0.2693 -0.0676  0.2750
 9158SOL    HW139107   0.794   4.605   4.993 -0.1487  0.0532 -0.3168
 9158SOL    HW239108   0.724   4.485   5.046  1.3851  0.3109  1.5454
 9159SOL     OW39109   3.642   1.289  17.176 -0.2738 -0.0162  0.1362
 9159SOL    HW139110   3.589   1.227  17.126 -1.2419  0.7617  0.2106
 9159SOL    HW239111   3.661   1.237  17.254 -1.6153  1.2213  1.2773
 9160SOL     OW39112   0.657   4.028   7.650  0.3064 -0.4197  0.2788
 9160SOL    HW139113   0.610   3.962   7.599 -0.4255  1.2837 -1.2907
 9160SOL    HW239114   0.662   3.982   7.733 -0.2213 -1.6368 -0.3675
 9161SOL     OW39115   1.414   2.318   2.189  0.5404 -0.1687  0.6987
 9161SOL    HW139116   1.503   2.350   2.174  0.3684  1.3472  2.9585
 9161SOL    HW239117   1.442   2.226   2.186 -0.8900 -0.5447 -1.7697
 9162SOL     OW39118   2.022   3.740   3.463 -0.6044  0.3247  0.3045
 9162SOL    HW139119   1.943   3.695   3.434 -0.7726  1.6602 -1.3135
 9162SOL    HW239120   2.088   3.678   3.432  0.0079  0.5514  1.1651
 9163SOL     OW39121   1.317   4.222   5.040  0.0988 -0.0024  0.6302
 9163SOL    HW139122   1.265   4.300   5.022  0.4334  0.5186  1.9400
 9163SOL    HW239123   1.337   4.237   5.132 -0.8514 -2.1572  1.1766
 9164SOL     OW39124   2.442   0.732  17.146 -0.5756  0.5782 -0.7924
 9164SOL    HW139125   2.432   0.824  17.124 -0.8827  1.3741  2.7004
 9164SOL    HW239126   2.398   0.744  17.230 -1.7514 -0.7602 -1.2137
 9165SOL     OW39127   1.332   0.870   6.655  0.4614 -0.6295 -1.1810
 9165SOL    HW139128   1.401   0.816   6.693  0.7839  0.6260  0.0047
 9165SOL    HW239129   1.311   0.916   6.736  0.6101 -1.4002 -0.7031
 9166SOL     OW39130   3.662   4.026  11.641 -0.7678 -0.6297 -0.5214
 9166SOL    HW139131   3.594   4.004  11.578  0.3712 -1.1386 -1.5861
 9166SOL    HW239132   3.652   3.953  11.702 -0.9665 -1.4564 -1.5369
 9167SOL     OW39133   3.085   1.129   4.629 -0.7029 -0.1281 -0.0170
 9167SOL    HW139134   3.085   1.046   4.582  1.2463  0.4688 -1.0578
 9167SOL    HW239135   3.095   1.192   4.558  2.4442 -0.7772 -0.1399
 9168SOL     OW39136   2.983   0.200   2.378 -0.2440 -0.1443 -0.0455
 9168SOL    HW139137   3.073   0.166   2.375 -0.6908 -1.5137  2.0895
 9168SOL    HW239138   2.984   0.260   2.303 -1.7923 -0.5689 -0.3999
 9169SOL     OW39139   3.179   2.240   0.822 -0.0721 -0.3720  0.1835
 9169SOL    HW139140   3.108   2.260   0.883  0.1611 -0.7617  0.5839
 9169SOL    HW239141   3.151   2.292   0.747  1.9220  1.8445  0.9552
 9170SOL     OW39142   2.450   4.652   9.354  0.5154 -0.0432 -0.1891
 9170SOL    HW139143   2.482   4.562   9.345  1.1373 -0.1999  3.7165
 9170SOL    HW239144   2.400   4.651   9.435 -1.5091 -4.6957 -1.5066
 9171SOL     OW39145   0.704   0.366   2.707  0.6537 -0.1040  0.5536
 9171SOL    HW139146   0.721   0.360   2.801  0.8721 -0.3576  0.5009
 9171SOL    HW239147   0.642   0.293   2.702  3.8289 -2.6606 -1.8468
 9172SOL     OW39148   1.497   4.090   8.694 -0.1136 -0.9976 -0.2530
 9172SOL    HW139149   1.537   4.033   8.760  0.5203 -1.4999 -1.0594
 9172SOL    HW239150   1.500   4.175   8.737 -0.4829 -1.1827  0.1292
 9173SOL     OW39151   2.440   1.391  17.320  0.0239 -0.3947 -0.5148
 9173SOL    HW139152   2.507   1.324  17.333  0.8782  0.8856  1.5854
 9173SOL    HW239153   2.355   1.346  17.326  0.0681 -0.4573 -0.3643
 9174SOL     OW39154   0.202   1.115  11.155  0.7195 -0.2600  0.0270
 9174SOL    HW139155   0.113   1.128  11.187  0.4513  0.9252 -1.2037
 9174SOL    HW239156   0.223   1.024  11.177 -1.6713 -0.8523 -0.1821
 9175SOL     OW39157   1.729   3.981  11.421  0.0297  0.4095  0.0393
 9175SOL    HW139158   1.646   3.961  11.464  0.7668 -0.9408  0.8307
 9175SOL    HW239159   1.787   3.978  11.497 -0.0925  2.1807  0.2049
 9176SOL     OW39160   1.162   1.168  12.882  0.0706  0.2461 -0.0190
 9176SOL    HW139161   1.178   1.075  12.895  0.3771  0.3994  0.7044
 9176SOL    HW239162   1.075   1.171  12.841  1.1400  0.1368 -2.3329
 9177SOL     OW39163   3.431   0.554   5.751 -0.5555 -0.4730  0.4365
 9177SOL    HW139164   3.418   0.646   5.774 -0.6569 -0.4631  0.3379
 9177SOL    HW239165   3.482   0.511   5.820 -0.2366  0.1423  0.5739
 9178SOL     OW39166   1.079   3.141   4.007  0.5444 -0.6993 -0.3129
 9178SOL    HW139167   1.016   3.105   3.945 -0.2838 -0.0812  0.1828
 9178SOL    HW239168   1.158   3.156   3.954 -0.3497 -1.2394 -1.8015
 9179SOL     OW39169   4.374   2.891   2.908  0.2229  0.4528  0.3093
 9179SOL    HW139170   4.374   2.803   2.945 -2.6403 -0.6992 -2.4718
 9179SOL    HW239171   4.469   2.900   2.900  0.1955  0.4282 -0.0605
 9180SOL     OW39172   2.437   3.141  16.760 -0.2045 -0.0954  0.2964
 9180SOL    HW139173   2.506   3.149  16.694 -0.2355 -0.3431  0.2341
 9180SOL    HW239174   2.491   3.086  16.816  2.0252  2.5813  0.8092
 9181SOL     OW39175   4.675   2.416   9.757  0.1712 -0.0278  0.3483
 9181SOL    HW139176   4.687   2.336   9.808  2.0448 -0.2275 -0.3775
 9181SOL    HW239177   4.690   2.383   9.668 -0.7236  1.8326 -0.4979
 9182SOL     OW39178   0.396   3.749   6.847  0.2700  0.2840 -0.1373
 9182SOL    HW139179   0.405   3.677   6.908 -0.1862  1.5679  1.4313
 9182SOL    HW239180   0.303   3.771   6.855  0.1541 -0.1967 -0.1808
 9183SOL     OW39181   1.817   1.276  12.056 -0.0344  0.0065 -0.1276
 9183SOL    HW139182   1.841   1.295  11.965 -1.4581 -4.0129 -1.3113
 9183SOL    HW239183   1.842   1.365  12.083 -2.6468  1.1335 -1.3150
 9184SOL     OW39184   0.481   1.178   7.005 -0.3394  0.2001 -0.1613
 9184SOL    HW139185   0.416   1.246   7.024 -0.9961 -0.5813  0.3939
 9184SOL    HW239186   0.496   1.136   7.090  0.4342  0.6567 -0.0713
 9185SOL     OW39187   4.674   3.877   5.656 -0.2126 -0.1439 -0.7427
 9185SOL    HW139188   4.659   3.917   5.742  1.8841  0.9842 -0.8919
 9185SOL    HW239189   0.016   3.920   5.631 -0.8053  0.7129 -1.2242
 9186SOL     OW39190   3.714   3.146   7.247  0.2080 -0.6049 -0.2240
 9186SOL    HW139191   3.762   3.212   7.198 -0.4237  1.1354  1.5216
 9186SOL    HW239192   3.627   3.184   7.252 -0.0590 -1.5565  2.3398
 9187SOL     OW39193   0.923   3.297   4.751 -0.2856 -0.2612 -0.5256
 9187SOL    HW139194   0.984   3.360   4.791  0.1216 -0.3081 -1.0739
 9187SOL    HW239195   0.936   3.303   4.657 -0.5641  0.1511 -0.5396
 9188SOL     OW39196   2.777   2.594  11.487  0.1644 -0.0750 -0.6635
 9188SOL    HW139197   2.864   2.628  11.508 -0.7544  1.5737  0.4166
 9188SOL    HW239198   2.722   2.652  11.539  0.7540  2.7522 -3.1880
 9189SOL     OW39199   2.588   0.765   7.532 -0.0597 -0.8053 -0.3538
 9189SOL    HW139200   2.564   0.680   7.568  1.9314 -0.7014  1.2529
 9189SOL    HW239201   2.506   0.775   7.484 -1.1243  0.8721  1.8487
 9190SOL     OW39202   1.813   3.939   4.936 -0.4943  0.2069 -0.1464
 9190SOL    HW139203   1.765   3.976   5.010 -2.6320 -1.5626 -0.6581
 9190SOL    HW239204   1.885   4.001   4.924  0.5519 -0.5751  2.0866
 9191SOL     OW39205   4.113   3.285   1.826 -0.3824  0.1385 -0.1520
 9191SOL    HW139206   4.132   3.194   1.846  0.4348  0.0932 -1.1801
 9191SOL    HW239207   4.108   3.279   1.731  1.3051  0.6708 -0.2684
 9192SOL     OW39208   4.493   4.412   3.655  0.3034  0.0332 -0.6274
 9192SOL    HW139209   4.416   4.468   3.655 -0.2150 -0.6540  3.5750
 9192SOL    HW239210   4.550   4.483   3.685  1.4514 -0.5501 -1.4265
 9193SOL     OW39211   1.297   3.887   0.434 -0.2675  0.1490 -0.7257
 9193SOL    HW139212   1.378   3.916   0.476 -0.1104 -1.7445  0.2791
 9193SOL    HW239213   1.330   3.807   0.392  1.3995  0.2257  0.4412
 9194SOL     OW39214   3.423   3.067   3.416  0.9115 -0.1222  0.1341
 9194SOL    HW139215   3.391   3.142   3.367  0.6109 -0.6017 -0.4100
 9194SOL    HW239216   3.508   3.100   3.445  0.4806  1.0972  0.0042
 9195SOL     OW39217   1.437   2.947   1.171 -0.2608 -1.2369  0.0372
 9195SOL    HW139218   1.494   2.895   1.114  1.0443  0.4516 -0.2080
 9195SOL    HW239219   1.377   2.884   1.209  0.8002 -2.1529  0.2064
 9196SOL     OW39220   3.303   2.263   6.951  0.7246 -0.3547  0.3255
 9196SOL    HW139221   3.347   2.279   7.034 -1.8278 -1.4598  1.9195
 9196SOL    HW239222   3.374   2.296   6.896 -0.4378  1.3859 -0.1259
 9197SOL     OW39223   2.830   1.505   7.285  0.0999  0.1122  0.4212
 9197SOL    HW139224   2.858   1.440   7.349  2.4833  2.1665  1.4866
 9197SOL    HW239225   2.894   1.572   7.310 -1.4212  0.6356  2.9241
 9198SOL     OW39226   2.599   0.588   7.860 -0.2676 -0.0171 -0.2523
 9198SOL    HW139227   2.623   0.515   7.804 -0.3828 -0.7419  0.6462
 9198SOL    HW239228   2.517   0.560   7.900  0.7768  0.7298  2.4515
 9199SOL     OW39229   0.911   4.361   2.113 -0.2912  0.6409  0.1034
 9199SOL    HW139230   0.954   4.283   2.149 -1.2555 -0.0907 -0.3462
 9199SOL    HW239231   0.880   4.335   2.026  0.9644 -0.5902  0.0172
 9200SOL     OW39232   4.236   0.987   8.711 -0.1938  0.4279 -0.1392
 9200SOL    HW139233   4.164   1.033   8.754  1.2547  2.7293 -0.2003
 9200SOL    HW239234   4.229   0.902   8.754  0.3167  0.2885 -0.3334
 9201SOL     OW39235   1.672   2.212   8.908 -0.4004  0.0244  0.8574
 9201SOL    HW139236   1.687   2.127   8.949 -2.1821  1.8985  5.4435
 9201SOL    HW239237   1.719   2.274   8.965  0.6426  0.6564 -0.6936
 9202SOL     OW39238   1.996   2.455   0.803  0.2662 -0.8296 -0.6201
 9202SOL    HW139239   2.029   2.379   0.851  1.0460  1.1452  1.9215
 9202SOL    HW239240   1.985   2.419   0.715  0.6469 -0.7182 -0.7133
 9203SOL     OW39241   2.152   0.707  13.283 -0.0381  0.3307 -0.1038
 9203SOL    HW139242   2.105   0.680  13.362  0.5039  1.5037  0.6197
 9203SOL    HW239243   2.228   0.650  13.279  1.1031  1.4953  4.5722
 9204SOL     OW39244   1.946   0.503   5.250  0.2305  0.5336 -0.2077
 9204SOL    HW139245   1.999   0.573   5.287 -2.3860  1.7145  1.3229
 9204SOL    HW239246   1.995   0.421   5.249 -2.2211 -0.9508 -0.3478
 9205SOL     OW39247   2.233   4.220   6.730 -0.4258  0.6351  0.5631
 9205SOL    HW139248   2.268   4.134   6.707 -0.3532  0.9462 -0.4995
 9205SOL    HW239249   2.305   4.276   6.701  0.5745  1.1997  4.1160
 9206SOL     OW39250   1.847   2.483  15.930  0.5976  0.3548  0.4909
 9206SOL    HW139251   1.853   2.489  15.835  1.3087 -2.4811  0.3612
 9206SOL    HW239252   1.808   2.397  15.948  2.4762 -0.9010 -1.5666
 9207SOL     OW39253   2.108   3.047   9.519  0.2300 -0.5522  0.0975
 9207SOL    HW139254   2.017   3.054   9.548  0.1582  1.3177 -0.6186
 9207SOL    HW239255   2.146   3.026   9.604 -2.6517 -0.0473  1.5316
 9208SOL     OW39256   1.792   1.984   6.313  0.2416 -0.3753 -0.4219
 9208SOL    HW139257   1.840   1.959   6.393  4.9014  0.0147 -3.0740
 9208SOL    HW239258   1.862   2.030   6.267 -0.3301  2.2796  1.3485
 9209SOL     OW39259   2.185   1.807   7.371 -0.0057 -0.4671  0.8261
 9209SOL    HW139260   2.177   1.865   7.295 -1.0866 -3.5928 -1.4440
 9209SOL    HW239261   2.178   1.723   7.325  1.6032 -0.2821  0.2625
 9210SOL     OW39262   4.648   1.099  13.449  0.3542  0.2614  0.0331
 9210SOL    HW139263   4.688   1.105  13.362  1.6499 -0.1849  0.5964
 9210SOL    HW239264   4.567   1.148  13.435  0.5478  1.1199  1.9021
 9211SOL     OW39265   1.962   0.068   7.816 -0.5274 -0.0945 -0.3152
 9211SOL    HW139266   1.910   0.081   7.737  0.6391  1.8234 -0.7658
 9211SOL    HW239267   1.999   0.156   7.812 -0.8644  0.2150  3.3079
 9212SOL     OW39268   0.567   4.518   2.084  0.2597  0.3528  0.3489
 9212SOL    HW139269   0.577   4.613   2.072  1.2904  0.5306  2.6592
 9212SOL    HW239270   0.551   4.502   1.991  2.3999  0.1198  0.0290
 9213SOL     OW39271   4.523   2.565   8.336 -0.2637  0.1747 -0.3890
 9213SOL    HW139272   4.500   2.609   8.254 -2.1371  1.9249  1.0947
 9213SOL    HW239273   4.434   2.537   8.359  0.9553 -2.0433  1.6724
 9214SOL     OW39274   0.707   0.716  14.792  0.5629 -0.3284  0.1699
 9214SOL    HW139275   0.703   0.802  14.833 -0.4665 -0.4065  0.2448
 9214SOL    HW239276   0.720   0.736  14.699 -0.6904 -1.2371 -0.2028
 9215SOL     OW39277   1.081   0.004   7.125 -0.1282  0.6997 -0.5600
 9215SOL    HW139278   1.033   0.086   7.116  0.2396  0.5459 -4.2124
 9215SOL    HW239279   1.084   4.737   7.220 -0.1646  0.2817 -0.5915
 9216SOL     OW39280   1.312   2.246   9.087  0.0821 -0.0533 -0.1599
 9216SOL    HW139281   1.238   2.303   9.068 -1.1294 -1.4590  0.3880
 9216SOL    HW239282   1.308   2.178   9.020  1.0937 -0.2991  0.0249
 9217SOL     OW39283   3.482   0.244   6.747  0.1546  0.0056 -0.0549
 9217SOL    HW139284   3.485   0.274   6.838 -0.0757 -0.7605  0.2104
 9217SOL    HW239285   3.527   0.308   6.692  0.1813  1.5282  1.7243
 9218SOL     OW39286   3.735   2.335  11.152  0.1496  0.6475 -0.2087
 9218SOL    HW139287   3.670   2.382  11.205 -0.9256  0.9155 -1.7895
 9218SOL    HW239288   3.696   2.250  11.176  2.6291 -0.0394  1.3463
 9219SOL     OW39289   4.651   3.483   2.301  0.2837 -0.0872 -0.4749
 9219SOL    HW139290   0.003   3.463   2.316  0.3282 -1.2659 -2.4149
 9219SOL    HW239291   4.656   3.492   2.206  1.9087 -2.3686 -0.5828
 9220SOL     OW39292   4.306   1.274   7.484 -0.4977  0.0441  0.4166
 9220SOL    HW139293   4.293   1.291   7.391  3.2869 -2.1147 -0.5357
 9220SOL    HW239294   4.313   1.180   7.472  3.2130  0.6547 -2.0967
 9221SOL     OW39295   4.205   3.043   3.740 -0.2462  0.3206 -0.0145
 9221SOL    HW139296   4.140   2.997   3.687 -1.1305  0.2709  1.1240
 9221SOL    HW239297   4.262   2.968   3.758 -0.5165 -0.1411 -1.1161
 9222SOL     OW39298   3.339   1.839   8.027  0.3548  0.2743 -0.3711
 9222SOL    HW139299   3.423   1.804   8.054  0.8446  1.5172 -0.2777
 9222SOL    HW239300   3.295   1.765   7.985 -1.3295  0.2221  1.4889
 9223SOL     OW39301   4.526   0.756   8.812  0.2999 -0.1494  0.3990
 9223SOL    HW139302   4.556   0.846   8.804  0.7270 -0.2644  0.7109
 9223SOL    HW239303   4.438   0.759   8.850 -0.1350  2.9521 -0.8478
 9224SOL     OW39304   2.193   3.217   7.135  0.0013 -0.6167  0.1301
 9224SOL    HW139305   2.283   3.221   7.168  0.2827  1.3544 -0.8810
 9224SOL    HW239306   2.204   3.235   7.042 -0.8107 -0.7189  0.0151
 9225SOL     OW39307   1.604   1.875   8.100  0.6435  0.4437  0.3515
 9225SOL    HW139308   1.608   1.787   8.062  1.4428  0.1554  1.0920
 9225SOL    HW239309   1.696   1.877   8.126 -0.2065 -0.5420  3.4615
 9226SOL     OW39310   3.324   2.686   5.207  0.1928  0.4625  0.5964
 9226SOL    HW139311   3.409   2.655   5.177  0.6225  1.8245  0.4019
 9226SOL    HW239312   3.330   2.776   5.174  0.7124 -0.3529 -1.5097
 9227SOL     OW39313   2.500   1.984   6.211  0.0990 -0.3679  0.1108
 9227SOL    HW139314   2.475   2.076   6.205  0.1268 -0.3936 -0.3930
 9227SOL    HW239315   2.536   1.977   6.300  0.0749 -0.3925  0.1185
 9228SOL     OW39316   3.692   3.010   3.960 -0.5975  0.1561  0.3820
 9228SOL    HW139317   3.631   2.939   3.942  2.2097 -2.8045  2.6442
 9228SOL    HW239318   3.704   3.044   3.871  0.5103 -1.9061 -0.2424
 9229SOL     OW39319   3.090   3.398   7.484  0.0419  0.5818  0.2305
 9229SOL    HW139320   3.144   3.473   7.508 -0.4953  0.7283  0.9800
 9229SOL    HW239321   3.023   3.389   7.552  1.6058 -1.1537  1.5235
 9230SOL     OW39322   1.478   4.340   9.251 -0.1688  0.3777  0.3775
 9230SOL    HW139323   1.434   4.409   9.301 -0.6905  0.5479 -0.3165
 9230SOL    HW239324   1.557   4.316   9.300 -1.2554 -0.0460  1.9207
 9231SOL     OW39325   4.311   2.421  17.517  0.0957  0.5222 -0.0762
 9231SOL    HW139326   4.268   2.499  17.483  2.0128  0.0528 -3.5509
 9231SOL    HW239327   4.356   2.459  17.592  1.2740  0.5842 -0.8175
 9232SOL     OW39328   1.697   0.032   2.278 -0.2728  0.0608 -0.5257
 9232SOL    HW139329   1.775   0.041   2.332  1.1516  1.0608 -2.7734
 9232SOL    HW239330   1.702   4.677   2.268  0.5032  0.4041 -3.3120
 9233SOL     OW39331   0.048   0.638  13.132  0.3583 -0.2333  0.1867
 9233SOL    HW139332   4.733   0.716  13.128 -0.3932 -0.6016  3.7155
 9233SOL    HW239333   0.094   0.662  13.213 -1.1954 -0.6112  1.1758
 9234SOL     OW39334   0.699   3.902   2.549  0.0446 -0.5192 -0.0373
 9234SOL    HW139335   0.762   3.966   2.518 -2.4770  1.5292 -0.9539
 9234SOL    HW239336   0.752   3.829   2.517 -1.8386 -1.4695 -0.9784
 9235SOL     OW39337   1.673   1.134  17.174  0.0147 -0.1256 -0.2163
 9235SOL    HW139338   1.674   1.194  17.249  3.2855  0.4407 -0.7102
 9235SOL    HW239339   1.691   1.197  17.104 -0.1644  0.2027  0.0332
 9236SOL     OW39340   2.060   3.896  17.717 -0.0973  0.0062 -0.7813
 9236SOL    HW139341   1.999   3.950   0.009  0.8302  1.0830 -0.7923
 9236SOL    HW239342   2.128   3.960  17.694 -1.8630  1.9571 -0.5428
 9237SOL     OW39343   1.017   1.465   4.889 -0.3023 -0.0833 -0.4110
 9237SOL    HW139344   1.112   1.462   4.878 -0.4560  0.8484 -2.1608
 9237SOL    HW239345   0.990   1.376   4.912  1.7352 -0.8519 -1.0246
 9238SOL     OW39346   3.241   1.373  10.077  0.0549 -0.4842 -0.2134
 9238SOL    HW139347   3.195   1.311  10.020  1.6664 -1.2887 -0.6321
 9238SOL    HW239348   3.312   1.318  10.108 -1.3210 -2.7220 -1.0759
 9239SOL     OW39349   3.214   4.445  17.194 -0.4470 -0.0750  0.0191
 9239SOL    HW139350   3.276   4.471  17.262 -0.1653 -1.1486  0.1781
 9239SOL    HW239351   3.164   4.526  17.199  0.1375  0.3407 -1.0091
 9240SOL     OW39352   3.291   1.237   3.271  0.0264 -0.2333  0.2690
 9240SOL    HW139353   3.383   1.260   3.286 -0.2235  1.6066 -1.0005
 9240SOL    HW239354   3.311   1.214   3.180 -0.0218  1.6799 -0.2421
 9241SOL     OW39355   0.147   0.141   8.030 -0.4438  0.5548 -0.2241
 9241SOL    HW139356   0.184   0.135   8.118  0.8708 -1.4037 -0.9058
 9241SOL    HW239357   0.138   0.234   8.012 -2.0968  0.1710 -1.3286
 9242SOL     OW39358   3.366   0.345  16.196 -0.5569  0.0699 -0.0711
 9242SOL    HW139359   3.376   0.381  16.284 -0.0664  0.1560 -0.1670
 9242SOL    HW239360   3.271   0.339  16.206 -0.7132  1.1088 -0.9484
 9243SOL     OW39361   2.340   2.493   3.587  0.2213 -0.3331 -0.3045
 9243SOL    HW139362   2.405   2.531   3.646  0.7687  1.7314 -2.2332
 9243SOL    HW239363   2.262   2.522   3.633  0.7263 -1.5702  1.3058
 9244SOL     OW39364   4.319   2.166   5.717  0.7647  0.1283  0.0154
 9244SOL    HW139365   4.259   2.107   5.763  1.3337 -0.2329  0.3004
 9244SOL    HW239366   4.275   2.250   5.726 -0.0594 -0.0424 -2.4492
 9245SOL     OW39367   3.352   0.753   4.060 -0.1962 -0.8235 -0.5717
 9245SOL    HW139368   3.394   0.711   3.985  0.6589 -2.3699  0.7716
 9245SOL    HW239369   3.275   0.793   4.018  1.3560 -0.8055 -3.4114
 9246SOL     OW39370   2.095   3.361  11.682 -0.1159  0.0326  0.3629
 9246SOL    HW139371   2.026   3.321  11.629  1.9960 -0.8058 -1.7320
 9246SOL    HW239372   2.083   3.454  11.664  0.2433  0.1024  0.4951
 9247SOL     OW39373   3.025   1.610   3.303  0.1215 -0.3579 -0.4731
 9247SOL    HW139374   3.013   1.517   3.283  0.7306 -0.0631 -2.2778
 9247SOL    HW239375   3.007   1.645   3.215  2.5605  1.5947 -0.1791
 9248SOL     OW39376   4.352   2.094  15.561 -0.6755  0.2722 -0.2152
 9248SOL    HW139377   4.447   2.085  15.548 -0.3465 -0.0652  2.3899
 9248SOL    HW239378   4.328   2.011  15.520  0.6673 -0.9739  1.5323
 9249SOL     OW39379   2.809   1.457   3.575 -0.3461  0.1122 -0.1880
 9249SOL    HW139380   2.819   1.487   3.665 -2.1488  0.0900  0.0102
 9249SOL    HW239381   2.898   1.426   3.555 -0.3217  1.3324 -1.9067
 9250SOL     OW39382   1.985   3.248  15.278 -0.6354  0.2174  0.0406
 9250SOL    HW139383   1.977   3.343  15.286  1.9274  0.4212  0.1525
 9250SOL    HW239384   1.966   3.217  15.367 -0.2299 -1.2691 -0.3844
 9251SOL     OW39385   1.722   2.034   3.901 -0.3089 -0.4556 -0.0644
 9251SOL    HW139386   1.662   1.979   3.850 -1.5568  1.4402 -0.6462
 9251SOL    HW239387   1.678   2.119   3.906  1.7689  0.6729 -0.9891
 9252SOL     OW39388   4.512   2.906   0.365 -0.3635 -0.8507 -0.5852
 9252SOL    HW139389   4.481   2.825   0.406  0.3864 -1.8697 -2.0481
 9252SOL    HW239390   4.480   2.899   0.276  0.7911  1.1450 -1.1652
 9253SOL     OW39391   1.783   1.656   4.315  0.4620  0.0389  0.0570
 9253SOL    HW139392   1.689   1.642   4.309  0.5062  0.3066 -1.2583
 9253SOL    HW239393   1.788   1.751   4.327  1.5173  0.3599 -3.0807
 9254SOL     OW39394   3.272   4.717   7.867 -0.4415  0.3260  0.2128
 9254SOL    HW139395   3.312   4.686   7.786 -0.6387  0.9500 -0.1211
 9254SOL    HW239396   3.338   4.680   7.926 -0.3018 -0.2919 -0.3281
 9255SOL     OW39397   2.777   4.683   8.541 -0.4163 -0.1565 -0.5299
 9255SOL    HW139398   2.756   4.635   8.461 -2.2429 -0.9609  0.4259
 9255SOL    HW239399   2.787   0.032   8.507 -0.7339  0.0481 -0.0895
 9256SOL     OW39400   0.655   1.033   3.729  0.5753 -0.2848  0.1043
 9256SOL    HW139401   0.562   1.054   3.723  0.0368 -1.7646  3.0429
 9256SOL    HW239402   0.686   1.113   3.687 -0.7943 -0.5190 -1.3606
 9257SOL     OW39403   3.177   3.196   2.017  0.1840  0.0602  0.3952
 9257SOL    HW139404   3.111   3.255   1.980  0.2444  0.0350  0.2467
 9257SOL    HW239405   3.238   3.270   2.026 -0.4473  0.7015 -0.6879
 9258SOL     OW39406   4.036   3.043   4.928 -0.6529 -0.2208  0.2447
 9258SOL    HW139407   3.988   3.073   4.851  0.6907 -2.3700 -1.4142
 9258SOL    HW239408   3.978   2.992   4.983 -1.2083  1.9768  1.7066
 9259SOL     OW39409   1.714   0.848   2.517  0.2890 -0.3041 -0.9935
 9259SOL    HW139410   1.799   0.811   2.494  0.4126 -0.9835  0.6184
 9259SOL    HW239411   1.656   0.772   2.506  1.1800 -1.4154  2.1721
 9260SOL     OW39412   3.414   3.945   6.874  0.4384 -0.5727  0.1261
 9260SOL    HW139413   3.357   3.968   6.947 -1.3756  3.0199 -2.4314
 9260SOL    HW239414   3.492   3.984   6.914  0.3382  1.4339 -1.6172
 9261SOL     OW39415   0.382   0.951   3.363 -0.4915  0.1147 -0.2128
 9261SOL    HW139416   0.393   1.037   3.403 -1.1365 -0.2499  0.7437
 9261SOL    HW239417   0.430   0.895   3.423 -3.5253 -0.5253  1.6096
 9262SOL     OW39418   1.228   3.165  17.685 -0.4374  0.4365  0.1967
 9262SOL    HW139419   1.269   3.090  17.729 -0.1297 -0.9495 -2.4583
 9262SOL    HW239420   1.239   3.139  17.594 -0.8810 -2.2583  0.9133
 9263SOL     OW39421   2.322   3.383   5.049 -0.2800  0.3969  0.4592
 9263SOL    HW139422   2.230   3.400   5.068 -0.6596 -1.5801  0.3702
 9263SOL    HW239423   2.341   3.317   5.116  1.2262  0.8177  0.4523
 9264SOL     OW39424   0.131   1.962  11.763  0.2072  0.7145  0.1238
 9264SOL    HW139425   0.199   1.958  11.829 -0.0789  0.2710  0.3897
 9264SOL    HW239426   0.124   2.057  11.753 -1.3384  0.6489  0.4838
 9265SOL     OW39427   2.130   1.407   6.847 -0.1569 -0.2660  0.5948
 9265SOL    HW139428   2.224   1.413   6.860 -0.2321 -1.9986  1.8570
 9265SOL    HW239429   2.111   1.481   6.788 -0.1020 -1.2807 -0.6958
 9266SOL     OW39430   0.533   2.737   6.611 -0.0551 -0.1556  0.0824
 9266SOL    HW139431   0.579   2.703   6.688  0.7571 -1.2629 -0.8852
 9266SOL    HW239432   0.554   2.660   6.558 -1.0195 -0.2698 -0.1335
 9267SOL     OW39433   3.913   1.679   7.033  0.1115  0.1559  0.2448
 9267SOL    HW139434   3.924   1.671   6.939 -0.2522 -1.3514  0.3256
 9267SOL    HW239435   3.852   1.752   7.038 -0.0529  0.0455 -0.2014
 9268SOL     OW39436   0.096   0.770  14.298 -0.6209 -0.2372  0.0154
 9268SOL    HW139437   0.095   0.680  14.264  1.5296  0.0310 -0.7902
 9268SOL    HW239438   0.034   0.819  14.245 -1.4065  0.8114  1.8940
 9269SOL     OW39439   1.434   1.176   5.086 -0.2845  0.0059 -0.1172
 9269SOL    HW139440   1.485   1.189   5.166 -0.9210  0.0274  0.2854
 9269SOL    HW239441   1.346   1.198   5.118 -0.9566  0.2378 -2.1406
 9270SOL     OW39442   2.663   1.504   8.235  0.2607 -0.7209 -0.2379
 9270SOL    HW139443   2.695   1.594   8.228  0.0247 -0.6482 -0.3796
 9270SOL    HW239444   2.588   1.530   8.182  0.9316  0.8432 -0.4147
 9271SOL     OW39445   2.322   4.006   2.762  0.4440  0.1340  0.0192
 9271SOL    HW139446   2.409   3.971   2.741  0.6477  0.6667 -0.0360
 9271SOL    HW239447   2.344   4.091   2.724  0.5669  0.3166  0.4996
 9272SOL     OW39448   4.441   4.737   6.698  0.0710  0.3161 -0.2966
 9272SOL    HW139449   4.487   4.654   6.713 -0.9963 -0.0472  0.9903
 9272SOL    HW239450   4.386   4.718   6.621 -4.3273 -0.5957  3.0914
 9273SOL     OW39451   2.839   4.050   7.991 -0.1747  0.1545 -0.0172
 9273SOL    HW139452   2.904   4.104   7.945  0.8248 -1.5444 -0.6206
 9273SOL    HW239453   2.772   4.114   8.012  0.3548  0.0698  1.8537
 9274SOL     OW39454   1.075   0.535   5.870  0.1009  0.4544  0.2681
 9274SOL    HW139455   0.996   0.587   5.884 -0.9415 -0.6610 -1.6094
 9274SOL    HW239456   1.053   0.503   5.783 -0.3460  3.3784 -0.6911
 9275SOL     OW39457   2.683   0.890  14.540  0.0524 -0.1423  0.1591
 9275SOL    HW139458   2.719   0.946  14.471  2.8482 -0.4052  1.4241
 9275SOL    HW239459   2.661   0.946  14.614  0.8484  0.3418  0.0208
 9276SOL     OW39460   4.156   2.826   6.783  0.3745  0.0802 -0.1014
 9276SOL    HW139461   4.158   2.884   6.706 -1.9893  0.8225  0.3968
 9276SOL    HW239462   4.067   2.792   6.777 -0.7457  2.4564  2.7485
 9277SOL     OW39463   2.222   1.394   4.772  0.4132 -0.5613 -0.0614
 9277SOL    HW139464   2.282   1.378   4.700 -0.4087 -0.0312 -0.8575
 9277SOL    HW239465   2.285   1.446   4.823  1.4912 -1.6865 -0.2345
 9278SOL     OW39466   3.038   3.814   1.207 -0.4449 -0.2539 -0.1515
 9278SOL    HW139467   3.024   3.750   1.277 -0.3406 -0.1777 -0.0610
 9278SOL    HW239468   3.059   3.884   1.268 -2.1055  0.2053 -0.1024
 9279SOL     OW39469   2.845   3.569   2.285  0.0412 -0.0816 -0.0833
 9279SOL    HW139470   2.834   3.648   2.232 -0.4102 -0.5695 -0.7250
 9279SOL    HW239471   2.937   3.548   2.272  0.3750  0.3946  1.5220
 9280SOL     OW39472   2.350   1.553   7.692 -0.8322 -0.0916  0.2795
 9280SOL    HW139473   2.403   1.633   7.693 -0.9082 -0.0064 -1.3444
 9280SOL    HW239474   2.259   1.583   7.688 -0.3298  1.5508  0.9155
 9281SOL     OW39475   0.595   4.251  13.280  0.0613  0.0059 -0.2695
 9281SOL    HW139476   0.620   4.340  13.254  0.8577  0.0950  0.7838
 9281SOL    HW239477   0.680   4.211  13.262  0.3039  0.0187  0.8694
 9282SOL     OW39478   2.908   0.119   5.307  0.0062  0.1825  0.1977
 9282SOL    HW139479   2.987   0.167   5.331  2.2307 -3.1197 -0.5570
 9282SOL    HW239480   2.909   0.127   5.212 -0.7692 -0.3015  0.1450
 9283SOL     OW39481   4.147   4.480   8.721 -0.0197 -0.2724 -0.0799
 9283SOL    HW139482   4.231   4.519   8.695  1.5577 -1.1676  3.6905
 9283SOL    HW239483   4.097   4.523   8.652 -1.5619 -2.4631 -0.3194
 9284SOL     OW39484   1.456   4.221   4.523 -0.4403  0.1776  0.3655
 9284SOL    HW139485   1.438   4.182   4.609 -2.7105 -1.1714 -0.7060
 9284SOL    HW239486   1.548   4.198   4.526 -1.0375 -2.4103 -1.5501
 9285SOL     OW39487   1.412   1.235  12.954 -0.1561 -0.0618 -0.0643
 9285SOL    HW139488   1.487   1.249  12.896 -0.4343  2.1214  0.0972
 9285SOL    HW239489   1.343   1.252  12.890  0.0980  0.8706 -0.1017
 9286SOL     OW39490   0.276   0.490   6.884 -0.1816  0.3532 -0.4294
 9286SOL    HW139491   0.271   0.579   6.850  0.6619 -0.0768 -1.6774
 9286SOL    HW239492   0.342   0.455   6.825  0.4132 -1.3946  1.2689
 9287SOL     OW39493   3.271   1.486  16.680 -0.5155  0.4461 -0.3798
 9287SOL    HW139494   3.355   1.528  16.660 -2.1260  1.3344 -5.2644
 9287SOL    HW239495   3.281   1.463  16.772  1.2285 -0.0642 -0.6955
 9288SOL     OW39496   2.808   0.725   3.143  0.3431 -0.2885  0.0931
 9288SOL    HW139497   2.749   0.697   3.213  2.8684 -2.1556  1.4382
 9288SOL    HW239498   2.754   0.696   3.069  0.3776 -1.6058  0.6018
 9289SOL     OW39499   2.502   3.745  13.454 -0.2972  0.3295  0.0200
 9289SOL    HW139500   2.522   3.838  13.464 -2.3044  0.5243  2.2896
 9289SOL    HW239501   2.407   3.754  13.463 -0.6164 -3.1545  0.0882
 9290SOL     OW39502   0.425   1.288   5.941  0.1461 -0.4961 -0.1307
 9290SOL    HW139503   0.508   1.324   5.974 -1.8992  0.2862  4.1999
 9290SOL    HW239504   0.357   1.341   5.984  1.0342  1.3371 -0.9805
 9291SOL     OW39505   0.854   1.592   4.042  0.4062  0.1874  0.1209
 9291SOL    HW139506   0.851   1.578   3.947  1.2483 -1.6536  0.3644
 9291SOL    HW239507   0.801   1.672   4.039  0.0807 -0.0128  0.6398
 9292SOL     OW39508   3.185   0.917   1.295 -0.1529  0.0915  0.0464
 9292SOL    HW139509   3.117   0.904   1.361 -2.1528 -0.7262 -2.1649
 9292SOL    HW239510   3.198   1.012   1.297  1.0427 -0.0526 -0.5235
 9293SOL     OW39511   3.001   2.753   0.578 -0.5903 -0.4743 -0.2053
 9293SOL    HW139512   2.944   2.721   0.649  2.0170 -1.7610  1.3118
 9293SOL    HW239513   2.975   2.706   0.499  1.6146 -1.8640 -0.0788
 9294SOL     OW39514   1.187   4.321   8.277  0.1361  0.2568 -0.0237
 9294SOL    HW139515   1.236   4.319   8.360  1.8095  1.5477 -0.9740
 9294SOL    HW239516   1.182   4.230   8.248  1.4870 -0.3234  1.4929
 9295SOL     OW39517   2.100   2.716   8.061  0.2223  0.2616  0.3737
 9295SOL    HW139518   2.122   2.664   7.983 -1.5063 -0.6565  0.5021
 9295SOL    HW239519   2.008   2.741   8.046  0.2759 -0.8050 -1.7901
 9296SOL     OW39520   1.275   0.907   8.384 -0.4030  0.5263  0.7334
 9296SOL    HW139521   1.319   0.981   8.343 -1.0410 -0.1518 -1.1798
 9296SOL    HW239522   1.224   0.950   8.453  1.3504  1.6217  1.3215
 9297SOL     OW39523   0.953   0.315  17.690 -0.4126  0.1829 -0.0504
 9297SOL    HW139524   0.959   0.225  17.723  1.0155  0.4691  0.4894
 9297SOL    HW239525   1.046   0.334  17.681 -0.3908 -0.6511 -1.6982
 9298SOL     OW39526   3.822   2.737   5.269 -0.0822  0.0934  0.1825
 9298SOL    HW139527   3.899   2.748   5.325 -1.2315  0.7155  1.6559
 9298SOL    HW239528   3.769   2.697   5.338  0.3630 -1.6854 -0.5086
 9299SOL     OW39529   0.799   4.200  17.365 -0.3473  0.4670 -0.0877
 9299SOL    HW139530   0.781   4.293  17.356  0.0442  0.5487 -0.0327
 9299SOL    HW239531   0.775   4.151  17.287  0.3876  0.7985 -0.5180
 9300SOL     OW39532   1.934   2.953  10.463 -0.2489  0.3091 -0.1325
 9300SOL    HW139533   2.017   2.990  10.432  0.2010  1.4658  2.4444
 9300SOL    HW239534   1.935   2.860  10.442  1.0317  0.3093 -0.0880
 9301SOL     OW39535   2.187   4.370   5.453  0.2344 -0.4752 -0.2613
 9301SOL    HW139536   2.199   4.447   5.397  1.0419 -0.9119 -0.6833
 9301SOL    HW239537   2.217   4.408   5.536  0.8780 -1.5889  0.0191
 9302SOL     OW39538   2.263   4.527   6.337  0.2359 -0.2866 -0.4763
 9302SOL    HW139539   2.180   4.488   6.309 -0.3021  0.7709 -0.3403
 9302SOL    HW239540   2.326   4.455   6.332 -1.1394 -1.5222 -0.3308
 9303SOL     OW39541   2.369   0.574  11.915  0.4064 -0.4265 -0.0681
 9303SOL    HW139542   2.453   0.552  11.875  0.3835 -0.7356  0.0550
 9303SOL    HW239543   2.380   0.666  11.942  2.6260 -0.8456  0.4233
 9304SOL     OW39544   1.517   3.395   8.585  0.0053  0.2697 -0.3804
 9304SOL    HW139545   1.551   3.484   8.576  2.3232 -0.6291 -0.5884
 9304SOL    HW239546   1.503   3.387   8.680  2.1631 -0.6155 -0.1326
 9305SOL     OW39547   4.441   2.032   2.578 -0.0295  0.3343  0.6181
 9305SOL    HW139548   4.425   2.049   2.485 -1.1788 -2.1129  0.3589
 9305SOL    HW239549   4.488   1.949   2.573  3.0208  2.2337 -2.3488
 9306SOL     OW39550   3.232   1.864  12.479 -0.5991  0.0936 -0.4290
 9306SOL    HW139551   3.274   1.877  12.394 -3.5329 -2.2758 -2.2584
 9306SOL    HW239552   3.300   1.822  12.531 -1.3163 -0.0052  0.4349
 9307SOL     OW39553   3.246   3.279   6.536 -0.2598  0.2204  0.5311
 9307SOL    HW139554   3.185   3.320   6.475 -0.4754 -0.3194  0.3829
 9307SOL    HW239555   3.290   3.213   6.481  0.0261  1.2247 -0.4552
 9308SOL     OW39556   2.508   1.979  16.301 -0.1526  0.4299  0.0896
 9308SOL    HW139557   2.566   2.048  16.334  0.1602 -0.1467  0.7362
 9308SOL    HW239558   2.562   1.938  16.232 -0.4519  1.3898 -0.7169
 9309SOL     OW39559   2.150   1.072  17.420 -0.0336  0.4471  0.5036
 9309SOL    HW139560   2.206   1.090  17.345  3.1458  1.1445  3.0706
 9309SOL    HW239561   2.065   1.092  17.380 -0.2149 -1.9960 -0.3215
 9310SOL     OW39562   4.635   1.513   4.566  0.8997 -0.2904  0.3006
 9310SOL    HW139563   4.645   1.455   4.641  1.5698  0.3408  0.7041
 9310SOL    HW239564   4.619   1.452   4.494 -2.0515  0.6649  0.1387
 9311SOL     OW39565   1.614   3.248   8.327  0.5068  0.3247  0.5176
 9311SOL    HW139566   1.568   3.185   8.271 -0.1307  1.4636 -0.2393
 9311SOL    HW239567   1.538   3.302   8.349  1.5151  1.2500  1.7030
 9312SOL     OW39568   1.437   3.668   5.034  0.0148 -0.4649  0.0109
 9312SOL    HW139569   1.401   3.711   5.112  1.0600  0.0040  0.2334
 9312SOL    HW239570   1.496   3.603   5.073  0.1806 -0.3145  0.0087
 9313SOL     OW39571   0.038   1.159  13.218  0.1830 -0.6733  0.3710
 9313SOL    HW139572   0.035   1.131  13.127  0.2012 -3.6795  1.2923
 9313SOL    HW239573   4.737   1.245  13.212 -1.6312 -1.7717 -3.1330
 9314SOL     OW39574   2.597   2.685  14.270 -0.4109  0.2478  0.0376
 9314SOL    HW139575   2.594   2.748  14.197  1.1895 -0.6768 -0.8307
 9314SOL    HW239576   2.589   2.746  14.343 -0.2699  1.5645 -1.0424
 9315SOL     OW39577   2.876   1.835  15.612  0.5081  0.2261 -0.7194
 9315SOL    HW139578   2.864   1.924  15.578  2.3437 -0.0389 -2.0362
 9315SOL    HW239579   2.960   1.801  15.580 -1.1207 -2.4471 -2.1825
 9316SOL     OW39580   0.954   0.868   6.109 -0.2372 -0.2265  0.0107
 9316SOL    HW139581   1.017   0.862   6.037 -1.4740 -1.0322 -0.9989
 9316SOL    HW239582   1.009   0.869   6.188 -0.5539 -1.3918  0.2518
 9317SOL     OW39583   4.737   4.311  17.612 -0.1339 -0.1451 -0.2410
 9317SOL    HW139584   4.667   4.286  17.551  0.3762 -2.3839  0.0811
 9317SOL    HW239585   0.049   4.234  17.591 -0.1078 -0.3706  0.6438
 9318SOL     OW39586   4.521   1.574   8.636  0.3940 -0.1190 -0.3909
 9318SOL    HW139587   4.478   1.655   8.608  2.9412 -0.0187 -4.1342
 9318SOL    HW239588   4.447   1.513   8.636 -0.4888  0.9489 -0.4039
 9319SOL     OW39589   1.425   1.782   1.144 -0.0914 -0.1658 -0.0236
 9319SOL    HW139590   1.492   1.748   1.204  0.6540 -1.0773 -1.3717
 9319SOL    HW239591   1.470   1.826   1.072  0.8846 -0.3119  0.4978
 9320SOL     OW39592   3.649   3.611   2.713  0.6218  0.4727  0.2601
 9320SOL    HW139593   3.617   3.520   2.713 -2.9444  1.7404 -1.1620
 9320SOL    HW239594   3.741   3.602   2.740  0.6870 -1.8343 -0.6562
 9321SOL     OW39595   0.971   0.110   6.819  0.1410  0.0270 -0.2413
 9321SOL    HW139596   0.902   0.161   6.778  0.3191 -0.0893 -0.6851
 9321SOL    HW239597   0.958   0.125   6.913  0.1346  0.7138 -0.3511
 9322SOL     OW39598   1.724   1.291  13.563 -0.6285  0.6633 -0.8061
 9322SOL    HW139599   1.683   1.377  13.573  0.1323  0.6909  2.1346
 9322SOL    HW239600   1.660   1.258  13.501 -0.6094 -0.4248 -0.2427
 9323SOL     OW39601   4.413   1.354   0.219  0.2707  0.4055 -0.4204
 9323SOL    HW139602   4.490   1.410   0.205 -0.2177  0.5215 -2.6007
 9323SOL    HW239603   4.427   1.340   0.313  0.1207 -0.6626 -0.5572
 9324SOL     OW39604   2.834   2.707  12.040 -0.3057 -0.2830 -0.1379
 9324SOL    HW139605   2.748   2.674  12.066 -0.5421 -1.0523 -1.8918
 9324SOL    HW239606   2.885   2.675  12.114  0.9404 -0.3699 -1.0494
 9325SOL     OW39607   0.900   0.630   1.752 -0.0756 -0.4806 -0.3056
 9325SOL    HW139608   0.833   0.633   1.683  1.8247  1.7975 -2.0141
 9325SOL    HW239609   0.982   0.634   1.703  0.3113 -1.8905  0.2163
 9326SOL     OW39610   1.799   0.520   2.634 -0.0726  0.6627  0.1354
 9326SOL    HW139611   1.768   0.611   2.640 -2.2127 -0.1800  1.7684
 9326SOL    HW239612   1.894   0.526   2.646 -0.0791  1.0418  0.0076
 9327SOL     OW39613   2.695   2.243  12.156  0.7114  0.4961 -0.4533
 9327SOL    HW139614   2.719   2.300  12.083 -0.0480  0.2689 -0.8843
 9327SOL    HW239615   2.609   2.282  12.175 -0.9397 -1.4034 -3.8969
 9328SOL     OW39616   2.015   3.659   9.563  0.2188 -0.6859 -0.4507
 9328SOL    HW139617   2.011   3.732   9.625  1.9431 -0.1251 -1.0082
 9328SOL    HW239618   2.013   3.699   9.477  1.2699  1.1047  0.3530
 9329SOL     OW39619   0.944   2.971  11.679 -0.1427 -0.3641  0.1876
 9329SOL    HW139620   0.930   2.975  11.585 -0.2657  0.8230  0.2560
 9329SOL    HW239621   0.898   3.050  11.709 -1.1630 -0.9232  0.1051
 9330SOL     OW39622   4.736   1.394   1.515 -0.5238  0.1718 -0.4274
 9330SOL    HW139623   4.711   1.350   1.433 -0.5269 -0.2098 -0.2229
 9330SOL    HW239624   0.023   1.480   1.484  0.3005 -0.6125 -1.8476
 9331SOL     OW39625   1.906   1.771  14.703  0.5517 -0.0121  0.2532
 9331SOL    HW139626   1.811   1.763  14.688  0.4817 -2.7059  2.2811
 9331SOL    HW239627   1.922   1.838  14.636  0.0793 -0.5033 -0.3532
 9332SOL     OW39628   1.828   2.530   9.062  0.6000 -0.6935 -0.0661
 9332SOL    HW139629   1.901   2.487   9.105  0.4512 -0.5121  0.3650
 9332SOL    HW239630   1.762   2.515   9.129 -1.3025 -0.9257 -1.9640
 9333SOL     OW39631   1.806   1.723   5.635 -0.6548 -0.0310 -0.3488
 9333SOL    HW139632   1.785   1.642   5.681 -3.6976  0.9156 -0.0225
 9333SOL    HW239633   1.808   1.687   5.546  1.6097 -0.1334 -0.2514
 9334SOL     OW39634   3.200   2.644   7.933 -0.3129 -0.1618  0.4157
 9334SOL    HW139635   3.219   2.688   8.016  0.5789 -0.0616  0.1650
 9334SOL    HW239636   3.121   2.593   7.946 -0.2247  0.2686  2.5619
 9335SOL     OW39637   0.483   2.675   9.730 -0.7699  0.2639 -0.3177
 9335SOL    HW139638   0.498   2.589   9.770 -1.7357  0.3640  0.2786
 9335SOL    HW239639   0.565   2.723   9.742 -0.6228 -0.4156  1.4795
 9336SOL     OW39640   2.156   0.126   9.204 -0.2902 -0.6571  0.2396
 9336SOL    HW139641   2.245   0.098   9.186 -0.6586 -0.2425 -2.2104
 9336SOL    HW239642   2.108   0.127   9.121  0.9886 -1.0829 -0.5041
 9337SOL     OW39643   2.514   0.826   4.605  0.5995  0.2466 -0.4723
 9337SOL    HW139644   2.529   0.819   4.699  0.1018 -1.8120 -0.5455
 9337SOL    HW239645   2.604   0.825   4.571  1.1234  0.9633  0.8962
 9338SOL     OW39646   4.348   1.331  14.693  0.1627  0.1676 -0.3635
 9338SOL    HW139647   4.348   1.415  14.739 -0.0016 -1.0479  1.8509
 9338SOL    HW239648   4.416   1.291  14.746  1.3914  1.1044 -1.2306
 9339SOL     OW39649   1.475   0.650   4.441  0.5381  0.0528 -0.2838
 9339SOL    HW139650   1.451   0.701   4.363  0.7130  0.5289 -0.0238
 9339SOL    HW239651   1.560   0.621   4.409  0.7625  2.5270 -1.9531
 9340SOL     OW39652   0.227   3.130   2.924 -0.2549  0.3272 -0.0623
 9340SOL    HW139653   0.217   3.155   2.832 -2.0848  0.3680  0.1474
 9340SOL    HW239654   0.249   3.211   2.972  1.3897  0.5603 -1.2204
 9341SOL     OW39655   2.702   1.201   5.861  0.4079  0.0171  0.4216
 9341SOL    HW139656   2.620   1.178   5.903 -1.1689  1.4085 -1.8512
 9341SOL    HW239657   2.663   1.218   5.775 -1.0347 -1.1124  0.8799
 9342SOL     OW39658   1.643   4.519   7.549  0.5074 -0.7101  0.6126
 9342SOL    HW139659   1.586   4.545   7.622 -0.6070  1.4510 -1.0485
 9342SOL    HW239660   1.726   4.540   7.593  1.7590 -1.8288 -1.2003
 9343SOL     OW39661   3.286   4.651  15.540 -0.4200  0.2504 -0.0097
 9343SOL    HW139662   3.241   4.567  15.528 -0.4451  0.5309 -1.7649
 9343SOL    HW239663   3.219   4.689  15.597 -0.1646  0.3699  0.2143
 9344SOL     OW39664   1.223   3.042  16.254  0.4181  0.1752 -0.0839
 9344SOL    HW139665   1.240   3.131  16.285 -1.7706  1.1486 -1.7276
 9344SOL    HW239666   1.158   3.017  16.320 -0.3285 -1.5827 -1.4969
 9345SOL     OW39667   4.710   3.513   4.095  0.3871  0.0989 -0.5023
 9345SOL    HW139668   0.007   3.427   4.116 -0.4201 -0.0257  0.3966
 9345SOL    HW239669   0.028   3.576   4.137  0.3602 -0.8824  1.0239
 9346SOL     OW39670   0.855   3.935   6.508 -0.2329 -0.2159 -0.1049
 9346SOL    HW139671   0.769   3.915   6.471 -0.6277 -1.2699  1.3767
 9346SOL    HW239672   0.862   3.884   6.589 -2.3437 -0.4015 -0.0344
 9347SOL     OW39673   2.730   2.142   3.748  0.3837  0.6503  0.0664
 9347SOL    HW139674   2.640   2.170   3.732  0.3152  1.3195  1.6743
 9347SOL    HW239675   2.724   2.123   3.841 -0.0526  0.9726  0.1041
 9348SOL     OW39676   3.005   4.331   4.747  0.2407 -0.0273  0.0636
 9348SOL    HW139677   3.031   4.409   4.796  1.8608  1.3713 -3.0453
 9348SOL    HW239678   3.055   4.335   4.666  0.5441 -0.7111  0.2152
 9349SOL     OW39679   3.024   0.556   3.087 -0.9566  0.1387  0.4300
 9349SOL    HW139680   2.970   0.632   3.109  0.1755  0.9342  0.5071
 9349SOL    HW239681   3.080   0.593   3.019 -1.3700 -0.1095 -0.0445
 9350SOL     OW39682   3.833   2.837   8.356 -0.1414 -0.0715 -0.1042
 9350SOL    HW139683   3.789   2.837   8.441  1.6098 -0.2222  0.7939
 9350SOL    HW239684   3.851   2.931   8.343  2.7018 -0.6928 -0.7147
 9351SOL     OW39685   2.730   2.969   3.067  0.6192 -0.0481  0.3481
 9351SOL    HW139686   2.757   3.044   3.121  0.4644  0.0896  0.2320
 9351SOL    HW239687   2.780   2.903   3.115 -0.6979 -1.1808  0.1486
 9352SOL     OW39688   1.751   0.575  16.793 -0.0873 -0.4151  0.4135
 9352SOL    HW139689   1.675   0.629  16.815  0.0358  0.2436 -0.7988
 9352SOL    HW239690   1.782   0.560  16.883  0.2844  0.2232  0.3919
 9353SOL     OW39691   2.040   1.137  15.316 -0.0557 -0.3518  0.4062
 9353SOL    HW139692   2.136   1.140  15.307  0.0696  1.4725  2.4605
 9353SOL    HW239693   2.012   1.166  15.229 -0.0840 -0.5379  0.3523
 9354SOL     OW39694   0.246   1.760  10.398  0.0520 -0.0462  0.1715
 9354SOL    HW139695   0.266   1.843  10.441 -0.1409  1.0727 -1.8869
 9354SOL    HW239696   0.161   1.748  10.440  1.4023  3.3655  3.8923
 9355SOL     OW39697   1.603   1.156   7.122 -0.1990 -0.1761  0.0191
 9355SOL    HW139698   1.675   1.136   7.181  0.7254 -4.1947 -2.4688
 9355SOL    HW239699   1.519   1.140   7.165 -0.3045  0.4043  0.0273
 9356SOL     OW39700   1.779   2.775   6.126  0.0851  0.6325  0.5615
 9356SOL    HW139701   1.849   2.714   6.150 -0.4785  0.9269  2.9654
 9356SOL    HW239702   1.742   2.742   6.044 -0.1009  0.6568  0.6363
 9357SOL     OW39703   3.266   4.503   3.531 -0.3329 -0.6193  0.0808
 9357SOL    HW139704   3.225   4.558   3.464 -0.5636  0.8785  1.4518
 9357SOL    HW239705   3.243   4.551   3.610 -0.7724 -0.5915 -0.0651
 9358SOL     OW39706   3.540   3.913  15.606  0.4787  0.3187 -0.1825
 9358SOL    HW139707   3.561   3.860  15.529  0.7269 -1.4546  1.1209
 9358SOL    HW239708   3.455   3.949  15.578 -0.9019 -2.0719  0.9707
 9359SOL     OW39709   2.280   0.953   3.419  0.0872  0.4977  0.4968
 9359SOL    HW139710   2.354   0.925   3.364 -0.3763 -0.4467  0.3484
 9359SOL    HW239711   2.331   0.959   3.499  1.0156 -1.1486  0.0422
 9360SOL     OW39712   1.957   2.034   3.258  0.0572  0.0961  0.2005
 9360SOL    HW139713   1.869   2.071   3.253  0.5827  1.2458 -0.5077
 9360SOL    HW239714   1.945   1.972   3.186 -0.3957  0.3073  0.0919
 9361SOL     OW39715   3.647   1.994   4.716 -0.4208 -0.6168 -0.0483
 9361SOL    HW139716   3.653   1.920   4.777  0.5908 -0.5524 -0.0649
 9361SOL    HW239717   3.742   2.009   4.717 -0.3038 -1.3497  0.1039
 9362SOL     OW39718   0.863   4.023   7.405 -0.0087 -0.4608 -0.2987
 9362SOL    HW139719   0.778   3.984   7.388  0.3922 -2.0944  1.4982
 9362SOL    HW239720   0.861   4.094   7.340 -2.4888  0.2891  0.5947
 9363SOL     OW39721   1.785   1.282   4.191  0.3060  0.0933  0.0456
 9363SOL    HW139722   1.796   1.376   4.205 -0.1286  0.6663 -3.4685
 9363SOL    HW239723   1.866   1.250   4.232  0.5706  0.2728 -0.3394
 9364SOL     OW39724   3.839   2.767   2.891 -0.0049 -0.5430  0.5317
 9364SOL    HW139725   3.778   2.777   2.817  0.0883  1.6512  0.7415
 9364SOL    HW239726   3.785   2.813   2.955 -2.1307  0.2058 -1.7977
 9365SOL     OW39727   1.797   2.398  12.267  0.2286  0.0353 -0.3981
 9365SOL    HW139728   1.875   2.348  12.290 -1.0003 -1.1062  1.2539
 9365SOL    HW239729   1.834   2.484  12.285 -0.8310  0.4835 -0.3758
 9366SOL     OW39730   3.078   3.700   2.954 -0.1381 -0.4077 -0.0063
 9366SOL    HW139731   3.144   3.765   2.981  0.0260 -1.3846  1.8988
 9366SOL    HW239732   3.004   3.722   3.010 -1.3526 -2.1893 -0.9233
 9367SOL     OW39733   3.580   1.489   7.960 -0.4222 -0.4045 -0.2061
 9367SOL    HW139734   3.655   1.544   7.939 -0.0544 -0.9942 -0.4419
 9367SOL    HW239735   3.614   1.439   8.034 -0.8774  2.7505  2.1021
 9368SOL     OW39736   1.965   1.119   7.563 -1.1724  0.2130  0.1089
 9368SOL    HW139737   2.021   1.066   7.620 -0.9591  1.2403  0.8525
 9368SOL    HW239738   2.024   1.187   7.531  0.4465 -1.4140 -0.3662
 9369SOL     OW39739   1.513   1.689  10.558 -0.3198 -0.1620  0.2114
 9369SOL    HW139740   1.578   1.735  10.611 -0.5882  2.3104 -1.6492
 9369SOL    HW239741   1.438   1.718  10.609  1.6676  2.3849  1.6841
 9370SOL     OW39742   1.856   3.465   2.339 -0.2322  0.0498  0.2120
 9370SOL    HW139743   1.788   3.496   2.398 -0.6286  0.7833 -0.6200
 9370SOL    HW239744   1.823   3.452   2.250  1.8185  1.7078 -0.8002
 9371SOL     OW39745   0.647   0.318  10.338 -0.5312 -0.1306  0.4712
 9371SOL    HW139746   0.560   0.284  10.316 -0.0619 -0.6229 -0.6297
 9371SOL    HW239747   0.696   0.247  10.379  0.4726  1.2287  1.6426
 9372SOL     OW39748   0.507   4.599   4.764  0.2931 -0.3132  0.2139
 9372SOL    HW139749   0.424   4.587   4.810  0.8635 -1.0044  1.0809
 9372SOL    HW239750   0.523   4.507   4.742  2.4046  0.7121 -2.4929
 9373SOL     OW39751   2.524   3.590   7.245  0.7147  0.0834  0.0496
 9373SOL    HW139752   2.457   3.659   7.241 -1.4371 -2.0711 -1.3342
 9373SOL    HW239753   2.567   3.628   7.322  1.3065  0.9593 -0.7242
 9374SOL     OW39754   0.306   4.519   9.224  0.2202 -0.1759 -0.2916
 9374SOL    HW139755   0.383   4.557   9.266 -0.5798 -0.2147  1.2019
 9374SOL    HW239756   0.308   4.544   9.131 -1.7004  0.4303 -0.1822
 9375SOL     OW39757   2.884   2.405   3.327 -0.2042 -0.4391  0.3442
 9375SOL    HW139758   2.809   2.348   3.311  0.0105 -0.6125 -0.0294
 9375SOL    HW239759   2.958   2.344   3.324  1.2526  1.5406 -3.1097
 9376SOL     OW39760   1.433   4.610   6.252  0.4178 -0.9752 -0.3215
 9376SOL    HW139761   1.339   4.629   6.246  1.2778  3.5470  0.6715
 9376SOL    HW239762   1.445   4.530   6.201  2.2465  0.9815 -2.9907
 9377SOL     OW39763   2.803   3.220   9.914  0.4380  0.1444 -0.0656
 9377SOL    HW139764   2.852   3.143   9.886 -0.3152  0.8803 -3.3779
 9377SOL    HW239765   2.839   3.231  10.002  0.0497  1.0076 -0.0182
 9378SOL     OW39766   3.450   2.064   3.017  0.0969 -0.1447 -0.0189
 9378SOL    HW139767   3.483   1.985   3.059  1.1890 -0.1676 -0.9257
 9378SOL    HW239768   3.431   2.112   3.098 -0.6473  0.0097 -0.2858
 9379SOL     OW39769   2.750   3.526   3.468 -0.1348  0.5515  0.0500
 9379SOL    HW139770   2.654   3.529   3.471 -0.2348 -1.0519 -1.4072
 9379SOL    HW239771   2.772   3.610   3.509  0.2834  0.2350  0.4686
 9380SOL     OW39772   3.602   1.822   1.117 -0.0298  0.6903  0.7213
 9380SOL    HW139773   3.584   1.914   1.136 -0.9175  0.5576  0.5432
 9380SOL    HW239774   3.589   1.781   1.203  0.1469  0.6312  0.7192
 9381SOL     OW39775   1.610   0.451   1.757  0.2298  0.4014  0.0092
 9381SOL    HW139776   1.681   0.472   1.817  1.0929  2.3726 -1.6923
 9381SOL    HW239777   1.608   0.361   1.788  1.4509  0.6390  0.7762
 9382SOL     OW39778   0.631   2.909   0.366 -0.2163  0.4198 -0.7218
 9382SOL    HW139779   0.588   2.862   0.438 -1.4477  0.2397 -1.5748
 9382SOL    HW239780   0.566   2.887   0.299 -1.4472  0.7270  0.3721
 9383SOL     OW39781   0.497   4.231   7.506  0.2878  0.1896 -0.4826
 9383SOL    HW139782   0.560   4.159   7.513  0.5268  0.5673  1.3909
 9383SOL    HW239783   0.547   4.311   7.490 -0.2102  0.5328 -0.3228
 9384SOL     OW39784   2.338   3.493   3.999 -0.0789  0.3634  0.0520
 9384SOL    HW139785   2.339   3.399   3.981  0.8679  0.4350 -0.2850
 9384SOL    HW239786   2.281   3.532   3.932  1.4952  0.2217 -1.3760
 9385SOL     OW39787   4.479   0.929   2.855  0.1554 -0.6239  0.5024
 9385SOL    HW139788   4.451   0.936   2.946  0.2928 -0.3433  0.5219
 9385SOL    HW239789   4.411   0.865   2.831 -0.6870 -0.0091  1.2570
 9386SOL     OW39790   3.296   2.157  11.225  0.8104  0.3411  0.4526
 9386SOL    HW139791   3.318   2.222  11.292  0.7785 -1.2884  2.0201
 9386SOL    HW239792   3.208   2.191  11.208  0.1536 -1.9601 -0.7258
 9387SOL     OW39793   3.876   3.602  14.807  0.2051 -0.4745 -0.4024
 9387SOL    HW139794   3.891   3.530  14.869  0.9145  0.3963  0.4547
 9387SOL    HW239795   3.783   3.585  14.793  0.8503 -3.0308 -1.5352
 9388SOL     OW39796   2.055   4.401   7.381 -0.4995 -0.5393 -0.0421
 9388SOL    HW139797   2.025   4.374   7.294  1.1615 -0.3788 -0.6690
 9388SOL    HW239798   2.046   4.317   7.426 -0.3697 -2.0003 -2.7549
 9389SOL     OW39799   1.157   1.332  17.325 -0.2441  0.2002  0.1741
 9389SOL    HW139800   1.103   1.280  17.266 -1.3047  1.4022  0.0936
 9389SOL    HW239801   1.197   1.266  17.382  0.2484 -0.4329 -0.9099
 9390SOL     OW39802   1.555   2.058  15.719 -0.2005  0.0108  0.0265
 9390SOL    HW139803   1.578   2.029  15.807  2.9585  0.6063 -0.5972
 9390SOL    HW239804   1.470   2.099  15.736  0.2916  0.8511  0.4482
 9391SOL     OW39805   3.800   3.447   6.765 -0.3217  0.2531 -0.0866
 9391SOL    HW139806   3.775   3.504   6.837  0.8432  0.7461 -0.0753
 9391SOL    HW239807   3.733   3.472   6.701 -0.6477  0.3495  0.2947
 9392SOL     OW39808   2.629   1.665   4.046 -0.1273 -0.4326  0.3401
 9392SOL    HW139809   2.549   1.626   4.082 -0.0198  0.3917  1.4661
 9392SOL    HW239810   2.649   1.730   4.113 -0.5014  0.7542 -0.7020
 9393SOL     OW39811   4.672   4.517   8.685  0.5646 -0.7067  0.1017
 9393SOL    HW139812   4.608   4.449   8.705 -0.3240 -0.1943 -1.0105
 9393SOL    HW239813   4.668   4.517   8.590 -0.1486  1.3722  0.1270
 9394SOL     OW39814   1.144   0.451   2.362  0.0255 -0.0013 -0.5853
 9394SOL    HW139815   1.225   0.478   2.320 -1.1368  0.3293 -2.6278
 9394SOL    HW239816   1.134   0.361   2.333  1.0788 -0.1113 -0.5954
 9395SOL     OW39817   1.315   2.861  16.075 -0.1101  0.6447  0.2382
 9395SOL    HW139818   1.242   2.798  16.080  0.5689 -0.2410 -1.0414
 9395SOL    HW239819   1.292   2.923  16.144  1.3392  1.8362 -0.3496
 9396SOL     OW39820   3.722   0.284   3.140  0.0582  0.5743 -0.5223
 9396SOL    HW139821   3.645   0.321   3.097  0.0897 -1.0509 -1.9495
 9396SOL    HW239822   3.776   0.363   3.148  3.9811 -1.9687 -1.5912
 9397SOL     OW39823   1.280   0.299   7.297  0.0127 -0.0289 -0.1242
 9397SOL    HW139824   1.233   0.370   7.254 -1.9966 -2.1102 -1.3783
 9397SOL    HW239825   1.321   0.351   7.366  2.4470  0.0405 -1.6483
 9398SOL     OW39826   4.702   0.324   7.848 -0.2022 -0.4289 -0.6865
 9398SOL    HW139827   4.657   0.396   7.803 -0.8460  0.8209  2.0019
 9398SOL    HW239828   0.008   0.373   7.916 -1.3327 -1.0149  0.4907
 9399SOL     OW39829   0.308   4.637   6.512 -0.2456  0.2866  0.0893
 9399SOL    HW139830   0.388   4.597   6.548  0.0439 -0.2060 -1.0703
 9399SOL    HW239831   0.302   4.721   6.557  0.9486  0.8018 -0.7105
 9400SOL     OW39832   0.202   0.240   4.975 -0.1326  0.1650 -0.1657
 9400SOL    HW139833   0.230   0.331   4.968 -0.7069  0.1255 -3.0423
 9400SOL    HW239834   0.156   0.248   5.059 -0.3069  0.3588 -0.2811
 9401SOL     OW39835   4.199   4.028   5.325 -0.2380  0.2418  0.3061
 9401SOL    HW139836   4.133   3.964   5.352  1.0045 -0.3359  1.9613
 9401SOL    HW239837   4.241   4.062   5.405  1.7095 -1.9712  0.2100
 9402SOL     OW39838   0.961   2.381   4.580  0.2230  0.1903  0.0456
 9402SOL    HW139839   0.990   2.303   4.533  1.5294 -0.9490  2.7642
 9402SOL    HW239840   0.944   2.445   4.510 -1.3614 -2.2958 -1.8539
 9403SOL     OW39841   1.200   3.046   2.946 -0.0954  0.1246  0.3590
 9403SOL    HW139842   1.152   3.125   2.973 -0.0017  0.3822 -0.2293
 9403SOL    HW239843   1.231   3.009   3.028 -0.2616 -0.8778 -0.0280
 9404SOL     OW39844   0.782   3.739   4.936 -0.3830  0.2804 -0.1886
 9404SOL    HW139845   0.857   3.690   4.902  0.3097  0.5015  1.0257
 9404SOL    HW239846   0.825   3.823   4.924 -1.7201  0.8923 -0.7751
 9405SOL     OW39847   3.408   1.702  12.251 -0.2286 -0.3575  0.1522
 9405SOL    HW139848   3.473   1.651  12.203 -0.9205 -1.7811  0.7180
 9405SOL    HW239849   3.346   1.635  12.282 -1.4264  1.8113  2.5410
 9406SOL     OW39850   4.650   0.799  11.754  0.1500  0.7643 -0.0711
 9406SOL    HW139851   4.611   0.765  11.835 -1.3444  2.4318 -0.0887
 9406SOL    HW239852   4.635   0.717  11.706 -0.6153  1.7518 -1.4953
 9407SOL     OW39853   2.428   3.428  10.063  0.0511  0.7757  0.2352
 9407SOL    HW139854   2.399   3.451   9.975  2.5849 -2.1275 -1.3650
 9407SOL    HW239855   2.512   3.474  10.069  1.4106 -1.6037 -0.5016
 9408SOL     OW39856   4.065   4.359   2.419 -0.0467 -0.1413 -0.4168
 9408SOL    HW139857   4.133   4.425   2.412 -0.9992  1.0038  0.9674
 9408SOL    HW239858   4.108   4.285   2.378 -1.0082 -1.3500  0.7379
 9409SOL     OW39859   2.189   0.020   6.445  0.9176  0.4030 -0.0823
 9409SOL    HW139860   2.105   0.043   6.404  0.0751  1.2514  2.1408
 9409SOL    HW239861   2.214   4.674   6.410 -1.5587 -0.7861  1.1046
 9410SOL     OW39862   1.062   1.296   7.313 -0.0794  0.4132  0.0296
 9410SOL    HW139863   1.142   1.325   7.356  0.4722 -0.8542 -0.1488
 9410SOL    HW239864   1.029   1.378   7.276 -0.5552 -0.0279 -0.5311
 9411SOL     OW39865   0.704   1.767   4.770 -0.0820  0.0627  0.1201
 9411SOL    HW139866   0.720   1.725   4.854 -0.0279  2.0138  1.0796
 9411SOL    HW239867   0.619   1.803   4.795  0.1777 -0.1270  1.2970
 9412SOL     OW39868   0.887   1.581   3.769 -0.0393  0.1494 -0.3304
 9412SOL    HW139869   0.913   1.623   3.687  1.8150  1.2515  0.8046
 9412SOL    HW239870   0.801   1.552   3.742  0.8466 -1.4256 -1.4495
 9413SOL     OW39871   1.388   1.853  17.069 -0.2193  0.0197 -0.4929
 9413SOL    HW139872   1.414   1.945  17.071  0.4753 -0.1867 -0.0226
 9413SOL    HW239873   1.295   1.863  17.051 -0.1501  1.7159  0.0670
 9414SOL     OW39874   1.503   3.212   0.135 -0.2092  0.3580 -0.5055
 9414SOL    HW139875   1.437   3.277   0.158  1.3429  1.8876 -0.3957
 9414SOL    HW239876   1.442   3.138   0.133  1.8425 -1.3322 -0.0572
 9415SOL     OW39877   1.499   0.383   1.493  0.8838 -0.0281 -0.4118
 9415SOL    HW139878   1.522   0.397   1.585 -1.1460  0.4334  0.0350
 9415SOL    HW239879   1.583   0.399   1.450  0.5866  0.1878 -0.9100
 9416SOL     OW39880   3.402   3.461  17.396 -0.1609 -0.5667  0.2752
 9416SOL    HW139881   3.493   3.470  17.370 -0.5793 -0.4642 -1.1298
 9416SOL    HW239882   3.374   3.553  17.403 -1.7307 -0.8900 -1.7397
 9417SOL     OW39883   3.108   4.439   6.718  0.1760 -0.8546 -0.2036
 9417SOL    HW139884   3.173   4.457   6.649 -1.1446  0.6870 -1.0456
 9417SOL    HW239885   3.128   4.512   6.776 -0.3867 -0.0946 -0.9740
 9418SOL     OW39886   1.857   4.086  15.900 -0.5378  0.4901  0.0818
 9418SOL    HW139887   1.938   4.125  15.934 -1.3119  0.1158  2.3788
 9418SOL    HW239888   1.884   4.000  15.867  0.6670  0.2058  1.7721
 9419SOL     OW39889   4.601   3.265   7.836  0.2978  0.2292 -1.2845
 9419SOL    HW139890   4.637   3.336   7.888  2.1921 -2.0872  0.5517
 9419SOL    HW239891   4.681   3.235   7.791  1.7785  0.0594  1.5069
 9420SOL     OW39892   3.562   0.728   0.768  0.3956  0.4773  0.1252
 9420SOL    HW139893   3.537   0.637   0.753  1.9252 -0.0800  0.8358
 9420SOL    HW239894   3.555   0.729   0.863 -0.7217  0.9848  0.0383
 9421SOL     OW39895   1.449   3.595   6.236 -0.2076  0.4524 -0.2109
 9421SOL    HW139896   1.442   3.623   6.327  2.0424 -0.3384  0.2088
 9421SOL    HW239897   1.509   3.520   6.234 -2.2927 -1.2704  1.5957
 9422SOL     OW39898   1.840   0.929   6.907 -0.6227 -0.0408  0.8234
 9422SOL    HW139899   1.903   0.884   6.963  0.0717 -0.7021 -0.4786
 9422SOL    HW239900   1.866   1.020   6.895 -0.7415  0.0149  0.9930
 9423SOL     OW39901   3.119   0.528   3.878 -0.1715 -0.8193  0.0327
 9423SOL    HW139902   3.119   0.623   3.890 -0.5690 -1.0157  1.6287
 9423SOL    HW239903   3.051   0.499   3.938 -1.7778  0.7577 -1.0199
 9424SOL     OW39904   1.095   2.242   8.381 -0.6458  0.3413 -0.1033
 9424SOL    HW139905   1.160   2.280   8.440 -0.0758 -1.9662  0.7570
 9424SOL    HW239906   1.154   2.193   8.323  1.7681  0.8971  1.9021
 9425SOL     OW39907   4.222   4.134   7.651 -0.3038 -0.3184  0.1099
 9425SOL    HW139908   4.253   4.206   7.706 -0.5012 -1.1839  1.3544
 9425SOL    HW239909   4.181   4.083   7.720  1.7737 -0.0598  1.5379
 9426SOL     OW39910   2.377   2.587   8.897  0.1431 -0.2456  0.3590
 9426SOL    HW139911   2.394   2.665   8.950 -2.2843  0.9848 -0.6913
 9426SOL    HW239912   2.400   2.525   8.967 -1.9859 -0.8879  0.5005
 9427SOL     OW39913   0.710   3.442   6.971  0.1627 -0.2092  0.1903
 9427SOL    HW139914   0.672   3.368   7.019 -2.8729  1.2622  0.0759
 9427SOL    HW239915   0.734   3.512   7.033 -0.1432  1.7894 -1.9322
 9428SOL     OW39916   1.494   0.900   8.536  0.0245 -0.2757  0.6356
 9428SOL    HW139917   1.549   0.838   8.490 -0.3050 -1.1262  1.3910
 9428SOL    HW239918   1.415   0.897   8.481  0.7019 -0.1658 -0.3336
 9429SOL     OW39919   1.448   1.820  10.320  0.7376 -0.1031  0.2037
 9429SOL    HW139920   1.464   1.753  10.386  0.5267  0.2717  0.6321
 9429SOL    HW239921   1.537   1.836  10.291  0.0664 -0.8323 -2.2972
 9430SOL     OW39922   2.428   0.555  13.734 -0.1725 -0.0491 -0.6087
 9430SOL    HW139923   2.389   0.610  13.801 -1.9368 -0.6637 -1.1437
 9430SOL    HW239924   2.470   0.619  13.677 -1.9814  0.1942 -1.6491
 9431SOL     OW39925   0.359   1.971   3.507  0.5673 -1.2764  0.0677
 9431SOL    HW139926   0.414   1.976   3.429 -1.1978  2.2063 -0.9786
 9431SOL    HW239927   0.293   1.925   3.455  0.0871 -0.6894  0.1551
 9432SOL     OW39928   2.667   0.062  10.751 -0.2744  0.0926 -0.7133
 9432SOL    HW139929   2.751   0.022  10.726  0.5592  0.5758  1.3241
 9432SOL    HW239930   2.667   0.148  10.709  1.1763  0.7591  0.6447
 9433SOL     OW39931   3.090   3.574  10.933  0.1428  0.3117  0.0120
 9433SOL    HW139932   3.067   3.664  10.909 -1.5154 -0.7509 -2.4807
 9433SOL    HW239933   3.179   3.567  10.900 -0.0861 -0.1993 -0.5126
 9434SOL     OW39934   3.230   2.396   2.766  0.1264 -0.0206  0.3961
 9434SOL    HW139935   3.142   2.424   2.743  0.7081 -1.3383 -3.4167
 9434SOL    HW239936   3.285   2.462   2.723  1.3694 -0.3803  1.4354
 9435SOL     OW39937   1.479   3.219   6.366 -0.3325 -0.6565  0.1618
 9435SOL    HW139938   1.385   3.233   6.371 -0.3426 -0.0617 -1.8121
 9435SOL    HW239939   1.484   3.124   6.351 -1.1565 -0.5251 -0.9309
 9436SOL     OW39940   1.788   1.749   7.497 -0.1028  0.0385 -0.2207
 9436SOL    HW139941   1.747   1.727   7.580  1.4821 -0.4872  0.4320
 9436SOL    HW239942   1.881   1.761   7.516  0.1239 -0.1848 -1.1958
 9437SOL     OW39943   0.018   3.651   8.878 -0.5176  0.0444  0.4154
 9437SOL    HW139944   0.114   3.645   8.879 -0.5546 -0.5156  0.7722
 9437SOL    HW239945   4.731   3.639   8.786  3.3920  0.2711 -0.7838
 9438SOL     OW39946   1.604   0.925   2.239 -0.0440  0.1349  0.2449
 9438SOL    HW139947   1.655   0.945   2.317 -0.3042  2.4116 -0.1738
 9438SOL    HW239948   1.670   0.883   2.184 -0.1679 -0.0727  0.2537
 9439SOL     OW39949   4.682   2.934  16.804 -0.4237 -0.3209  0.0014
 9439SOL    HW139950   0.034   2.918  16.824  0.3657  2.2745 -1.5472
 9439SOL    HW239951   4.695   2.915  16.711 -1.9296  0.6460 -0.4002
 9440SOL     OW39952   2.817   0.848   2.048  0.1387 -0.1249  0.2738
 9440SOL    HW139953   2.860   0.831   1.964  0.8173 -0.1134  0.6213
 9440SOL    HW239954   2.739   0.796   2.030  0.4970 -0.5186 -0.1190
 9441SOL     OW39955   0.002   2.704  15.175  0.1104 -0.5522  0.6244
 9441SOL    HW139956   0.062   2.697  15.249  2.4175  1.6349 -1.0195
 9441SOL    HW239957   4.668   2.742  15.222  1.2642  0.3506  1.6965
 9442SOL     OW39958   1.072   3.820  14.321 -0.1653 -0.6400  0.9646
 9442SOL    HW139959   1.167   3.808  14.319 -0.4882 -2.8494 -1.3886
 9442SOL    HW239960   1.045   3.737  14.283 -1.3447  0.8018 -1.3368
 9443SOL     OW39961   4.734   1.840   2.367 -0.0234 -0.1166  0.0640
 9443SOL    HW139962   0.075   1.879   2.399  0.2409  0.4895 -1.3471
 9443SOL    HW239963   0.012   1.824   2.274  2.7387  1.1900  0.3940
 9444SOL     OW39964   1.471   2.855   5.326 -0.1326 -0.4030 -0.6127
 9444SOL    HW139965   1.429   2.798   5.390 -1.3132  0.5667 -0.5297
 9444SOL    HW239966   1.546   2.901   5.364  0.2079  0.1767 -2.0191
 9445SOL     OW39967   4.455   3.262   2.395  0.3031 -0.3638  0.1652
 9445SOL    HW139968   4.468   3.215   2.313  2.5058 -0.0306  0.3352
 9445SOL    HW239969   4.464   3.349   2.357 -4.1845  0.6072  1.2887
 9446SOL     OW39970   3.179   1.204   1.422 -0.3539  0.1186 -0.3124
 9446SOL    HW139971   3.189   1.157   1.505  0.7664  3.2497  1.3031
 9446SOL    HW239972   3.232   1.283   1.432 -1.3671  0.6506  0.8012
 9447SOL     OW39973   2.495   4.473   3.022  0.1179 -0.3102 -0.2570
 9447SOL    HW139974   2.496   4.510   3.110 -0.7261 -2.5789  0.7104
 9447SOL    HW239975   2.586   4.445   3.008  0.8815  2.2328 -0.3578
 9448SOL     OW39976   2.536   2.104   8.826  0.5485  0.3226  0.2131
 9448SOL    HW139977   2.563   2.149   8.746  2.7569  0.5709  1.0907
 9448SOL    HW239978   2.616   2.052   8.835  0.7422  0.7482  0.8874
 9449SOL     OW39979   1.521   1.362   2.428 -0.4301 -0.7546 -0.1712
 9449SOL    HW139980   1.490   1.414   2.502  2.2957  0.3739  0.1691
 9449SOL    HW239981   1.438   1.324   2.399 -0.4073  0.2288 -1.5313
 9450SOL     OW39982   3.742   3.948   3.238  0.3206  0.0157  0.8782
 9450SOL    HW139983   3.779   3.989   3.161 -2.3613 -0.2454 -0.5603
 9450SOL    HW239984   3.695   4.019   3.283  0.8873  0.7997  0.2242
 9451SOL     OW39985   1.886   0.532  10.703  0.0120  0.5432 -0.4282
 9451SOL    HW139986   1.975   0.561  10.683  1.2633 -2.8184  0.3228
 9451SOL    HW239987   1.832   0.574  10.636 -0.2396  0.8297 -0.0452
 9452SOL     OW39988   3.491   4.702   2.857 -0.2330 -0.3925  0.4352
 9452SOL    HW139989   3.454   4.614   2.864 -1.3816  0.2451  2.2094
 9452SOL    HW239990   3.582   4.677   2.843 -1.2724 -2.1529 -3.3747
 9453SOL     OW39991   3.449   0.879  14.260  0.0258 -0.1036 -0.5442
 9453SOL    HW139992   3.372   0.896  14.314  0.7746  3.4814 -0.5866
 9453SOL    HW239993   3.443   0.933  14.182 -1.2993  2.5943  1.4381
 9454SOL     OW39994   3.193   0.939   2.997  0.2876  0.0377  0.3869
 9454SOL    HW139995   3.120   0.995   3.022  1.4803  1.8379 -0.2225
 9454SOL    HW239996   3.245   1.004   2.950 -2.2145  1.4194 -0.4817
 9455SOL     OW39997   2.879   0.812   7.462  0.1152 -0.1188  0.4910
 9455SOL    HW139998   2.798   0.793   7.509 -0.9562 -2.8413 -2.4261
 9455SOL    HW239999   2.906   0.726   7.428  1.0964  0.4773 -0.2599
 9456SOL     OW40000   4.533   3.263  10.009 -0.7147 -0.2890  0.1227
 9456SOL    HW140001   4.455   3.231  10.055 -0.5039  0.7420  1.2044
 9456SOL    HW240002   4.533   3.205   9.933  2.8748  0.1597 -0.1966
 9457SOL     OW40003   1.588   3.559   5.901  0.6079  0.2238 -0.2535
 9457SOL    HW140004   1.500   3.592   5.919  0.6666 -0.9242  2.2426
 9457SOL    HW240005   1.591   3.497   5.974 -0.4655 -1.6644 -1.8157
 9458SOL     OW40006   4.452   3.323   5.717 -0.5678  0.1261  0.3818
 9458SOL    HW140007   4.378   3.263   5.725 -0.5811  0.0335 -0.4608
 9458SOL    HW240008   4.412   3.394   5.668 -0.7177 -1.2916 -1.5321
 9459SOL     OW40009   2.110   3.144   8.693  0.0008 -0.1595  0.2828
 9459SOL    HW140010   2.192   3.192   8.704 -1.0492  2.0393 -1.2191
 9459SOL    HW240011   2.115   3.095   8.775 -2.0070 -0.2683  0.3572
 9460SOL     OW40012   2.123   0.609  14.323 -0.1546 -0.3754 -0.4300
 9460SOL    HW140013   2.085   0.598  14.410 -1.0505  0.8430 -0.6626
 9460SOL    HW240014   2.210   0.575  14.343 -0.4720 -2.0896 -1.9070
 9461SOL     OW40015   1.742   2.100   6.804 -0.1427 -0.2466  0.3247
 9461SOL    HW140016   1.707   2.072   6.719  1.5106 -2.4524  0.3795
 9461SOL    HW240017   1.821   2.152   6.786 -0.7934  0.3838 -0.7321
 9462SOL     OW40018   2.838   3.045   5.077  0.4202  0.2760 -0.2447
 9462SOL    HW140019   2.877   2.979   5.021 -1.1298  0.4502 -1.5313
 9462SOL    HW240020   2.804   2.986   5.145  0.3244  1.9791  1.2034
 9463SOL     OW40021   1.626   4.543   7.274  0.1497 -0.2054 -0.1244
 9463SOL    HW140022   1.637   4.508   7.363  1.3577 -0.8036 -0.5133
 9463SOL    HW240023   1.612   4.634   7.300 -3.2939 -0.3781 -1.4393
 9464SOL     OW40024   2.165   1.819   1.950  0.2957 -0.1094  0.1617
 9464SOL    HW140025   2.159   1.787   1.860  0.8574  0.7721 -0.1908
 9464SOL    HW240026   2.246   1.775   1.974  1.0785  0.4643 -1.4370
 9465SOL     OW40027   0.553   3.415   9.262 -0.4436  0.4833 -0.1890
 9465SOL    HW140028   0.645   3.399   9.281 -0.3190  2.1839  0.6466
 9465SOL    HW240029   0.528   3.477   9.331 -3.6421  0.9684 -1.7719
 9466SOL     OW40030   3.492   0.109   9.406 -0.0455  0.1592  0.0739
 9466SOL    HW140031   3.447   0.190   9.429  0.4587  0.9111 -1.5977
 9466SOL    HW240032   3.576   0.142   9.375  1.0376 -2.7838 -0.1129
 9467SOL     OW40033   0.576   1.126   7.884 -0.1175 -0.5419  0.4011
 9467SOL    HW140034   0.555   1.040   7.849 -1.0892 -0.8396  1.6864
 9467SOL    HW240035   0.659   1.102   7.926 -1.0088 -3.7344  0.2804
 9468SOL     OW40036   3.843   2.181   9.060 -0.4779  1.0745 -0.2102
 9468SOL    HW140037   3.933   2.214   9.050 -0.6041  1.1073 -1.2036
 9468SOL    HW240038   3.810   2.233   8.987  1.7340  0.9609 -1.3104
 9469SOL     OW40039   2.177   4.127   4.605  0.0715 -0.2705  0.2749
 9469SOL    HW140040   2.188   4.193   4.537 -0.2791 -0.0863  0.3980
 9469SOL    HW240041   2.258   4.138   4.655  1.1901 -1.4951 -1.2497
 9470SOL     OW40042   2.827   4.416   1.457  0.3263  0.6451 -0.4848
 9470SOL    HW140043   2.796   4.385   1.372  1.0841  1.2487 -0.9769
 9470SOL    HW240044   2.781   4.500   1.463 -1.0345 -0.0144 -1.7175
 9471SOL     OW40045   0.608   0.170   2.428  0.5164 -0.4444  0.1754
 9471SOL    HW140046   0.564   0.086   2.421 -1.2842  0.6388 -1.5479
 9471SOL    HW240047   0.536   0.223   2.464 -0.5727 -2.0215  0.3006
 9472SOL     OW40048   0.317   2.800  11.780  0.0355  0.3243  0.2385
 9472SOL    HW140049   0.227   2.768  11.787  0.4246 -0.2887  2.4743
 9472SOL    HW240050   0.307   2.873  11.719  0.7978  0.8781  0.7882
 9473SOL     OW40051   0.601   1.912   6.006  0.3877 -0.2367 -0.3082
 9473SOL    HW140052   0.613   1.987   5.948 -0.1998 -0.2395 -0.4334
 9473SOL    HW240053   0.671   1.929   6.070  0.5834 -3.7516  0.4195
 9474SOL     OW40054   2.898   4.553   6.948 -0.2695  0.2755 -0.1609
 9474SOL    HW140055   2.934   4.642   6.947  0.9381 -0.2213 -0.7199
 9474SOL    HW240056   2.820   4.560   6.894 -0.0276  2.3757 -0.2474
 9475SOL     OW40057   4.238   2.433  13.898 -0.2334  0.0979  0.1921
 9475SOL    HW140058   4.226   2.528  13.905  0.2114  0.2334 -0.9231
 9475SOL    HW240059   4.287   2.427  13.816 -0.8710  0.5921 -0.2211
 9476SOL     OW40060   3.929   0.554   4.660  0.3236  0.2905  0.9870
 9476SOL    HW140061   3.903   0.646   4.667  2.3094  0.8638  0.9556
 9476SOL    HW240062   3.851   0.504   4.685 -0.8671  1.3211 -0.6922
 9477SOL     OW40063   3.359   1.535  17.182  0.0735  0.2154  0.0813
 9477SOL    HW140064   3.409   1.487  17.248 -1.8606 -1.9038  0.0103
 9477SOL    HW240065   3.276   1.489  17.193  0.5057 -0.9266 -1.3716
 9478SOL     OW40066   2.142   3.622   5.596 -0.1753 -0.3952 -0.2871
 9478SOL    HW140067   2.131   3.629   5.691  0.0660 -1.3514 -0.1885
 9478SOL    HW240068   2.089   3.701   5.585 -2.6385 -2.0114 -0.0646
 9479SOL     OW40069   1.495   0.785   3.366 -0.0217  0.5301 -0.4430
 9479SOL    HW140070   1.573   0.826   3.403 -0.2820  0.1250  0.5509
 9479SOL    HW240071   1.531   0.714   3.314 -0.6492 -0.3787  0.3775
 9480SOL     OW40072   3.067   1.347  10.777  0.3418 -0.4752 -0.7797
 9480SOL    HW140073   3.089   1.258  10.805  0.0712 -0.5576 -0.8248
 9480SOL    HW240074   3.075   1.391  10.862 -0.2605 -0.4010 -0.7605
 9481SOL     OW40075   3.603   1.507  17.023  0.1747  0.0284  0.1646
 9481SOL    HW140076   3.526   1.509  17.080  0.7370 -0.1657  0.9272
 9481SOL    HW240077   3.642   1.432  17.069 -1.1732  0.4844  2.0372
 9482SOL     OW40078   2.855   2.704  14.558  0.6738 -0.0822 -0.7494
 9482SOL    HW140079   2.835   2.744  14.643 -0.6089  0.3274 -1.2512
 9482SOL    HW240080   2.792   2.746  14.500  1.2232 -1.0177 -2.0206
 9483SOL     OW40081   2.517   1.716   2.338 -0.3361 -0.1353 -0.2143
 9483SOL    HW140082   2.570   1.670   2.404 -0.7601  1.3283  1.1480
 9483SOL    HW240083   2.557   1.802   2.343 -0.9785  0.1491 -0.0096
 9484SOL     OW40084   2.803   1.487   6.882 -0.1202 -0.2755  0.4045
 9484SOL    HW140085   2.786   1.395   6.863  2.0618 -0.2386 -1.6487
 9484SOL    HW240086   2.733   1.498   6.946 -0.9118 -0.2381 -0.4729
 9485SOL     OW40087   3.121   1.770   3.528 -0.7651  0.1790 -0.0692
 9485SOL    HW140088   3.049   1.801   3.583  0.1060 -0.3730  1.3750
 9485SOL    HW240089   3.085   1.727   3.450 -0.4671 -0.9188  0.4027
 9486SOL     OW40090   1.186   3.120   2.693  0.0632 -0.4296  0.1922
 9486SOL    HW140091   1.182   3.083   2.781  0.6866 -3.5169 -1.0828
 9486SOL    HW240092   1.119   3.188   2.703 -1.5404 -1.6066 -2.3238
 9487SOL     OW40093   4.626   3.592   8.202  0.3980 -0.2655 -0.0624
 9487SOL    HW140094   4.534   3.565   8.201  0.4336 -0.3784 -0.4278
 9487SOL    HW240095   4.621   3.683   8.173  1.5852 -0.2405 -0.1842
 9488SOL     OW40096   4.325   0.060  11.099  0.4366  0.1971  0.1624
 9488SOL    HW140097   4.408   0.086  11.059  0.1174 -0.6127 -1.0052
 9488SOL    HW240098   4.298   4.730  11.039  1.8512  0.1190 -0.3782
 9489SOL     OW40099   2.820   1.742  17.287 -0.3117 -0.1128 -0.0212
 9489SOL    HW140100   2.768   1.784  17.219  1.3017 -0.9808 -1.8020
 9489SOL    HW240101   2.784   1.764  17.373 -1.5720  2.0844 -1.1071
 9490SOL     OW40102   4.607   1.431   3.399 -0.1926  0.3607  0.4720
 9490SOL    HW140103   4.551   1.452   3.324 -2.1629  0.4823  1.9601
 9490SOL    HW240104   4.677   1.492   3.375  2.6030 -3.0810  0.0430
 9491SOL     OW40105   2.857   0.691  11.550  0.5111  0.1888  0.0895
 9491SOL    HW140106   2.915   0.713  11.477  0.9315  1.4485  0.7939
 9491SOL    HW240107   2.921   0.672  11.618  2.6846  0.0074 -2.0047
 9492SOL     OW40108   2.516   0.253   2.642  0.0474 -0.6080  0.2518
 9492SOL    HW140109   2.525   0.267   2.548 -6.3611 -0.5363 -0.3436
 9492SOL    HW240110   2.425   0.226   2.650 -0.5208  1.2282 -0.1737
 9493SOL     OW40111   3.201   2.372   5.617  0.3431 -0.0309  0.0369
 9493SOL    HW140112   3.159   2.427   5.684  1.2799 -0.2730  0.8134
 9493SOL    HW240113   3.176   2.292   5.664  0.7642 -0.8864 -1.1910
 9494SOL     OW40114   1.915   1.083  15.066 -0.4565 -0.6454 -0.4158
 9494SOL    HW140115   1.888   1.002  15.110  0.5696  0.4589  2.2636
 9494SOL    HW240116   1.835   1.133  15.055 -1.1930 -1.4320  1.3611
 9495SOL     OW40117   4.457   2.405  16.915 -0.0923  0.1343  0.2407
 9495SOL    HW140118   4.525   2.344  16.944 -0.3507  0.2821  1.1681
 9495SOL    HW240119   4.423   2.430  17.001  1.1997 -0.7275  1.0121
 9496SOL     OW40120   4.354   3.606   5.395  0.2584 -0.7733  0.1053
 9496SOL    HW140121   4.431   3.601   5.452 -1.1558 -1.3716  1.9275
 9496SOL    HW240122   4.305   3.675   5.439  1.4202  0.6289 -0.7820
 9497SOL     OW40123   2.340   3.138   9.901  0.8428 -0.0955 -0.2467
 9497SOL    HW140124   2.292   3.113   9.979 -1.1799  2.5224 -0.6567
 9497SOL    HW240125   2.429   3.120   9.933  0.0111  1.0712  2.6871
 9498SOL     OW40126   2.921   4.667   2.098  0.0398 -0.3501 -0.0880
 9498SOL    HW140127   2.923   0.020   2.075 -0.4871  0.0544  1.5298
 9498SOL    HW240128   3.011   4.647   2.071 -0.3095 -0.5609 -1.1100
 9499SOL     OW40129   3.540   3.608   3.844 -0.5609 -0.1763  0.2094
 9499SOL    HW140130   3.539   3.526   3.795 -3.0705 -0.9583  1.5682
 9499SOL    HW240131   3.448   3.630   3.856 -0.1131  0.6098  2.2841
 9500SOL     OW40132   1.187   1.200   2.376  0.2619  0.4416  0.2653
 9500SOL    HW140133   1.138   1.253   2.314 -1.3375 -2.4630 -0.9539
 9500SOL    HW240134   1.193   1.118   2.327 -0.2756 -0.7848  2.2243
 9501SOL     OW40135   2.861   1.516  11.342 -0.3875  0.6961  0.0413
 9501SOL    HW140136   2.852   1.527  11.247  2.1978  1.2563 -0.1383
 9501SOL    HW240137   2.847   1.422  11.351  2.2392  0.4029  0.9638
 9502SOL     OW40138   4.044   1.470   4.929 -0.7753  0.2697 -0.0897
 9502SOL    HW140139   3.985   1.544   4.946 -0.7129  0.8116 -2.2117
 9502SOL    HW240140   3.993   1.428   4.860 -0.1904 -0.0881 -0.2943
 9503SOL     OW40141   0.703   3.694   9.932 -0.2733 -0.0035 -0.0510
 9503SOL    HW140142   0.640   3.754   9.893  0.6852  1.1581  0.1830
 9503SOL    HW240143   0.660   3.609   9.921 -0.0327 -0.3347  1.6681
 9504SOL     OW40144   3.420   2.129   4.106  0.1260  0.0574 -0.0131
 9504SOL    HW140145   3.388   2.182   4.179 -1.4926 -2.2075  0.9412
 9504SOL    HW240146   3.509   2.163   4.094  1.3433 -2.1476  2.6256
 9505SOL     OW40147   2.670   3.986  12.475  0.4489  0.4388  0.0909
 9505SOL    HW140148   2.639   4.071  12.508  0.9957  0.4055  0.7006
 9505SOL    HW240149   2.719   4.016  12.399  1.1183  1.5316  0.9334
 9506SOL     OW40150   0.724   0.702   9.320 -0.1301 -0.2670  0.7200
 9506SOL    HW140151   0.820   0.708   9.322 -0.1085 -0.8400  1.4666
 9506SOL    HW240152   0.703   0.754   9.243 -0.5269  1.0375  1.7072
 9507SOL     OW40153   2.960   4.277   6.558 -0.4649 -0.4490  0.1131
 9507SOL    HW140154   2.976   4.193   6.600 -0.8830  0.0228  1.2103
 9507SOL    HW240155   3.007   4.338   6.615 -1.4856 -0.5025  1.0144
 9508SOL     OW40156   1.320   2.214   3.142  0.5736  0.0764 -0.1427
 9508SOL    HW140157   1.339   2.287   3.083  1.8899 -0.5466 -0.4962
 9508SOL    HW240158   1.386   2.231   3.209  0.0766 -2.6401  1.0139
 9509SOL     OW40159   4.717   2.322   8.922  0.8207  0.2705 -0.1664
 9509SOL    HW140160   0.066   2.291   8.910  1.7858  3.0003 -0.0006
 9509SOL    HW240161   4.735   2.409   8.957  1.4541 -0.1433  0.5118
 9510SOL     OW40162   3.559   2.141   2.263  0.0902  0.1243 -0.1702
 9510SOL    HW140163   3.535   2.164   2.353  1.5534  1.0846 -0.0318
 9510SOL    HW240164   3.480   2.093   2.237 -0.6445  1.9968 -1.3963
 9511SOL     OW40165   3.966   1.999   9.395 -1.0602  0.8530  0.1096
 9511SOL    HW140166   4.042   1.950   9.362 -2.6065 -1.4245 -0.1040
 9511SOL    HW240167   4.005   2.044   9.469  1.4389  1.3439 -1.4943
 9512SOL     OW40168   1.983   2.740  17.412  0.0660  1.0551 -0.3030
 9512SOL    HW140169   1.968   2.745  17.317  1.4194  0.8097 -0.5296
 9512SOL    HW240170   2.065   2.790  17.420  1.2025 -1.3205  2.7437
 9513SOL     OW40171   1.046   2.458   5.819  0.2012 -0.2249  0.5721
 9513SOL    HW140172   1.058   2.471   5.913  0.8719  2.4386  0.1333
 9513SOL    HW240173   0.954   2.476   5.798  0.1297 -0.5572  0.6152
 9514SOL     OW40174   0.172   2.320  17.464 -0.2431  0.4178  0.1656
 9514SOL    HW140175   0.150   2.231  17.439 -0.8601  0.1028  1.8049
 9514SOL    HW240176   0.267   2.318  17.458 -0.2605  1.9801 -0.5766
 9515SOL     OW40177   3.221   4.712   6.056 -0.8585 -0.2416  0.0061
 9515SOL    HW140178   3.315   4.704   6.068 -0.8623 -2.8968 -1.7924
 9515SOL    HW240179   3.197   4.639   6.112 -1.9019  0.0611 -0.0360
 9516SOL     OW40180   4.203   2.413   5.694 -0.8009  0.1029  0.5557
 9516SOL    HW140181   4.282   2.450   5.732 -1.6459  1.1695  1.2780
 9516SOL    HW240182   4.219   2.410   5.600  2.3928 -0.2744  1.1011
 9517SOL     OW40183   0.975   3.389  11.810  0.1107  0.1516  0.2843
 9517SOL    HW140184   0.933   3.457  11.862  0.2570  0.6917 -0.3131
 9517SOL    HW240185   0.914   3.317  11.792 -0.7329  0.1826  2.9574
 9518SOL     OW40186   2.639   1.154   2.377 -0.3224  0.1239 -0.5139
 9518SOL    HW140187   2.706   1.194   2.432 -0.9758 -2.3845  2.1483
 9518SOL    HW240188   2.675   1.068   2.355  1.9657  1.4104 -1.7524
 9519SOL     OW40189   0.805   0.655  16.987  0.6187  0.1981 -0.1352
 9519SOL    HW140190   0.722   0.615  17.012  0.2550  0.1201 -1.4585
 9519SOL    HW240191   0.832   0.585  16.927 -1.0469  1.5790 -2.4971
 9520SOL     OW40192   0.746   2.456   6.224  0.0286  0.4748  0.0541
 9520SOL    HW140193   0.786   2.372   6.204  0.2968  0.5090  0.4298
 9520SOL    HW240194   0.746   2.496   6.137  0.3594  0.4466  0.0400
 9521SOL     OW40195   1.774   1.956  14.305 -0.0623  0.2158  0.0788
 9521SOL    HW140196   1.789   1.862  14.296  0.4676  0.4722 -1.5959
 9521SOL    HW240197   1.823   1.998  14.235 -1.8606  2.3806  0.1003
 9522SOL     OW40198   4.544   2.510   2.365  0.0276 -0.7649  0.1682
 9522SOL    HW140199   4.580   2.493   2.278 -0.3116  1.1486 -0.3323
 9522SOL    HW240200   4.587   2.593   2.385 -1.1126  0.2290 -1.5190
 9523SOL     OW40201   3.543   2.096   2.579 -0.2323  0.0963  0.2448
 9523SOL    HW140202   3.615   2.067   2.635 -0.5295  0.2396  0.6992
 9523SOL    HW240203   3.485   2.134   2.644 -0.8961  0.4357 -0.5466
 9524SOL     OW40204   4.391   1.753   9.072 -0.3347  0.1536 -0.0097
 9524SOL    HW140205   4.420   1.836   9.110 -0.4911  0.0279  0.3818
 9524SOL    HW240206   4.308   1.782   9.034  0.2578  1.0610 -0.6155
 9525SOL     OW40207   4.554   2.793  11.903 -0.1458  0.4923  0.0616
 9525SOL    HW140208   4.632   2.842  11.877 -0.7901  1.1758 -0.5590
 9525SOL    HW240209   4.599   2.728  11.959 -2.0700  1.4240  2.7205
 9526SOL     OW40210   0.275   2.905   7.831 -0.3005  0.2278 -0.2868
 9526SOL    HW140211   0.254   2.877   7.742  1.7372 -0.6326 -0.5020
 9526SOL    HW240212   0.348   2.848   7.853 -1.0610 -0.5577  0.2132
 9527SOL     OW40213   2.085   2.976   2.150 -0.5859  0.9833  0.4162
 9527SOL    HW140214   2.044   2.938   2.228  0.6621  0.4907  0.8533
 9527SOL    HW240215   2.036   2.926   2.085  0.9656 -1.7473  1.3226
 9528SOL     OW40216   1.715   2.930   8.815 -0.1599 -0.2403  0.2410
 9528SOL    HW140217   1.685   2.899   8.901 -0.2032  1.1644  0.7320
 9528SOL    HW240218   1.686   2.856   8.761 -1.5638 -2.1387  3.5668
 9529SOL     OW40219   4.531   3.377  14.902  0.1983  0.2440  0.2074
 9529SOL    HW140220   4.453   3.322  14.898 -0.4491  1.2444 -0.9489
 9529SOL    HW240221   4.503   3.444  14.840 -1.3299  0.5611  1.2677
 9530SOL     OW40222   2.744   2.877   5.274  0.5720 -0.8616 -0.1499
 9530SOL    HW140223   2.757   2.783   5.270  0.3847 -0.8079 -1.8435
 9530SOL    HW240224   2.803   2.896   5.348 -1.1559  0.0464  1.0123
 9531SOL     OW40225   3.094   2.394   0.341 -0.0968 -0.0089 -0.4649
 9531SOL    HW140226   3.142   2.363   0.264  1.5529 -0.9598  0.9576
 9531SOL    HW240227   3.125   2.483   0.358 -0.8769  0.1681  0.0471
 9532SOL     OW40228   3.276   2.852   5.407 -0.2906  0.1653 -0.0684
 9532SOL    HW140229   3.301   2.772   5.360  1.5585  2.0148 -2.2439
 9532SOL    HW240230   3.359   2.900   5.415 -0.8123  1.0265  0.1566
 9533SOL     OW40231   3.241   2.999   0.161 -0.1236  0.3330 -0.2464
 9533SOL    HW140232   3.289   2.917   0.150  1.3601  1.4630 -2.1370
 9533SOL    HW240233   3.154   2.978   0.126 -1.8688  2.6637  2.6541
 9534SOL     OW40234   0.731   3.683   3.110 -0.1447 -0.0955  0.3271
 9534SOL    HW140235   0.720   3.775   3.086  0.1477  0.2778  1.5877
 9534SOL    HW240236   0.766   3.640   3.033 -0.6175  0.9153 -0.4498
 9535SOL     OW40237   2.434   1.508   7.246  0.5992 -0.2710  0.0367
 9535SOL    HW140238   2.345   1.545   7.242  1.4471  1.7628  0.0170
 9535SOL    HW240239   2.440   1.480   7.338 -0.4570 -2.5622 -0.5883
 9536SOL     OW40240   2.244   4.581   5.105  0.5411  0.1072  0.2928
 9536SOL    HW140241   2.323   4.532   5.127 -0.8219 -2.4426 -0.5588
 9536SOL    HW240242   2.237   4.626   5.189  0.3695 -1.4435  1.1075
 9537SOL     OW40243   1.817   4.391  10.997 -0.9651 -0.2140 -0.4564
 9537SOL    HW140244   1.748   4.406  11.061  1.5480  1.9312  1.7525
 9537SOL    HW240245   1.834   4.299  11.014 -0.2223  0.3688  1.9973
 9538SOL     OW40246   0.136   4.245   6.097 -0.8575 -0.0600  0.1555
 9538SOL    HW140247   0.210   4.205   6.143  0.1701  0.3945 -1.1244
 9538SOL    HW240248   0.061   4.210   6.146 -1.2721 -1.6078 -1.5873
 9539SOL     OW40249   4.230   0.536   2.206 -0.2821  0.0363  0.6724
 9539SOL    HW140250   4.267   0.503   2.124 -0.7868 -1.5599  1.0786
 9539SOL    HW240251   4.313   0.557   2.249 -0.3698 -2.6192  2.1855
 9540SOL     OW40252   0.284   2.215   0.039  0.0042  0.4056 -0.4158
 9540SOL    HW140253   0.285   2.283   0.107  0.3404  1.4933 -1.4991
 9540SOL    HW240254   0.206   2.164   0.060  0.8945 -0.6479  0.2899
 9541SOL     OW40255   3.497   0.446  12.816 -0.1790 -0.4131 -0.8909
 9541SOL    HW140256   3.402   0.452  12.829  0.1569 -0.9793  1.8221
 9541SOL    HW240257   3.517   0.364  12.861  1.0422  0.5932  0.4023
 9542SOL     OW40258   2.066   2.752  15.133 -0.3452  0.0454 -0.5334
 9542SOL    HW140259   1.980   2.715  15.113 -0.0527 -0.7905 -0.2455
 9542SOL    HW240260   2.033   2.841  15.121 -2.6116 -0.4735  1.7861
 9543SOL     OW40261   3.650   4.626  13.084  0.3610 -0.8754  0.4356
 9543SOL    HW140262   3.612   4.584  13.007  0.8704 -1.0894  0.3028
 9543SOL    HW240263   3.614   4.715  13.080  0.5539 -0.8098  0.1430
 9544SOL     OW40264   3.346   2.386   3.705  0.3805  0.8150  0.6176
 9544SOL    HW140265   3.290   2.458   3.678 -0.1474 -0.4116 -1.6105
 9544SOL    HW240266   3.322   2.369   3.796 -0.1596 -1.0345  0.1347
 9545SOL     OW40267   4.536   1.306   2.633 -0.0514  0.2101 -0.0168
 9545SOL    HW140268   4.608   1.305   2.697 -0.2199  1.5495  0.2001
 9545SOL    HW240269   4.526   1.213   2.616  2.7045 -0.2722  0.9577
 9546SOL     OW40270   1.609   0.720   0.469 -0.6057  0.0783 -0.0641
 9546SOL    HW140271   1.617   0.624   0.466  0.8468  0.2318 -1.2394
 9546SOL    HW240272   1.690   0.743   0.423  0.5670 -0.4198  1.7798
 9547SOL     OW40273   3.587   0.461   5.954  0.1316 -0.1713 -0.2513
 9547SOL    HW140274   3.675   0.424   5.944  0.0892 -0.4423  0.3681
 9547SOL    HW240275   3.597   0.519   6.029 -0.2235 -0.4913  0.0468
 9548SOL     OW40276   1.933   0.425   1.125 -0.4002  0.4954  0.0342
 9548SOL    HW140277   1.895   0.356   1.071 -0.4100  0.8116 -0.3631
 9548SOL    HW240278   1.932   0.500   1.065  0.1359  0.4337 -0.0535
 9549SOL     OW40279   1.869   2.640   0.529  0.0686 -0.4492  0.6029
 9549SOL    HW140280   1.836   2.645   0.619 -0.9222 -0.0990  0.2197
 9549SOL    HW240281   1.961   2.619   0.543 -0.1506 -1.8879 -0.1880
 9550SOL     OW40282   0.530   0.519   9.263  0.1542 -0.2069 -0.2017
 9550SOL    HW140283   0.599   0.583   9.276 -0.0649  0.1497 -0.8057
 9550SOL    HW240284   0.456   0.559   9.309  1.1805  1.1697  0.2421
 9551SOL     OW40285   3.348   2.681   2.498 -0.6415  0.4800  0.2843
 9551SOL    HW140286   3.354   2.721   2.585  0.6134  0.4842  0.1884
 9551SOL    HW240287   3.274   2.726   2.456 -1.9509 -1.0777  0.9148
 9552SOL     OW40288   1.517   4.546   4.624  0.3356  0.1355  0.2448
 9552SOL    HW140289   1.452   4.594   4.573  0.8812 -0.2668 -0.8279
 9552SOL    HW240290   1.463   4.469   4.641  2.0504 -1.3895 -1.2975
 9553SOL     OW40291   0.659   2.542   5.973 -0.0486 -0.1499 -0.2609
 9553SOL    HW140292   0.698   2.627   5.956 -0.5410  0.0021 -0.6272
 9553SOL    HW240293   0.581   2.543   5.918 -0.9026 -1.1362  0.9346
 9554SOL     OW40294   1.558   0.660   8.084  0.0632 -0.0162  0.6804
 9554SOL    HW140295   1.619   0.586   8.086 -0.8659 -0.8053 -0.6557
 9554SOL    HW240296   1.475   0.614   8.092 -0.3365  0.6226  0.2163
 9555SOL     OW40297   4.203   0.029   8.315  0.1269  0.1082 -0.1619
 9555SOL    HW140298   4.165   4.681   8.315 -0.7434  0.4800  0.8462
 9555SOL    HW240299   4.294   0.003   8.331  0.2794 -0.2077 -1.5475
 9556SOL     OW40300   0.762   3.209   6.029 -0.3415 -0.2329  0.4827
 9556SOL    HW140301   0.764   3.182   6.121 -1.6948 -3.5925 -0.4543
 9556SOL    HW240302   0.826   3.158   5.979  0.6180  1.9533 -0.5034
 9557SOL     OW40303   4.679   3.035   5.306  0.2368  0.9469  0.3390
 9557SOL    HW140304   4.660   3.114   5.357 -2.0044  2.6827 -3.1479
 9557SOL    HW240305   0.013   3.058   5.249 -0.0106 -2.4153 -1.2925
 9558SOL     OW40306   4.565   4.185   7.353  0.5190  0.2141  0.0675
 9558SOL    HW140307   4.591   4.240   7.427  0.9850 -1.2097  0.9782
 9558SOL    HW240308   4.520   4.243   7.293 -1.4784 -2.8338 -1.3790
 9559SOL     OW40309   1.126   2.038   8.927  0.4573  0.0982  0.3342
 9559SOL    HW140310   1.077   2.019   9.007 -0.3457  3.7257  0.6907
 9559SOL    HW240311   1.095   1.968   8.870  1.2447  0.9241 -1.1088
 9560SOL     OW40312   1.101   3.001  16.964  0.4000 -0.1073  0.0187
 9560SOL    HW140313   1.116   2.907  16.974 -0.1562 -0.2030 -0.0348
 9560SOL    HW240314   1.190   3.026  16.990  1.0378 -2.2581 -0.0880
 9561SOL     OW40315   4.064   1.508   9.984  0.9623  0.0873 -0.4702
 9561SOL    HW140316   4.119   1.553   9.920  0.6659 -0.0860 -0.8435
 9561SOL    HW240317   4.134   1.459  10.028  0.4912 -1.9670 -2.0078
 9562SOL     OW40318   2.695   3.808   8.293  0.1117  0.1579 -0.4505
 9562SOL    HW140319   2.605   3.838   8.286  0.0955  0.0471 -0.6968
 9562SOL    HW240320   2.699   3.748   8.367 -0.6788 -0.5204 -0.9645
 9563SOL     OW40321   4.498   3.334   7.524  0.0735 -0.2241  0.1973
 9563SOL    HW140322   4.589   3.364   7.532  0.3965 -0.5628 -2.1111
 9563SOL    HW240323   4.460   3.364   7.606  0.9031  0.5490  0.3001
 9564SOL     OW40324   3.723   1.459   6.631 -0.2800  0.1261 -0.3947
 9564SOL    HW140325   3.649   1.399   6.620 -0.4174  0.2595 -0.2028
 9564SOL    HW240326   3.780   1.433   6.560  0.5515 -0.5017  0.5029
 9565SOL     OW40327   3.208   4.379   9.967  0.1998  0.6239  0.0380
 9565SOL    HW140328   3.190   4.340   9.882 -2.4748  1.0534  0.4063
 9565SOL    HW240329   3.141   4.339  10.023  0.9394  1.8268  1.7716
 9566SOL     OW40330   0.284   3.706   5.876  0.5149 -0.1614 -0.6278
 9566SOL    HW140331   0.310   3.639   5.939 -0.4082  1.1294  1.1463
 9566SOL    HW240332   0.370   3.743   5.858  0.1354  1.2672  0.4783
 9567SOL     OW40333   2.046   0.959   4.574  0.0600  0.1003 -0.3591
 9567SOL    HW140334   1.998   1.033   4.535 -2.6512 -1.0312  0.8079
 9567SOL    HW240335   1.972   0.899   4.587 -0.1406  0.0607 -1.6497
 9568SOL     OW40336   3.924   2.899   2.438  0.0017  0.2006  0.4219
 9568SOL    HW140337   3.915   2.923   2.345 -0.1231  2.7282  1.0931
 9568SOL    HW240338   3.953   2.808   2.439  0.3938  0.3131 -0.4887
 9569SOL     OW40339   0.985   4.152  15.661  0.1242 -0.3613  0.2474
 9569SOL    HW140340   1.037   4.232  15.652  0.8204 -0.8116  0.2257
 9569SOL    HW240341   0.911   4.184  15.609 -0.5828 -2.8099 -0.2185
 9570SOL     OW40342   1.729   2.757   1.423  0.4773 -0.2481  0.0440
 9570SOL    HW140343   1.762   2.781   1.336 -0.0342  0.9223  0.1698
 9570SOL    HW240344   1.643   2.721   1.404  1.9478 -1.9938 -3.2567
 9571SOL     OW40345   3.527   2.831   6.223  0.5059  0.1891 -0.3699
 9571SOL    HW140346   3.563   2.769   6.286  4.1074  1.9721 -0.6978
 9571SOL    HW240347   3.606   2.862   6.181  0.5063  1.0792  0.2762
   4.74011   4.74011  17.75803
