Membrane in water
40347
    1TMC1    C1    1   1.485   4.387  11.454  1.0358  0.1089  0.6744
    1TMC1    C2    2   1.511   4.448  11.577 -0.3697  0.0591 -0.3589
    1TMC1    C3    3   1.572   4.574  11.570 -0.1750  0.5537  0.8492
    1TMC1    C4    4   1.527   4.436  11.334  0.7348  0.2064  0.5558
    1TMC1    C5    5   1.603   4.553  11.334 -0.9603  0.3522 -0.8575
    1TMC1    C6    6   1.623   4.623  11.452  0.8980 -0.1997  0.3301
    1TMC1     C    7   1.406   4.269  11.454  0.1248  0.0631 -0.5333
    1TMC1     O    8   1.328   4.258  11.547  0.0067 -0.6587 -0.2640
    1TMC1     H    9   1.475   4.403  11.669  1.9821 -0.5907  0.2226
    1TMC1    H1   10   1.494   4.409  11.235 -0.0010 -0.0758  0.8776
    1TMC1    H2   11   1.682   4.714  11.446  0.4415  0.1161  0.6720
    1TMC1    C7   12   1.609   4.634  11.214  0.0933  0.6131  0.1303
    1TMC1    C8   13   1.619   4.637  11.690  1.1227  0.3132 -0.3555
    1TMC1    O1   14   1.625   0.017  11.218  0.2359 -0.0702 -0.2058
    1TMC1    O2   15   1.701   4.728  11.685  0.0631 -0.0685  0.2391
    1TMC1    O3   16   1.632   4.560  11.105 -0.1571 -0.2095 -0.3948
    1TMC1    H3   17   1.621   4.464  11.121  1.0969 -0.8117 -3.1187
    1TMC1    O5   18   1.544   4.604  11.800 -0.0998 -0.5905 -0.8831
    1TMC1    H5   19   1.482   4.528  11.790  0.3201 -1.1077  0.4081
    2MPD2     C   20   1.185   3.852  11.259 -0.3397 -0.2597  0.0051
    2MPD2    C1   21   1.162   3.917  11.374 -0.2758  0.1974  0.4059
    2MPD2    C2   22   1.245   4.020  11.412 -0.3737 -0.5959 -0.1274
    2MPD2    C3   23   1.343   4.077  11.327  0.0001  0.1412 -0.0480
    2MPD2    C4   24   1.360   4.004  11.211  0.2207 -0.2448 -0.0390
    2MPD2    C5   25   1.284   3.895  11.179 -0.0769 -0.4534 -0.3415
    2MPD2     H   26   1.218   4.075  11.501  1.5845 -0.2434  0.2497
    2MPD2    H1   27   1.430   4.046  11.139  0.7064 -0.0775  0.5273
    2MPD2    H2   28   1.117   3.779  11.216 -0.4364  0.3865 -0.9515
    2MPD2    H3   29   1.297   3.839  11.087 -2.6478 -1.6617  0.0508
    2MPD2     N   30   1.422   4.192  11.348  0.2959  0.2064  0.0321
    2MPD2    H5   31   1.496   4.223  11.287 -0.2191  2.6237  0.6066
    2MPD2    N1   32   1.053   3.884  11.463 -0.5730 -0.0628  0.2178
    2MPD2    H7   33   1.059   3.938  11.549  0.8965 -0.0174  0.0892
    3TMC1    C1   34   4.441   4.390  10.620 -1.5791  0.3332 -0.3540
    3TMC1    C2   35   4.423   4.525  10.613  0.9293  0.4225  0.3182
    3TMC1    C3   36   4.375   4.572  10.493  0.2957  0.5723  0.1007
    3TMC1    C4   37   4.427   4.303  10.514  0.0178 -0.0344  0.2172
    3TMC1    C5   38   4.385   4.356  10.394 -0.4939 -0.3617 -0.0667
    3TMC1    C6   39   4.355   4.491  10.386  0.0309  0.4572  0.3479
    3TMC1     C   40   4.472   4.334  10.755 -0.0661  1.0837 -0.0174
    3TMC1     O   41   4.457   4.215  10.771  0.0649 -0.6029  0.2212
    3TMC1     H   42   4.414   4.600  10.690 -0.2774  0.8371 -0.2291
    3TMC1    H1   43   4.470   4.204  10.519  2.8998  1.1412 -1.3131
    3TMC1    H2   44   4.318   4.537  10.295 -1.2767 -0.4066  0.4500
    3TMC1    C7   45   4.397   4.281  10.272 -0.3496 -0.7479 -0.7114
    3TMC1    C8   46   4.302   4.701  10.514 -0.7475 -0.4315 -0.0780
    3TMC1    O1   47   4.407   4.342  10.163 -0.2488  0.1358  0.1138
    3TMC1    O2   48   4.231   4.721  10.610  0.3688 -0.3712 -0.1573
    3TMC1    O3   49   4.310   4.184  10.291 -0.2087 -0.5483  0.4104
    3TMC1    H3   50   4.296   4.161  10.385  0.8643  0.5038  0.8363
    3TMC1    O5   51   4.271   0.010  10.389  0.1059 -0.4332 -0.0010
    3TMC1    H5   52   4.334   4.710  10.322 -0.5082 -0.1733 -0.7160
    4MPD2     C   53   4.620   4.369  11.248  0.2467  0.7905  0.2072
    4MPD2    C1   54   4.631   4.494  11.187  0.2396  0.1593 -0.3728
    4MPD2    C2   55   4.593   4.510  11.058  0.3394  0.2959  0.0581
    4MPD2    C3   56   4.539   4.403  10.987 -0.0914 -0.3642  0.0985
    4MPD2    C4   57   4.514   4.284  11.052  0.5899  1.1341 -0.4548
    4MPD2    C5   58   4.557   4.268  11.181 -0.8185  0.3867 -0.0878
    4MPD2     H   59   4.608   4.601  11.001 -4.1369 -0.6404 -2.5825
    4MPD2    H1   60   4.454   4.207  11.004 -1.0009  3.2512 -1.8914
    4MPD2    H2   61   4.650   4.347  11.350  2.0055  0.3363 -0.3948
    4MPD2    H3   62   4.541   4.178  11.240  1.9623 -0.7704 -1.1112
    4MPD2     N   63   4.513   4.425  10.848 -0.4315 -0.1463 -0.5208
    4MPD2    H5   64   4.534   4.521  10.820  1.8693  0.2159  2.4531
    4MPD2    N1   65   4.697   4.602  11.252 -0.1407 -0.1158 -0.7912
    4MPD2    H7   66   4.699   4.690  11.202  1.3810  2.1788  3.3060
    5TCq1    O1   67   1.700   1.449  11.799 -0.2270 -0.3614 -0.0454
    5TCq1    C1   68   1.704   1.443  11.663  0.0083  0.6678 -0.2092
    5TCq1    O2   69   1.786   1.369  11.609 -0.3794 -0.0967 -0.0390
    5TCq1    C2   70   1.586   1.501  11.601  0.1802  0.5018 -0.4726
    5TCq1    C3   71   1.521   1.612  11.648  0.1930  0.3650 -0.0692
    5TCq1    C4   72   1.412   1.659  11.580  0.9203  0.6427  0.8821
    5TCq1    C5   73   1.368   1.599  11.461  0.1275 -0.6656  0.0877
    5TCq1    C6   74   1.445   1.497  11.412 -0.0922 -0.4002  0.5548
    5TCq1    C7   75   1.556   1.447  11.483 -0.5176  0.3606 -0.2221
    5TCq1    C8   76   1.403   1.425  11.292  0.3023 -0.0181  0.8601
    5TCq1    O4   77   1.472   1.327  11.263  0.5388 -0.7622 -0.0903
    5TCq1    C9   78   1.322   1.760  11.636  0.2869  0.3072  0.8913
    5TCq1    O5   79   1.366   1.825  11.733 -0.4423  0.2605 -0.5777
    5TCq1    O6   80   1.237   1.800  11.554  0.0739 -0.0420  0.9862
    5TCq1    H1   81   1.606   1.467  11.821 -0.1120  0.7627 -0.4216
    5TCq1    H2   82   1.542   1.646  11.749  0.9539 -0.9804  0.2202
    5TCq1    H3   83   1.276   1.636  11.417  1.9254  1.2182 -2.0630
    5TCq1    H4   84   1.609   1.354  11.465 -2.4078 -1.2611  2.5445
    6MPD2     C   85   1.172   1.549  11.025 -0.3952 -0.2109 -1.3403
    6MPD2    C1   86   1.268   1.464  11.082  0.2196 -0.5502 -0.9899
    6MPD2    C2   87   1.315   1.362  11.005  0.3064  0.2434  0.3741
    6MPD2    C3   88   1.274   1.332  10.874  0.1635 -0.1915 -0.1906
    6MPD2    C4   89   1.183   1.419  10.819  0.8352 -0.0750 -0.4571
    6MPD2    C5   90   1.132   1.521  10.898  0.0800 -0.4366 -0.4544
    6MPD2     H   91   1.394   1.297  11.041  1.0967  0.8232 -0.3180
    6MPD2    H1   92   1.157   1.401  10.715  0.0941 -0.9488 -0.1169
    6MPD2    H2   93   1.134   1.635  11.079  3.2939  0.9907 -0.6070
    6MPD2    H3   94   1.055   1.581  10.851  1.5389  0.0748 -2.1786
    6MPD2     N   95   1.329   1.214  10.810  0.6157  0.2616 -0.0335
    6MPD2    H5   96   1.383   1.150  10.868 -0.0809 -0.5851 -0.3317
    6MPD2    N1   97   1.309   1.497  11.214 -0.0915 -0.2485 -0.2697
    6MPD2    H7   98   1.270   1.581  11.256 -1.7318 -0.9832 -0.3144
    7TCq1    O1   99   3.133   1.114  13.584  0.3340 -0.5125  0.0395
    7TCq1    C1  100   3.182   1.233  13.577 -0.5484 -0.2916  0.2772
    7TCq1    O2  101   3.136   1.335  13.626  0.4682 -0.1443  0.1673
    7TCq1    C2  102   3.327   1.225  13.550 -0.5501 -0.2591  0.3933
    7TCq1    C3  103   3.399   1.344  13.558 -0.0168 -0.6972 -0.2372
    7TCq1    C4  104   3.539   1.346  13.543 -0.3267  0.4140  0.2747
    7TCq1    C5  105   3.610   1.226  13.533  0.3128 -0.4565  0.3913
    7TCq1    C6  106   3.534   1.112  13.540  0.9543 -0.1854  0.4249
    7TCq1    C7  107   3.397   1.105  13.552  0.5152  0.6134  0.1888
    7TCq1    C8  108   3.605   0.987  13.536 -0.4522 -0.4833 -0.6460
    7TCq1    O4  109   3.538   0.890  13.510  0.0604  0.0358 -0.2667
    7TCq1    C9  110   3.613   1.472  13.529 -0.5677 -0.2755  0.2614
    7TCq1    O5  111   3.729   1.456  13.479  0.6867 -0.1746 -1.1863
    7TCq1    O6  112   3.571   1.566  13.603  0.3051  0.4886 -0.5505
    7TCq1    H1  113   3.172   1.048  13.522 -0.0040 -0.0536 -0.6601
    7TCq1    H2  114   3.353   1.440  13.575  2.0648  0.5625 -1.6235
    7TCq1    H3  115   3.713   1.242  13.503 -0.2238 -0.8876 -1.6473
    7TCq1    H4  116   3.342   1.011  13.559  0.7041  0.3706 -1.6044
    8MPD2     C  117   3.995   0.677  13.618 -0.1478  0.2537 -0.3794
    8MPD2    C1  118   3.898   0.673  13.514  0.0133  0.2383 -0.0712
    8MPD2    C2  119   3.806   0.778  13.496 -0.0231  0.3193  0.2640
    8MPD2    C3  120   3.832   0.893  13.571 -0.1806  0.3497 -0.5203
    8MPD2    C4  121   3.936   0.901  13.662  0.3244  0.2318  0.0507
    8MPD2    C5  122   4.001   0.791  13.693  0.5390 -0.4245  0.6526
    8MPD2     H  123   3.717   0.779  13.434  0.9409 -0.3859 -1.1183
    8MPD2    H1  124   3.941   0.983  13.732  2.8508  1.8934 -2.0937
    8MPD2    H2  125   4.063   0.598  13.644  1.1942  1.0091 -1.5945
    8MPD2    H3  126   4.079   0.807  13.767  1.0587 -0.4546  0.1071
    8MPD2     N  127   3.738   0.997  13.582  0.0243 -0.0847  0.6871
    8MPD2    H5  128   3.762   1.089  13.618  0.0808 -0.3357  1.3019
    8MPD2    N1  129   3.870   0.562  13.435  0.8958 -0.3669 -0.0958
    8MPD2    H7  130   3.889   0.475  13.484 -2.4549 -1.1054 -0.0804
    9TMC1    C1  131   1.120   4.409  11.201  1.0041  0.5798 -0.1238
    9TMC1    C2  132   1.018   4.348  11.267  0.1170 -0.3526 -0.2442
    9TMC1    C3  133   0.980   4.230  11.224  1.0551 -0.2090  0.2514
    9TMC1    C4  134   1.182   4.358  11.086  0.1766  0.7109  0.9199
    9TMC1    C5  135   1.143   4.237  11.054  0.4331  0.8873 -0.8052
    9TMC1    C6  136   1.036   4.176  11.114 -0.5471  0.7459 -0.1479
    9TMC1     C  137   1.188   4.519  11.266  0.4743  0.0736  0.4903
    9TMC1     O  138   1.274   4.572  11.196 -0.4493  0.7523  0.1284
    9TMC1     H  139   0.972   4.394  11.354  0.2034  1.0473 -0.9465
    9TMC1    H1  140   1.263   4.409  11.034 -0.8882  0.6744 -0.7938
    9TMC1    H2  141   0.984   4.088  11.076  0.1729 -0.1679  1.0097
    9TMC1    C7  142   1.169   4.199  10.916 -0.0213  0.8690 -0.3491
    9TMC1    C8  143   0.895   4.135  11.299 -0.6276  0.1642  0.1716
    9TMC1    O1  144   1.206   4.285  10.837  0.1563  0.5618  0.1522
    9TMC1    O2  145   0.840   4.035  11.251 -0.2851  0.3743  0.0571
    9TMC1    O3  146   1.174   4.073  10.890 -0.1546 -0.1940  0.7142
    9TMC1    H3  147   1.139   4.014  10.960  0.1195 -1.7928 -0.5027
    9TMC1    O5  148   0.907   4.163  11.429 -0.5563  0.2084 -0.3499
    9TMC1    H5  149   0.961   4.238  11.462  0.7817 -1.6709  1.7505
   10MPD2     C  150   1.304   0.011  11.437 -0.4120  0.3083 -0.1854
   10MPD2    C1  151   1.218   4.644  11.481  0.1582  0.5270 -0.0686
   10MPD2    C2  152   1.190   4.644  11.614  0.0153 -0.1241  0.3803
   10MPD2    C3  153   1.254   0.003  11.697 -0.1611  0.2871  0.2334
   10MPD2    C4  154   1.335   0.095  11.655 -0.7777  0.1049 -0.4728
   10MPD2    C5  155   1.357   0.102  11.520  0.2435  0.3822  0.1593
   10MPD2     H  156   1.135   4.563  11.660  2.1783 -1.5295  0.5110
   10MPD2    H1  157   1.386   0.164  11.722 -0.4389 -0.8632  0.2740
   10MPD2    H2  158   1.336   0.015  11.333 -2.2472  2.3361 -0.6679
   10MPD2    H3  159   1.420   0.179  11.477 -1.2246  1.5867  0.1443
   10MPD2     N  160   1.244   4.722  11.839 -0.5861 -0.5891  0.8356
   10MPD2    H5  161   1.306   0.051  11.889 -0.6948 -0.9516  1.4260
   10MPD2    N1  162   1.146   4.558  11.394  0.2937  0.2502  0.1283
   10MPD2    H7  163   1.069   4.500  11.427  0.0189  1.2223  1.2097
   11TCq1    O1  164   1.708   4.406  13.867  0.1264 -0.5560 -0.4992
   11TCq1    C1  165   1.577   4.411  13.832 -0.1446  0.0976 -0.0154
   11TCq1    O2  166   1.500   4.508  13.830 -0.1556  0.2334 -0.8517
   11TCq1    C2  167   1.535   4.278  13.788  0.2316 -0.1075 -0.3531
   11TCq1    C3  168   1.418   4.286  13.719  0.5317  0.4763  0.2119
   11TCq1    C4  169   1.357   4.173  13.672  0.8858 -0.1181  0.5749
   11TCq1    C5  170   1.418   4.059  13.707  0.1638 -0.0651 -0.1649
   11TCq1    C6  171   1.526   4.049  13.789 -0.5005  0.1867  0.1034
   11TCq1    C7  172   1.593   4.158  13.826  0.1041  0.9435 -0.1120
   11TCq1    C8  173   1.585   3.919  13.816 -0.0086 -0.5892  0.1579
   11TCq1    O4  174   1.700   3.929  13.861  0.4758  0.1492  0.2795
   11TCq1    C9  175   1.234   4.188  13.597  0.4506  0.4693  0.3639
   11TCq1    O5  176   1.156   4.091  13.587  0.0788  0.5354  0.8600
   11TCq1    O6  177   1.231   4.297  13.527  0.1293 -0.0412 -0.3314
   11TCq1    H1  178   1.740   4.491  13.904  3.4097 -2.2735  0.5778
   11TCq1    H2  179   1.370   4.382  13.708 -0.2552  0.3635  2.5210
   11TCq1    H3  180   1.385   3.971  13.654 -1.1606  0.6536 -0.5407
   11TCq1    H4  181   1.684   4.159  13.884  0.6348  0.7587 -0.9403
   12MPD2     C  182   1.669   3.641  13.841 -0.2219  0.2403  0.1029
   12MPD2    C1  183   1.544   3.678  13.797  0.1037 -0.5773  0.1712
   12MPD2    C2  184   1.445   3.576  13.786 -0.1892 -0.4432  0.2312
   12MPD2    C3  185   1.481   3.450  13.802 -0.3121 -0.7345  0.0423
   12MPD2    C4  186   1.612   3.418  13.837  0.4235  0.1344 -0.5554
   12MPD2    C5  187   1.711   3.515  13.847 -0.4682  0.3874  0.1506
   12MPD2     H  188   1.345   3.597  13.749 -0.1002 -1.7085 -0.7486
   12MPD2    H1  189   1.645   3.315  13.846 -3.3847 -0.8079  2.7937
   12MPD2    H2  190   1.746   3.716  13.856  0.0894 -0.1987  0.6884
   12MPD2    H3  191   1.808   3.478  13.879 -0.5462 -0.5203 -0.6842
   12MPD2     N  192   1.401   3.336  13.792 -0.5276 -0.0132 -0.0065
   12MPD2    H5  193   1.446   3.248  13.812 -0.6377  0.2702  1.5390
   12MPD2    N1  194   1.501   3.816  13.792 -0.0251 -0.5404 -0.3569
   12MPD2    H7  195   1.407   3.837  13.759  0.8730 -1.0171 -3.2570
   13TCq1    O1  196   1.147   3.770  10.317 -0.1401 -0.1522 -0.6169
   13TCq1    C1  197   1.075   3.704  10.404  0.4980  0.4225 -0.0059
   13TCq1    O2  198   1.020   3.596  10.385  0.6367 -0.0900 -0.4383
   13TCq1    C2  199   1.129   3.741  10.536 -1.0872  0.4708  0.1932
   13TCq1    C3  200   1.265   3.769  10.547 -0.4904  0.0864 -0.4072
   13TCq1    C4  201   1.316   3.793  10.668  0.3440  0.2977 -0.3968
   13TCq1    C5  202   1.244   3.781  10.783 -0.6276 -0.1482  0.0143
   13TCq1    C6  203   1.107   3.761  10.764  0.2808 -0.1113  0.2784
   13TCq1    C7  204   1.049   3.744  10.640 -0.0869 -0.4680  0.4138
   13TCq1    C8  205   1.021   3.773  10.882  0.2408  0.3170 -0.0293
   13TCq1    O4  206   1.068   3.826  10.980  0.6058  0.3810 -0.3215
   13TCq1    C9  207   1.454   3.848  10.687 -0.5697 -0.0395  0.2672
   13TCq1    O5  208   1.483   3.889  10.804  0.4268  0.0778  0.1835
   13TCq1    O6  209   1.529   3.842  10.583  0.2091 -0.0314 -0.2304
   13TCq1    H1  210   1.179   3.858  10.346 -1.9619  0.3698 -0.2132
   13TCq1    H2  211   1.320   3.769  10.454  1.7455  0.8014  0.9061
   13TCq1    H3  212   1.286   3.801  10.880 -2.1637 -1.4764  0.9540
   13TCq1    H4  213   0.943   3.725  10.625  0.2255 -1.2081 -0.9205
   14MPD2     C  214   0.738   3.549  10.969 -0.5281 -0.2070 -0.2250
   14MPD2    C1  215   0.823   3.656  10.993  0.2478  0.4648  0.3312
   14MPD2    C2  216   0.803   3.740  11.099  0.0701 -0.4758  0.0501
   14MPD2    C3  217   0.692   3.731  11.181 -0.2840  0.0853  0.0826
   14MPD2    C4  218   0.611   3.627  11.159  0.1491 -0.5382 -0.1831
   14MPD2    C5  219   0.627   3.540  11.051  0.2767 -0.0922 -0.2669
   14MPD2     H  220   0.881   3.811  11.124  0.7578 -1.4539  0.6472
   14MPD2    H1  221   0.527   3.605  11.225  1.8390 -2.8995  1.1646
   14MPD2    H2  222   0.742   3.492  10.876 -1.4280 -0.3951 -0.1422
   14MPD2    H3  223   0.558   3.457  11.040 -0.9379  0.7040  1.2087
   14MPD2     N  224   0.667   3.829  11.276  0.3354  0.4054  0.1387
   14MPD2    H5  225   0.733   3.906  11.278  0.9813 -0.1174 -0.9193
   14MPD2    N1  226   0.919   3.678  10.888  0.3235  0.3638 -0.2138
   14MPD2    H7  227   0.911   3.613  10.810 -2.0696  1.0262 -0.5342
   15TCq1    O1  228   2.478   1.735   0.946  0.2881  0.3321  0.1857
   15TCq1    C1  229   2.601   1.713   0.892 -0.0399  0.1481  0.0901
   15TCq1    O2  230   2.624   1.708   0.770  0.0045  0.1385 -0.1352
   15TCq1    C2  231   2.694   1.772   0.988 -0.0809 -0.2115 -0.4741
   15TCq1    C3  232   2.651   1.873   1.070 -0.3413 -0.0643  0.0977
   15TCq1    C4  233   2.743   1.951   1.131  0.1117 -0.1058  0.5659
   15TCq1    C5  234   2.877   1.951   1.095  0.3976 -0.2746 -0.5636
   15TCq1    C6  235   2.910   1.858   0.998 -0.0108 -0.0560 -0.3805
   15TCq1    C7  236   2.822   1.767   0.944 -0.4738 -0.4616 -0.5205
   15TCq1    C8  237   3.034   1.871   0.921  0.5372 -0.2810 -0.2920
   15TCq1    O4  238   3.046   1.808   0.815 -0.2197  0.8068 -0.0898
   15TCq1    C9  239   2.700   2.060   1.218 -0.4188  0.1421  0.5404
   15TCq1    O5  240   2.579   2.059   1.252  0.2066 -0.0745 -0.3006
   15TCq1    O6  241   2.782   2.152   1.243 -0.1728 -0.4029 -0.1300
   15TCq1    H1  242   2.489   1.736   1.044 -1.3222  0.8769  0.3583
   15TCq1    H2  243   2.547   1.891   1.094 -0.5850 -2.7006  1.0674
   15TCq1    H3  244   2.955   2.010   1.143 -0.2491  0.3397 -0.2659
   15TCq1    H4  245   2.856   1.684   0.883 -1.3965 -0.0559 -1.5836
   16MPD2     C  246   3.289   2.128   0.922  0.4162  0.6224  0.0308
   16MPD2    C1  247   3.239   2.001   0.910 -0.5188  0.2668  0.2568
   16MPD2    C2  248   3.315   1.904   0.854  0.8756  0.0461  0.2488
   16MPD2    C3  249   3.442   1.936   0.812  0.2135  0.1623  0.3214
   16MPD2    C4  250   3.492   2.064   0.825 -0.0740  0.9254 -0.1092
   16MPD2    C5  251   3.414   2.152   0.885 -0.0557  0.8991  0.0191
   16MPD2     H  252   3.283   1.801   0.860 -3.1938  1.0647 -4.6112
   16MPD2    H1  253   3.595   2.086   0.798  0.1653  1.9074  1.6260
   16MPD2    H2  254   3.230   2.214   0.950  4.5843  3.1822  0.8532
   16MPD2    H3  255   3.454   2.253   0.887  2.7484 -0.2054  0.5022
   16MPD2     N  256   3.519   1.830   0.752 -0.0833  1.0156  0.4207
   16MPD2    H5  257   3.464   1.747   0.734 -0.0044  0.8005  1.1790
   16MPD2    N1  258   3.113   1.971   0.967 -0.4364 -0.4203 -0.3241
   16MPD2    H7  259   3.079   2.042   1.030  2.7019  0.3785  0.4601
   17TMC1    C1  260   0.860   2.892   9.580 -0.6895 -0.3568  0.2215
   17TMC1    C2  261   0.819   2.791   9.490 -0.6014 -0.3308  0.2098
   17TMC1    C3  262   0.831   2.811   9.353 -0.2796 -0.4145  0.0358
   17TMC1    C4  263   0.890   3.016   9.535  0.2159  0.1719 -0.2862
   17TMC1    C5  264   0.901   3.030   9.403  0.3965 -0.1979  0.2911
   17TMC1    C6  265   0.872   2.936   9.313 -0.9535 -0.4277  0.8428
   17TMC1     C  266   0.854   2.861   9.722  0.1727 -0.0804  0.3366
   17TMC1     O  267   0.787   2.767   9.757  0.3934  0.1526  0.8209
   17TMC1     H  268   0.762   2.712   9.537  2.8990 -1.4599  2.5552
   17TMC1    H1  269   0.919   3.100   9.597 -0.3648 -0.0698  0.3176
   17TMC1    H2  270   0.874   2.969   9.210  0.6037 -1.7436  0.4479
   17TMC1    C7  271   0.940   3.164   9.362  0.3935  0.0911  0.1100
   17TMC1    C8  272   0.793   2.713   9.258 -0.3700 -0.0425  0.3575
   17TMC1    O1  273   1.020   3.226   9.432 -0.5788  0.4892  0.4670
   17TMC1    O2  274   0.791   2.745   9.137 -0.5049  0.6019  0.9677
   17TMC1    O3  275   0.826   3.220   9.324 -0.3340 -0.0884 -0.6169
   17TMC1    H3  276   0.753   3.155   9.317  0.6227 -0.9671 -2.3742
   17TMC1    O5  277   0.778   2.591   9.316 -0.7081 -0.3449  0.1996
   17TMC1    H5  278   0.806   2.583   9.409  2.9942 -0.2892 -0.9356
   18MPD2     C  279   0.922   2.823  10.015  0.0687  0.0465 -0.7155
   18MPD2    C1  280   0.961   2.932   9.937 -0.7197  0.0791 -0.6193
   18MPD2    C2  281   1.030   3.035  10.002 -0.1643  0.5643  0.4496
   18MPD2    C3  282   1.071   3.030  10.141 -0.0414 -0.2883  0.3518
   18MPD2    C4  283   1.038   2.917  10.218  0.6693 -0.3243  0.1017
   18MPD2    C5  284   0.964   2.813  10.146  0.8532  0.0085 -0.2455
   18MPD2     H  285   1.060   3.117   9.937  0.4626 -1.2005 -1.4732
   18MPD2    H1  286   1.061   2.913  10.324 -0.2464  1.9100  0.3888
   18MPD2    H2  287   0.880   2.735   9.969 -0.9146 -0.0045  0.3006
   18MPD2    H3  288   0.930   2.728  10.205  1.0967  0.3846  0.4428
   18MPD2     N  289   1.135   3.140  10.208  0.0606 -0.1385 -0.1899
   18MPD2    H5  290   1.151   3.125  10.308  0.6613  0.4051 -0.2065
   18MPD2    N1  291   0.928   2.946   9.800 -0.0574 -0.0175 -0.6544
   18MPD2    H7  292   0.971   3.019   9.744 -1.4726  0.8596 -0.5938
   19TMC2    C1  293   2.396   4.047  13.827 -0.5419  0.4024  0.0740
   19TMC2    C2  294   2.290   4.124  13.770 -0.0244 -0.6112 -0.3139
   19TMC2    C3  295   2.172   4.070  13.769 -0.0804 -0.1857  0.5277
   19TMC2    C4  296   2.369   3.935  13.903  0.3559  0.7529  0.0314
   19TMC2    C5  297   2.235   3.905  13.914  0.7010  0.0102 -0.0966
   19TMC2    C6  298   2.133   3.970  13.849 -0.0057 -0.2022 -0.4407
   19TMC2     C  299   2.516   4.110  13.846  0.5228  0.2709 -0.1277
   19TMC2     O  300   2.551   4.186  13.758 -0.4324  0.0826 -0.5216
   19TMC2     H  301   2.310   4.209  13.706 -0.4349 -0.5427 -0.3538
   19TMC2    H1  302   2.443   3.865  13.939 -0.5071  1.5948  3.4071
   19TMC2    H2  303   2.030   3.936  13.846  0.2175 -1.0131  1.2381
   19TMC2    C7  304   2.207   3.784  13.978 -0.7974  0.5714 -0.2086
   19TMC2    C8  305   2.061   4.148  13.717  0.7414 -0.3553  0.6352
   19TMC2    O1  306   2.306   3.714  14.002 -0.4994 -0.3163  0.0377
   19TMC2    O2  307   1.950   4.172  13.767 -0.0895 -0.2507  0.4038
   19TMC2    O5  308   2.096   4.172  13.589 -0.1515  0.3497  0.1840
   19TMC2    H5  309   2.180   4.127  13.565 -0.2521 -0.3123  1.1024
   20MPD2     C  310   2.798   4.187  13.923 -0.3540  0.5305 -0.3677
   20MPD2    C1  311   2.717   4.102  13.995  0.0100  0.3893 -0.4008
   20MPD2    C2  312   2.769   4.055  14.112  0.7004 -0.3780  0.0808
   20MPD2    C3  313   2.883   4.089  14.167 -0.8585  0.3395 -0.0772
   20MPD2    C4  314   2.968   4.167  14.092  0.6789 -0.2673 -0.0457
   20MPD2    C5  315   2.924   4.216  13.966 -0.6335 -0.2980 -0.3699
   20MPD2     H  316   2.694   4.002  14.170  1.3229  0.2545  1.4542
   20MPD2    H1  317   3.069   4.183  14.127  0.5668 -2.6186  1.3543
   20MPD2    H2  318   2.775   4.229  13.826  0.0223 -0.1738 -0.7610
   20MPD2    H3  319   2.993   4.273  13.905 -1.9151  0.3422 -1.1974
   20MPD2     N  320   2.932   4.033  14.286 -0.3559 -0.4191 -0.4808
   20MPD2    H5  321   3.026   4.064  14.307 -0.3294 -2.5043  2.5238
   20MPD2    N1  322   2.586   4.067  13.959 -0.6474 -0.4548 -0.2399
   20MPD2    H7  323   2.536   3.999  14.016 -2.0365  1.9473  1.3995
   21TMC2    C1  324   0.372   4.216  14.361 -0.1907  0.0018 -0.3657
   21TMC2    C2  325   0.477   4.127  14.373 -0.3458  0.3311  0.3788
   21TMC2    C3  326   0.487   4.051  14.481  0.0474 -1.2740 -0.7864
   21TMC2    C4  327   0.284   4.234  14.461 -0.6777  0.2084  0.4942
   21TMC2    C5  328   0.286   4.155  14.567 -0.6687 -0.5212 -0.5739
   21TMC2    C6  329   0.393   4.068  14.578  0.1689 -0.0889  0.0426
   21TMC2     C  330   0.403   4.335  14.273 -0.1950 -0.3053  0.4818
   21TMC2     O  331   0.524   4.355  14.247 -0.1219 -0.2222  0.5912
   21TMC2     H  332   0.551   4.106  14.296  0.3470 -0.5381  1.2758
   21TMC2    H1  333   0.222   4.322  14.451 -0.0623  0.5851 -0.0620
   21TMC2    H2  334   0.400   4.015  14.673  2.3873 -0.3681 -0.2802
   21TMC2    C7  335   0.214   4.207  14.682 -0.4233 -0.7036 -0.3669
   21TMC2    C8  336   0.603   3.976  14.521  0.1807 -0.5305 -0.0968
   21TMC2    O1  337   0.267   4.183  14.790  0.2782 -0.4073  0.5776
   21TMC2    O2  338   0.600   3.907  14.623 -0.3169  0.1659  0.3436
   21TMC2    O5  339   0.715   4.000  14.438  0.2123  0.2196  0.1531
   21TMC2    H5  340   0.692   4.059  14.363  0.7998  0.1275 -0.0962
   22MPD2     C  341   0.310   0.104  14.290  0.3558  0.7102  0.9828
   22MPD2    C1  342   0.406   0.025  14.349 -0.5026 -0.6418  0.6764
   22MPD2    C2  343   0.411   4.619  14.320 -0.0230 -0.9018  0.4991
   22MPD2    C3  344   0.309   4.556  14.252 -0.6087  0.1383  0.2738
   22MPD2    C4  345   0.208   4.636  14.206  0.2887 -0.0206  0.0240
   22MPD2    C5  346   0.213   0.040  14.219 -0.5550 -0.4818  0.1417
   22MPD2     H  347   0.483   4.552  14.366 -0.4348 -1.7831 -0.1545
   22MPD2    H1  348   0.122   4.591  14.159 -0.2979  2.5761 -1.3681
   22MPD2    H2  349   0.298   0.210  14.310 -1.4689  0.7584 -0.3645
   22MPD2    H3  350   0.141   0.107  14.173  2.1065  2.8302  0.8506
   22MPD2     N  351   0.294   4.421  14.258  0.1759 -0.0586 -0.1506
   22MPD2    H5  352   0.200   4.383  14.250  0.2593 -0.3325  0.1573
   22MPD2    N1  353   0.506   0.079  14.423 -0.6633 -0.1516  0.0507
   22MPD2    H7  354   0.562   0.008  14.471 -0.7136 -0.6523 -0.6164
   23TMC2    C1  355   1.984   0.673  14.192 -0.0107  0.1089 -0.1382
   23TMC2    C2  356   1.996   0.674  14.055 -0.3469 -0.2598 -0.3919
   23TMC2    C3  357   1.892   0.704  13.974  0.1222  0.0659  0.3617
   23TMC2    C4  358   1.867   0.711  14.252  0.5250  0.3969 -0.1521
   23TMC2    C5  359   1.762   0.745  14.168  1.3796 -0.0162  0.2228
   23TMC2    C6  360   1.771   0.733  14.029 -0.1060 -0.1082  0.6228
   23TMC2     C  361   2.049   0.565  14.262  0.2068 -0.4153 -0.0997
   23TMC2     O  362   1.990   0.522  14.360 -0.6311 -0.7642  0.3710
   23TMC2     H  363   2.094   0.663  14.010  0.2302 -0.6462  0.9594
   23TMC2    H1  364   1.852   0.691  14.357  2.3842 -0.7207 -0.0884
   23TMC2    H2  365   1.682   0.742  13.967  0.3119  0.9430  0.1644
   23TMC2    C7  366   1.639   0.682  14.208  0.2472  0.2604 -0.0489
   23TMC2    C8  367   1.903   0.700  13.829 -0.0796  0.1266 -0.8242
   23TMC2    O1  368   1.656   0.593  14.293  0.9829  0.6775  0.0158
   23TMC2    O2  369   1.851   0.787  13.758 -0.3947  0.4725 -0.4680
   23TMC2    O5  370   2.020   0.642  13.801  0.8481  0.7497 -0.2812
   23TMC2    H5  371   2.020   0.559  13.852  0.7232  0.6752 -0.4025
   24MPD2     C  372   2.424   0.237  14.378 -0.3410  0.3081 -0.0962
   24MPD2    C1  373   2.304   0.256  14.445 -0.9571  0.1002  0.8460
   24MPD2    C2  374   2.214   0.349  14.390 -0.2026  0.5869  0.4067
   24MPD2    C3  375   2.247   0.416  14.271  0.2046 -0.3993  0.5900
   24MPD2    C4  376   2.365   0.393  14.205  0.6103 -0.2842  0.3334
   24MPD2    C5  377   2.453   0.307  14.271 -0.0907 -0.0935  0.8230
   24MPD2     H  378   2.114   0.351  14.431 -0.3496  1.8427 -0.0170
   24MPD2    H1  379   2.403   0.445  14.118 -0.3937  0.7215  0.5072
   24MPD2    H2  380   2.497   0.166  14.417  1.4196  0.8229 -2.4669
   24MPD2    H3  381   2.553   0.294  14.230 -0.1959  1.2304  0.1357
   24MPD2     N  382   2.165   0.516  14.205  0.0750 -0.3871  0.3287
   24MPD2    H5  383   2.191   0.569  14.122  0.8325 -1.1277  0.0988
   24MPD2    N1  384   2.256   0.195  14.567  0.4794  0.0948 -0.9391
   24MPD2    H7  385   2.160   0.216  14.592 -0.0152 -0.2410 -2.5656
   25TMC2    C1  386   4.689   3.254  12.067  0.0044  0.2375  0.1201
   25TMC2    C2  387   4.604   3.217  11.967  0.7930 -0.0759  1.2032
   25TMC2    C3  388   4.522   3.323  11.925 -0.4733 -0.4852  0.7716
   25TMC2    C4  389   4.669   3.372  12.138 -0.1026 -0.5659  0.0063
   25TMC2    C5  390   4.581   3.466  12.094  0.3488  0.7948  0.6880
   25TMC2    C6  391   4.496   3.437  11.995 -0.6067  0.3490 -0.4454
   25TMC2     C  392   0.020   3.151  12.144 -0.0073  0.7776  0.8126
   25TMC2     O  393   0.019   3.150  12.267 -0.7028 -0.3789  0.3547
   25TMC2     H  394   4.614   3.132  11.900 -2.7224 -0.9103  1.7423
   25TMC2    H1  395   4.723   3.391  12.230 -0.3423 -0.0112  0.0313
   25TMC2    H2  396   4.431   3.514  11.956 -1.4858 -0.6426 -0.9508
   25TMC2    C7  397   4.521   3.535  12.206  0.0863  0.6278 -0.1594
   25TMC2    C8  398   4.426   3.294  11.821  0.3375 -0.5980 -0.2251
   25TMC2    O1  399   4.593   3.555  12.300  0.6215  0.0595 -0.2052
   25TMC2    O2  400   4.388   3.177  11.805  0.1044  0.1544  0.3436
   25TMC2    O5  401   4.469   3.377  11.726  0.1745  0.1795  0.0496
   25TMC2    H5  402   4.506   3.453  11.776 -0.4421 -0.5360  1.6185
   26MPD2     C  403   0.052   2.635  12.111  0.4510  0.0816 -0.2650
   26MPD2    C1  404   0.079   2.691  11.994 -0.1619  0.0220 -0.0916
   26MPD2    C2  405   0.081   2.826  11.982  0.4640 -0.3988  0.6470
   26MPD2    C3  406   0.052   2.908  12.090 -0.8964 -0.5107 -0.1073
   26MPD2    C4  407   0.040   2.853  12.218 -0.1332  0.3953  0.4935
   26MPD2    C5  408   0.036   2.721  12.220 -0.2520  0.1585 -0.2952
   26MPD2     H  409   0.095   2.879  11.888  1.1117 -0.8022  0.5208
   26MPD2    H1  410   0.011   2.920  12.298  2.2001 -1.0738  2.5676
   26MPD2    H2  411   0.057   2.531  12.141  2.0504  1.1968  3.3133
   26MPD2    H3  412   0.012   2.679  12.317  0.2204  0.4620 -0.0476
   26MPD2     N  413   0.042   3.041  12.063  0.7530  0.8307 -0.0860
   26MPD2    H5  414   0.038   3.064  11.964 -1.4106  1.8100  0.2184
   26MPD2    N1  415   0.090   2.605  11.880 -0.4375  0.4602  0.5748
   26MPD2    H7  416   0.097   2.508  11.908  1.6120  0.3505 -0.3250
   27TMC2    C1  417   4.404   0.463  12.040  0.8032 -0.4681  0.4538
   27TMC2    C2  418   4.451   0.568  11.977 -0.9762 -1.1054  0.1686
   27TMC2    C3  419   4.551   0.645  12.030 -0.2402 -0.0710 -0.7160
   27TMC2    C4  420   4.446   0.432  12.169 -0.6722  0.2626  0.4381
   27TMC2    C5  421   4.547   0.512  12.224  0.5174 -0.3315 -0.6563
   27TMC2    C6  422   4.602   0.612  12.150 -0.2171  0.3124  0.1871
   27TMC2     C  423   4.299   0.385  11.975 -1.1394 -0.2341  0.7472
   27TMC2     O  424   4.295   0.382  11.853 -0.1319  0.6989 -0.2603
   27TMC2     H  425   4.411   0.595  11.880 -0.9487  1.0655  0.7608
   27TMC2    H1  426   4.392   0.357  12.226 -1.6608  2.0121  1.8012
   27TMC2    H2  427   4.680   0.675  12.191  1.1329 -1.1905 -0.0364
   27TMC2    C7  428   4.501   0.557  12.354 -0.2033  0.3333 -0.0416
   27TMC2    C8  429   4.620   0.745  11.957 -0.1701  0.1864  0.1918
   27TMC2    O1  430   4.423   0.480  12.408  0.5203  0.4224 -0.1650
   27TMC2    O2  431   0.011   0.744  11.956  0.3642 -0.6124 -0.4146
   27TMC2    O5  432   4.540   0.851  11.956 -0.4770  0.5925  0.0943
   27TMC2    H5  433   4.449   0.844  11.991 -0.2696  1.4965  0.8117
   28MPD2     C  434   3.836   0.138  12.013  0.4023  0.0630 -0.0388
   28MPD2    C1  435   3.860   0.198  12.133  0.0768 -0.3993  0.9251
   28MPD2    C2  436   3.984   0.264  12.144  0.8808  0.6392  0.0777
   28MPD2    C3  437   4.078   0.273  12.039 -0.1590  0.7308  0.3540
   28MPD2    C4  438   4.045   0.213  11.918 -0.6813 -0.7846  0.3579
   28MPD2    C5  439   3.914   0.158  11.897 -0.2696  0.9472 -0.0459
   28MPD2     H  440   4.019   0.309  12.237  2.5560  0.7696 -0.6040
   28MPD2    H1  441   4.113   0.224  11.834 -1.9553 -1.1704 -0.7322
   28MPD2    H2  442   3.738   0.102  11.985  1.4633 -0.9815 -2.3606
   28MPD2    H3  443   3.895   0.109  11.802 -2.0519  2.9955 -0.7398
   28MPD2     N  444   4.206   0.341  12.065 -0.4902 -0.7400 -0.7568
   28MPD2    H5  445   4.223   0.360  12.163  0.5214 -2.0762 -0.6842
   28MPD2    N1  446   3.763   0.200  12.232  0.4639 -0.9026 -0.0761
   28MPD2    H7  447   3.677   0.152  12.208 -1.2607  2.2333 -0.1188
   29TMC2    C1  448   3.899   2.546  14.422  0.5042  0.1130 -0.3998
   29TMC2    C2  449   3.905   2.530  14.557  0.4904 -0.4546  0.0732
   29TMC2    C3  450   3.885   2.645  14.629  0.5219  0.2022 -0.6820
   29TMC2    C4  451   3.889   2.664  14.362  0.2455 -0.5341  0.9636
   29TMC2    C5  452   3.880   2.773  14.443  0.1550 -0.4959  0.7029
   29TMC2    C6  453   3.871   2.771  14.577  0.6689  0.5314 -0.3612
   29TMC2     C  454   3.933   2.427  14.337 -0.4207 -0.8527 -0.2486
   29TMC2     O  455   3.982   2.328  14.394 -0.3162  0.3257 -0.1900
   29TMC2     H  456   3.911   2.428  14.594  0.8248 -0.8044 -0.9333
   29TMC2    H1  457   3.890   2.668  14.254  1.9006  0.1908  1.0022
   29TMC2    H2  458   3.870   2.861  14.638  0.0328 -0.5989  1.2792
   29TMC2    C7  459   3.924   2.898  14.378 -0.0067 -0.3702 -0.1341
   29TMC2    C8  460   3.839   2.622  14.763 -0.7708 -0.4634 -0.9310
   29TMC2    O1  461   3.927   2.904  14.255  0.3824  0.0436  0.2003
   29TMC2    O2  462   3.879   2.528  14.828  0.4215  0.1626 -0.0739
   29TMC2    O5  463   3.707   2.654  14.762 -0.4014 -0.0706  0.2425
   29TMC2    H5  464   3.665   2.694  14.683 -0.9549 -1.8687 -0.3825
   30MPD2     C  465   3.756   2.096  13.984 -0.4158  0.2168  0.3783
   30MPD2    C1  466   3.851   2.078  14.084 -0.1499 -0.4132 -0.5689
   30MPD2    C2  467   3.892   2.185  14.155  0.1362  0.8273 -0.4719
   30MPD2    C3  468   3.832   2.308  14.144  0.2966  0.3425  0.7842
   30MPD2    C4  469   3.738   2.328  14.044  1.1063 -0.0183  0.9417
   30MPD2    C5  470   3.698   2.219  13.972  0.0117  0.6827  0.4179
   30MPD2     H  471   3.968   2.172  14.231  1.1147  0.8097 -1.4523
   30MPD2    H1  472   3.698   2.425  14.016 -2.9735 -1.7609  0.7345
   30MPD2    H2  473   3.728   2.012  13.921 -3.2433  2.0228 -0.7274
   30MPD2    H3  474   3.623   2.238  13.896  0.6078  1.5604  0.0481
   30MPD2     N  475   3.854   2.418  14.229 -0.0118 -0.0121 -0.0598
   30MPD2    H5  476   3.820   2.507  14.193 -1.0908 -0.1724  0.5738
   30MPD2    N1  477   3.921   1.956  14.098 -0.3371  0.5597 -0.3654
   30MPD2    H7  478   3.974   1.935  14.182 -0.6482  2.8590  0.4073
   31TMC2    C1  479   1.887   0.974  15.233 -0.1075  0.1777 -0.0991
   31TMC2    C2  480   1.758   0.945  15.228 -0.1282  0.6338  0.2168
   31TMC2    C3  481   1.708   0.861  15.324 -0.3094 -0.0945  0.0264
   31TMC2    C4  482   1.970   0.929  15.328  0.3693  0.1749 -0.3833
   31TMC2    C5  483   1.921   0.833  15.415 -0.4454 -0.6541  0.6067
   31TMC2    C6  484   1.788   0.797  15.415  0.5454 -0.3499 -0.5487
   31TMC2     C  485   1.939   1.081  15.152 -0.4787  0.4328  0.0531
   31TMC2     O  486   1.876   1.122  15.058  0.6033 -0.5463  0.0585
   31TMC2     H  487   1.707   0.966  15.134  1.9955 -1.1741 -1.3547
   31TMC2    H1  488   2.076   0.950  15.332  0.8249 -2.1538 -0.1265
   31TMC2    H2  489   1.752   0.726  15.488  1.4340 -1.4763 -1.1877
   31TMC2    C7  490   2.014   0.752  15.486 -0.2532  0.1525  0.5948
   31TMC2    C8  491   1.570   0.813  15.312  0.8081  0.3298 -0.5858
   31TMC2    O1  492   2.132   0.773  15.463 -0.7649  0.6376 -0.1630
   31TMC2    O2  493   1.524   0.723  15.385 -0.7184 -0.6655 -0.3095
   31TMC2    O5  494   1.496   0.905  15.243  0.1121 -0.2654 -0.2408
   31TMC2    H5  495   1.535   0.994  15.225 -0.3997  0.1852  0.9018
   32MPD2     C  496   2.251   1.496  15.137 -0.5841  0.9684  0.2381
   32MPD2    C1  497   2.133   1.469  15.065  0.4395 -0.0868  0.8636
   32MPD2    C2  498   2.067   1.350  15.090 -0.5224  0.2301  0.5145
   32MPD2    C3  499   2.120   1.263  15.180 -0.5716  0.1279 -0.6584
   32MPD2    C4  500   2.235   1.284  15.245  0.6436  0.4573  0.2124
   32MPD2    C5  501   2.308   1.397  15.216 -0.0283  0.1348 -0.0310
   32MPD2     H  502   1.976   1.326  15.036  1.2293 -0.1565 -2.2213
   32MPD2    H1  503   2.275   1.211  15.315 -0.1415 -1.5887 -1.5054
   32MPD2    H2  504   2.317   1.576  15.105 -0.4012  1.0361  0.7951
   32MPD2    H3  505   2.410   1.400  15.254  0.0874  0.1978 -0.3527
   32MPD2     N  506   2.052   1.139  15.209  0.0455 -0.3529 -0.6692
   32MPD2    H5  507   2.077   1.093  15.296  1.8105  0.6508 -0.6683
   32MPD2    N1  508   2.080   1.567  14.974  0.6415 -0.3463 -0.1687
   32MPD2    H7  509   2.138   1.648  14.959 -1.7558  1.1268 -1.4837
   33TMC2    C1  510   1.636   4.201   9.922 -0.1080 -0.8608  0.3943
   33TMC2    C2  511   1.523   4.255   9.865 -0.6242  0.4910  0.2951
   33TMC2    C3  512   1.537   4.343   9.759  0.5996  0.6305  0.1212
   33TMC2    C4  513   1.759   4.227   9.869  0.4875 -0.7014 -0.2092
   33TMC2    C5  514   1.770   4.325   9.772  0.5895  0.1143 -0.5539
   33TMC2    C6  515   1.664   4.374   9.709  0.3501 -0.3228  0.1506
   33TMC2     C  516   1.620   4.078  10.010  0.1928 -0.3943  0.1842
   33TMC2     O  517   1.512   4.027  10.016 -0.2617 -0.6708 -0.3835
   33TMC2     H  518   1.431   4.209   9.900 -0.0487 -0.0390  1.1292
   33TMC2    H1  519   1.847   4.182   9.913  0.1276  0.3552  1.5847
   33TMC2    H2  520   1.677   4.455   9.639  1.1791 -0.4343  0.1826
   33TMC2    C7  521   1.903   4.337   9.713  0.0398 -0.6454  0.8870
   33TMC2    C8  522   1.421   4.383   9.681 -0.4145  0.4438  0.0947
   33TMC2    O1  523   2.001   4.290   9.768 -0.0316  0.0477 -0.2250
   33TMC2    O2  524   1.438   4.418   9.564 -0.2274  0.4135 -0.6774
   33TMC2    O5  525   1.334   4.433   9.767  0.4777  0.6531 -0.3184
   33TMC2    H5  526   1.341   4.420   9.864  0.7579 -2.0803 -0.7173
   34MPD2     C  527   1.782   3.733  10.366 -0.3434 -0.1269 -0.1008
   34MPD2    C1  528   1.669   3.738  10.288 -0.2246 -0.4845  0.1775
   34MPD2    C2  529   1.650   3.839  10.194  0.4269  0.4877 -0.2684
   34MPD2    C3  530   1.747   3.936  10.168 -0.4977  0.5966  0.5329
   34MPD2    C4  531   1.860   3.925  10.244  0.0904 -0.2925 -0.0421
   34MPD2    C5  532   1.875   3.829  10.340 -0.6138  0.9531  0.6470
   34MPD2     H  533   1.559   3.848  10.137 -0.5791 -2.9725  0.7266
   34MPD2    H1  534   1.943   3.995  10.242  0.1276 -0.3606 -0.9004
   34MPD2    H2  535   1.793   3.664  10.449  0.8327 -1.3771 -1.2921
   34MPD2    H3  536   1.966   3.836  10.398  0.8618 -5.1827 -0.9456
   34MPD2     N  537   1.732   4.052  10.089 -0.4721  0.5009 -0.7123
   34MPD2    H5  538   1.803   4.124  10.099 -0.8197  0.7454 -0.0012
   34MPD2    N1  539   1.566   3.642  10.306 -0.0296  0.0741  0.0395
   34MPD2    H7  540   1.566   3.598  10.397 -0.8763  0.7616  0.3810
   35TMC2    C1  541   2.326   0.257  11.513  0.6250  0.0958 -0.4266
   35TMC2    C2  542   2.215   0.309  11.446  0.6699  0.0742  0.6554
   35TMC2    C3  543   2.092   0.255  11.472 -0.6961  0.2338 -0.2693
   35TMC2    C4  544   2.308   0.157  11.607 -0.7924 -0.0868  0.3010
   35TMC2    C5  545   2.179   0.121  11.636  0.4292 -0.2243 -0.4448
   35TMC2    C6  546   2.071   0.163  11.570  0.0213  0.4494  0.3128
   35TMC2     C  547   2.446   0.340  11.515  0.5802 -0.0749 -0.1792
   35TMC2     O  548   2.456   0.435  11.441 -0.1486  0.1638 -0.5151
   35TMC2     H  549   2.227   0.392  11.378 -0.7813  1.1346  1.6957
   35TMC2    H1  550   2.390   0.120  11.669 -1.4150 -2.1315 -0.0771
   35TMC2    H2  551   1.967   0.135  11.583  0.0064 -0.2123 -1.3034
   35TMC2    C7  552   2.156   0.015  11.728 -0.9478  0.8155  0.4036
   35TMC2    C8  553   1.979   0.336  11.428 -0.1494 -0.8324  0.6109
   35TMC2    O1  554   2.224   4.647  11.716  0.2648  0.3637  0.6017
   35TMC2    O2  555   1.969   0.458  11.431  0.2790  0.3550  0.2656
   35TMC2    O5  556   1.887   0.248  11.384 -0.0742  0.8930  0.4234
   35TMC2    H5  557   1.915   0.154  11.385  1.4487  1.3220 -2.1539
   36MPD2     C  558   2.939   0.398  11.624  0.5474 -0.2123 -0.4647
   36MPD2    C1  559   2.895   0.298  11.705  0.1398 -0.0748  0.1604
   36MPD2    C2  560   2.762   0.254  11.695 -0.7142  0.1465 -0.1858
   36MPD2    C3  561   2.677   0.325  11.613 -0.6021 -0.4405  0.3071
   36MPD2    C4  562   2.723   0.434  11.544  0.1793 -0.0856 -0.2086
   36MPD2    C5  563   2.852   0.465  11.543 -0.6984  0.2669 -0.3720
   36MPD2     H  564   2.717   0.191  11.771 -1.0716 -1.4568 -1.7314
   36MPD2    H1  565   2.667   0.496  11.475  0.7130 -0.7055 -1.2174
   36MPD2    H2  566   3.039   0.440  11.633  1.3506 -2.5703  1.4627
   36MPD2    H3  567   2.886   0.537  11.470  3.2234  0.1117  1.2988
   36MPD2     N  568   2.536   0.293  11.608 -0.1796 -0.2173  0.3508
   36MPD2    H5  569   2.510   0.225  11.678 -3.1883  0.9792  0.3764
   36MPD2    N1  570   2.981   0.260  11.812  0.2816  0.3379 -0.0565
   36MPD2    H7  571   3.073   0.303  11.821  0.4049 -0.6060  3.3038
   37TMC2    C1  572   0.951   0.679  11.802 -0.7069 -0.1293 -0.1113
   37TMC2    C2  573   0.946   0.626  11.679 -0.4549  0.3071 -0.1607
   37TMC2    C3  574   1.064   0.611  11.617  0.4591  0.0518  0.3006
   37TMC2    C4  575   1.068   0.715  11.864 -0.0912 -0.0021 -0.1560
   37TMC2    C5  576   1.185   0.702  11.794  0.5315 -0.5021  0.1472
   37TMC2    C6  577   1.190   0.643  11.670  0.1717 -0.4737  0.6850
   37TMC2     C  578   0.837   0.723  11.859  0.2928 -0.9665 -0.4013
   37TMC2     O  579   0.739   0.718  11.786 -0.1519  0.1399  0.5079
   37TMC2     H  580   0.853   0.591  11.636 -0.1889 -0.3710 -0.1773
   37TMC2    H1  581   1.076   0.763  11.961 -1.5984  0.9579 -0.5038
   37TMC2    H2  582   1.278   0.647  11.607  0.7121 -1.3943  1.3719
   37TMC2    C7  583   1.308   0.749  11.850  0.4254 -0.2185 -0.1004
   37TMC2    C8  584   1.056   0.545  11.486 -0.6179 -0.5479 -0.8797
   37TMC2    O1  585   1.306   0.850  11.917 -0.2863 -0.5944 -1.0734
   37TMC2    O2  586   0.957   0.552  11.411  0.4352  0.3644  0.3409
   37TMC2    O5  587   1.120   0.434  11.515  0.0416  0.2940  0.1058
   37TMC2    H5  588   1.181   0.442  11.591  0.0836 -0.5257  0.1649
   38MPD2     C  589   0.526   0.894  12.229 -0.2453  0.1173 -0.1873
   38MPD2    C1  590   0.629   0.824  12.290  0.5692 -0.2066 -0.1221
   38MPD2    C2  591   0.722   0.771  12.207  0.3007  0.3159  0.2722
   38MPD2    C3  592   0.729   0.795  12.072 -0.4826  0.6385  0.1170
   38MPD2    C4  593   0.627   0.870  12.020  0.0101  0.2426 -0.1808
   38MPD2    C5  594   0.526   0.921  12.098 -0.3470  0.0709  0.3747
   38MPD2     H  595   0.807   0.716  12.247  2.1378  1.3257 -2.2339
   38MPD2    H1  596   0.627   0.899  11.915 -0.6740  0.8687 -0.0092
   38MPD2    H2  597   0.439   0.931  12.282 -0.1149  0.5488 -0.2815
   38MPD2    H3  598   0.456   0.992  12.054 -0.6375 -0.1802  0.4342
   38MPD2     N  599   0.836   0.736  11.996  0.0012  0.4097  0.1886
   38MPD2    H5  600   0.920   0.709  12.046 -0.5585 -1.5436  0.0694
   38MPD2    N1  601   0.629   0.796  12.427 -0.4400 -0.5295 -0.3623
   38MPD2    H7  602   0.719   0.759  12.458 -0.4817  1.2340  1.9391
   39TMC2    C1  603   3.399   1.612   1.094 -0.3458 -0.1944 -0.4157
   39TMC2    C2  604   3.302   1.693   1.149  0.1020  0.2669 -0.1807
   39TMC2    C3  605   3.353   1.801   1.210 -0.2740  0.0015 -0.0906
   39TMC2    C4  606   3.527   1.656   1.082 -0.8355  0.6044 -0.3699
   39TMC2    C5  607   3.573   1.766   1.136 -0.1853  0.2956 -0.1300
   39TMC2    C6  608   3.482   1.846   1.202  0.1046  0.1714  0.6393
   39TMC2     C  609   3.353   1.483   1.037  0.0064  0.0855  0.4467
   39TMC2     O  610   3.228   1.479   1.018 -0.0440 -0.1838 -0.1172
   39TMC2     H  611   3.199   1.666   1.171  0.1037 -0.4352 -1.0581
   39TMC2    H1  612   3.593   1.615   1.005 -0.2933  2.7314 -1.0428
   39TMC2    H2  613   3.519   1.927   1.263 -1.4651  0.4296  1.2468
   39TMC2    C7  614   3.695   1.827   1.085  0.6173  0.2071 -0.4849
   39TMC2    C8  615   3.270   1.874   1.294 -0.9538 -0.1500 -0.2154
   39TMC2    O1  616   3.790   1.754   1.057  0.0217  0.0148  0.4886
   39TMC2    O2  617   3.164   1.819   1.325 -0.1521 -0.3419  0.2541
   39TMC2    O5  618   3.297   2.008   1.275  0.7017  0.0371 -0.1094
   39TMC2    H5  619   3.379   2.041   1.232  1.0653 -0.8210 -0.0930
   40MPD2     C  620   3.573   1.230   0.895 -0.0088 -0.3419 -0.2248
   40MPD2    C1  621   3.454   1.290   0.925 -0.2049  0.5851 -0.1459
   40MPD2    C2  622   3.336   1.261   0.850  0.7423  0.0740 -0.3292
   40MPD2    C3  623   3.340   1.149   0.764  0.6324 -0.1646 -0.2453
   40MPD2    C4  624   3.463   1.089   0.731  0.4928 -0.3130 -0.0511
   40MPD2    C5  625   3.578   1.125   0.798  0.0490 -0.4057 -0.5538
   40MPD2     H  626   3.245   1.313   0.877 -1.3976 -2.5881 -2.5013
   40MPD2    H1  627   3.457   1.000   0.670  1.8324 -0.8557  0.6196
   40MPD2    H2  628   3.664   1.259   0.947 -0.0942  0.2267 -0.3978
   40MPD2    H3  629   3.673   1.078   0.775  0.9396  0.6028  1.0559
   40MPD2     N  630   3.232   1.124   0.675  0.2185  0.4140  0.3244
   40MPD2    H5  631   3.261   1.062   0.601  0.4391 -0.1567  0.8873
   40MPD2    N1  632   3.460   1.402   1.010 -0.6457 -0.0761  0.2525
   40MPD2    H7  633   3.553   1.421   1.045 -0.1567  1.6800 -1.9797
   41TMC2    C1  634   2.696   0.510  13.786 -0.1693 -0.2764  0.0944
   41TMC2    C2  635   2.586   0.522  13.872 -0.4129  0.6619 -0.1893
   41TMC2    C3  636   2.469   0.571  13.822 -0.4536  0.0828 -0.1073
   41TMC2    C4  637   2.695   0.554  13.657  0.1977  0.4458 -0.0257
   41TMC2    C5  638   2.584   0.617  13.616  0.9898  0.1480  0.1896
   41TMC2    C6  639   2.467   0.626  13.696 -0.2591 -0.3425  0.8010
   41TMC2     C  640   2.822   0.454  13.844 -0.2755  0.4231  0.0495
   41TMC2     O  641   2.917   0.419  13.778  0.4439  0.3041 -0.3090
   41TMC2     H  642   2.576   0.469  13.966 -2.4104  0.0476 -0.7588
   41TMC2    H1  643   2.789   0.547  13.604  1.5392  3.3480  1.9612
   41TMC2    H2  644   2.374   0.667  13.661 -0.6762 -1.8157  0.1803
   41TMC2    C7  645   2.561   0.653  13.474 -0.3927  0.2491  0.0549
   41TMC2    C8  646   2.362   0.614  13.913 -0.5244  0.0390  0.5523
   41TMC2    O1  647   2.447   0.685  13.446 -0.7640  0.3570 -0.0316
   41TMC2    O2  648   2.399   0.673  14.017 -0.4186  0.4860  0.9167
   41TMC2    O5  649   2.266   0.523  13.910  0.0739 -0.3857 -0.1690
   41TMC2    H5  650   2.236   0.492  13.822  1.3167  0.4631 -0.8941
   42MPD2     C  651   3.010   0.290  14.018 -0.5125  1.2467 -0.4853
   42MPD2    C1  652   2.890   0.341  14.061 -0.1250 -0.0747  1.1302
   42MPD2    C2  653   2.842   0.315  14.187 -0.5032 -0.1958  0.1283
   42MPD2    C3  654   2.913   0.239  14.280 -0.2351  0.1739 -0.8908
   42MPD2    C4  655   3.024   0.177  14.233 -0.0343 -0.0219 -0.3804
   42MPD2    C5  656   3.079   0.209  14.111 -0.1039 -0.3674  0.1827
   42MPD2     H  657   2.750   0.362  14.219 -0.6009 -0.9456  0.9461
   42MPD2    H1  658   3.078   0.110  14.299  1.6206  0.7776 -0.9094
   42MPD2    H2  659   3.056   0.312  13.923  0.9087  0.7018  0.0739
   42MPD2    H3  660   3.172   0.162  14.080 -0.2495 -1.9892  2.2233
   42MPD2     N  661   2.876   0.221  14.413  0.1919  0.4277 -0.3841
   42MPD2    H5  662   2.927   0.146  14.457  0.7303  1.1264  0.1924
   42MPD2    N1  663   2.799   0.417  13.977  1.0674  0.2504 -0.3110
   42MPD2    H7  664   2.711   0.442  14.022  1.3567  0.1005  0.3278
   43TMC2    C1  665   4.132   3.427   0.877  0.4359  0.3807  0.0421
   43TMC2    C2  666   4.007   3.446   0.938 -0.4245  0.3906  0.5918
   43TMC2    C3  667   3.995   3.567   1.006  0.4991 -0.0117  0.2421
   43TMC2    C4  668   4.234   3.513   0.877 -1.1223  0.2003  0.1296
   43TMC2    C5  669   4.214   3.630   0.942  0.4407 -0.3607 -0.3277
   43TMC2    C6  670   4.094   3.660   1.004 -0.1339  0.2367 -0.1635
   43TMC2     C  671   4.144   3.301   0.803  0.6393 -0.6578 -0.1625
   43TMC2     O  672   4.259   3.250   0.812  1.2517 -0.2178 -0.1663
   43TMC2     H  673   3.930   3.371   0.944  1.1091 -1.3394 -1.4268
   43TMC2    H1  674   4.327   3.484   0.830 -1.4042  0.8499 -0.8169
   43TMC2    H2  675   4.082   3.753   1.059 -0.6759 -1.6565  2.9174
   43TMC2    C7  676   4.328   3.718   0.947  1.0714 -0.0745  0.6610
   43TMC2    C8  677   3.872   3.629   1.047  0.1553  0.0385 -0.3638
   43TMC2    O1  678   4.435   3.668   0.904  0.4337  0.2075 -0.4555
   43TMC2    O2  679   3.868   3.734   1.110 -1.0460  0.0118 -0.5043
   43TMC2    O5  680   3.773   3.600   0.965  0.5843 -0.0195 -0.1156
   43TMC2    H5  681   3.808   3.537   0.898  0.1621  1.4512 -1.7382
   44MPD2     C  682   3.960   2.914   0.500 -0.3089 -0.5013  0.2361
   44MPD2    C1  683   4.088   2.937   0.552 -0.5702  0.5963  0.5471
   44MPD2    C2  684   4.110   3.051   0.632 -0.0715 -0.3714 -0.2058
   44MPD2    C3  685   4.008   3.133   0.669 -0.6073 -0.4006 -0.3120
   44MPD2    C4  686   3.882   3.104   0.618 -0.0335 -0.0445  0.2734
   44MPD2    C5  687   3.857   3.002   0.527  0.0760 -1.3107 -0.3101
   44MPD2     H  688   4.214   3.075   0.653  0.2416 -0.7759 -1.2728
   44MPD2    H1  689   3.801   3.163   0.659 -1.4910 -1.9216  0.0757
   44MPD2    H2  690   3.943   2.835   0.428  1.3499 -0.4678 -0.1868
   44MPD2    H3  691   3.758   2.974   0.495 -0.0415 -1.6087  0.3265
   44MPD2     N  692   4.025   3.251   0.752  0.3772  0.1996  0.1325
   44MPD2    H5  693   3.942   3.309   0.763 -0.8375 -1.5419  0.1172
   44MPD2    N1  694   4.189   2.847   0.510 -0.4141 -0.0700 -0.4467
   44MPD2    H7  695   4.168   2.783   0.434 -1.2377  0.0574 -0.3287
   45TMC2    C1  696   4.363   1.226   9.884 -0.3800  0.1453 -0.0201
   45TMC2    C2  697   4.264   1.249   9.786 -0.0488  0.4263 -0.3624
   45TMC2    C3  698   4.230   1.374   9.747  0.4827  0.0886 -0.2840
   45TMC2    C4  699   4.434   1.328   9.934 -0.4123  0.2521 -0.0655
   45TMC2    C5  700   4.395   1.457   9.895 -0.0921  0.1011  1.2221
   45TMC2    C6  701   4.304   1.481   9.795  0.4813  0.4571  0.1264
   45TMC2     C  702   4.407   1.089   9.919  0.0056  0.1725  0.7669
   45TMC2     O  703   4.493   1.075  10.002 -0.3250 -0.1000  0.3804
   45TMC2     H  704   4.215   1.166   9.735  0.1524  0.7255 -1.0442
   45TMC2    H1  705   4.516   1.317  10.003 -0.5037  0.1690  0.0309
   45TMC2    H2  706   4.268   1.581   9.772 -0.1855 -0.0290 -0.9395
   45TMC2    C7  707   4.467   1.571   9.955 -0.2368 -0.2198 -0.4949
   45TMC2    C8  708   4.136   1.387   9.637  0.6118 -0.1847  0.1519
   45TMC2    O1  709   4.533   1.555  10.058  0.0654 -0.0238 -0.2043
   45TMC2    O2  710   4.058   1.301   9.595  0.0783  0.5612 -0.6252
   45TMC2    O5  711   4.172   1.493   9.570 -0.4071  0.5245  0.3896
   45TMC2    H5  712   4.266   1.520   9.578 -0.1998  0.1507 -0.7846
   46MPD2     C  713   4.441   0.790   9.920 -0.1613 -0.0228 -0.1584
   46MPD2    C1  714   4.343   0.853   9.851  0.2333  0.4107 -0.7589
   46MPD2    C2  715   4.267   0.787   9.762  0.5809 -0.2472  0.7936
   46MPD2    C3  716   4.261   0.652   9.763 -0.2281 -0.1115 -0.8401
   46MPD2    C4  717   4.368   0.587   9.832  0.0522 -0.4797  0.0741
   46MPD2    C5  718   4.460   0.657   9.901 -0.1361  0.5237  0.3358
   46MPD2     H  719   4.194   0.836   9.698  0.2873 -0.2913  1.0926
   46MPD2    H1  720   4.373   0.479   9.832 -0.8845 -0.5177  0.9987
   46MPD2    H2  721   4.509   0.842   9.986 -0.4236 -1.5944  1.3431
   46MPD2    H3  722   4.543   0.614   9.956 -2.1872 -0.5419  2.5822
   46MPD2     N  723   4.141   0.602   9.710  0.2943 -0.0825  0.2395
   46MPD2    H5  724   4.076   0.672   9.676 -1.8312 -1.1146  2.1037
   46MPD2    N1  725   4.330   0.994   9.854  0.2128 -0.5104  0.1768
   46MPD2    H7  726   4.260   1.026   9.788  0.9397  1.9517  0.5923
   47TMC2    C1  727   2.160   1.371   9.644  0.3044 -0.2342 -0.0743
   47TMC2    C2  728   2.194   1.340   9.515 -0.0773  0.6036 -0.6728
   47TMC2    C3  729   2.101   1.336   9.423 -0.3649  0.5495  0.6624
   47TMC2    C4  730   2.025   1.394   9.674 -0.0355  0.1729 -0.1023
   47TMC2    C5  731   1.932   1.385   9.574 -0.0726 -0.1915 -0.2561
   47TMC2    C6  732   1.968   1.350   9.444  0.2621 -0.1238 -0.1769
   47TMC2     C  733   2.262   1.411   9.736 -0.5500  0.9250  0.2193
   47TMC2     O  734   2.220   1.460   9.840  0.2449  0.0139  0.0570
   47TMC2     H  735   2.294   1.328   9.475 -0.0399  0.2241 -0.4701
   47TMC2    H1  736   2.000   1.429   9.774  0.1050  1.0361 -0.3741
   47TMC2    H2  737   1.897   1.339   9.363 -0.6351  2.7643  0.2116
   47TMC2    C7  738   1.800   1.388   9.628  0.2049 -0.1724 -0.2320
   47TMC2    C8  739   2.131   1.255   9.310 -0.1831  0.5078  0.6646
   47TMC2    O1  740   1.787   1.401   9.750 -0.0137 -0.1317 -0.3544
   47TMC2    O2  741   2.068   1.269   9.207  0.2128  0.5990 -0.2065
   47TMC2    O5  742   2.183   1.145   9.359 -0.0549  0.0211 -0.2437
   47TMC2    H5  743   2.196   1.155   9.456 -0.6741  1.0155 -0.2562
   48MPD2     C  744   2.509   1.454   9.889  0.4588  0.1907 -0.3097
   48MPD2    C1  745   2.495   1.361   9.791  0.3119  0.1401  0.0877
   48MPD2    C2  746   2.599   1.277   9.759  0.0333 -0.8325  0.6525
   48MPD2    C3  747   2.711   1.274   9.837  0.3225  0.0731  0.0581
   48MPD2    C4  748   2.728   1.373   9.938  0.1591 -0.1670  0.7895
   48MPD2    C5  749   2.627   1.467   9.966  0.3161 -0.5834 -0.0964
   48MPD2     H  750   2.581   1.193   9.693  2.9206  0.0046 -1.1945
   48MPD2    H1  751   2.820   1.395   9.991  0.5703 -0.7795  0.3189
   48MPD2    H2  752   2.440   1.536   9.904 -2.6260 -2.1033 -1.9940
   48MPD2    H3  753   2.648   1.549  10.034 -0.1278  0.0313 -0.7043
   48MPD2     N  754   2.816   1.184   9.809 -1.2685 -0.2330  0.5450
   48MPD2    H5  755   2.796   1.120   9.734  0.3540  3.9894 -3.4774
   48MPD2    N1  756   2.383   1.360   9.700 -0.0173  0.0256 -0.0165
   48MPD2    H7  757   2.398   1.313   9.611 -1.6670  0.3321 -0.4470
   49TMC2    C1  758   0.901   4.463   9.924  0.2984  0.2365 -0.6332
   49TMC2    C2  759   0.879   4.579   9.863  0.1541  0.1881 -0.2069
   49TMC2    C3  760   0.927   4.591   9.730  1.3247  0.6231  0.3253
   49TMC2    C4  761   0.963   4.352   9.873 -0.1268  0.0345 -0.5850
   49TMC2    C5  762   0.995   4.366   9.740  0.9174 -0.1471 -0.1076
   49TMC2    C6  763   0.989   4.487   9.670 -0.7553 -0.0071 -0.7434
   49TMC2     C  764   0.876   4.461  10.069 -0.3213  0.3607 -0.5115
   49TMC2     O  765   0.849   4.571  10.117 -0.2073 -0.4072 -0.9294
   49TMC2     H  766   0.824   4.659   9.910  0.3977  0.5241 -0.4959
   49TMC2    H1  767   0.979   4.261   9.930 -2.7186  1.6976  2.8667
   49TMC2    H2  768   1.015   4.503   9.566  0.2122  1.7960 -0.2254
   49TMC2    C7  769   1.042   4.254   9.662 -0.4996  1.1288 -0.8732
   49TMC2    C8  770   0.919   4.713   9.663 -0.5302  0.2449 -0.3309
   49TMC2    O1  771   1.077   4.277   9.551 -0.4623  0.2767  0.1068
   49TMC2    O2  772   0.898   4.725   9.541  0.0530 -0.1818  0.2349
   49TMC2    O5  773   0.964   0.071   9.750 -0.5848  0.4817  0.0605
   49TMC2    H5  774   1.004   0.031   9.830 -0.6747  0.9762  0.3500
   50MPD2     C  775   0.798   4.393  10.354  0.1379 -0.9613  0.0947
   50MPD2    C1  776   0.814   4.301  10.253  0.8840  0.0025 -0.6384
   50MPD2    C2  777   0.777   4.166  10.276 -0.2171 -0.2207 -0.0929
   50MPD2    C3  778   0.740   4.137  10.409  0.4977 -0.5051  0.0635
   50MPD2    C4  779   0.728   4.231  10.509  0.6074 -0.4370  0.1545
   50MPD2    C5  780   0.755   4.365  10.480 -0.2627  0.6400  0.1337
   50MPD2     H  781   0.794   4.097  10.194 -1.0995 -1.1159  0.4701
   50MPD2    H1  782   0.689   4.210  10.608 -0.1127 -0.5296 -0.1510
   50MPD2    H2  783   0.811   4.499  10.338 -1.0890 -0.9498 -0.8958
   50MPD2    H3  784   0.734   4.448  10.545  0.7018  1.1506 -0.2012
   50MPD2     N  785   0.722   4.002  10.449 -0.2104 -0.1682  0.3672
   50MPD2    H5  786   0.706   3.979  10.547 -0.0167  4.2680  1.4287
   50MPD2    N1  787   0.861   4.333  10.118  0.2646 -0.4226  0.3455
   50MPD2    H7  788   0.869   4.253  10.055  2.5425 -2.5496  3.3083
   51TMC2    C1  789   0.444   2.431   0.936  0.1183 -0.1344  0.4762
   51TMC2    C2  790   0.338   2.522   0.928 -0.1671 -0.1521  0.2904
   51TMC2    C3  791   0.325   2.578   0.805 -0.1436 -0.1134  0.7630
   51TMC2    C4  792   0.531   2.399   0.833 -0.4079  0.5248  0.6351
   51TMC2    C5  793   0.516   2.466   0.717  0.2327  1.0350  0.0048
   51TMC2    C6  794   0.406   2.553   0.702  0.4063 -0.4824  0.1448
   51TMC2     C  795   0.453   2.343   1.050  0.1215 -0.4259 -0.2311
   51TMC2     O  796   0.559   2.283   1.055 -0.0525  1.0599  0.0420
   51TMC2     H  797   0.296   2.569   1.016 -2.4832 -1.6373 -0.0270
   51TMC2    H1  798   0.616   2.334   0.849  0.3834  1.5414  0.6125
   51TMC2    H2  799   0.399   2.623   0.619  2.2682 -1.0900 -0.5222
   51TMC2    C7  800   0.605   2.447   0.607  0.2167  0.3961 -0.1737
   51TMC2    C8  801   0.212   2.666   0.779 -0.4940  0.2500 -0.2255
   51TMC2    O1  802   0.714   2.391   0.632  0.1882 -0.2324 -0.1966
   51TMC2    O2  803   0.223   2.764   0.705 -0.7162  0.6525  0.3349
   51TMC2    O5  804   0.128   2.660   0.889 -0.4518 -0.1001 -0.2811
   51TMC2    H5  805   0.132   2.583   0.950  0.2907 -0.8532 -1.2916
   52MPD2     C  806   0.219   2.014   1.359  0.3800 -0.6036 -0.3940
   52MPD2    C1  807   0.352   2.028   1.325 -0.0368 -0.1670 -0.2567
   52MPD2    C2  808   0.389   2.136   1.241 -0.9324 -0.4142 -0.2019
   52MPD2    C3  809   0.306   2.240   1.218  0.1908  0.0372  0.0197
   52MPD2    C4  810   0.183   2.236   1.276  0.2274  0.6611 -0.8062
   52MPD2    C5  811   0.138   2.126   1.353  0.4777 -0.4255  0.4077
   52MPD2     H  812   0.489   2.135   1.200 -1.2235  2.0039 -0.9682
   52MPD2    H1  813   0.110   2.314   1.261  0.6766  0.8069 -2.3363
   52MPD2    H2  814   0.180   1.925   1.407  0.2494 -0.3339  0.0047
   52MPD2    H3  815   0.036   2.127   1.391 -0.5914  0.1065 -2.4768
   52MPD2     N  816   0.337   2.340   1.131  0.0804  0.4331  0.1279
   52MPD2    H5  817   0.257   2.399   1.111 -0.6225 -0.5997 -0.0840
   52MPD2    N1  818   0.446   1.926   1.336  0.2660  0.0553 -0.0907
   52MPD2    H7  819   0.533   1.949   1.288  0.3069  0.3269  0.1130
   53TMC2    C1  820   1.867   1.019  12.228  0.9125 -0.6013 -0.1119
   53TMC2    C2  821   1.938   1.130  12.194  0.1914 -0.3638  0.2502
   53TMC2    C3  822   1.896   1.251  12.243 -0.5077  0.3521  0.0975
   53TMC2    C4  823   1.760   1.017  12.315  0.2701 -0.0644 -0.1193
   53TMC2    C5  824   1.724   1.142  12.360 -0.0302 -0.2404 -0.2204
   53TMC2    C6  825   1.779   1.256  12.314  0.8775  0.2039  0.7209
   53TMC2     C  826   1.880   0.910  12.132 -0.3180  0.7705  0.2654
   53TMC2     O  827   1.988   0.864  12.101 -0.3192  0.4460  0.4618
   53TMC2     H  828   2.026   1.112  12.134  1.4990  0.9194  1.7835
   53TMC2    H1  829   1.731   0.916  12.340 -0.9053  0.1233 -0.7365
   53TMC2    H2  830   1.745   1.350  12.355 -1.2912  0.7054 -2.1942
   53TMC2    C7  831   1.598   1.147  12.431  0.0313  0.5065 -0.1165
   53TMC2    C8  832   1.947   1.368  12.178  0.4734  0.0274  0.1531
   53TMC2    O1  833   1.529   1.240  12.396  0.0361 -0.5523 -0.4839
   53TMC2    O2  834   1.939   1.490  12.207  0.2224  0.0094  0.7620
   53TMC2    O5  835   1.981   1.338  12.055  0.8318  0.3787 -0.5533
   53TMC2    H5  836   1.973   1.243  12.032 -0.1131  0.2621  0.2576
   54MPD2     C  837   1.824   0.733  11.889 -0.3809 -0.9128  0.0652
   54MPD2    C1  838   1.729   0.811  11.957  0.2473  0.0737  0.6985
   54MPD2    C2  839   1.594   0.790  11.928 -0.6648 -0.2748  0.0669
   54MPD2    C3  840   1.553   0.699  11.829 -0.3575 -0.1400  0.5849
   54MPD2    C4  841   1.648   0.630  11.762  0.1739  0.2543 -0.3354
   54MPD2    C5  842   1.782   0.647  11.792  0.3272 -0.6821  0.4839
   54MPD2     H  843   1.523   0.847  11.987  0.2913 -0.8759  1.8057
   54MPD2    H1  844   1.622   0.558  11.685  0.1742 -0.5606  0.4340
   54MPD2    H2  845   1.927   0.726  11.922 -0.7869 -2.0384  1.0757
   54MPD2    H3  846   1.851   0.587  11.734 -1.2564 -1.3569 -0.7218
   54MPD2     N  847   1.412   0.674  11.807  0.1443 -0.3486 -0.1373
   54MPD2    H5  848   1.399   0.597  11.743 -0.1251 -0.1088 -0.3725
   54MPD2    N1  849   1.759   0.893  12.067  0.2637 -0.8121 -0.3073
   54MPD2    H7  850   1.678   0.945  12.101  0.6470 -1.4496  1.5734
   55TMC2    C1  851   2.704   3.127   1.021  0.6761 -0.1953  0.0355
   55TMC2    C2  852   2.828   3.174   1.056 -0.6559  0.4644  1.0569
   55TMC2    C3  853   2.925   3.079   1.075 -0.4430  0.5173 -0.3714
   55TMC2    C4  854   2.679   2.992   1.007 -0.3203 -0.5777 -0.4829
   55TMC2    C5  855   2.783   2.901   1.022  0.6131 -0.2938  0.1846
   55TMC2    C6  856   2.906   2.951   1.042 -0.5914 -0.1298 -0.1100
   55TMC2     C  857   2.606   3.215   0.969  0.3638  0.6927 -0.4336
   55TMC2     O  858   2.490   3.175   0.960  0.1712 -0.2476  0.3192
   55TMC2     H  859   2.830   3.273   1.101  0.4708  1.4536 -1.1526
   55TMC2    H1  860   2.581   2.968   0.967 -0.1046 -0.0408 -1.3174
   55TMC2    H2  861   2.989   2.885   1.064 -1.6802 -0.9835  1.4551
   55TMC2    C7  862   2.771   2.797   0.935  0.2630  0.2810  1.1087
   55TMC2    C8  863   3.049   3.119   1.127 -0.1961 -0.3834  0.0143
   55TMC2    O1  864   2.865   2.778   0.857 -0.6340 -0.3923 -0.5357
   55TMC2    O2  865   3.060   3.238   1.133  0.1712 -0.1073 -0.3778
   55TMC2    O5  866   3.075   3.036   1.229 -0.5656  0.4682 -0.3117
   55TMC2    H5  867   3.078   2.939   1.210 -2.7092  0.0695  1.4405
   56MPD2     C  868   2.653   3.544   0.813 -0.8896  0.7827  0.0655
   56MPD2    C1  869   2.585   3.424   0.842  0.3159  0.8080 -0.2994
   56MPD2    C2  870   2.463   3.413   0.791 -0.0069 -0.0093 -0.6284
   56MPD2    C3  871   2.403   3.503   0.706 -0.5060  1.3062  0.1771
   56MPD2    C4  872   2.474   3.621   0.670 -0.3121 -0.3984  0.5220
   56MPD2    C5  873   2.598   3.637   0.732 -0.1666 -0.4334 -0.3823
   56MPD2     H  874   2.406   3.321   0.799 -1.7193  0.9003 -2.4837
   56MPD2    H1  875   2.427   3.697   0.608  1.7999  0.8764  0.4865
   56MPD2    H2  876   2.746   3.563   0.866  0.7099 -0.4339 -2.3171
   56MPD2    H3  877   2.650   3.733   0.722  1.9527 -1.5061  0.3296
   56MPD2     N  878   2.276   3.474   0.656 -0.1833 -0.0728  0.7160
   56MPD2    H5  879   2.237   3.389   0.696  1.6037 -0.6834  1.1189
   56MPD2    N1  880   2.662   3.337   0.925 -0.7385  0.6078 -0.0815
   56MPD2    H7  881   2.757   3.360   0.953 -0.4142  0.8208 -1.3568
   57TMC2    C1  882   0.961   4.569  13.130  0.2758 -0.5239  0.4532
   57TMC2    C2  883   0.923   4.707  13.112  0.2540  0.1634  0.3989
   57TMC2    C3  884   1.027   0.060  13.089 -0.2606 -0.1034  0.5149
   57TMC2    C4  885   1.093   4.523  13.122 -0.6655 -0.3091  0.7249
   57TMC2    C5  886   1.190   4.623  13.097  0.6842  0.1024  0.1302
   57TMC2    C6  887   1.159   0.023  13.074  0.1535  0.0775 -0.3033
   57TMC2     C  888   0.873   4.491  13.225  0.3694 -0.3313 -0.4524
   57TMC2     O  889   0.824   4.559  13.311 -0.5510 -0.4196  0.2799
   57TMC2     H  890   0.819   0.003  13.123 -0.3000 -1.8860  0.7693
   57TMC2    H1  891   1.115   4.424  13.161 -1.9828 -1.4950 -1.5479
   57TMC2    H2  892   1.235   0.097  13.052 -0.9456  1.7280  1.5190
   57TMC2    C7  893   1.329   4.595  13.103 -0.0696  0.1351  0.8063
   57TMC2    C8  894   0.989   0.193  13.040 -0.2905  0.1921 -0.0316
   57TMC2    O1  895   1.412   4.684  13.083  0.4201  0.4361  0.0955
   57TMC2    O2  896   0.876   0.221  12.999 -0.1827  0.2091  0.2281
   57TMC2    O5  897   1.087   0.273  13.092  0.0088 -0.0911 -0.3142
   57TMC2    H5  898   1.159   0.222  13.133  0.5824 -0.9173 -2.3338
   58MPD2     C  899   0.617   4.124  13.433  0.0441  0.0200 -0.0584
   58MPD2    C1  900   0.670   4.233  13.485  0.1708  0.0588 -0.1308
   58MPD2    C2  901   0.740   4.310  13.404 -0.6076 -0.4643  0.0532
   58MPD2    C3  902   0.779   4.272  13.282 -0.0426 -0.3311 -0.0644
   58MPD2    C4  903   0.742   4.157  13.229  0.6712 -0.2866  0.8270
   58MPD2    C5  904   0.649   4.089  13.302  0.0675 -0.0076  0.3208
   58MPD2     H  905   0.777   4.401  13.449  0.8712 -1.3044  0.5281
   58MPD2    H1  906   0.753   4.128  13.125 -0.7959 -1.0939  0.8915
   58MPD2    H2  907   0.542   4.062  13.480  1.2347 -2.1653 -1.0378
   58MPD2    H3  908   0.602   4.002  13.257  0.9013  0.1128 -0.7748
   58MPD2     N  909   0.861   4.361  13.200 -0.0786  0.2302 -0.2886
   58MPD2    H5  910   0.889   4.325  13.109 -0.1449  1.6845 -0.8786
   58MPD2    N1  911   0.645   4.270  13.621 -0.0263  0.0858 -0.3635
   58MPD2    H7  912   0.663   4.361  13.664  2.5577  0.1894 -1.6677
   59TMC2    C1  913   3.713   4.142  12.824  0.1216 -0.1243 -0.3221
   59TMC2    C2  914   3.796   4.042  12.783 -0.5406 -1.1353 -0.0899
   59TMC2    C3  915   3.790   3.997  12.656 -0.3238 -0.2634 -0.2703
   59TMC2    C4  916   3.620   4.187  12.735 -0.0505  1.0078  0.2014
   59TMC2    C5  917   3.617   4.140  12.604  0.1946  0.0990  0.4182
   59TMC2    C6  918   3.706   4.042  12.566 -0.6555 -0.4009 -0.3352
   59TMC2     C  919   3.688   4.172  12.960  0.0326 -0.1217 -0.6983
   59TMC2     O  920   3.570   4.162  12.999 -0.3748  0.6636 -0.2293
   59TMC2     H  921   3.868   4.003  12.854  0.6955 -0.9188 -1.2039
   59TMC2    H1  922   3.540   4.246  12.777 -1.9771 -1.6474  0.2573
   59TMC2    H2  923   3.698   3.982  12.476  1.6847  0.2587 -0.9947
   59TMC2    C7  924   3.494   4.147  12.525  0.4254 -0.5883  0.3559
   59TMC2    C8  925   3.918   3.935  12.618  0.9279 -0.2538  0.0953
   59TMC2    O1  926   3.455   4.044  12.469  0.3886 -0.1211 -0.2850
   59TMC2    O2  927   3.989   3.871  12.696  0.6402 -0.8777 -0.3791
   59TMC2    O5  928   3.940   3.970  12.489 -0.1541 -0.7196  0.4787
   59TMC2    H5  929   3.871   4.029  12.452  1.2663 -0.1317 -1.2738
   60MPD2     C  930   3.726   4.251  13.245  0.5040 -0.3253  0.8284
   60MPD2    C1  931   3.831   4.268  13.154  1.0729 -0.9043  0.3933
   60MPD2    C2  932   3.954   4.332  13.183  0.1483  0.4910  0.8227
   60MPD2    C3  933   3.965   4.397  13.306 -0.4048 -0.1044 -0.3019
   60MPD2    C4  934   3.854   4.393  13.388 -0.1607  0.1238  0.1106
   60MPD2    C5  935   3.738   4.318  13.366  0.3411  0.4101  0.0773
   60MPD2     H  936   4.027   4.344  13.103 -0.9235 -2.7724 -0.6500
   60MPD2    H1  937   3.861   4.437  13.486  1.4347 -2.1374  1.0021
   60MPD2    H2  938   3.639   4.192  13.218  2.0882 -1.7249 -1.2275
   60MPD2    H3  939   3.660   4.315  13.442  1.5456 -0.8611  1.2678
   60MPD2     N  940   4.067   4.483  13.350 -0.0107  0.3761  0.4766
   60MPD2    H5  941   4.041   4.538  13.431  0.7213 -0.1751  1.0834
   60MPD2    N1  942   3.806   4.212  13.023 -0.0056 -0.2118  0.6969
   60MPD2    H7  943   3.888   4.197  12.964 -0.3615 -1.0043  0.4042
   61TMC2    C1  944   3.360   0.672  15.031 -0.3800  0.0347  0.6420
   61TMC2    C2  945   3.307   0.577  15.109  0.4920  0.4199  0.0585
   61TMC2    C3  946   3.213   0.618  15.206 -0.8818  0.6632 -0.2167
   61TMC2    C4  947   3.315   0.807  15.035  0.3444 -0.2081  0.0498
   61TMC2    C5  948   3.225   0.837  15.128  0.5873  0.3119 -0.0748
   61TMC2    C6  949   3.174   0.748  15.219 -0.2173  0.4472 -0.1198
   61TMC2     C  950   3.395   0.635  14.901  0.3000  0.2207  0.4830
   61TMC2     O  951   3.457   0.530  14.889  0.0454  0.2324  0.3073
   61TMC2     H  952   3.328   0.472  15.091 -2.3032 -0.7161  3.4494
   61TMC2    H1  953   3.343   0.880  14.959 -1.7818  0.7113  0.1391
   61TMC2    H2  954   3.114   0.779  15.304 -1.3946  0.8281 -1.1068
   61TMC2    C7  955   3.168   0.973  15.116 -0.1658 -0.5652  0.9079
   61TMC2    C8  956   3.215   0.544  15.327  0.3404 -0.3947  0.1908
   61TMC2    O1  957   3.233   1.050  15.048 -0.3342 -0.1354 -0.2102
   61TMC2    O2  958   3.250   0.585  15.434  0.3387 -0.5827 -0.1290
   61TMC2    O5  959   3.202   0.411  15.299  0.1313  0.0672  0.2448
   61TMC2    H5  960   3.184   0.386  15.205 -1.9240 -0.8144  0.8716
   62MPD2     C  961   3.406   0.650  14.598  0.6650  0.1987 -0.4446
   62MPD2    C1  962   3.308   0.701  14.676 -0.7209 -0.1184  0.1810
   62MPD2    C2  963   3.214   0.786  14.615 -0.3753  0.6204  0.3749
   62MPD2    C3  964   3.233   0.833  14.494  1.3379  0.1407  0.2351
   62MPD2    C4  965   3.328   0.780  14.412 -0.1335  1.3060  0.1128
   62MPD2    C5  966   3.415   0.687  14.460  0.7262  0.9304  0.5701
   62MPD2     H  967   3.144   0.832  14.683 -0.4070  0.2022  0.6280
   62MPD2    H1  968   3.331   0.800  14.306 -0.7384 -2.0749 -0.5478
   62MPD2    H2  969   3.490   0.593  14.637 -0.1234 -0.4909  0.2365
   62MPD2    H3  970   3.488   0.639  14.397  0.8211 -2.8766  3.5387
   62MPD2     N  971   3.147   0.932  14.442 -0.5457 -0.6504  0.6213
   62MPD2    H5  972   3.186   0.985  14.365  0.9507  0.2000  1.9466
   62MPD2    N1  973   3.306   0.697  14.814  0.4948  0.6634 -0.4375
   62MPD2    H7  974   3.225   0.747  14.849 -0.8529 -0.7068 -1.5884
   63TMC2    C1  975   2.501   0.668  11.136  0.1870 -0.4336  0.2305
   63TMC2    C2  976   2.551   0.707  11.257 -0.5242 -0.4746  0.1832
   63TMC2    C3  977   2.662   0.787  11.252 -0.5859  0.9015 -0.0840
   63TMC2    C4  978   2.544   0.718  11.016  0.0537 -0.3397  0.2831
   63TMC2    C5  979   2.641   0.815  11.020  0.0290  0.6551  0.0663
   63TMC2    C6  980   2.707   0.847  11.135 -0.2160  0.0230 -0.3453
   63TMC2     C  981   2.379   0.590  11.145 -0.4232 -0.2045  0.5543
   63TMC2     O  982   2.313   0.599  11.249  0.3303 -0.7988  0.2878
   63TMC2     H  983   2.533   0.647  11.345  1.2205  1.8841  2.1329
   63TMC2    H1  984   2.500   0.682  10.924  0.6616 -2.3980  0.7905
   63TMC2    H2  985   2.787   0.920  11.140  0.1626 -0.4336  0.1437
   63TMC2    C7  986   2.655   0.897  10.894 -0.3741 -0.6060  0.5473
   63TMC2    C8  987   2.761   0.787  11.359 -0.4471  0.3766  0.9585
   63TMC2    O1  988   2.569   0.876  10.812  0.7157 -0.3165  0.6449
   63TMC2    O2  989   2.876   0.828  11.338 -0.2573 -0.3625 -0.1438
   63TMC2    O5  990   2.705   0.787  11.480 -0.4733 -0.9385  0.2763
   63TMC2    H5  991   2.609   0.805  11.485 -0.3829 -0.6951  1.0595
   64MPD2     C  992   2.022   0.261  10.943  0.0249 -0.7112 -0.1175
   64MPD2    C1  993   2.118   0.279  10.848  0.0270 -1.4477  0.0947
   64MPD2    C2  994   2.220   0.370  10.881 -0.4823 -0.1010 -0.4885
   64MPD2    C3  995   2.227   0.445  10.997  0.6083 -0.1302 -0.3707
   64MPD2    C4  996   2.131   0.413  11.090  0.3280  0.0333  0.2063
   64MPD2    C5  997   2.028   0.329  11.061  0.3812 -0.5712 -0.9800
   64MPD2     H  998   2.289   0.397  10.802 -0.8591  2.2899 -0.0104
   64MPD2    H1  999   2.127   0.466  11.184 -1.6547  0.2276  0.0309
   64MPD2    H2 1000   1.928   0.215  10.915 -0.2805 -1.1993  1.7220
   64MPD2    H3 1001   1.949   0.316  11.133  1.9163 -1.1355  0.6121
   64MPD2     N 1002   2.343   0.529  11.021  0.3372  0.7284 -0.5495
   64MPD2    H5 1003   2.418   0.515  10.954  0.5907 -2.0909  0.3540
   64MPD2    N1 1004   2.126   0.207  10.725 -0.3167 -0.0447  0.0699
   64MPD2    H7 1005   2.211   0.215  10.670 -0.2146 -0.3989  0.1764
   65TMC2    C1 1006   4.074   0.793  15.813 -0.2886  0.0067  0.3538
   65TMC2    C2 1007   4.181   0.875  15.823  0.7069  0.2438 -0.1883
   65TMC2    C3 1008   4.205   0.961  15.723 -0.4865  0.3944 -0.1532
   65TMC2    C4 1009   3.994   0.788  15.706 -0.1197 -0.5121  0.5060
   65TMC2    C5 1010   4.007   0.888  15.618 -0.5247 -0.1811 -0.1586
   65TMC2    C6 1011   4.113   0.980  15.622  1.3569 -0.1490  0.5534
   65TMC2     C 1012   4.067   0.689  15.911  0.1485 -0.1656  0.2111
   65TMC2     O 1013   4.119   0.707  16.023 -0.6642 -0.3569 -0.5034
   65TMC2     H 1014   4.249   0.869  15.907 -1.9600 -0.5543  1.9280
   65TMC2    H1 1015   3.905   0.726  15.702 -0.1727 -0.5014  1.7351
   65TMC2    H2 1016   4.117   1.065  15.555  3.4164 -0.1132  0.7251
   65TMC2    C7 1017   3.904   0.917  15.521  0.0697 -0.5079  0.1452
   65TMC2    C8 1018   4.305   1.058  15.753  0.0425 -0.0266 -0.0635
   65TMC2    O1 1019   3.932   0.971  15.420 -0.2235 -0.5169  0.0052
   65TMC2    O2 1020   4.320   1.101  15.866  0.0362 -0.1365  0.7409
   65TMC2    O5 1021   4.369   1.087  15.641 -0.5002  0.1894 -0.5193
   65TMC2    H5 1022   4.343   1.022  15.572  0.7606  0.1311 -0.9502
   66MPD2     C 1023   4.025   0.443  16.083  0.2988  0.0705  0.1519
   66MPD2    C1 1024   3.990   0.452  15.949 -0.3663  0.1635  0.1608
   66MPD2    C2 1025   3.926   0.342  15.889 -0.1242 -0.3104  0.2962
   66MPD2    C3 1026   3.900   0.228  15.959  0.1210  0.2262 -0.1319
   66MPD2    C4 1027   3.934   0.222  16.094 -0.3669  0.0638 -0.4080
   66MPD2    C5 1028   3.994   0.331  16.149  0.6369 -0.1444  0.1461
   66MPD2     H 1029   3.911   0.358  15.782 -1.0555 -2.1299  0.1628
   66MPD2    H1 1030   3.923   0.132  16.153  1.7365  0.0675 -0.0377
   66MPD2    H2 1031   4.065   0.531  16.133  1.6943 -1.1805  1.2384
   66MPD2    H3 1032   4.019   0.325  16.255 -3.1722 -2.7493  0.8848
   66MPD2     N 1033   3.833   0.113  15.900  0.9007  0.4182  0.6279
   66MPD2    H5 1034   3.823   0.029  15.955  2.5417  0.6007  1.2131
   66MPD2    N1 1035   4.020   0.568  15.868  0.3959  0.6145 -0.6730
   66MPD2    H7 1036   3.991   0.563  15.771 -0.2434 -0.8369 -0.4138
   67TMC2    C1 1037   3.745   0.034  14.380 -0.1443 -0.7317  0.0921
   67TMC2    C2 1038   3.700   0.158  14.414 -0.0348 -0.3171  0.5917
   67TMC2    C3 1039   3.712   0.202  14.543 -0.2200  0.3053 -0.2219
   67TMC2    C4 1040   3.804   4.694  14.477 -0.7100 -0.1706  0.0721
   67TMC2    C5 1041   3.823   0.003  14.609  0.3012 -0.1933 -0.8562
   67TMC2    C6 1042   3.779   0.127  14.639  0.3318 -0.5562 -0.6270
   67TMC2     C 1043   3.712   4.704  14.256 -0.5770  0.6851  0.4027
   67TMC2     O 1044   3.802   4.659  14.186 -0.2012 -0.3663 -0.2712
   67TMC2     H 1045   3.650   0.221  14.341  1.1388 -0.1762 -0.0843
   67TMC2    H1 1046   3.841   4.596  14.448  0.1571  0.0412  0.4480
   67TMC2    H2 1047   3.790   0.160  14.741  0.7659  3.6780 -2.0534
   67TMC2    C7 1048   3.938   4.681  14.676 -0.5878  0.1001 -0.6850
   67TMC2    C8 1049   3.693   0.340  14.570  0.3708  0.4481 -0.3948
   67TMC2    O1 1050   3.992   4.587  14.616  0.2218 -0.3395 -0.9153
   67TMC2    O2 1051   3.620   0.415  14.510  0.4239 -0.5680  0.4751
   67TMC2    O5 1052   3.799   0.381  14.644 -0.2275  0.5285 -0.0032
   67TMC2    H5 1053   3.870   0.314  14.650 -0.4239  0.1864 -1.4736
   68MPD2     C 1054   3.587   4.576  14.028 -0.6384 -0.5264 -0.1970
   68MPD2    C1 1055   3.518   4.627  14.132 -1.2276 -0.0983  0.3205
   68MPD2    C2 1056   3.381   4.632  14.120  0.7408  0.0304 -0.5477
   68MPD2    C3 1057   3.312   4.553  14.028 -0.2230 -0.1244  0.7683
   68MPD2    C4 1058   3.381   4.505  13.924 -0.8919 -0.4376 -0.1131
   68MPD2    C5 1059   3.515   4.520  13.924  0.4898 -0.5594  0.6841
   68MPD2     H 1060   3.331   4.678  14.205  1.9873 -1.1948  0.8474
   68MPD2    H1 1061   3.328   4.458  13.842 -1.3298 -0.5679  0.2392
   68MPD2    H2 1062   3.694   4.558  14.019 -0.7405 -0.7209 -1.0052
   68MPD2    H3 1063   3.566   4.479  13.837  0.6486  1.1654 -0.0210
   68MPD2     N 1064   3.172   4.550  14.024 -0.5127  0.0955 -0.5228
   68MPD2    H5 1065   3.115   4.533  13.941 -2.1695  0.9764  0.4365
   68MPD2    N1 1066   3.577   4.700  14.239  0.4965  0.1329  0.1315
   68MPD2    H7 1067   3.519   0.007  14.311  1.1478  2.2778 -0.5667
   69TMC2    C1 1068   0.976   1.512  12.244 -0.0766 -0.8138  0.5661
   69TMC2    C2 1069   0.842   1.512  12.224 -0.4282  0.4228 -0.5271
   69TMC2    C3 1070   0.798   1.504  12.096 -0.6606 -0.3569 -0.3964
   69TMC2    C4 1071   1.065   1.477  12.146  0.9036  0.0534 -0.4114
   69TMC2    C5 1072   1.021   1.470  12.021 -0.6190  0.2453 -0.3080
   69TMC2    C6 1073   0.890   1.480  11.992  0.4712  0.5147 -0.4356
   69TMC2     C 1074   1.015   1.528  12.381 -0.0487  0.5368 -0.3921
   69TMC2     O 1075   0.941   1.492  12.470  0.0509 -0.1435 -0.3357
   69TMC2     H 1076   0.776   1.526  12.309 -0.6391  0.1224 -0.6410
   69TMC2    H1 1077   1.171   1.481  12.166  0.7464  1.0446  0.2547
   69TMC2    H2 1078   0.864   1.497  11.888 -0.5083 -1.2146 -0.4815
   69TMC2    C7 1079   1.113   1.416  11.925 -0.5399  0.4660  0.3759
   69TMC2    C8 1080   0.668   1.555  12.076 -0.1512 -0.1079 -0.2760
   69TMC2    O1 1081   1.214   1.373  11.982  0.2817  0.1650  0.5920
   69TMC2    O2 1082   0.621   1.617  12.166  0.2024  0.2895 -0.3493
   69TMC2    O5 1083   0.619   1.531  11.952  0.0051 -0.7072 -0.0826
   69TMC2    H5 1084   0.677   1.476  11.896  1.6390  0.5044  0.4360
   70MPD2     C 1085   1.370   1.569  12.457  0.4717 -0.1489  0.3688
   70MPD2    C1 1086   1.242   1.545  12.496  0.2933  0.2958 -0.1276
   70MPD2    C2 1087   1.217   1.471  12.610  0.1783  0.2733  0.0784
   70MPD2    C3 1088   1.325   1.434  12.692  0.4364 -0.4633  0.4917
   70MPD2    C4 1089   1.456   1.455  12.650  0.1860 -0.3126 -0.0592
   70MPD2    C5 1090   1.472   1.524  12.530  0.3637  0.5992  0.0232
   70MPD2     H 1091   1.120   1.426  12.626 -0.8758  2.4041 -0.4212
   70MPD2    H1 1092   1.540   1.408  12.700  0.7675  1.7341  0.9163
   70MPD2    H2 1093   1.386   1.598  12.354 -0.5839 -0.3057  0.1527
   70MPD2    H3 1094   1.570   1.555  12.495  0.3721 -1.4286 -1.7685
   70MPD2     N 1095   1.311   1.348  12.810  0.0743  0.2587  0.0600
   70MPD2    H5 1096   1.394   1.321  12.862  0.5413  0.8373 -0.3888
   70MPD2    N1 1097   1.145   1.575  12.395  0.6052  0.2983  0.2312
   70MPD2    H7 1098   1.174   1.624  12.311 -0.7872  0.9354  0.1163
   71TMC2    C1 1099   2.647   0.879   0.696 -0.5433 -0.2999 -0.0414
   71TMC2    C2 1100   2.690   0.967   0.794 -0.2075  0.0978  0.7296
   71TMC2    C3 1101   2.597   1.042   0.851  0.3666  0.4805 -0.2358
   71TMC2    C4 1102   2.508   0.865   0.671 -0.4057  1.0216 -0.4151
   71TMC2    C5 1103   2.420   0.950   0.740 -0.3516 -0.0593  0.1708
   71TMC2    C6 1104   2.461   1.033   0.838 -0.0092  0.5520  0.1227
   71TMC2     C 1105   2.747   0.806   0.622  0.9274  0.3413 -0.8596
   71TMC2     O 1106   2.853   0.865   0.609  0.3787  0.4904  0.0291
   71TMC2     H 1107   2.795   0.965   0.818  0.7381 -1.4229 -3.4211
   71TMC2    H1 1108   2.468   0.803   0.592 -0.2094  1.8296 -1.1490
   71TMC2    H2 1109   2.390   1.099   0.887 -1.1765 -0.9681  0.4592
   71TMC2    C7 1110   2.282   0.970   0.696 -0.2533  0.1026 -0.1937
   71TMC2    C8 1111   2.649   1.147   0.938 -0.0409 -0.5585  0.2623
   71TMC2    O1 1112   2.202   1.028   0.769 -0.1940 -0.0934  0.0231
   71TMC2    O2 1113   2.770   1.154   0.969 -0.9980 -0.5756  0.4318
   71TMC2    O5 1114   2.568   1.251   0.937  0.0550 -0.5420  0.4226
   71TMC2    H5 1115   2.499   1.255   0.868 -1.4289  0.2917  1.9517
   72MPD2     C 1116   2.959   0.411   0.394 -0.1567 -0.2285 -0.3605
   72MPD2    C1 1117   2.981   0.549   0.382  0.9963 -0.7241 -0.3044
   72MPD2    C2 1118   2.893   0.641   0.432 -0.4520  0.6270  0.1493
   72MPD2    C3 1119   2.780   0.597   0.502  0.7865  0.9882  0.7391
   72MPD2    C4 1120   2.751   0.468   0.501 -0.4892 -0.1585  0.2189
   72MPD2    C5 1121   2.836   0.378   0.451 -0.9713  0.0059  0.1770
   72MPD2     H 1122   2.921   0.746   0.433 -0.1450  0.5649 -2.5080
   72MPD2    H1 1123   2.657   0.431   0.540 -0.2889  0.1485  0.9955
   72MPD2    H2 1124   3.027   0.330   0.375 -0.4779 -0.5958  0.0625
   72MPD2    H3 1125   2.821   0.271   0.439  1.1420 -0.1155 -1.2979
   72MPD2     N 1126   2.702   0.684   0.580  0.1751 -0.2810 -0.3171
   72MPD2    H5 1127   2.618   0.648   0.622 -0.0069  0.0004 -0.4399
   72MPD2    N1 1128   3.088   0.603   0.310  0.3892  0.4319 -0.0988
   72MPD2    H7 1129   3.085   0.704   0.302  0.6710  0.6518  2.5082
   73TMC2    C1 1130   2.604   3.442  14.024  0.5000 -0.2239 -0.7051
   73TMC2    C2 1131   2.497   3.485  14.096  0.2098  0.5393  0.6926
   73TMC2    C3 1132   2.516   3.535  14.226  0.3751 -0.0129 -0.1215
   73TMC2    C4 1133   2.724   3.436  14.086  0.1030  0.4216  0.0312
   73TMC2    C5 1134   2.746   3.491  14.207  0.1355  0.4223 -0.0805
   73TMC2    C6 1135   2.642   3.557  14.272  0.7316 -0.3698  0.1048
   73TMC2     C 1136   2.608   3.499  13.894  0.4078  0.4494  0.1109
   73TMC2     O 1137   2.707   3.568  13.869 -0.2882 -0.3554 -0.6398
   73TMC2     H 1138   2.399   3.462  14.057  0.6035 -2.4407  1.4569
   73TMC2    H1 1139   2.801   3.393  14.022  0.3543 -0.0221  0.6299
   73TMC2    H2 1140   2.657   3.584  14.376 -0.3515 -2.6301  0.8551
   73TMC2    C7 1141   2.867   3.572  14.201 -0.1734 -0.7410  0.1662
   73TMC2    C8 1142   2.411   3.577  14.310  0.5645  0.6104 -0.2553
   73TMC2    O1 1143   2.955   3.554  14.288  0.4565 -0.2085 -0.4231
   73TMC2    O2 1144   2.410   3.574  14.429 -0.2952 -0.5711  0.5497
   73TMC2    O5 1145   2.303   3.622  14.236 -0.3728 -0.5391 -0.7711
   73TMC2    H5 1146   2.328   3.653  14.146 -1.0628  0.2312 -0.6920
   74MPD2     C 1147   2.383   3.683  13.476  0.2445 -0.1099  0.1390
   74MPD2    C1 1148   2.501   3.721  13.536  0.3022  0.4500 -0.1238
   74MPD2    C2 1149   2.527   3.646  13.648  0.5440 -0.1116  0.3288
   74MPD2    C3 1150   2.456   3.545  13.706  0.1315 -0.0766  0.1681
   74MPD2    C4 1151   2.332   3.518  13.645  0.9532 -0.6405 -0.7594
   74MPD2    C5 1152   2.296   3.587  13.531  0.3290 -0.7152 -0.0411
   74MPD2     H 1153   2.628   3.662  13.685  0.2533 -0.0377  1.0890
   74MPD2    H1 1154   2.263   3.442  13.679  2.7274 -0.8932  2.3576
   74MPD2    H2 1155   2.355   3.729  13.382  0.1863 -3.1442 -1.3395
   74MPD2    H3 1156   2.198   3.573  13.487  0.4460 -1.0003 -0.2168
   74MPD2     N 1157   2.491   3.484  13.819 -0.5796 -0.1786  0.1631
   74MPD2    H5 1158   2.420   3.428  13.864 -1.1668 -0.9709 -1.7229
   74MPD2    N1 1159   2.579   3.831  13.484  0.1957  0.0463 -0.1195
   74MPD2    H7 1160   2.544   3.875  13.400 -0.4751 -0.5033 -0.1318
   75TMC2    C1 1161   2.957   4.580  14.103 -0.1373  0.7415  0.3829
   75TMC2    C2 1162   2.878   4.605  14.211 -0.0321  0.5277  1.0704
   75TMC2    C3 1163   2.742   4.601  14.187 -0.2303 -0.2768 -0.2338
   75TMC2    C4 1164   2.907   4.559  13.977 -1.1806 -0.1214 -0.9485
   75TMC2    C5 1165   2.767   4.547  13.965 -0.2108  1.1628 -0.0037
   75TMC2    C6 1166   2.682   4.572  14.068 -0.0929 -0.4215 -0.0003
   75TMC2     C 1167   3.097   4.585  14.131  0.4204 -0.6129  0.5865
   75TMC2     O 1168   3.128   4.601  14.249  0.0248 -0.0059 -0.2152
   75TMC2     H 1169   2.912   4.640  14.308  0.4561  1.1204  0.6824
   75TMC2    H1 1170   2.973   4.524  13.898  1.0217  2.1482 -0.1249
   75TMC2    H2 1171   2.575   4.559  14.061 -0.0522 -0.1075 -1.0989
   75TMC2    C7 1172   2.717   4.535  13.827 -0.4423  0.3397  0.0313
   75TMC2    C8 1173   2.659   4.633  14.294  0.2049 -0.2652 -0.1776
   75TMC2    O1 1174   2.804   4.533  13.742 -0.5528 -0.0226  0.7677
   75TMC2    O2 1175   2.698   4.621  14.411  0.1583  0.1760 -0.4746
   75TMC2    O5 1176   2.572   4.726  14.252 -0.1929 -0.5896  1.0394
   75TMC2    H5 1177   2.545   4.731  14.157  1.9062  0.4001  0.4991
   76TMC2    C1 1178   2.553   0.512  11.878  0.2288  0.3293  0.2670
   76TMC2    C2 1179   2.501   0.387  11.915  0.3788  0.0044  0.0718
   76TMC2    C3 1180   2.571   0.310  12.001  0.1212 -0.3928 -0.3631
   76TMC2    C4 1181   2.675   0.552  11.918  0.0324  0.3142  0.3248
   76TMC2    C5 1182   2.740   0.477  12.010 -0.6072  0.2894 -1.0258
   76TMC2    C6 1183   2.688   0.353  12.052 -0.6247 -0.3703  0.2358
   76TMC2     C 1184   2.461   0.615  11.833 -0.3227 -0.4045 -0.2231
   76TMC2     O 1185   2.363   0.559  11.787  0.0669 -0.1993  0.5591
   76TMC2     H 1186   2.409   0.360  11.866 -0.2480  0.2496  1.1186
   76TMC2    H1 1187   2.718   0.645  11.880  2.1083 -1.2350 -1.1548
   76TMC2    H2 1188   2.749   0.290  12.117 -0.3733 -0.3564  0.0140
   76TMC2    C7 1189   2.878   0.512  12.028  0.5359 -0.1110 -0.6752
   76TMC2    C8 1190   2.530   0.171  12.005 -0.0024 -0.8710  0.0668
   76TMC2    O1 1191   2.929   0.552  11.924  0.3329  0.4384  0.6223
   76TMC2    O2 1192   2.495   0.114  11.901 -0.3019  0.2099 -0.4291
   76TMC2    O5 1193   2.613   0.123  12.101  0.1614  0.4118 -0.5994
   76TMC2    H5 1194   2.607   0.190  12.173 -1.3670 -1.1831  0.7742
   77MPD2     C 1195   2.255   1.082  11.885  0.1358 -0.2818  0.3870
   77MPD2    C1 1196   2.210   0.973  11.819 -0.2711 -0.1822 -0.1832
   77MPD2    C2 1197   2.294   0.863  11.801  0.0074  0.2660 -0.4882
   77MPD2    C3 1198   2.417   0.859  11.859 -0.7818  0.3134 -0.0911
   77MPD2    C4 1199   2.474   0.974  11.911 -0.3492  0.4327  0.0961
   77MPD2    C5 1200   2.383   1.072  11.938 -0.0728 -0.5227 -0.8621
   77MPD2     H 1201   2.263   0.776  11.745  1.7236  0.9548 -2.4686
   77MPD2    H1 1202   2.575   0.970  11.950 -0.5359 -3.2048  0.2682
   77MPD2    H2 1203   2.200   1.173  11.905  0.7685  0.2490 -0.2976
   77MPD2    H3 1204   2.419   1.155  11.998 -0.8177 -2.0818  1.7407
   77MPD2     N 1205   2.497   0.744  11.864 -0.0934 -0.3358 -0.0804
   77MPD2    H5 1206   2.575   0.758  11.928 -0.9072 -0.7880  1.0142
   77MPD2    N1 1207   2.078   0.974  11.755 -0.1119 -0.2777  0.6017
   77MPD2    H7 1208   2.069   0.903  11.683 -0.1606 -0.3864  0.7124
   78TMC2    C1 1209   3.171   0.672   1.554 -0.6592  0.3520 -0.2135
   78TMC2    C2 1210   3.097   0.779   1.522 -0.0538  0.3109 -0.1504
   78TMC2    C3 1211   3.140   0.904   1.565  0.5122  0.5360 -0.4178
   78TMC2    C4 1212   3.292   0.681   1.618  0.2842  0.1830 -0.2756
   78TMC2    C5 1213   3.337   0.809   1.640 -0.5562 -0.0557 -0.7450
   78TMC2    C6 1214   3.269   0.922   1.610 -0.5981  0.0288 -0.5984
   78TMC2     C 1215   3.125   0.539   1.523 -0.6655  0.7597  0.3215
   78TMC2     O 1216   3.155   0.446   1.597 -0.0269  1.1001  0.5717
   78TMC2     H 1217   2.996   0.768   1.485  0.0482  0.6304 -0.5221
   78TMC2    H1 1218   3.358   0.597   1.638 -0.2446 -0.0327  0.5624
   78TMC2    H2 1219   3.294   1.022   1.643  0.1442  0.5253 -2.6371
   78TMC2    C7 1220   3.470   0.822   1.695 -0.2638  0.0930  0.1335
   78TMC2    C8 1221   3.043   1.013   1.559 -0.2850 -0.5338  0.5397
   78TMC2    O1 1222   3.528   0.928   1.672  0.1410 -0.2801 -0.3722
   78TMC2    O2 1223   2.924   0.988   1.545  0.6120  0.2291 -0.3054
   78TMC2    O5 1224   3.113   1.107   1.480 -0.3442  0.5791  0.1022
   78TMC2    H5 1225   3.209   1.121   1.493  0.1994 -1.6711 -1.5131
   79MPD1     C 1226   2.876   0.199   1.228 -0.4682 -0.2604  0.5140
   79MPD1    C1 1227   2.987   0.181   1.307 -0.0986 -0.1845  0.3248
   79MPD1    C2 1228   3.042   0.293   1.372 -0.6346  0.2471  0.3138
   79MPD1    C3 1229   2.991   0.423   1.352  0.2531 -1.1148  0.4781
   79MPD1    C4 1230   2.888   0.436   1.263  0.0480 -0.3076 -1.1098
   79MPD1    C5 1231   2.832   0.329   1.201  0.2581 -0.0600 -0.7974
   79MPD1     H 1232   3.123   0.279   1.443  0.0933 -0.2494 -0.6034
   79MPD1    H1 1233   2.854   0.533   1.226  1.7361  1.1988  1.3354
   79MPD1    H2 1234   2.827   0.114   1.183 -0.6573 -0.1790  0.5702
   79MPD1    H3 1235   2.743   0.354   1.143  0.1539  1.4221  0.0039
   79MPD1     N 1236   3.040   0.540   1.413  0.0772 -0.2114 -0.3818
   79MPD1    H5 1237   3.028   0.632   1.371  1.9910  1.0445  1.7786
   79MPD1    N1 1238   3.021   0.047   1.349 -0.1901  0.2643  0.0207
   79MPD1    H6 1239   3.118   0.036   1.377  0.3365 -0.8815 -2.1882
   79MPD1    H7 1240   3.005   4.707   1.280 -0.6700  0.8059 -0.4484
   80TMC2    C1 1241   1.466   0.521  12.262  0.1705  0.1075  0.3132
   80TMC2    C2 1242   1.587   0.499  12.207  0.1505 -0.0329  0.5743
   80TMC2    C3 1243   1.588   0.448  12.080 -0.0355 -0.3605  0.2512
   80TMC2    C4 1244   1.348   0.503  12.193  0.1203  0.1995 -0.0671
   80TMC2    C5 1245   1.354   0.457  12.068 -0.2005  0.3294  1.3439
   80TMC2    C6 1246   1.470   0.424  12.014  0.4535  0.3639 -0.4520
   80TMC2     C 1247   1.458   0.509  12.409 -0.0666 -0.0488 -0.6684
   80TMC2     O 1248   1.555   0.457  12.468  0.3216  0.3661  0.5231
   80TMC2     H 1249   1.679   0.527  12.257 -0.3870 -0.9857  2.1107
   80TMC2    H1 1250   1.252   0.511  12.242  0.8537  2.0202  1.0758
   80TMC2    H2 1251   1.476   0.366  11.922 -3.0745  0.3114 -0.6280
   80TMC2    C7 1252   1.237   0.404  12.002  0.1355  0.5414  0.1590
   80TMC2    C8 1253   1.695   0.354  12.056 -1.0505  0.0308 -0.6130
   80TMC2    O1 1254   1.235   0.406  11.880 -0.4842 -0.0030  0.3552
   80TMC2    O2 1255   1.752   0.353  11.951  0.2626 -0.3282 -0.4872
   80TMC2    O5 1256   1.670   0.246  12.132 -0.2551 -0.1169  0.0552
   80TMC2    H5 1257   1.598   0.257  12.199 -0.5006 -1.9756  0.1021
   81MPD2     C 1258   1.355   0.445  12.684 -0.0387  0.0295  0.5706
   81MPD2    C1 1259   1.289   0.516  12.588 -0.2077 -0.3273 -0.0301
   81MPD2    C2 1260   1.154   0.547  12.608  0.1776  0.3239  0.4688
   81MPD2    C3 1261   1.097   0.541  12.735  0.5336 -0.1445 -0.4552
   81MPD2    C4 1262   1.164   0.477  12.834 -0.0070 -0.2056 -0.1161
   81MPD2    C5 1263   1.292   0.429  12.806  0.1609 -0.7773 -0.2556
   81MPD2     H 1264   1.101   0.599  12.529  0.4982  1.2114  0.8431
   81MPD2    H1 1265   1.135   0.484  12.938  0.7745 -3.3291  0.3178
   81MPD2    H2 1266   1.460   0.419  12.675 -0.3209 -0.1629 -2.2368
   81MPD2    H3 1267   1.347   0.381  12.886  1.4726  0.8144 -0.1914
   81MPD2     N 1268   0.978   0.607  12.771 -0.6426 -0.7229  0.5229
   81MPD2    H5 1269   0.942   0.593  12.865 -3.3547  2.2296 -0.0709
   81MPD2    N1 1270   1.336   0.546  12.459  0.2266 -0.3621 -0.1112
   81MPD2    H7 1271   1.290   0.609  12.395  1.4052  0.2352 -0.3591
   82TMC2    C1 1272   4.359   3.977  11.192  0.2809  0.4559  0.2950
   82TMC2    C2 1273   4.399   4.004  11.323  0.1060 -0.7936  0.0026
   82TMC2    C3 1274   4.487   3.925  11.386  0.5609  0.1973  0.1037
   82TMC2    C4 1275   4.417   3.875  11.130  0.3950 -0.7277 -0.8131
   82TMC2    C5 1276   4.482   3.782  11.205  0.1859 -0.6312 -0.6749
   82TMC2    C6 1277   4.528   3.812  11.328  0.2467  0.4060 -0.0370
   82TMC2     C 1278   4.221   3.998  11.162 -0.2128  0.7040  0.2598
   82TMC2     O 1279   4.190   3.985  11.042 -0.0948 -0.1183  0.0316
   82TMC2     H 1280   4.354   4.086  11.379  0.7129  1.0776 -2.2273
   82TMC2    H1 1281   4.400   3.851  11.026 -3.9720  0.6685 -0.4286
   82TMC2    H2 1282   4.602   3.748  11.376 -1.0986 -2.2400 -1.4565
   82TMC2    C7 1283   4.392   3.664  11.222  0.1200  0.0227 -0.1110
   82TMC2    C8 1284   4.471   3.910  11.526 -0.3190 -0.0495  0.6856
   82TMC2    O1 1285   4.372   3.642  11.340  0.6932 -0.1399  0.0556
   82TMC2    O2 1286   4.479   3.997  11.609 -0.5552 -0.0766  0.5588
   82TMC2    O5 1287   4.384   3.809  11.543  0.2701  0.1182  1.3488
   82TMC2    H5 1288   4.366   3.754  11.463  1.5020  1.8633 -0.1201
   83MPD2     C 1289   3.724   4.011  11.318 -0.1006  0.0923 -0.6320
   83MPD2    C1 1290   3.780   4.023  11.189  0.2746 -0.2001  0.5245
   83MPD2    C2 1291   3.916   4.006  11.169  0.5970  0.8201  0.1364
   83MPD2    C3 1292   4.001   3.994  11.281 -0.4897  1.3482 -0.2598
   83MPD2    C4 1293   3.944   3.981  11.405  0.5476 -0.1106 -0.0930
   83MPD2    C5 1294   3.807   3.986  11.418  0.0778 -0.3240  0.4955
   83MPD2     H 1295   3.959   4.025  11.071  0.0312  0.8968 -0.0966
   83MPD2    H1 1296   4.002   3.949  11.491  1.2726  1.9626  0.1765
   83MPD2    H2 1297   3.619   4.015  11.343  0.1232  0.3870  0.2493
   83MPD2    H3 1298   3.779   3.972  11.521  4.5002  2.1681  2.0317
   83MPD2     N 1299   4.146   4.005  11.275  0.3451 -0.3845 -0.2415
   83MPD2    H5 1300   4.198   3.998  11.362 -0.2725  1.9047  0.3290
   83MPD2    N1 1301   3.686   4.050  11.085 -0.4078  0.0304 -0.2811
   83MPD2    H7 1302   3.589   4.059  11.114 -0.4054 -2.3256  0.4894
   84TMC2    C1 1303   0.567   3.674  10.626  0.5858 -0.3691 -0.2876
   84TMC2    C2 1304   0.605   3.552  10.583 -0.1033  0.7460 -0.3624
   84TMC2    C3 1305   0.676   3.541  10.469  0.6930  0.2898 -0.2891
   84TMC2    C4 1306   0.596   3.788  10.556 -0.3126  0.4587  0.0684
   84TMC2    C5 1307   0.677   3.771  10.441 -0.6544 -0.0658 -0.6962
   84TMC2    C6 1308   0.720   3.655  10.395  0.5261  0.0985 -0.0180
   84TMC2     C 1309   0.503   3.696  10.747 -0.0608  0.0591 -0.6360
   84TMC2     O 1310   0.542   3.791  10.814  0.0522  0.2634  0.3649
   84TMC2     H 1311   0.564   3.458  10.618  2.0140 -0.3632 -0.8756
   84TMC2    H1 1312   0.555   3.883  10.586  1.0349  0.9305  0.4070
   84TMC2    H2 1313   0.778   3.659  10.303  0.6421  1.3927  0.1075
   84TMC2    C7 1314   0.716   3.890  10.360  0.9125 -0.7841 -0.5705
   84TMC2    C8 1315   0.696   3.418  10.403  0.5288  0.4897 -0.3341
   84TMC2    O1 1316   0.708   3.888  10.239  0.1470  0.0410  0.3708
   84TMC2    O2 1317   0.627   3.318  10.415 -0.0994  0.3380  0.3886
   84TMC2    O5 1318   0.821   3.418  10.349 -0.0303 -0.1803  0.3333
   84TMC2    H5 1319   0.874   3.498  10.369 -1.2998  0.7039  0.1202
   85TMC2    C1 1320   1.046   1.603  16.005 -0.0414  0.1817 -0.0856
   85TMC2    C2 1321   0.948   1.571  15.919 -0.5075 -0.0100 -0.8456
   85TMC2    C3 1322   0.949   1.630  15.794 -0.0092  0.3737 -0.0964
   85TMC2    C4 1323   1.137   1.701  15.978  0.3008  0.9409 -0.5804
   85TMC2    C5 1324   1.127   1.769  15.856 -0.0960  1.0056  0.3847
   85TMC2    C6 1325   1.040   1.724  15.760 -0.7598  0.4920 -0.0519
   85TMC2     C 1326   1.051   1.540  16.142 -0.1207 -0.5030 -0.8511
   85TMC2     O 1327   1.133   1.576  16.221 -0.2320  0.6749 -0.5555
   85TMC2     H 1328   0.881   1.487  15.930 -0.3287 -0.1988 -1.2053
   85TMC2    H1 1329   1.203   1.742  16.053  0.3143 -1.6492  0.8202
   85TMC2    H2 1330   1.038   1.762  15.658  1.9426 -2.4584 -1.1834
   85TMC2    C7 1331   1.261   1.805  15.812 -0.8156  0.3329  0.1749
   85TMC2    C8 1332   0.864   1.574  15.691  0.0881 -0.3909  0.3129
   85TMC2    O1 1333   1.344   1.718  15.822 -0.6684 -0.6652  0.0521
   85TMC2    O2 1334   0.795   1.650  15.620  0.4082  0.9232  0.1593
   85TMC2    O5 1335   0.875   1.445  15.679  0.0227 -0.0312 -0.1146
   85TMC2    H5 1336   0.964   1.428  15.717  0.5904  3.7690  0.1903
   86MPD2     C 1337   0.929   1.151  16.473  0.5928 -0.0825 -0.2796
   86MPD2    C1 1338   0.872   1.123  16.349  0.6460  0.4706  0.4592
   86MPD2    C2 1339   0.890   1.219  16.246  0.0121  0.2285 -0.0911
   86MPD2    C3 1340   0.945   1.341  16.265 -0.4435  0.5733  0.1417
   86MPD2    C4 1341   0.997   1.359  16.385  0.2526  0.4434  0.1110
   86MPD2    C5 1342   0.985   1.269  16.491 -0.0215 -0.1499 -0.2124
   86MPD2     H 1343   0.827   1.203  16.159 -3.1146  1.5025  1.9222
   86MPD2    H1 1344   1.061   1.445  16.401  0.3874  0.4215 -0.3147
   86MPD2    H2 1345   0.933   1.082  16.556  4.0823  1.8719  1.1959
   86MPD2    H3 1346   1.039   1.291  16.582  0.2677 -0.9101 -0.2041
   86MPD2     N 1347   0.966   1.433  16.151 -0.3332 -0.2580  0.1932
   86MPD2    H5 1348   0.915   1.419  16.065  0.1921  3.0526 -0.6798
   86MPD2    N1 1349   0.797   1.018  16.327 -0.5172 -0.1719  0.1071
   86MPD2    H7 1350   0.753   1.008  16.236  1.0531 -1.0517 -0.5593
   87TMC2    C1 1351   3.672   0.236   1.371 -0.4080  0.6048  0.4531
   87TMC2    C2 1352   3.773   0.268   1.463 -0.3606  0.0648 -0.4954
   87TMC2    C3 1353   3.756   0.392   1.525  0.9301  0.2003 -0.2081
   87TMC2    C4 1354   3.556   0.316   1.349  0.4870 -0.2651 -0.1184
   87TMC2    C5 1355   3.556   0.433   1.410 -0.2283  0.3167  0.1945
   87TMC2    C6 1356   3.651   0.474   1.499  0.3304 -0.0587  0.5147
   87TMC2     C 1357   3.688   0.138   1.258 -0.1036 -0.7904  1.2475
   87TMC2     O 1358   3.799   0.089   1.244 -0.3280  0.3811  0.3953
   87TMC2     H 1359   3.856   0.202   1.487  0.4516  1.9588  1.8967
   87TMC2    H1 1360   3.489   0.304   1.265 -0.4926  0.2758  0.5988
   87TMC2    H2 1361   3.650   0.565   1.558  1.6359  2.0216 -2.7028
   87TMC2    C7 1362   3.474   0.533   1.352 -0.3729  0.7859  0.2513
   87TMC2    C8 1363   3.824   0.400   1.651  0.0288 -0.3407 -0.2881
   87TMC2    O1 1364   3.362   0.500   1.314 -0.1439 -0.6157 -0.2144
   87TMC2    O2 1365   3.946   0.418   1.647 -0.0787 -0.1379 -0.6193
   87TMC2    O5 1366   3.765   0.308   1.729 -0.0324  0.0201 -0.4079
   87TMC2    H5 1367   3.669   0.290   1.720 -0.2918  0.4397  1.4603
   88MPD2     C 1368   3.553   0.893   1.334  0.2694  0.1839  0.6177
   88MPD2    C1 1369   3.474   0.781   1.325  0.5433  0.6603  0.2113
   88MPD2    C2 1370   3.345   0.800   1.276 -0.1044  0.5079 -1.1495
   88MPD2    C3 1371   3.301   0.918   1.228  0.3078 -0.5776  0.5436
   88MPD2    C4 1372   3.386   1.029   1.229  0.3760  0.1887 -0.5673
   88MPD2    C5 1373   3.509   1.015   1.282  0.0897 -0.6637  0.3698
   88MPD2     H 1374   3.283   0.713   1.258  0.1227  0.2511 -0.6931
   88MPD2    H1 1375   3.374   1.127   1.185 -0.4651 -0.0443 -0.8492
   88MPD2    H2 1376   3.650   0.881   1.381 -0.7196 -0.9798  2.3855
   88MPD2    H3 1377   3.579   1.097   1.286  1.0918 -1.4224 -2.0270
   88MPD2     N 1378   3.178   0.926   1.151 -0.2690 -0.4363  0.1246
   88MPD2    H5 1379   3.182   1.008   1.092  0.3780 -0.5457  0.0185
   88MPD2    N1 1380   3.532   0.657   1.351 -0.1686  0.4939 -0.2245
   88MPD2    H7 1381   3.627   0.658   1.388  0.1642  0.2487 -1.0655
   89TMC2    C1 1382   3.938   2.598   1.301 -0.0595  0.8862 -0.6272
   89TMC2    C2 1383   3.824   2.579   1.372  0.0505 -0.4180 -0.6209
   89TMC2    C3 1384   3.772   2.682   1.444 -0.1566 -0.2404  0.6969
   89TMC2    C4 1385   4.005   2.717   1.303  0.3396 -0.2121  0.4623
   89TMC2    C5 1386   3.957   2.807   1.397  0.4214  0.3024  0.0930
   89TMC2    C6 1387   3.837   2.795   1.468  0.4483  0.4951 -0.5896
   89TMC2     C 1388   3.997   2.485   1.233  0.4900  0.1283  0.3422
   89TMC2     O 1389   4.119   2.476   1.233  0.4017 -0.2559  0.3366
   89TMC2     H 1390   3.803   2.481   1.412  1.7596  0.3009  2.0591
   89TMC2    H1 1391   4.105   2.715   1.262 -0.7950  0.5639 -2.3890
   89TMC2    H2 1392   3.810   2.859   1.551 -2.0466  0.2509 -1.2268
   89TMC2    C7 1393   4.044   2.908   1.450 -0.3222  0.2459  0.4597
   89TMC2    C8 1394   3.657   2.665   1.533  1.0166 -0.2794  0.0855
   89TMC2    O1 1395   4.019   2.952   1.562 -0.5699  0.0597 -0.1877
   89TMC2    O2 1396   3.660   2.715   1.643  0.4691  0.1108 -0.4204
   89TMC2    O5 1397   3.589   2.554   1.499  0.0450 -0.2859  0.1824
   89TMC2    H5 1398   3.591   2.527   1.405  1.0663  2.2311 -0.5362
   90MPD2     C 1399   3.939   2.002   1.042 -0.4748 -0.4690 -0.0868
   90MPD2    C1 1400   3.819   2.045   1.091 -0.0418  0.3865 -0.5537
   90MPD2    C2 1401   3.809   2.173   1.133  0.1819  0.5553  0.8881
   90MPD2    C3 1402   3.916   2.263   1.144 -0.0904  0.2367 -0.5809
   90MPD2    C4 1403   4.038   2.225   1.083  0.0774  0.5634  0.5504
   90MPD2    C5 1404   4.041   2.096   1.033 -0.0398  0.5502 -0.3744
   90MPD2     H 1405   3.713   2.210   1.167 -0.7763 -0.2211 -0.9796
   90MPD2    H1 1406   4.128   2.284   1.076  0.6199 -0.3156  0.0736
   90MPD2    H2 1407   3.953   1.911   0.985 -1.2239 -0.2283 -0.6566
   90MPD2    H3 1408   4.129   2.051   0.987 -1.3039 -0.5416 -1.6955
   90MPD2     N 1409   3.895   2.398   1.191  0.0126 -0.4312  0.4508
   90MPD2    H5 1410   3.801   2.430   1.210 -0.6166 -1.9678 -0.0660
   90MPD2    N1 1411   3.705   1.965   1.104 -0.6058  0.4770 -0.0702
   90MPD2    H7 1412   3.618   2.012   1.129 -0.1536  1.1315  0.2763
   91TMC2    C1 1413   1.468   2.215  16.402  0.4290 -0.1701  0.1955
   91TMC2    C2 1414   1.495   2.267  16.277 -0.2910  0.2721 -0.3737
   91TMC2    C3 1415   1.394   2.304  16.193 -0.0796 -0.8378 -0.5829
   91TMC2    C4 1416   1.337   2.202  16.435  0.9135  0.3057 -0.5669
   91TMC2    C5 1417   1.237   2.254  16.358  0.2229 -0.1857 -0.5452
   91TMC2    C6 1418   1.266   2.311  16.235 -0.2383  0.0591  0.5634
   91TMC2     C 1419   1.564   2.119  16.451 -0.1977  0.0230  0.0297
   91TMC2     O 1420   1.529   2.004  16.473 -0.4749  0.0456  0.4891
   91TMC2     H 1421   1.599   2.272  16.247 -0.4644  1.7446 -0.7160
   91TMC2    H1 1422   1.311   2.152  16.528  3.2226 -0.6155 -0.4136
   91TMC2    H2 1423   1.181   2.329  16.170 -0.6058 -3.1642  0.1710
   91TMC2    C7 1424   1.100   2.247  16.414 -0.8624 -0.1747  0.4858
   91TMC2    C8 1425   1.434   2.376  16.077 -0.2250 -0.1317  0.0946
   91TMC2    O1 1426   1.092   2.208  16.529  0.1810  0.2281 -0.1350
   91TMC2    O2 1427   1.366   2.465  16.030 -0.3097 -0.2576 -0.0957
   91TMC2    O5 1428   1.497   2.281  16.002  0.1272  0.5762 -0.1936
   91TMC2    H5 1429   1.499   2.190  16.039 -2.5868  0.2145 -0.9157
   92MPD2     C 1430   1.825   1.969  16.492  0.2690 -0.0919  0.7037
   92MPD2    C1 1431   1.813   2.105  16.490  0.2574 -1.3257  0.5107
   92MPD2    C2 1432   1.928   2.183  16.506  0.3294  0.1032 -0.4888
   92MPD2    C3 1433   2.053   2.132  16.507  0.5889  0.1188  0.2611
   92MPD2    C4 1434   2.066   1.993  16.497  0.7981  0.6300 -0.2895
   92MPD2    C5 1435   1.957   1.918  16.498  0.8953 -0.0489  0.3057
   92MPD2     H 1436   1.917   2.291  16.510 -3.2887 -0.2914  0.3412
   92MPD2    H1 1437   2.164   1.948  16.489  1.6389  2.6159 -1.3381
   92MPD2    H2 1438   1.736   1.908  16.494  0.9413 -1.0564  1.5824
   92MPD2    H3 1439   1.964   1.810  16.496 -2.6246 -0.2450 -2.2002
   92MPD2     N 1440   2.158   2.224  16.498  0.4221 -0.0449 -0.0166
   92MPD2    H5 1441   2.129   2.321  16.498 -0.4385 -0.3021 -0.9054
   92MPD2    N1 1442   1.686   2.176  16.468 -0.1549 -0.5239 -0.5012
   92MPD2    H7 1443   1.690   2.277  16.465  0.7432 -0.4551  2.6511
   93TMC2    C1 1444   3.087   2.772  14.111 -0.1818  0.5141 -0.0382
   93TMC2    C2 1445   3.023   2.721  14.225 -0.2034  0.1549  0.3840
   93TMC2    C3 1446   3.094   2.728  14.341 -0.3932  0.7837 -0.1786
   93TMC2    C4 1447   3.211   2.832  14.115 -0.1703  0.4447  0.1748
   93TMC2    C5 1448   3.269   2.836  14.238 -0.1336 -0.1380  0.2564
   93TMC2    C6 1449   3.221   2.774  14.350  0.2061  0.4530 -0.5101
   93TMC2     C 1450   3.006   2.808  13.995  0.1105  0.3920  0.4234
   93TMC2     O 1451   3.025   2.923  13.952  0.0100 -1.1677  0.6160
   93TMC2     H 1452   2.927   2.672  14.217  0.3189 -0.7382 -0.4910
   93TMC2    H1 1453   3.249   2.888  14.030 -2.0334  0.0946 -0.9067
   93TMC2    H2 1454   3.268   2.791  14.446 -0.6835  0.3285 -0.0526
   93TMC2    C7 1455   3.396   2.902  14.255 -0.3957 -0.3413  0.6521
   93TMC2    C8 1456   3.051   2.645  14.456 -0.4729  0.1661 -0.0241
   93TMC2    O1 1457   3.489   2.838  14.305 -0.3228 -0.2428 -0.2966
   93TMC2    O2 1458   3.134   2.606  14.538 -0.2156 -0.5291 -0.3143
   93TMC2    O5 1459   2.927   2.682  14.469  0.2982 -0.2509 -0.6089
   93TMC2    H5 1460   2.894   2.730  14.390 -0.7843 -0.5149 -0.3247
   94MPD2     C 1461   2.814   2.855  13.783 -0.4339  0.1083  0.1727
   94MPD2    C1 1462   2.813   2.744  13.867  0.3164  0.7744 -0.0584
   94MPD2    C2 1463   2.707   2.649  13.845 -0.5356 -0.0544 -0.5770
   94MPD2    C3 1464   2.604   2.669  13.744 -0.2238  0.0945  0.5693
   94MPD2    C4 1465   2.612   2.785  13.668 -0.0750  0.2369 -0.3455
   94MPD2    C5 1466   2.716   2.875  13.688 -0.1911 -0.1511  0.4713
   94MPD2     H 1467   2.702   2.558  13.904  2.2815  0.6649  0.7928
   94MPD2    H1 1468   2.542   2.802  13.587  1.5488  1.4826 -1.4764
   94MPD2    H2 1469   2.881   2.939  13.795 -0.2444 -0.2581  1.6043
   94MPD2    H3 1470   2.719   2.962  13.624  1.7473 -0.0918  0.6602
   94MPD2     N 1471   2.482   2.592  13.728 -0.3246  0.2705  0.4982
   94MPD2    H5 1472   2.399   2.626  13.682  0.8214 -0.3088 -1.9685
   94MPD2    N1 1473   2.909   2.718  13.968 -0.1615 -0.8230 -0.1454
   94MPD2    H7 1474   2.913   2.631  14.020 -0.2760  0.2707  1.7231
   95TMC2    C1 1475   3.120   4.202  16.428 -0.1083  0.0759 -0.4643
   95TMC2    C2 1476   3.088   4.063  16.459  0.3745 -0.3592  0.2474
   95TMC2    C3 1477   3.064   4.027  16.588  0.6035 -0.8723  0.8227
   95TMC2    C4 1478   3.138   4.292  16.529 -0.3202  0.4475 -0.7397
   95TMC2    C5 1479   3.115   4.245  16.657 -0.2153  0.8798 -0.0743
   95TMC2    C6 1480   3.081   4.112  16.691  0.1824  0.4198  0.1369
   95TMC2     C 1481   3.169   4.245  16.298  0.9389  0.3982  0.8795
   95TMC2     O 1482   3.231   4.351  16.301 -0.9802  0.1943  0.1145
   95TMC2     H 1483   3.084   3.988  16.381  0.0248 -0.2854  0.1971
   95TMC2    H1 1484   3.176   4.393  16.511 -0.7980  0.1346 -3.4355
   95TMC2    H2 1485   3.053   4.077  16.789 -1.0043  0.1989 -0.2837
   95TMC2    C7 1486   3.122   4.341  16.777  0.5767 -0.9267 -0.2064
   95TMC2    C8 1487   2.983   3.909  16.616 -0.6103  0.6185 -0.2281
   95TMC2    O1 1488   3.095   4.297  16.887  0.0702  0.2415 -0.1208
   95TMC2    O2 1489   2.904   3.868  16.536  0.3700  0.0914 -0.2417
   95TMC2    O5 1490   3.014   3.858  16.734  0.3921  0.1441 -0.3062
   95TMC2    H5 1491   3.104   3.879  16.767 -0.7449  0.7700  2.3879
   96MPD2     C 1492   3.245   4.217  15.788 -0.3394  0.1317 -0.3021
   96MPD2    C1 1493   3.306   4.296  15.880 -0.5847  0.9341 -0.3433
   96MPD2    C2 1494   3.295   4.279  16.017  0.3741 -0.1866  0.7328
   96MPD2    C3 1495   3.203   4.181  16.063 -0.5166 -0.3457  0.4804
   96MPD2    C4 1496   3.143   4.102  15.967  0.1660 -0.4497  0.1764
   96MPD2    C5 1497   3.167   4.117  15.834  0.0894 -0.5449  0.1253
   96MPD2     H 1498   3.348   4.339  16.090  1.3987 -0.2211  0.0145
   96MPD2    H1 1499   3.078   4.019  15.991 -0.5994 -0.2518 -1.2145
   96MPD2    H2 1500   3.260   4.242  15.683 -1.2587  0.8501 -0.2585
   96MPD2    H3 1501   3.131   4.028  15.784 -0.3348  0.1652 -0.8403
   96MPD2     N 1502   3.154   4.158  16.194  0.4213 -0.4678  0.1325
   96MPD2    H5 1503   3.076   4.092  16.197 -1.7341  2.0642 -0.4540
   96MPD2    N1 1504   3.394   4.396  15.824 -0.3386 -0.1611 -0.3158
   96MPD2    H7 1505   3.403   4.391  15.723  2.1630  0.0479 -0.0915
   97TMC2    C1 1506   0.762   1.817   0.001 -0.5372  0.0629 -0.1056
   97TMC2    C2 1507   0.683   1.759  17.636 -0.1530 -0.3648 -0.6336
   97TMC2    C3 1508   0.631   1.841  17.541  0.2913 -0.2028  0.1767
   97TMC2    C4 1509   0.790   1.950   0.001  1.0547 -0.0178 -0.3704
   97TMC2    C5 1510   0.735   2.030  17.638  0.2547 -0.1474  0.5150
   97TMC2    C6 1511   0.660   1.978  17.532  0.8548  0.4244  0.5357
   97TMC2     C 1512   0.778   1.743   0.127 -0.5510 -0.1314  0.0892
   97TMC2     O 1513   0.772   1.621   0.121 -0.1216 -0.6458 -0.3377
   97TMC2     H 1514   0.649   1.656  17.639  0.0060 -0.3535  1.0685
   97TMC2    H1 1515   0.860   1.992   0.071  0.6025  0.5010 -0.2354
   97TMC2    H2 1516   0.626   2.035  17.447  1.9119  0.5316  0.1889
   97TMC2    C7 1517   0.823   2.146  17.619  0.2646  0.3159 -0.1648
   97TMC2    C8 1518   0.601   1.788  17.413 -0.4775  0.1110 -0.5310
   97TMC2    O1 1519   0.934   2.143  17.669 -0.4477 -0.2175  0.4877
   97TMC2    O2 1520   0.549   1.853  17.322  0.1268 -0.3521  0.0365
   97TMC2    O5 1521   0.700   1.700  17.389  0.0992  0.5297 -0.0099
   97TMC2    H5 1522   0.760   1.677  17.464 -0.2849 -0.5953 -0.0367
   98MPD2     C 1523   0.731   1.725   0.633 -0.0661  0.4145  1.0106
   98MPD2    C1 1524   0.729   1.627   0.545 -0.7862  0.1924  0.1978
   98MPD2    C2 1525   0.730   1.652   0.409 -0.3128 -0.1779 -0.5164
   98MPD2    C3 1526   0.760   1.782   0.370  0.5934 -0.0159 -0.7074
   98MPD2    C4 1527   0.783   1.876   0.465 -0.5895 -0.4338 -0.6170
   98MPD2    C5 1528   0.758   1.852   0.599 -0.2272  0.6689  0.0619
   98MPD2     H 1529   0.722   1.566   0.344 -0.8964 -0.8732  0.4707
   98MPD2    H1 1530   0.811   1.977   0.434  0.0475 -0.0704  1.1456
   98MPD2    H2 1531   0.725   1.703   0.739 -1.5960 -0.1738  0.7935
   98MPD2    H3 1532   0.787   1.931   0.667  1.0701  2.0601 -2.0887
   98MPD2     N 1533   0.778   1.825   0.237 -0.1731  0.0693 -0.6104
   98MPD2    H5 1534   0.786   1.925   0.227 -3.0769  0.2771 -0.6942
   98MPD2    N1 1535   0.717   1.502   0.594 -0.0951  0.0835 -0.6834
   98MPD2    H7 1536   0.705   1.491   0.694  1.2800  2.6302 -0.2249
   99TMC2    C1 1537   4.381   4.522   1.179  0.0479 -0.3529  0.6727
   99TMC2    C2 1538   4.393   4.655   1.147  0.2623  0.2056 -1.1759
   99TMC2    C3 1539   4.316   0.009   1.211 -0.2791 -0.4023 -0.7504
   99TMC2    C4 1540   4.285   4.478   1.269  0.1321  0.3331 -0.6326
   99TMC2    C5 1541   4.201   4.574   1.330  0.4787  0.1465 -0.1019
   99TMC2    C6 1542   4.218   4.708   1.304 -0.9682 -0.3106 -0.7225
   99TMC2     C 1543   4.442   4.425   1.085  0.3875  0.4738 -0.5553
   99TMC2     O 1544   4.528   4.466   1.013 -0.3534 -0.6650  0.2000
   99TMC2     H 1545   4.480   4.691   1.092  0.0921 -0.2215 -1.7271
   99TMC2    H1 1546   4.290   4.381   1.316 -0.9440  0.4743 -0.2319
   99TMC2    H2 1547   4.141   0.044   1.333  0.3279  0.8153 -0.0334
   99TMC2    C7 1548   4.139   4.529   1.450  0.3227  0.2821  0.4830
   99TMC2    C8 1549   4.317   0.148   1.161  0.7998  0.8203  0.0180
   99TMC2    O1 1550   4.108   4.613   1.533  0.1429 -0.1443 -0.6761
   99TMC2    O2 1551   4.262   0.229   1.235  0.1379 -0.2316 -0.0650
   99TMC2    O5 1552   4.380   0.168   1.040 -0.4460  0.0771  0.5422
   99TMC2    H5 1553   4.421   0.089   0.999  2.2715  1.5249  0.5235
  100MPD2     C 1554   4.563   4.164   0.979 -0.6729  0.3819  0.1973
  100MPD2    C1 1555   4.436   4.180   1.034 -0.7817 -0.2921  0.8246
  100MPD2    C2 1556   4.351   4.073   1.037  0.6000  0.2534  0.1913
  100MPD2    C3 1557   4.391   3.951   0.989  0.3949  0.2478 -0.5544
  100MPD2    C4 1558   4.517   3.945   0.935 -0.4230 -0.0990 -1.0146
  100MPD2    C5 1559   4.595   4.051   0.919 -0.0074 -0.6409 -0.2335
  100MPD2     H 1560   4.249   4.075   1.072  0.7012  1.7164  0.4076
  100MPD2    H1 1561   4.556   3.855   0.889  1.7182 -0.3451  1.2976
  100MPD2    H2 1562   4.630   4.249   0.986 -0.5930  0.4346 -1.3039
  100MPD2    H3 1563   4.690   4.042   0.869 -0.5021  0.7929 -1.4592
  100MPD2     N 1564   4.301   3.844   0.991 -0.4004 -0.6357 -0.0684
  100MPD2    H5 1565   4.214   3.865   1.039 -1.0943 -1.1194 -1.1225
  100MPD2    N1 1566   4.380   4.299   1.083  0.7200 -0.0179 -0.3163
  100MPD2    H7 1567   4.287   4.290   1.123  1.9084 -0.0604  2.4613
  101TMC2    C1 1568   4.621   0.811  13.086  0.5943  0.0358 -0.1593
  101TMC2    C2 1569   4.525   0.896  13.122  0.1417 -0.0653  0.8135
  101TMC2    C3 1570   4.540   1.024  13.074 -0.8270  0.0107 -0.1230
  101TMC2    C4 1571   0.001   0.843  13.016  0.2425  0.7827  0.2482
  101TMC2    C5 1572   0.006   0.975  12.971  0.2199  0.6821 -0.1632
  101TMC2    C6 1573   4.643   1.064  12.994  0.0356 -0.1793  0.2518
  101TMC2     C 1574   4.584   0.671  13.098  0.5064  0.0349 -1.1270
  101TMC2     O 1575   4.520   0.631  13.197  0.1241  0.5566  0.1379
  101TMC2     H 1576   4.463   0.855  13.201 -1.4141 -2.5221 -1.6454
  101TMC2    H1 1577   0.087   0.779  12.999  0.3043  0.0088  3.4379
  101TMC2    H2 1578   4.629   1.158  12.943  1.4142  0.2170  0.6180
  101TMC2    C7 1579   0.100   1.009  12.867  0.5839  0.2581  0.2393
  101TMC2    C8 1580   4.447   1.131  13.127 -0.7576 -0.3282 -0.7069
  101TMC2    O1 1581   0.205   0.948  12.864  0.1357 -0.2419 -0.7675
  101TMC2    O2 1582   4.477   1.249  13.118 -0.1164 -0.2513 -0.4798
  101TMC2    O5 1583   4.325   1.086  13.083 -0.3817  0.2556  0.1542
  101TMC2    H5 1584   4.323   0.989  13.068  2.7845  0.1671  0.4195
  102MPD2     C 1585   4.577   0.421  12.838  0.0865 -0.3507 -0.3352
  102MPD2    C1 1586   4.582   0.465  12.968  0.3376  0.0298 -0.2200
  102MPD2    C2 1587   4.532   0.385  13.069 -0.1697  0.3397 -0.0707
  102MPD2    C3 1588   4.501   0.255  13.039  0.1285  0.1381 -0.0745
  102MPD2    C4 1589   4.500   0.212  12.908 -0.0967  0.0260  0.2235
  102MPD2    C5 1590   4.535   0.293  12.807 -0.3331 -0.0215  0.0994
  102MPD2     H 1591   4.556   0.412  13.171  0.3302  0.3429 -0.1887
  102MPD2    H1 1592   4.487   0.107  12.886 -1.4102 -0.2607  2.3581
  102MPD2    H2 1593   4.599   0.489  12.756  0.6825  0.6102  0.6191
  102MPD2    H3 1594   4.524   0.270  12.702 -1.1305 -1.4533  0.4988
  102MPD2     N 1595   4.462   0.155  13.136 -0.0163 -0.2368 -0.2191
  102MPD2    H5 1596   4.453   0.057  13.111 -0.3883  0.1170 -1.4937
  102MPD2    N1 1597   4.618   0.602  12.983  0.3430 -0.4359  0.1537
  102MPD2    H7 1598   4.671   0.650  12.910 -0.1092 -0.8757 -0.4705
  103TMC2    C1 1599   3.229   0.695  12.737  0.4791 -0.3756  0.1084
  103TMC2    C2 1600   3.321   0.798  12.730 -0.8508  0.5729 -0.8350
  103TMC2    C3 1601   3.313   0.896  12.832  0.0439  0.0541 -0.2526
  103TMC2    C4 1602   3.135   0.682  12.840  0.2322 -0.3464  0.5116
  103TMC2    C5 1603   3.134   0.777  12.941 -0.3609  0.0682  0.0640
  103TMC2    C6 1604   3.225   0.884  12.939  0.0601 -0.5824  0.5577
  103TMC2     C 1605   3.191   0.614  12.620  0.2915  0.0410 -0.1244
  103TMC2     O 1606   3.112   0.521  12.628  0.1473  0.2951  0.0197
  103TMC2     H 1607   3.389   0.821  12.648  0.9056  1.0668  0.7385
  103TMC2    H1 1608   3.058   0.606  12.833  2.9297 -3.0945  0.1581
  103TMC2    H2 1609   3.204   0.947  13.025 -0.3064  0.5484 -0.3556
  103TMC2    C7 1610   3.025   0.785  13.031  1.1610 -0.1191  0.0758
  103TMC2    C8 1611   3.399   1.013  12.827 -0.8224 -0.3027  0.3217
  103TMC2    O1 1612   3.039   0.845  13.139 -0.6832 -0.1065  0.1864
  103TMC2    O2 1613   3.494   1.004  12.749  0.1177 -0.0631  0.0263
  103TMC2    O5 1614   3.317   1.117  12.858 -0.2592 -0.5581 -0.3496
  103TMC2    H5 1615   3.228   1.095  12.894 -0.1906  1.1337  0.8799
  104MPD2     C 1616   3.274   0.707  12.275  0.5088  0.0604  0.4910
  104MPD2    C1 1617   3.194   0.652  12.371  0.0918  0.1812 -0.3826
  104MPD2    C2 1618   3.070   0.600  12.335 -0.1231 -0.7782  0.6773
  104MPD2    C3 1619   3.034   0.595  12.200  0.9400  0.3003  0.5698
  104MPD2    C4 1620   3.118   0.652  12.106  0.0037  0.6626  0.4908
  104MPD2    C5 1621   3.236   0.707  12.148 -0.4841 -0.6627  0.2365
  104MPD2     H 1622   3.001   0.564  12.410 -1.4824  0.1488 -0.1376
  104MPD2    H1 1623   3.101   0.665  11.999 -1.6344 -0.9753  0.5335
  104MPD2    H2 1624   3.371   0.749  12.295 -0.3188  1.2998  1.8856
  104MPD2    H3 1625   3.301   0.748  12.072 -0.9699  0.0181  0.1774
  104MPD2     N 1626   2.921   0.532  12.157 -0.5776 -0.1256 -0.4090
  104MPD2    H5 1627   2.862   0.497  12.231  1.4921  1.3530  1.9474
  104MPD2    N1 1628   3.244   0.670  12.503  0.7788 -0.8008  0.8424
  104MPD2    H7 1629   3.320   0.737  12.504 -0.1365  0.2268  1.8818
  105TMC2    C1 1630   3.999   4.399   0.507 -0.3697 -0.6255 -0.1452
  105TMC2    C2 1631   4.021   4.523   0.447  0.5830 -0.0873 -0.1936
  105TMC2    C3 1632   3.954   4.628   0.500 -0.0752 -0.5467  0.5520
  105TMC2    C4 1633   3.924   4.383   0.621  0.5633  0.4759 -0.5419
  105TMC2    C5 1634   3.859   4.497   0.671 -0.7141 -0.1264 -0.6158
  105TMC2    C6 1635   3.869   4.614   0.605  0.0227 -0.0482  0.3388
  105TMC2     C 1636   4.085   4.290   0.468  0.0163 -0.3811 -0.4012
  105TMC2     O 1637   4.073   4.190   0.532  0.7226 -0.0366 -0.0376
  105TMC2     H 1638   4.078   4.545   0.358  1.6972 -1.9118  0.0881
  105TMC2    H1 1639   3.895   4.286   0.657  0.7636 -0.9072 -4.1533
  105TMC2    H2 1640   3.796   4.689   0.634  0.6393 -0.4278  2.8520
  105TMC2    C7 1641   3.737   4.479   0.747 -0.3540  0.0444 -0.5352
  105TMC2    C8 1642   3.972   0.028   0.443  0.2297  0.4104 -0.2310
  105TMC2    O1 1643   3.687   4.370   0.732 -0.4596  0.0946  0.1922
  105TMC2    O2 1644   3.894   0.113   0.483 -0.0283  0.2728 -0.3288
  105TMC2    O5 1645   4.103   0.040   0.446  0.4826  0.2734 -0.0288
  105TMC2    H5 1646   4.159   4.696   0.429 -0.2803 -0.2738  0.0249
  106MPD2     C 1647   4.377   4.011   0.145  0.4306  0.2874 -0.1982
  106MPD2    C1 1648   4.380   4.140   0.096  0.4464  0.8843 -0.1786
  106MPD2    C2 1649   4.314   4.232   0.166  0.5035  0.4990  0.4285
  106MPD2    C3 1650   4.243   4.208   0.289  0.3094  0.0063 -0.1151
  106MPD2    C4 1651   4.261   4.082   0.343 -0.2413  0.0303  0.1533
  106MPD2    C5 1652   4.331   3.989   0.275  0.4337  0.1972  0.4795
  106MPD2     H 1653   4.310   4.333   0.126 -1.8827 -0.0367 -0.7026
  106MPD2    H1 1654   4.209   4.045   0.430  0.2885 -2.3891 -0.5768
  106MPD2    H2 1655   4.439   3.934   0.100 -2.1633 -1.3927 -0.8546
  106MPD2    H3 1656   4.330   3.889   0.318 -1.3944 -0.0771 -0.2403
  106MPD2     N 1657   4.167   4.312   0.354 -0.2099 -0.3875  0.7786
  106MPD2    H5 1658   4.174   4.401   0.305 -0.1545 -0.7196  0.1828
  106MPD2    N1 1659   4.436   4.175  17.706  0.4455  0.2859 -0.0734
  106MPD2    H7 1660   4.437   4.275  17.688  1.2141  0.8795  3.2881
  107TMC2    C1 1661   0.095   4.027  11.558 -0.3425 -0.7018  0.4582
  107TMC2    C2 1662   0.099   4.145  11.487  0.5222  0.8932 -0.1722
  107TMC2    C3 1663   0.165   4.137  11.365 -0.3880  0.4581 -0.3653
  107TMC2    C4 1664   0.134   3.911  11.505 -0.2416  0.1472 -0.5935
  107TMC2    C5 1665   0.192   3.902  11.384 -0.1799 -0.2019  0.4066
  107TMC2    C6 1666   0.212   4.019  11.314 -0.2713 -0.3512  0.5996
  107TMC2     C 1667   0.034   4.022  11.689 -0.2400  0.3556  0.3049
  107TMC2     O 1668   4.704   4.124  11.725  0.0961  0.3759  0.1380
  107TMC2     H 1669   0.057   4.239  11.522 -1.8454 -0.7443  1.4257
  107TMC2    H1 1670   0.116   3.818  11.557 -0.0618 -0.7039 -2.0405
  107TMC2    H2 1671   0.259   4.031  11.217  1.9784  0.6160  1.8344
  107TMC2    C7 1672   0.187   3.773  11.323 -0.2801 -0.0489  0.2516
  107TMC2    C8 1673   0.215   4.256  11.310 -0.4050  0.7094  0.3491
  107TMC2    O1 1674   0.125   3.685  11.374 -0.4091 -0.3938  0.1780
  107TMC2    O2 1675   0.291   4.249  11.214 -0.1342  0.3080  0.4823
  107TMC2    O5 1676   0.264   4.323  11.420  0.3537  1.0388  0.1798
  107TMC2    H5 1677   0.203   4.330  11.496  0.0874  2.0242 -0.1236
  108MPD2     C 1678   0.073   3.760  11.945 -0.2910 -0.2420 -0.4454
  108MPD2    C1 1679   0.030   3.882  11.892  0.0290  0.1156  0.2202
  108MPD2    C2 1680   4.667   3.955  11.961 -0.7855  0.1310 -0.3172
  108MPD2    C3 1681   4.642   3.911  12.089  0.0875 -0.3931  0.6035
  108MPD2    C4 1682   4.703   3.806  12.143 -0.3313 -0.6453 -0.0043
  108MPD2    C5 1683   0.043   3.721  12.074 -0.4272 -0.4845 -0.3496
  108MPD2     H 1684   4.645   4.055  11.925 -0.8861 -0.1309 -0.9765
  108MPD2    H1 1685   4.698   3.785  12.249 -2.9327  1.2840  0.2787
  108MPD2    H2 1686   0.128   3.682  11.895  0.8999  0.5941 -0.4382
  108MPD2    H3 1687   0.086   3.633  12.119  4.1810  0.6244 -2.5729
  108MPD2     N 1688   4.564   3.980  12.183 -0.4640 -0.0002 -0.1180
  108MPD2    H5 1689   4.543   3.938  12.273  2.5174 -0.8168  0.1780
  108MPD2    N1 1690   0.079   3.916  11.763 -0.2705 -0.1218 -0.3694
  108MPD2    H7 1691   0.154   3.856  11.730  1.1607 -0.0558  2.7787
  109TMC2    C1 1692   4.132   1.197   0.650 -0.1455  1.2911 -0.2761
  109TMC2    C2 1693   4.098   1.297   0.563 -0.5107 -0.5391  0.1540
  109TMC2    C3 1694   4.192   1.377   0.514 -0.2703  0.5748  0.1549
  109TMC2    C4 1695   4.267   1.172   0.668 -0.0971  0.7828  0.6893
  109TMC2    C5 1696   4.363   1.257   0.613  0.2095 -0.8177  0.6216
  109TMC2    C6 1697   4.330   1.367   0.535  1.5058 -0.1313  0.1161
  109TMC2     C 1698   4.039   1.137   0.735 -0.7170 -0.5056  0.9034
  109TMC2     O 1699   3.933   1.111   0.686  0.1734  0.4958 -0.2239
  109TMC2     H 1700   3.999   1.314   0.523 -0.2417  0.0022 -0.2763
  109TMC2    H1 1701   4.296   1.098   0.741  1.9054  0.0498 -0.8582
  109TMC2    H2 1702   4.401   1.427   0.480  1.0958 -0.0300 -0.3015
  109TMC2    C7 1703   4.505   1.233   0.624  1.0208  0.1489 -0.0657
  109TMC2    C8 1704   4.153   1.444   0.388 -0.2898 -0.4187  0.0662
  109TMC2    O1 1705   4.585   1.326   0.615 -0.0966  0.0928  0.3323
  109TMC2    O2 1706   4.048   1.421   0.335 -0.1902 -0.0050 -0.0485
  109TMC2    O5 1707   4.224   1.560   0.367  0.1046 -0.3130 -0.5719
  109TMC2    H5 1708   4.297   1.583   0.429 -0.1184 -0.9045 -0.0944
  110MPD2     C 1709   3.873   0.970   1.188 -0.2481  0.0033 -0.1306
  110MPD2    C1 1710   4.003   1.011   1.218  0.6160 -0.0875  0.9604
  110MPD2    C2 1711   4.070   1.052   1.103  0.5570 -0.1561  0.0894
  110MPD2    C3 1712   4.007   1.065   0.977 -0.1621 -0.2815 -0.1013
  110MPD2    C4 1713   3.876   1.023   0.963  0.9763  0.1700  0.2675
  110MPD2    C5 1714   3.810   0.976   1.071 -0.0005 -0.0369 -0.2009
  110MPD2     H 1715   4.173   1.085   1.105  0.1175  1.3274 -0.8316
  110MPD2    H1 1716   3.832   1.018   0.864 -0.9142  3.1523  0.9654
  110MPD2    H2 1717   3.816   0.932   1.272  1.3598  0.9942  1.4217
  110MPD2    H3 1718   3.705   0.949   1.068  0.2585 -1.2165  1.2065
  110MPD2     N 1719   4.075   1.123   0.868  0.4707  0.4483  0.1006
  110MPD2    H5 1720   4.170   1.151   0.890  0.3912  1.5120 -0.9060
  110MPD2    N1 1721   4.062   0.999   1.345  0.1219 -0.0668  0.2647
  110MPD2    H7 1722   4.013   0.961   1.426 -3.3372 -2.1579 -2.7891
  111TMC2    C1 1723   0.378   0.980  11.448 -0.0622  0.7563 -0.3576
  111TMC2    C2 1724   0.441   0.915  11.344  0.1192  0.4255 -0.6645
  111TMC2    C3 1725   0.558   0.853  11.372  0.1256  0.0172 -0.1047
  111TMC2    C4 1726   0.438   1.009  11.562 -0.1964  0.0424 -0.0083
  111TMC2    C5 1727   0.572   0.965  11.579  0.0789 -0.3785  0.4113
  111TMC2    C6 1728   0.629   0.882  11.485  0.0460 -0.6388 -0.0746
  111TMC2     C 1729   0.256   1.048  11.407 -0.0092 -0.4184  0.3435
  111TMC2     O 1730   0.238   1.079  11.293  0.3638 -0.8941 -0.5529
  111TMC2     H 1731   0.399   0.887  11.248  2.3106  0.2245 -1.5675
  111TMC2    H1 1732   0.396   1.071  11.641 -0.6167 -0.4173  0.1323
  111TMC2    H2 1733   0.729   0.843  11.499 -0.6854 -2.2740  0.7056
  111TMC2    C7 1734   0.648   1.033  11.680  0.6758 -0.0425 -0.2319
  111TMC2    C8 1735   0.609   0.755  11.275  0.0466 -0.8202 -0.6811
  111TMC2    O1 1736   0.583   1.089  11.766 -0.2173 -0.0964  0.7809
  111TMC2    O2 1737   0.646   0.777  11.159 -0.4489 -0.0378  0.0477
  111TMC2    O5 1738   0.670   0.665  11.348 -0.3790  0.5454 -0.1311
  111TMC2    H5 1739   0.624   0.645  11.432  2.0907 -0.0154  1.0996
  112MPD2     C 1740   4.472   1.093  11.478  0.3782 -0.3724 -0.2943
  112MPD2    C1 1741   4.562   1.136  11.380  0.1266 -0.1775  0.3559
  112MPD2    C2 1742   4.695   1.118  11.392  0.6176 -0.2592  0.0917
  112MPD2    C3 1743   0.019   1.056  11.499  0.8028 -0.2258  0.0771
  112MPD2    C4 1744   4.665   1.011  11.597 -0.5943 -0.0265  0.0693
  112MPD2    C5 1745   4.532   1.026  11.583 -0.7246  0.3469 -0.3872
  112MPD2     H 1746   0.018   1.147  11.305  0.6155  0.5184  0.3550
  112MPD2    H1 1747   4.711   0.961  11.682  1.1234  0.1590 -0.7582
  112MPD2    H2 1748   4.366   1.112  11.464  0.4760  0.1421 -0.3472
  112MPD2    H3 1749   4.464   0.972  11.648  0.1056  1.0660  1.0790
  112MPD2     N 1750   0.163   1.036  11.507  0.2267  0.1471 -0.1957
  112MPD2    H5 1751   0.199   0.994  11.593 -3.0938  0.5403  1.3960
  112MPD2    N1 1752   4.524   1.210  11.267 -0.1912  0.3335 -0.1411
  112MPD2    H7 1753   4.605   1.243  11.216  0.5033  0.4798  1.0531
  113TMC2    C1 1754   3.149   2.549   1.268 -0.5437 -0.1128 -0.4174
  113TMC2    C2 1755   3.164   2.448   1.358  0.1008  0.1752 -0.6865
  113TMC2    C3 1756   3.088   2.335   1.333  0.3042  0.3323  0.0001
  113TMC2    C4 1757   3.085   2.532   1.146  0.2494 -1.0609  0.4668
  113TMC2    C5 1758   3.020   2.418   1.128 -0.1136  0.3705 -0.7985
  113TMC2    C6 1759   3.025   2.304   1.214 -0.3330  0.3453  0.0358
  113TMC2     C 1760   3.170   2.686   1.301  0.4514 -0.0812  0.1656
  113TMC2     O 1761   3.161   2.778   1.222 -0.0936 -0.0000 -0.0109
  113TMC2     H 1762   3.220   2.457   1.450 -0.9375  2.3542 -0.2457
  113TMC2    H1 1763   3.079   2.620   1.083 -0.7617 -1.2887  0.2492
  113TMC2    H2 1764   2.984   2.206   1.189  0.1299 -0.0618  0.8837
  113TMC2    C7 1765   2.977   2.396   0.993 -0.0091  0.2075  0.4538
  113TMC2    C8 1766   3.076   2.238   1.436  0.3598  0.5265 -0.3300
  113TMC2    O1 1767   3.035   2.449   0.899 -0.2375  0.1439 -0.1016
  113TMC2    O2 1768   3.158   2.233   1.534  0.3622 -0.1473 -0.0189
  113TMC2    O5 1769   2.960   2.165   1.429 -0.2221  0.2751  0.5721
  113TMC2    H5 1770   2.897   2.182   1.356  0.3933 -3.3648 -0.7696
  114MPD2     C 1771   3.402   3.049   1.589 -0.0400 -0.2265 -0.3945
  114MPD2    C1 1772   3.380   3.045   1.453 -0.4742  0.5578  0.0951
  114MPD2    C2 1773   3.321   2.931   1.397  0.0890 -0.4133 -0.3161
  114MPD2    C3 1774   3.296   2.820   1.472 -0.2118  0.0878 -0.2188
  114MPD2    C4 1775   3.334   2.823   1.601 -0.3353 -0.8599  0.2173
  114MPD2    C5 1776   3.382   2.935   1.660  0.1560  0.3512  0.2577
  114MPD2     H 1777   3.298   2.935   1.291  1.2848  0.9683 -0.5246
  114MPD2    H1 1778   3.311   2.743   1.670 -0.9300 -0.7128  0.1883
  114MPD2    H2 1779   3.446   3.136   1.637 -0.4565 -0.5636  0.6016
  114MPD2    H3 1780   3.400   2.930   1.767  0.9436  2.4105  0.2127
  114MPD2     N 1781   3.232   2.701   1.427  0.6494 -0.4014 -0.0216
  114MPD2    H5 1782   3.212   2.622   1.488  1.9805 -1.7906 -1.3986
  114MPD2    N1 1783   3.398   3.160   1.377  0.3996 -0.3953 -0.2993
  114MPD2    H7 1784   3.419   3.244   1.430  3.0546  0.0481 -2.0046
  115TMC2    C1 1785   3.898   1.590   0.060 -0.1307 -0.2326 -0.2847
  115TMC2    C2 1786   4.036   1.588   0.090 -0.4718 -0.4922 -0.2139
  115TMC2    C3 1787   4.113   1.696   0.048  0.0989 -0.1212  0.4543
  115TMC2    C4 1788   3.850   1.703  17.731 -0.1116 -0.2529  0.0474
  115TMC2    C5 1789   3.920   1.813  17.712 -0.4082 -0.5459  0.1401
  115TMC2    C6 1790   4.057   1.813   0.001 -0.3717  0.0299 -0.1203
  115TMC2     C 1791   3.826   1.465   0.026  0.6561  0.1099 -0.5151
  115TMC2     O 1792   3.755   1.463  17.662 -0.1882 -0.3773 -0.2070
  115TMC2     H 1793   4.087   1.496   0.114  0.2224 -0.2637 -0.8274
  115TMC2    H1 1794   3.744   1.690  17.714 -0.1072  0.1454 -0.2914
  115TMC2    H2 1795   4.121   1.900  17.726 -1.3485  1.0198  2.0038
  115TMC2    C7 1796   3.859   1.942  17.703 -0.8021 -0.1291 -0.7145
  115TMC2    C8 1797   4.247   1.668   0.006 -0.1718 -0.1740 -0.1332
  115TMC2    O1 1798   3.791   1.991   0.055  0.5975  0.2410  0.4257
  115TMC2    O2 1799   4.284   1.574  17.676  0.2345 -0.5282 -0.2595
  115TMC2    O5 1800   4.332   1.776   0.035  0.2948  0.3226 -0.0391
  115TMC2    H5 1801   4.291   1.846   0.090  0.0047  0.2841 -0.2035
  116MPD2     C 1802   3.812   0.958   0.072 -0.2972 -0.0817  0.1456
  116MPD2    C1 1803   3.758   1.034  17.703 -0.5345 -0.3075 -0.3546
  116MPD2    C2 1804   3.757   1.174  17.727  0.4744 -0.2609  0.0656
  116MPD2    C3 1805   3.820   1.232   0.101 -0.9678 -0.0963  0.5602
  116MPD2    C4 1806   3.871   1.145   0.198  0.0302 -0.1105  1.8154
  116MPD2    C5 1807   3.869   1.010   0.185 -0.5651 -0.0404  0.0497
  116MPD2     H 1808   3.705   1.238  17.656 -1.9966 -0.8221  1.3525
  116MPD2    H1 1809   3.929   1.189   0.278  0.9620  0.7147  0.6931
  116MPD2    H2 1810   3.808   0.850   0.060 -2.5388 -0.0159  0.3257
  116MPD2    H3 1811   3.909   0.937   0.255  0.2472  0.1994 -0.1621
  116MPD2     N 1812   3.847   1.366   0.121  0.3096 -0.2879 -0.2873
  116MPD2    H5 1813   3.906   1.390   0.200 -0.6339 -2.7591  1.1885
  116MPD2    N1 1814   3.705   0.962  17.589 -0.2797  0.3802  0.0244
  116MPD2    H7 1815   3.707   0.861  17.591 -0.5248  0.3462 -1.2956
  117TMC2    C1 1816   2.203   2.874  13.927  0.2223 -0.2253  0.3166
  117TMC2    C2 1817   2.335   2.845  13.956 -0.4337 -0.1035  0.6186
  117TMC2    C3 1818   2.426   2.949  13.972  0.0130  1.0607 -0.0345
  117TMC2    C4 1819   2.160   3.009  13.905  0.4457 -0.3731 -0.0000
  117TMC2    C5 1820   2.253   3.100  13.940  0.3334  0.2383 -0.4159
  117TMC2    C6 1821   2.387   3.077  13.968  0.3914 -0.1665 -0.2334
  117TMC2     C 1822   2.107   2.766  13.912 -0.3511  0.5387 -0.7711
  117TMC2     O 1823   2.146   2.652  13.933  0.3483  0.4253 -0.5394
  117TMC2     H 1824   2.372   2.748  13.989 -2.5667 -1.2351 -0.3129
  117TMC2    H1 1825   2.060   3.046  13.882  0.3049  0.1264  1.4169
  117TMC2    H2 1826   2.445   3.162  14.003  1.6114  0.0170 -2.7086
  117TMC2    C7 1827   2.216   3.237  13.953 -0.2764 -0.6838 -0.1373
  117TMC2    C8 1828   2.561   2.916  14.018  0.4275 -0.1311  0.2405
  117TMC2    O1 1829   2.295   3.313  13.896  0.7148  0.7591  0.1469
  117TMC2    O2 1830   2.579   2.839  14.113  0.5620 -0.1234  0.9699
  117TMC2    O5 1831   2.639   3.015  13.973 -0.3738  1.0256  0.5764
  117TMC2    H5 1832   2.601   3.066  13.899 -0.1914  0.5307  0.1379
  118MPD2     C 1833   1.921   3.376  14.123 -0.3835  0.2035  0.0225
  118MPD2    C1 1834   2.040   3.377  14.052  0.3564 -0.1034  0.3044
  118MPD2    C2 1835   2.089   3.499  14.009 -0.2398  0.4910  0.5926
  118MPD2    C3 1836   2.025   3.622  14.048  0.4175  0.6275  0.0296
  118MPD2    C4 1837   1.902   3.615  14.103 -0.5591 -0.0777 -0.0301
  118MPD2    C5 1838   1.858   3.495  14.143 -0.2139  0.4053  0.0221
  118MPD2     H 1839   2.173   3.506  13.942  0.7149  0.6770  1.8149
  118MPD2    H1 1840   1.838   3.701  14.121 -0.1373 -0.2086  2.1490
  118MPD2    H2 1841   1.876   3.286  14.162 -1.8742  0.6393 -0.7118
  118MPD2    H3 1842   1.764   3.496  14.198 -0.1789  0.8431  0.0738
  118MPD2     N 1843   2.077   3.751  14.017 -0.0452 -0.0477  0.8451
  118MPD2    H5 1844   2.011   3.828  14.026 -0.2858 -0.1502  0.0117
  118MPD2    N1 1845   2.098   3.250  14.025  0.4616 -0.2781 -0.2849
  118MPD2    H7 1846   2.049   3.168  14.058 -0.2819 -0.7630 -2.6228
  119TMC2    C1 1847   0.258   0.020  13.488  0.3256  0.6040 -1.0841
  119TMC2    C2 1848   0.225   0.146  13.441  0.5899 -0.6148 -0.8001
  119TMC2    C3 1849   0.138   0.153  13.334  1.1821 -0.8942 -0.5063
  119TMC2    C4 1850   0.203   4.642  13.427  0.1399 -0.1841  0.2989
  119TMC2    C5 1851   0.110   4.656  13.327  0.2099  0.0313  0.3054
  119TMC2    C6 1852   0.075   0.046  13.282 -0.1484  0.0580 -0.3713
  119TMC2     C 1853   0.327   4.734  13.618 -0.4206  0.2939 -0.6374
  119TMC2     O 1854   0.378   4.624  13.636 -0.3618 -0.8360 -0.5224
  119TMC2     H 1855   0.271   0.235  13.483  2.0004 -0.5080 -2.5652
  119TMC2    H1 1856   0.242   4.547  13.459 -1.6500 -1.3162 -0.8725
  119TMC2    H2 1857   0.008   0.051  13.197 -0.6037  0.4438  0.0080
  119TMC2    C7 1858   4.727   4.566  13.335  0.3858  0.1734 -0.0216
  119TMC2    C8 1859   0.076   0.284  13.320  0.0181  0.5348 -0.2959
  119TMC2    O1 1860   4.639   4.581  13.253 -0.0097  0.4252 -0.2830
  119TMC2    O2 1861   0.018   0.337  13.418 -0.1707  0.2250 -0.0233
  119TMC2    O5 1862   0.171   0.342  13.244 -0.0407 -0.2219  0.0401
  119TMC2    H5 1863   0.233   0.283  13.196 -0.5169 -1.1053  0.5123
  120MPD2     C 1864   0.521   0.149  14.061 -0.3438 -0.0838 -0.1583
  120MPD2    C1 1865   0.547   0.042  13.987  1.1496 -0.3025 -0.1970
  120MPD2    C2 1866   0.504   0.032  13.856 -0.2559 -0.2432 -0.4105
  120MPD2    C3 1867   0.413   0.129  13.805  0.0569 -0.9682 -0.3659
  120MPD2    C4 1868   0.380   0.239  13.891 -0.2423  0.3315 -0.7822
  120MPD2    C5 1869   0.446   0.253  14.012 -0.5011 -0.6323 -0.0129
  120MPD2     H 1870   0.537   4.688  13.789  1.4577 -1.2238  1.5863
  120MPD2    H1 1871   0.300   0.305  13.860 -2.1812 -0.2084  3.1334
  120MPD2    H2 1872   0.552   0.178  14.161 -0.6977  1.3044 -0.4462
  120MPD2    H3 1873   0.414   0.336  14.075 -1.1376 -1.6315  0.9752
  120MPD2     N 1874   0.339   0.116  13.686  0.0183  0.4091  0.3659
  120MPD2    H5 1875   0.290   0.198  13.652 -1.3548  0.5750  2.7337
  120MPD2    N1 1876   0.637   4.676  14.046 -0.0378 -0.1196  0.2899
  120MPD2    H7 1877   0.687   4.709  14.128  3.1799 -0.1572 -1.6542
  121TMC2    C1 1878   2.154   1.328  14.377  0.3246 -0.2503  0.3434
  121TMC2    C2 1879   2.148   1.263  14.499 -0.2789 -0.0414  0.3069
  121TMC2    C3 1880   2.051   1.312  14.589  0.3128  0.0319 -0.8598
  121TMC2    C4 1881   2.068   1.428  14.345  0.6180 -0.3236  0.4892
  121TMC2    C5 1882   1.972   1.464  14.434  0.3751 -0.4375  0.4299
  121TMC2    C6 1883   1.963   1.413  14.561 -0.8608 -0.3590  0.5323
  121TMC2     C 1884   2.273   1.302  14.293  0.2916 -0.3902  0.4778
  121TMC2     O 1885   2.351   1.224  14.342 -0.0013  0.2410  0.1890
  121TMC2     H 1886   2.217   1.184  14.526  0.6181  0.6972  0.1607
  121TMC2    H1 1887   2.065   1.475  14.248  0.8622 -3.3775 -0.9660
  121TMC2    H2 1888   1.872   1.434  14.617  0.1408  0.2958  1.9374
  121TMC2    C7 1889   1.897   1.578  14.392  0.4105  0.4425 -0.1329
  121TMC2    C8 1890   2.029   1.241  14.716 -0.0357 -0.5646  0.3670
  121TMC2    O1 1891   1.963   1.663  14.329  0.2742  0.1595  0.0711
  121TMC2    O2 1892   1.925   1.242  14.777 -0.5154  0.2253 -0.0627
  121TMC2    O5 1893   2.154   1.242  14.764  0.3465  0.1702 -0.4219
  121TMC2    H5 1894   2.206   1.303  14.707 -1.6946  2.5155  0.2628
  122MPD2     C 1895   2.493   1.281  14.094 -0.2976 -1.2736 -0.4362
  122MPD2    C1 1896   2.367   1.331  14.062  0.1073 -0.0570 -0.4917
  122MPD2    C2 1897   2.337   1.375  13.931 -0.5236 -0.6584 -0.1465
  122MPD2    C3 1898   2.430   1.366  13.827 -0.1739 -0.3620  0.2336
  122MPD2    C4 1899   2.550   1.303  13.856 -0.6282 -0.2088  0.5961
  122MPD2    C5 1900   2.581   1.272  13.985  0.6581  0.4756 -0.5416
  122MPD2     H 1901   2.245   1.429  13.913 -0.7267 -0.3686  1.6933
  122MPD2    H1 1902   2.625   1.303  13.777  1.6613  0.8840  2.7911
  122MPD2    H2 1903   2.530   1.251  14.192  0.2226  0.5406 -0.0726
  122MPD2    H3 1904   2.677   1.223  13.998 -0.3135 -1.5948 -1.0567
  122MPD2     N 1905   2.406   1.408  13.694  0.1141  0.7760  0.1809
  122MPD2    H5 1906   2.480   1.400  13.625 -0.8082  0.2509 -0.7285
  122MPD2    N1 1907   2.261   1.350  14.163 -0.0417  0.0292  0.4513
  122MPD2    H7 1908   2.174   1.394  14.134  0.0184  0.2647  0.6271
  123TMC2    C1 1909   0.594   0.386  10.941 -0.2861  0.4528  0.0418
  123TMC2    C2 1910   0.591   0.526  10.935  0.1115 -0.1464 -0.3030
  123TMC2    C3 1911   0.601   0.586  10.810  0.2832 -0.7395 -0.1153
  123TMC2    C4 1912   0.593   0.308  10.824  0.1463 -0.8612  0.0435
  123TMC2    C5 1913   0.594   0.373  10.705 -0.5878 -0.5110 -0.9572
  123TMC2    C6 1914   0.608   0.507  10.695 -0.5042 -0.6395 -0.6967
  123TMC2     C 1915   0.542   0.324  11.061 -0.5130 -0.0761  0.3611
  123TMC2     O 1916   0.556   0.371  11.173 -0.0142  0.7642 -0.3745
  123TMC2     H 1917   0.589   0.584  11.026 -1.6792  0.6145 -0.8366
  123TMC2    H1 1918   0.602   0.201  10.832 -1.7101 -1.0084  0.1975
  123TMC2    H2 1919   0.615   0.549  10.595 -0.9986 -0.4180 -0.6340
  123TMC2    C7 1920   0.609   0.280  10.591 -0.3570 -1.2385 -0.0418
  123TMC2    C8 1921   0.586   0.730  10.790 -0.5353  0.1829  0.4993
  123TMC2    O1 1922   0.581   0.165  10.613 -0.3351  0.0163 -0.1319
  123TMC2    O2 1923   0.555   0.782  10.685 -0.6513 -0.5605 -0.5997
  123TMC2    O5 1924   0.604   0.807  10.905  0.2367  1.1507  0.3506
  123TMC2    H5 1925   0.621   0.750  10.983  1.8387 -0.2490 -1.0168
  124MPD2     C 1926   0.356   4.608  11.241  0.1533  0.0065  0.3181
  124MPD2    C1 1927   0.308   4.634  11.114  0.4222  0.3962  0.4188
  124MPD2    C2 1928   0.343   0.016  11.043  0.8460 -0.5191 -0.5086
  124MPD2    C3 1929   0.426   0.113  11.101  0.0741 -0.3761 -0.7081
  124MPD2    C4 1930   0.468   0.094  11.232  0.5902 -0.4835  0.0335
  124MPD2    C5 1931   0.439   4.706  11.294 -0.1955 -0.1356  0.0729
  124MPD2     H 1932   0.291   0.046  10.953 -1.6003  0.9171  1.3857
  124MPD2    H1 1933   0.532   0.162  11.287 -1.4066  1.0859  0.4130
  124MPD2    H2 1934   0.338   4.513  11.289  0.2502 -0.0027  0.3374
  124MPD2    H3 1935   0.484   4.686  11.391 -1.1962 -1.5405  0.2426
  124MPD2     N 1936   0.474   0.213  11.018 -0.1807 -1.1429 -0.0154
  124MPD2    H5 1937   0.441   0.203  10.923 -0.4357  1.4360 -0.1794
  124MPD2    N1 1938   0.238   4.529  11.047 -0.0587  0.3514  0.0209
  124MPD2    H7 1939   0.244   4.437  11.089 -1.1083  0.2269 -0.0838
  125TMC2    C1 1940   1.107   1.759  10.129 -0.4071  0.6044  0.4258
  125TMC2    C2 1941   1.217   1.744  10.209 -0.2786  0.1816 -0.3109
  125TMC2    C3 1942   1.319   1.664  10.168  0.1137 -0.5494 -0.2776
  125TMC2    C4 1943   1.102   1.695  10.007  0.2290 -0.0331 -1.0639
  125TMC2    C5 1944   1.188   1.591   9.984 -0.1497 -0.6635 -0.0398
  125TMC2    C6 1945   1.298   1.581  10.057 -0.0551 -0.4459 -0.2195
  125TMC2     C 1946   0.992   1.850  10.167  0.2073  0.5466  0.2904
  125TMC2     O 1947   0.890   1.860  10.093 -0.5657 -0.0190 -0.1728
  125TMC2     H 1948   1.227   1.796  10.304  1.1005 -0.8536  0.1112
  125TMC2    H1 1949   1.002   1.689   9.965 -0.1224 -1.0807 -0.0645
  125TMC2    H2 1950   1.369   1.503  10.032 -0.0848 -0.5330 -0.0282
  125TMC2    C7 1951   1.194   1.550   9.841  0.4362  0.0687 -0.7924
  125TMC2    C8 1952   1.426   1.639  10.254 -0.3188  0.0402  0.1936
  125TMC2    O1 1953   1.093   1.570   9.775  0.5397 -0.1783 -0.2075
  125TMC2    O2 1954   1.403   1.610  10.369  0.3528 -0.4499 -0.2397
  125TMC2    O5 1955   1.524   1.720  10.207  0.1811 -0.0577  0.1279
  125TMC2    H5 1956   1.524   1.726  10.109 -1.7954  2.4727  0.2719
  126MPD1     C 1957   0.758   2.129  10.522  0.1134  0.4855  0.4183
  126MPD1    C1 1958   0.877   2.086  10.578  0.3178  0.3038 -0.0810
  126MPD1    C2 1959   0.961   2.022  10.497 -0.0302 -0.0968  0.0970
  126MPD1    C3 1960   0.918   1.964  10.375 -0.1910  0.7354 -0.1282
  126MPD1    C4 1961   0.797   2.001  10.327  0.4767 -0.6241 -0.1301
  126MPD1    C5 1962   0.714   2.081  10.404  0.0571 -0.0611  0.3207
  126MPD1     H 1963   1.050   1.977  10.539 -1.9367 -1.7446  2.3393
  126MPD1    H1 1964   0.751   1.966  10.235  1.5501 -2.0160 -0.1510
  126MPD1    H2 1965   0.694   2.195  10.580 -0.0014 -0.0121  0.8491
  126MPD1    H3 1966   0.619   2.113  10.364 -0.2950  0.3484  1.4734
  126MPD1     N 1967   1.003   1.894  10.295 -0.1772 -0.2755  0.2641
  126MPD1    H5 1968   1.084   1.859  10.346  1.2990  0.6966 -1.3780
  126MPD1    N1 1969   0.932   2.144  10.695  0.5941  0.2039 -0.2850
  126MPD1    H6 1970   0.865   2.179  10.763  1.1767 -1.5811  1.2049
  126MPD1    H7 1971   0.987   2.073  10.742 -0.1044 -1.8613 -2.5617
  127TMC2    C1 1972   2.780   4.702   9.693  0.5530  0.0303 -0.0768
  127TMC2    C2 1973   2.773   4.628   9.806 -0.0966  0.4901  0.5397
  127TMC2    C3 1974   2.674   4.530   9.823 -0.6078 -0.1020  0.9941
  127TMC2    C4 1975   2.680   4.685   9.594  0.1241  0.9021  0.0510
  127TMC2    C5 1976   2.585   4.591   9.618  0.2028 -0.1658  0.3449
  127TMC2    C6 1977   2.585   4.509   9.724 -0.6137 -0.9668  0.3480
  127TMC2     C 1978   2.850   0.095   9.702 -0.2272  0.1463 -0.5042
  127TMC2     O 1979   2.850   0.151   9.814 -0.1151  0.2263  0.0354
  127TMC2     H 1980   2.830   4.663   9.891  1.3449 -0.6594  0.0344
  127TMC2    H1 1981   2.680   0.009   9.502  0.6155 -0.4354 -0.7854
  127TMC2    H2 1982   2.511   4.433   9.746 -3.2406  2.2611  2.5277
  127TMC2    C7 1983   2.471   4.588   9.528  0.7531 -0.2169 -0.0986
  127TMC2    C8 1984   2.661   4.452   9.942 -0.6450  0.1235  0.8228
  127TMC2    O1 1985   2.486   4.645   9.419 -0.2555  0.1609  0.4035
  127TMC2    O2 1986   2.553   4.429   9.994  0.2900 -0.4977  0.4622
  127TMC2    O5 1987   2.778   4.393   9.963 -0.4714 -0.5176  0.0369
  127TMC2    H5 1988   2.846   4.413   9.895  1.0310 -0.0337  1.6635
  128MPD2     C 1989   2.954   0.285   9.403 -0.8479  0.4451  0.2896
  128MPD2    C1 1990   2.931   0.264   9.536  0.6208  0.3549 -0.4135
  128MPD2    C2 1991   2.954   0.373   9.626 -0.8896  0.7184  0.5030
  128MPD2    C3 1992   2.988   0.495   9.584 -0.0431 -0.4803  0.5454
  128MPD2    C4 1993   3.000   0.513   9.444 -0.2279  0.0074 -0.0919
  128MPD2    C5 1994   2.990   0.407   9.360 -0.3662 -0.3208 -0.0707
  128MPD2     H 1995   2.932   0.361   9.731  1.0002 -0.6695  0.7306
  128MPD2    H1 1996   3.021   0.605   9.389 -0.1737  0.2294  0.3017
  128MPD2    H2 1997   2.948   0.203   9.333 -0.1597  0.0144  0.7296
  128MPD2    H3 1998   3.002   0.421   9.253  1.6553 -1.4817  0.0127
  128MPD2     N 1999   2.986   0.603   9.677  0.3005 -0.4869  0.4495
  128MPD2    H5 2000   2.987   0.581   9.776  0.2422 -0.4267  0.4632
  128MPD2    N1 2001   2.882   0.137   9.578  0.6094  0.0704 -0.1723
  128MPD2    H7 2002   2.869   0.066   9.507  2.9068  0.4831 -1.0036
  129TMC2    C1 2003   4.673   1.087   1.806  0.1782 -0.0716  0.0067
  129TMC2    C2 2004   4.611   1.187   1.735  0.2764 -0.1390  0.4012
  129TMC2    C3 2005   4.479   1.225   1.763 -0.0590 -0.2810  0.6276
  129TMC2    C4 2006   4.612   1.040   1.921  0.2221 -0.3656 -0.4294
  129TMC2    C5 2007   4.479   1.090   1.949 -0.3203 -0.5218 -0.3050
  129TMC2    C6 2008   4.406   1.173   1.862  0.3627  0.1647  0.2606
  129TMC2     C 2009   0.082   1.064   1.790 -0.2733 -0.5121 -0.2071
  129TMC2     O 2010   0.126   0.990   1.873 -0.2227  0.0462 -0.2120
  129TMC2     H 2011   4.661   1.222   1.645 -0.7755 -0.5390 -0.3377
  129TMC2    H1 2012   4.663   0.981   1.996 -0.0138  0.3314  0.2750
  129TMC2    H2 2013   4.302   1.202   1.879 -0.2151 -2.0554  0.5383
  129TMC2    C7 2014   4.400   1.006   2.037  0.4063  0.1670 -0.4162
  129TMC2    C8 2015   4.405   1.302   1.666  0.8873  0.3864 -0.1672
  129TMC2    O1 2016   4.456   0.901   2.078  0.4063 -0.1303 -0.3656
  129TMC2    O2 2017   4.283   1.291   1.664  0.7437  0.0084  0.6643
  129TMC2    O5 2018   4.472   1.422   1.671 -0.0280 -0.7368  0.1983
  129TMC2    H5 2019   4.567   1.427   1.694 -0.2861  0.7538  0.9020
  130MPD2     C 2020   0.363   1.039   1.729 -0.5439  0.5656 -0.5623
  130MPD2    C1 2021   0.287   1.152   1.709 -0.4528  0.3835 -0.3703
  130MPD2    C2 2022   0.348   1.274   1.674 -0.1120 -0.1449 -0.3064
  130MPD2    C3 2023   0.484   1.277   1.646 -0.1399  0.2117 -0.1144
  130MPD2    C4 2024   0.558   1.165   1.671 -0.4320 -0.8141  0.3366
  130MPD2    C5 2025   0.499   1.044   1.713  0.0397  0.5737  0.4539
  130MPD2     H 2026   0.288   1.359   1.640  0.8418 -0.1033 -1.8961
  130MPD2    H1 2027   0.662   1.157   1.641 -0.4464 -1.0351  0.3469
  130MPD2    H2 2028   0.325   0.944   1.764 -1.4790  1.0258 -0.3346
  130MPD2    H3 2029   0.560   0.954   1.719  0.6416  0.9630  0.1152
  130MPD2     N 2030   0.535   1.396   1.603 -0.1824 -0.1835  1.0848
  130MPD2    H5 2031   0.464   1.465   1.581  2.1871  2.5901  2.1524
  130MPD2    N1 2032   0.143   1.158   1.710 -0.0879 -0.2393 -0.4623
  130MPD2    H7 2033   0.093   1.242   1.681  3.1899  1.0760 -2.2607
  131TMC2    C1 2034   0.259   0.267  10.175 -0.2783  0.1407 -0.2457
  131TMC2    C2 2035   0.308   0.349  10.270 -0.0311 -0.0127  0.4017
  131TMC2    C3 2036   0.387   0.447  10.226 -0.0092 -0.3911  0.5858
  131TMC2    C4 2037   0.297   0.278  10.047  0.3025  0.5769  0.3259
  131TMC2    C5 2038   0.382   0.381  10.014  0.0208  0.2474  0.2248
  131TMC2    C6 2039   0.428   0.470  10.101 -0.4818  0.2878 -0.7330
  131TMC2     C 2040   0.198   0.144  10.227 -0.8618 -0.8418  0.5417
  131TMC2     O 2041   0.205   0.130  10.347 -0.4815  0.5754 -0.1172
  131TMC2     H 2042   0.279   0.338  10.373 -0.7517 -0.6253  0.1304
  131TMC2    H1 2043   0.247   0.209   9.980 -0.1308 -1.3027  2.5838
  131TMC2    H2 2044   0.502   0.544  10.072  0.7893 -0.8810 -0.4840
  131TMC2    C7 2045   0.447   0.366   9.885  0.1261  0.6606  0.1480
  131TMC2    C8 2046   0.408   0.555  10.323 -0.3380 -0.4550 -0.4270
  131TMC2    O1 2047   0.398   0.270   9.822  0.2342  0.2650 -1.1096
  131TMC2    O2 2048   0.394   0.534  10.441 -0.4143  0.7953 -0.5847
  131TMC2    O5 2049   0.381   0.668  10.261  0.0837  0.4269 -0.3528
  131TMC2    H5 2050   0.370   0.650  10.166  4.3300 -0.0014 -0.7712
  132MPD2     C 2051   0.055   4.585  10.062 -0.3048  0.4005  0.2320
  132MPD2    C1 2052   0.126   4.653  10.159  0.2027 -0.1448 -0.2933
  132MPD2    C2 2053   0.138   4.596  10.285  1.2071  0.2945  0.1214
  132MPD2    C3 2054   0.087   4.469  10.316 -0.0289  0.6414  0.2055
  132MPD2    C4 2055   0.010   4.405  10.222  0.1420 -0.0614 -0.2037
  132MPD2    C5 2056   0.003   4.466  10.096 -0.4350  0.0319  0.2174
  132MPD2     H 2057   0.170   4.644  10.377  3.2660  0.3693 -0.6283
  132MPD2    H1 2058   4.707   4.303  10.233 -0.7924  0.5424  2.1093
  132MPD2    H2 2059   0.038   4.626   9.964 -1.9073 -0.5992  0.0805
  132MPD2    H3 2060   4.668   4.413  10.033 -0.1814 -2.0971  1.7242
  132MPD2     N 2061   0.090   4.432  10.454 -0.3856 -0.5823 -0.3503
  132MPD2    H5 2062   0.135   4.497  10.518 -0.5546 -0.4936 -0.3196
  132MPD2    N1 2063   0.165   0.049  10.133  0.1754 -0.1537  0.3469
  132MPD2    H7 2064   0.157   0.083  10.038  2.4705  0.4605  0.3583
  133TMC2    C1 2065   3.410   4.344   9.645  0.7737  0.4474  0.3958
  133TMC2    C2 2066   3.281   4.392   9.626  0.2026 -0.2718  0.2387
  133TMC2    C3 2067   3.188   4.350   9.720  0.1495 -0.1961 -0.0438
  133TMC2    C4 2068   3.448   4.272   9.749  0.1464 -0.0620 -0.1340
  133TMC2    C5 2069   3.357   4.223   9.835 -0.1141  0.6573  0.3746
  133TMC2    C6 2070   3.226   4.257   9.815  0.2618  0.0479  0.4443
  133TMC2     C 2071   3.507   4.419   9.575  0.7036  0.7065 -0.6944
  133TMC2     O 2072   3.466   4.505   9.498 -0.1438 -0.2097  0.4950
  133TMC2     H 2073   3.264   4.460   9.543  0.5695 -0.4039  0.0529
  133TMC2    H1 2074   3.553   4.254   9.771  1.1017  1.8032 -3.0965
  133TMC2    H2 2075   3.144   4.221   9.877 -0.8191 -2.7395 -2.6380
  133TMC2    C7 2076   3.389   4.116   9.926  0.1683  0.5394  0.1845
  133TMC2    C8 2077   3.048   4.378   9.695 -0.0977  0.6825 -0.2313
  133TMC2    O1 2078   3.509   4.101   9.953  0.4211 -0.1004 -0.4422
  133TMC2    O2 2079   2.965   4.393   9.788 -0.5814  0.3300 -0.3266
  133TMC2    O5 2080   3.019   4.333   9.572  0.2455  0.2677 -0.0883
  133TMC2    H5 2081   3.101   4.288   9.540 -0.3500  1.2058 -2.9846
  134MPD2     C 2082   3.868   4.354   9.541 -0.2730  0.3474 -0.2196
  134MPD2    C1 2083   3.750   4.429   9.536  0.1948  0.0294  0.4521
  134MPD2    C2 2084   3.765   4.568   9.534  0.2974  0.8017 -0.2169
  134MPD2    C3 2085   3.883   4.635   9.538 -0.7259  0.4448 -0.3481
  134MPD2    C4 2086   3.994   4.555   9.550 -0.4152 -0.3488 -0.0841
  134MPD2    C5 2087   3.986   4.419   9.549  0.3289  0.2328 -0.5424
  134MPD2     H 2088   3.671   4.622   9.538 -0.7734 -0.9515 -2.1726
  134MPD2    H1 2089   4.095   4.593   9.561  0.0413 -0.9898 -2.0425
  134MPD2    H2 2090   3.865   4.246   9.545  3.3573  0.2384 -0.2886
  134MPD2    H3 2091   4.077   4.361   9.552  0.8708  1.1313  0.5997
  134MPD2     N 2092   3.892   0.046   9.553 -0.6230  0.9933  0.1229
  134MPD2    H5 2093   3.985   0.086   9.563 -0.2959  0.1599  0.4030
  134MPD2    N1 2094   3.625   4.356   9.565 -0.4773  0.1079 -0.0207
  134MPD2    H7 2095   3.630   4.258   9.591 -0.9156  0.0981  0.0293
  135TMC2    C1 2096   1.220   2.240  10.420  0.7157 -0.3652  0.0681
  135TMC2    C2 2097   1.169   2.354  10.475  0.0182 -0.6382  0.1490
  135TMC2    C3 2098   1.174   2.365  10.609 -1.0188 -0.0996 -0.0576
  135TMC2    C4 2099   1.270   2.135  10.496 -0.0403 -0.3053  0.2597
  135TMC2    C5 2100   1.266   2.149  10.629  0.0805  0.8853  0.4890
  135TMC2    C6 2101   1.214   2.259  10.691  0.2565  0.3511 -0.2007
  135TMC2     C 2102   1.199   2.226  10.277 -0.6265  0.1308  0.2031
  135TMC2     O 2103   1.132   2.320  10.229 -0.4836 -0.1215 -0.4100
  135TMC2     H 2104   1.142   2.440  10.415 -1.1619 -0.6394  0.6882
  135TMC2    H1 2105   1.280   2.034  10.458  0.2640 -0.6440  1.2183
  135TMC2    H2 2106   1.183   2.263  10.795 -1.1570  0.0252 -0.6059
  135TMC2    C7 2107   1.328   2.059  10.722  0.3478  0.0484  0.3841
  135TMC2    C8 2108   1.072   2.455  10.653  0.3733 -0.1738  1.1040
  135TMC2    O1 2109   1.315   2.082  10.839  0.5902 -0.0487  0.7743
  135TMC2    O2 2110   1.093   2.574  10.665 -0.3600  0.4170  0.3452
  135TMC2    O5 2111   0.962   2.404  10.593  0.3338  0.4116  0.4818
  135TMC2    H5 2112   0.960   2.309  10.615  0.3699 -0.1585 -2.0763
  136MPD2     C 2113   1.131   2.133  10.016 -0.4290 -0.5533 -0.3015
  136MPD2    C1 2114   1.243   2.085  10.086 -0.6136 -0.1339  0.0435
  136MPD2    C2 2115   1.333   2.008  10.012  0.7735 -0.1913 -0.6059
  136MPD2    C3 2116   1.318   1.999   9.873 -0.0265  0.8065 -0.2956
  136MPD2    C4 2117   1.211   2.056   9.810  0.4262 -0.1963 -0.7207
  136MPD2    C5 2118   1.115   2.114   9.883 -0.0411  0.0233 -0.5123
  136MPD2     H 2119   1.411   1.951  10.060  1.8631  1.0119 -0.9295
  136MPD2    H1 2120   1.197   2.056   9.702  1.6972  1.5492 -0.8905
  136MPD2    H2 2121   1.062   2.193  10.075  2.3401  2.6703 -0.3333
  136MPD2    H3 2122   1.029   2.162   9.839  0.0796  0.3599 -0.3793
  136MPD2     N 2123   1.401   1.930   9.791 -0.0392  0.9757 -0.4596
  136MPD2    H5 2124   1.393   1.939   9.691 -1.5993  0.7052 -0.3579
  136MPD2    N1 2125   1.266   2.121  10.215 -0.6971 -0.3040  0.1968
  136MPD2    H7 2126   1.346   2.075  10.256  0.2647  1.8732  0.7597
  137TMC2    C1 2127   1.692   0.147   9.375  0.0007 -0.4642  0.3926
  137TMC2    C2 2128   1.670   0.033   9.306 -0.2344  0.7479 -0.0012
  137TMC2    C3 2129   1.631   0.039   9.174 -0.1364 -0.6806  0.1067
  137TMC2    C4 2130   1.656   0.273   9.325 -0.2264  0.5246 -0.3996
  137TMC2    C5 2131   1.603   0.272   9.195  0.2540  0.5509  0.8205
  137TMC2    C6 2132   1.599   0.162   9.115  0.8396  0.0953 -0.3528
  137TMC2     C 2133   1.724   0.141   9.516  0.0490 -0.0719 -0.7019
  137TMC2     O 2134   1.818   0.215   9.552 -0.2802 -0.2171  0.3156
  137TMC2     H 2135   1.692   4.670   9.349 -1.8475  0.6731  0.6290
  137TMC2    H1 2136   1.657   0.363   9.386  0.4181 -0.2453  0.7293
  137TMC2    H2 2137   1.559   0.170   9.015  0.0549 -0.9934 -0.1193
  137TMC2    C7 2138   1.565   0.402   9.133  0.8443 -0.5273  0.3385
  137TMC2    C8 2139   1.610   4.651   9.101  0.0879  0.1953 -0.0812
  137TMC2    O1 2140   1.577   0.418   9.013 -0.4335  0.2897  0.1911
  137TMC2    O2 2141   1.679   4.550   9.115 -0.6060 -0.2479  0.0890
  137TMC2    O5 2142   1.497   4.657   9.036 -0.1304  0.4333  0.4051
  137TMC2    H5 2143   1.438   4.722   9.080 -0.9839 -1.7515  2.5149
  138MPD2     C 2144   1.525   4.724   9.782 -0.0664  0.3683 -0.6719
  138MPD2    C1 2145   1.625   0.067   9.723  0.6260 -0.0003  0.0701
  138MPD2    C2 2146   1.722   0.112   9.815  0.8148  0.5018 -0.1390
  138MPD2    C3 2147   1.717   0.103   9.953 -0.1613 -0.3097 -0.6099
  138MPD2    C4 2148   1.613   0.023  10.005  0.1951  0.6779 -0.4955
  138MPD2    C5 2149   1.524   4.700   9.917  0.8380  0.9830  0.5789
  138MPD2     H 2150   1.812   0.161   9.781 -0.0055  1.8297 -0.4228
  138MPD2    H1 2151   1.603   0.014  10.113  2.1800  2.2243 -0.1966
  138MPD2    H2 2152   1.452   4.675   9.719 -1.2738 -1.9082  2.5066
  138MPD2    H3 2153   1.432   4.658   9.957  0.0088  0.7031 -1.6136
  138MPD2     N 2154   1.822   0.159  10.034  0.7343 -0.1942  0.4446
  138MPD2    H5 2155   1.891   0.219   9.988 -0.4146 -0.1416 -1.1961
  138MPD2    N1 2156   1.633   0.075   9.587  0.1231  0.4337  0.0269
  138MPD2    H7 2157   1.561   0.025   9.535 -0.4353 -0.6710  1.8643
  139TMC2    C1 2158   1.645   4.184  13.395  0.1035 -0.0091  0.1186
  139TMC2    C2 2159   1.776   4.208  13.426 -0.3153  0.0055  0.0204
  139TMC2    C3 2160   1.826   4.335  13.449  0.0630 -0.4742 -0.5192
  139TMC2    C4 2161   1.553   4.289  13.407  0.0417 -0.1856 -0.3433
  139TMC2    C5 2162   1.598   4.420  13.443  0.6037 -0.7199 -0.4008
  139TMC2    C6 2163   1.739   4.439  13.457 -0.6608  0.3932  0.2344
  139TMC2     C 2164   1.606   4.040  13.385  0.1477 -0.2971 -0.3199
  139TMC2     O 2165   1.702   3.965  13.390 -0.6881 -0.2188 -0.0756
  139TMC2     H 2166   1.853   4.132  13.436 -2.2921 -2.1636 -1.2783
  139TMC2    H1 2167   1.446   4.278  13.394 -0.3142  2.5563  0.1163
  139TMC2    H2 2168   1.776   4.539  13.473 -1.5293  0.7752 -0.1388
  139TMC2    C7 2169   1.525   4.540  13.416 -0.1587 -0.1521 -0.5729
  139TMC2    C8 2170   1.945   4.364  13.380  0.4473  0.5718  0.2396
  139TMC2    O1 2171   1.590   4.639  13.404 -0.0641  0.3949  0.5005
  139TMC2    O2 2172   1.980   4.332  13.270  0.0983 -0.1452  0.0398
  139TMC2    O5 2173   2.011   4.466  13.437 -0.0225 -0.1025 -0.0826
  139TMC2    H5 2174   1.984   4.483  13.530  2.2223 -1.0581  0.7464
  140MPD2     C 2175   1.289   3.866  13.308 -0.1117 -0.2531 -0.5673
  140MPD2    C1 2176   1.419   3.883  13.360 -0.9293  0.1352 -0.0599
  140MPD2    C2 2177   1.481   3.766  13.402  0.2295 -0.3314 -1.0287
  140MPD2    C3 2178   1.424   3.640  13.399  0.2068  0.8369  0.2812
  140MPD2    C4 2179   1.290   3.633  13.359 -0.1203 -0.5809 -0.0667
  140MPD2    C5 2180   1.227   3.741  13.307 -0.2302  0.2257  0.0275
  140MPD2     H 2181   1.582   3.776  13.440  0.0627  2.1115 -1.2767
  140MPD2    H1 2182   1.237   3.540  13.373 -0.1060 -0.5480  0.2070
  140MPD2    H2 2183   1.238   3.944  13.252  0.4398  0.2059 -0.4406
  140MPD2    H3 2184   1.130   3.744  13.260 -0.6847  0.5584  0.9890
  140MPD2     N 2185   1.510   3.531  13.431 -0.6802  0.7908 -0.5689
  140MPD2    H5 2186   1.607   3.555  13.451 -0.7775 -0.4176  1.3594
  140MPD2    N1 2187   1.474   4.017  13.361 -0.8904 -0.5001 -0.6376
  140MPD2    H7 2188   1.420   4.099  13.333  1.2087  1.0734 -0.0163
  141TMC2    C1 2189   2.741   0.245  14.618  0.2466  0.5653  0.0175
  141TMC2    C2 2190   2.822   0.165  14.687 -0.2645  0.2376  0.2757
  141TMC2    C3 2191   2.809   0.155  14.825 -0.1227 -0.9455  0.2181
  141TMC2    C4 2192   2.655   0.334  14.677  0.2886  0.0948  0.2930
  141TMC2    C5 2193   2.653   0.332  14.818 -0.0140 -0.6849 -0.1790
  141TMC2    C6 2194   2.727   0.245  14.887 -0.6493  1.1390  0.2083
  141TMC2     C 2195   2.772   0.285  14.479  0.0378 -0.1350 -0.2901
  141TMC2     O 2196   2.700   0.373  14.437 -0.4618 -0.0974 -0.1746
  141TMC2     H 2197   2.900   0.112  14.633 -0.6433 -1.9349  1.8923
  141TMC2    H1 2198   2.580   0.392  14.625  0.9424  0.1975 -0.5494
  141TMC2    H2 2199   2.734   0.240  14.995 -0.4399  1.4286  0.2093
  141TMC2    C7 2200   2.644   0.457  14.888 -0.3207  0.0376 -0.2913
  141TMC2    C8 2201   2.903   0.091  14.900 -0.0334  0.7223  0.3782
  141TMC2    O1 2202   2.662   0.462  15.008 -0.6007  0.1585 -0.1725
  141TMC2    O2 2203   2.940   0.122  15.011  0.1186 -0.0336 -0.0951
  141TMC2    O5 2204   2.919   4.710  14.840 -0.4972 -0.0189 -0.0117
  141TMC2    H5 2205   2.867   4.694  14.758  0.5606 -0.3924 -0.6032
  142TMC2    C1 2206   0.377   4.272  10.214  1.2169  0.2933  0.1001
  142TMC2    C2 2207   0.317   4.278  10.087  0.8657  0.1081 -0.6493
  142TMC2    C3 2208   0.370   4.373   9.999 -0.2998 -0.5890  0.0411
  142TMC2    C4 2209   0.463   4.371  10.254  0.4668 -0.3824  0.2791
  142TMC2    C5 2210   0.487   4.479  10.169  0.1389  0.0606 -0.1455
  142TMC2    C6 2211   0.445   4.479  10.044  0.0293 -0.2336 -0.4416
  142TMC2     C 2212   0.340   4.164  10.298 -0.3437 -0.4236  0.3381
  142TMC2     O 2213   0.283   4.072  10.240  0.1530 -0.3535 -0.6398
  142TMC2     H 2214   0.239   4.207  10.060 -0.3919  2.1118 -2.3344
  142TMC2    H1 2215   0.520   4.361  10.345 -0.1187  1.1594  0.8129
  142TMC2    H2 2216   0.442   4.570   9.985  0.3869 -1.4429 -2.3262
  142TMC2    C7 2217   0.527   4.604  10.233  0.0223  0.5571  0.0754
  142TMC2    C8 2218   0.292   4.388   9.870 -1.2966  0.6961  0.3497
  142TMC2    O1 2219   0.534   4.606  10.358  0.4061  0.2994 -0.5202
  142TMC2    O2 2220   0.274   4.497   9.817 -0.0803  0.4758  0.5057
  142TMC2    O5 2221   0.255   4.262   9.821  0.0612 -0.7202  0.4446
  142TMC2    H5 2222   0.305   4.189   9.864  0.9090 -0.3890  0.0065
  143MPD2     C 2223   0.285   3.943  10.750  0.2992  0.0285  0.1078
  143MPD2    C1 2224   0.230   3.901  10.624 -0.6874  0.1778 -0.0310
  143MPD2    C2 2225   0.264   3.978  10.515  0.4419  0.0263  0.3660
  143MPD2    C3 2226   0.332   4.101  10.532 -0.3710  0.4676 -0.3053
  143MPD2    C4 2227   0.384   4.139  10.667  0.0710  0.8529  0.2993
  143MPD2    C5 2228   0.364   4.055  10.769  0.0378  0.1718 -0.1087
  143MPD2     H 2229   0.214   3.950  10.423 -1.1189  0.3456  1.1180
  143MPD2    H1 2230   0.447   4.227  10.677 -0.1878  1.0557  0.1404
  143MPD2    H2 2231   0.269   3.875  10.833 -0.6278  0.7580  0.5231
  143MPD2    H3 2232   0.409   4.080  10.864  0.2386 -2.7999  0.5678
  143MPD2     N 2233   0.369   4.190  10.429 -0.4324  0.3471  0.0879
  143MPD2    H5 2234   0.423   4.270  10.462 -1.1595  0.3013  1.4059
  143MPD2    N1 2235   0.145   3.783  10.618  0.2177 -0.6950 -0.2629
  143MPD2    H7 2236   0.132   3.735  10.706 -1.6526  0.8767  0.3216
  144TMC2    C1 2237   3.404   2.825   0.985 -0.2885 -0.2197 -0.6155
  144TMC2    C2 2238   3.405   2.688   1.012 -0.0480 -0.4959 -0.5985
  144TMC2    C3 2239   3.528   2.630   1.041  0.7787 -0.3055  0.1991
  144TMC2    C4 2240   3.522   2.899   0.990 -1.1416  0.5906  0.3139
  144TMC2    C5 2241   3.630   2.846   1.044 -0.6692 -0.3912  0.3780
  144TMC2    C6 2242   3.634   2.713   1.069  0.1316  1.0680  0.0035
  144TMC2     C 2243   3.287   2.883   0.922  0.1483 -0.4589 -0.6351
  144TMC2     O 2244   3.192   2.807   0.906  0.2533  0.1879 -0.4056
  144TMC2     H 2245   3.313   2.633   0.994 -1.3301  1.0474  1.1642
  144TMC2    H1 2246   3.519   3.004   0.964 -0.0268 -0.0067 -2.2329
  144TMC2    H2 2247   3.710   2.677   1.138  0.3130  2.8495  0.7353
  144TMC2    C7 2248   3.745   2.927   1.073  0.3605  0.1951  0.0547
  144TMC2    C8 2249   3.514   2.516   1.134  0.3676 -1.0766  1.1351
  144TMC2    O1 2250   3.854   2.872   1.072  0.0185  0.0864 -0.2746
  144TMC2    O2 2251   3.585   2.497   1.231 -0.2763 -0.5872  0.3689
  144TMC2    O5 2252   3.439   2.424   1.081  0.4190  0.2244 -0.0860
  144TMC2    H5 2253   3.411   2.454   0.991  0.5911  0.1138 -0.1756
  145MPD2     C 2254   3.034   3.236   0.659  0.6104  0.1360  0.5538
  145MPD2    C1 2255   3.001   3.109   0.701  0.0843  0.5358  0.1035
  145MPD2    C2 2256   3.088   3.028   0.762 -0.3704  0.4396  0.6282
  145MPD2    C3 2257   3.208   3.077   0.800 -0.3384 -0.1391  0.0950
  145MPD2    C4 2258   3.238   3.210   0.770  0.6405 -0.3387  0.1969
  145MPD2    C5 2259   3.155   3.289   0.694 -0.3799 -0.3684 -0.1080
  145MPD2     H 2260   3.059   2.924   0.776  0.6826  0.1609  0.7872
  145MPD2    H1 2261   3.333   3.251   0.804  1.4544 -2.0283 -0.0256
  145MPD2    H2 2262   2.967   3.302   0.605  1.5915  0.5635 -0.1319
  145MPD2    H3 2263   3.188   3.390   0.672  2.1972 -1.0356  0.6219
  145MPD2     N 2264   3.302   3.009   0.879 -1.3453  0.0239  0.1365
  145MPD2    H5 2265   3.390   3.059   0.892 -0.4656 -1.4237 -0.1470
  145MPD2    N1 2266   2.882   3.045   0.680 -0.0319  0.0950 -0.3700
  145MPD2    H7 2267   2.879   2.946   0.700 -0.6266  0.4733  1.3731
  146TMC2    C1 2268   4.452   1.763  12.713  0.0425 -0.7057  0.2308
  146TMC2    C2 2269   4.379   1.780  12.604  0.0999  1.2297  1.1134
  146TMC2    C3 2270   4.406   1.710  12.491  0.6659 -0.0639  0.2848
  146TMC2    C4 2271   4.554   1.675  12.732 -0.0684  0.5693 -0.1927
  146TMC2    C5 2272   4.585   1.610  12.612 -0.5231  0.8190  0.6322
  146TMC2    C6 2273   4.512   1.629  12.494  0.3694 -0.5518  0.0794
  146TMC2     C 2274   4.405   1.828  12.828  0.9940 -0.2113  0.3083
  146TMC2     O 2275   4.342   1.933  12.818 -0.5450 -0.0349 -0.3640
  146TMC2     H 2276   4.286   1.835  12.611  0.4224  1.6061  2.5534
  146TMC2    H1 2277   4.626   1.681  12.814  0.1816  1.5621 -0.4864
  146TMC2    H2 2278   4.549   1.576  12.407  0.1372  1.0785 -1.0041
  146TMC2    C7 2279   4.716   1.545  12.608  0.6708 -0.0527  0.2743
  146TMC2    C8 2280   4.402   1.802  12.383 -0.2988  0.1242 -0.4306
  146TMC2    O1 2281   0.042   1.540  12.503 -0.9353  0.5272 -0.6893
  146TMC2    O2 2282   4.386   1.920  12.408 -0.3586 -0.5199 -0.1538
  146TMC2    O5 2283   4.494   1.767  12.294 -0.2359  0.2863  0.2430
  146TMC2    H5 2284   4.491   1.669  12.290  0.3017  0.2612  0.4539
  147MPD2     C 2285   0.417   1.372  12.812  0.0038  0.9221  0.2594
  147MPD2    C1 2286   0.315   1.351  12.904  0.7991  0.0161  0.2906
  147MPD2    C2 2287   0.182   1.381  12.874 -0.3301 -0.1414  0.5475
  147MPD2    C3 2288   0.158   1.446  12.756  0.0009  0.8481  0.4624
  147MPD2    C4 2289   0.261   1.473  12.666 -0.2534 -0.2273 -0.0095
  147MPD2    C5 2290   0.386   1.429  12.693 -0.6843  0.1051 -0.1026
  147MPD2     H 2291   0.098   1.364  12.940  1.5713 -2.5867  2.3479
  147MPD2    H1 2292   0.257   1.529  12.573  1.3270  0.1954  0.1855
  147MPD2    H2 2293   0.519   1.340  12.826 -0.3787 -0.8708 -1.0770
  147MPD2    H3 2294   0.460   1.453  12.618  0.4389 -1.0798  0.6156
  147MPD2     N 2295   0.029   1.499  12.735  0.5474 -0.6811 -0.3736
  147MPD2    H5 2296   4.694   1.492  12.809  1.4874 -1.0714  0.4683
  147MPD2    N1 2297   0.348   1.289  13.022 -0.8736  0.2072 -0.5975
  147MPD2    H7 2298   0.447   1.267  13.033 -0.9896 -0.7598 -1.5295
  148TMC2    C1 2299   4.296   0.323  10.768  0.2356 -0.1526  0.1606
  148TMC2    C2 2300   4.407   0.397  10.808  0.3202  0.0345 -0.7158
  148TMC2    C3 2301   4.488   0.350  10.902  0.3032 -0.4596 -0.1004
  148TMC2    C4 2302   4.272   0.198  10.822  0.4676  0.4221 -0.6944
  148TMC2    C5 2303   4.371   0.150  10.909 -0.0151 -0.4598 -0.0934
  148TMC2    C6 2304   4.478   0.221  10.957  0.0810 -0.8466  0.0414
  148TMC2     C 2305   4.234   0.372  10.647 -0.3746  0.3028  0.1899
  148TMC2     O 2306   4.257   0.487  10.611 -0.2563 -0.0278  0.6660
  148TMC2     H 2307   4.423   0.494  10.762  2.2964 -0.3050 -0.7236
  148TMC2    H1 2308   4.174   0.155  10.806 -0.2311  1.5668  0.5095
  148TMC2    H2 2309   4.541   0.175  11.032 -3.8133 -2.6843  2.1683
  148TMC2    C7 2310   4.336   0.029  10.983  0.5407  0.5737  0.8048
  148TMC2    C8 2311   4.612   0.410  10.897  0.1655 -0.7185 -0.1697
  148TMC2    O1 2312   4.388   0.020  11.095 -0.1557  0.3477 -0.4370
  148TMC2    O2 2313   4.651   0.468  10.801 -0.2427 -0.0596  0.0911
  148TMC2    O5 2314   4.689   0.365  10.997  0.1426 -0.0845  0.4912
  148TMC2    H5 2315   4.642   0.327  11.074  0.3252 -1.5204 -0.1073
  149MPD2     C 2316   3.998   0.452  10.472 -0.1666 -0.7312  0.1233
  149MPD2    C1 2317   4.037   0.325  10.508 -0.1150  0.4282 -0.0517
  149MPD2    C2 2318   3.963   0.226  10.453  0.1548 -0.5320 -0.2579
  149MPD2    C3 2319   3.861   0.241  10.354  0.1630  0.4583  0.1918
  149MPD2    C4 2320   3.836   0.373  10.322 -0.2337 -0.3684 -0.3269
  149MPD2    C5 2321   3.905   0.476  10.377 -0.8611  0.1687 -1.1445
  149MPD2     H 2322   3.980   0.125  10.488  0.0059 -0.3741  0.2605
  149MPD2    H1 2323   3.750   0.394  10.260 -1.5807  0.0457  1.6886
  149MPD2    H2 2324   4.058   0.529  10.519 -1.7007  0.5935 -0.1055
  149MPD2    H3 2325   3.870   0.575  10.352  2.1360  0.7031 -3.1208
  149MPD2     N 2326   3.779   0.141  10.302  0.2734 -0.2078 -0.5302
  149MPD2    H5 2327   3.700   0.178  10.250 -0.7705  1.3995  2.1907
  149MPD2    N1 2328   4.139   0.289  10.595 -0.4634 -0.3732  0.0440
  149MPD2    H7 2329   4.149   0.190  10.610  0.4969 -0.1699  0.7581
  150TMC2    C1 2330   2.177   4.543  12.328  0.2849  0.6001 -0.1665
  150TMC2    C2 2331   2.137   4.653  12.258  0.4867  0.1319 -0.6420
  150TMC2    C3 2332   2.226   0.023  12.261  0.4128  0.3302 -0.1335
  150TMC2    C4 2333   2.306   4.533  12.378  0.3229  0.6024 -0.2642
  150TMC2    C5 2334   2.391   4.642  12.381 -0.6622 -0.6732 -0.2178
  150TMC2    C6 2335   2.343   0.025  12.328  0.6910  0.2045  0.6521
  150TMC2     C 2336   2.091   4.421  12.343 -0.3576 -0.0783 -0.1826
  150TMC2     O 2337   2.148   4.317  12.374 -0.1400 -0.3885 -0.0067
  150TMC2     H 2338   2.043   4.662  12.205  1.1642 -2.7691 -2.3290
  150TMC2    H1 2339   2.334   4.434  12.412  1.5792  0.8157 -0.6904
  150TMC2    H2 2340   2.409   0.108  12.306 -0.0239  0.1693 -1.6270
  150TMC2    C7 2341   2.521   4.648  12.453  0.7335 -0.6676  0.2206
  150TMC2    C8 2342   2.191   0.133  12.180 -0.0454 -0.3833  0.4862
  150TMC2    O1 2343   2.570   0.028  12.465  0.8254  0.6502 -0.1580
  150TMC2    O2 2344   2.269   0.223  12.151 -0.0922 -0.2451 -0.0946
  150TMC2    O5 2345   2.064   0.162  12.228  0.3274 -0.4797  0.0698
  150TMC2    H5 2346   2.015   0.084  12.263  0.4813 -2.0565 -3.1548
  151MPD2     C 2347   1.619   4.221  12.371 -0.2759 -0.0003  0.5765
  151MPD2    C1 2348   1.610   4.355  12.351 -0.8790  0.0685  0.6204
  151MPD2    C2 2349   1.722   4.439  12.348  0.7829 -0.2234 -0.1101
  151MPD2    C3 2350   1.847   4.378  12.363  0.1459  0.0551  0.7933
  151MPD2    C4 2351   1.854   4.240  12.361  0.3946  0.2480  0.1647
  151MPD2    C5 2352   1.743   4.164  12.355 -0.3154  1.0212  0.2169
  151MPD2     H 2353   1.714   4.547  12.345 -0.7592 -0.3108  0.6631
  151MPD2    H1 2354   1.953   4.197  12.355  0.7886  1.3383 -1.2720
  151MPD2    H2 2355   1.533   4.156  12.379  0.0918 -0.8078 -1.9568
  151MPD2    H3 2356   1.746   4.056  12.359  1.1197  1.0018 -1.2476
  151MPD2     N 2357   1.955   4.461  12.349  0.3090  1.0012  0.3271
  151MPD2    H5 2358   1.930   4.559  12.333  1.1007  0.9689 -1.1064
  151MPD2    N1 2359   1.482   4.408  12.325 -0.6767 -0.1177  0.0079
  151MPD2    H7 2360   1.407   4.340  12.330 -1.3022  0.7496  2.3587
  152TMC2    C1 2361   1.518   4.317  12.740  0.0013  0.6256  0.2782
  152TMC2    C2 2362   1.581   4.196  12.742  0.2388  0.1288  0.2695
  152TMC2    C3 2363   1.712   4.195  12.709 -0.8685 -0.0421  0.5082
  152TMC2    C4 2364   1.591   4.429  12.699 -0.2011  0.4932  0.1825
  152TMC2    C5 2365   1.726   4.421  12.680  0.4484  0.1886  0.7215
  152TMC2    C6 2366   1.789   4.303  12.681 -0.5210 -0.1265 -0.3027
  152TMC2     C 2367   1.378   4.325  12.729  0.0832 -0.0727 -0.2535
  152TMC2     O 2368   1.326   4.422  12.682 -0.2365  0.1710 -0.0054
  152TMC2     H 2369   1.522   4.107  12.764  0.0056  0.4041  0.7454
  152TMC2    H1 2370   1.537   4.522  12.683 -0.4409 -0.1291 -2.5365
  152TMC2    H2 2371   1.896   4.299  12.665 -0.6810  0.6416 -1.6014
  152TMC2    C7 2372   1.795   4.546  12.645  0.2553  0.8223 -0.1317
  152TMC2    C8 2373   1.786   4.072  12.748  0.0536 -0.3131  0.3244
  152TMC2    O1 2374   1.714   4.632  12.611  0.7826  0.3813  0.2507
  152TMC2    O2 2375   1.727   3.963  12.758 -0.4481  0.1561  0.6514
  152TMC2    O5 2376   1.892   4.113  12.819 -0.1942  0.1929  0.0642
  152TMC2    H5 2377   1.930   4.203  12.812  2.1222 -0.7558  0.4492
  153MPD2     C 2378   1.118   4.158  12.918 -0.0100  0.0302  0.1188
  153MPD2    C1 2379   1.175   4.221  12.807 -0.2297  0.1615 -0.8907
  153MPD2    C2 2380   1.087   4.286  12.722  0.6021  0.3863  0.4108
  153MPD2    C3 2381   0.951   4.288  12.751 -0.3654 -0.0150 -0.1489
  153MPD2    C4 2382   0.899   4.212  12.854  0.5728  0.8081 -0.3322
  153MPD2    C5 2383   0.981   4.149  12.943  0.1787  0.3269 -0.1018
  153MPD2     H 2384   1.130   4.326  12.631  3.0162 -0.0923  1.3486
  153MPD2    H1 2385   0.794   4.196  12.874  0.3099  0.9356 -1.6058
  153MPD2    H2 2386   1.186   4.113  12.990  0.9780  2.8333  0.9205
  153MPD2    H3 2387   0.940   4.092  13.026  1.2253 -0.1144  0.1031
  153MPD2     N 2388   0.873   4.365  12.662  0.2690 -0.4441  0.2029
  153MPD2    H5 2389   0.924   4.410  12.587 -2.1970 -0.8812 -1.7337
  153MPD2    N1 2390   1.318   4.216  12.792 -0.0738  0.4893 -0.0904
  153MPD2    H7 2391   1.364   4.146  12.848 -0.9887 -0.7106 -0.8210
  154TMC2    C1 2392   3.973   4.043   0.057  0.2747  0.0626 -0.3133
  154TMC2    C2 2393   4.024   3.929   0.108  0.4154  0.4967  0.6702
  154TMC2    C3 2394   4.087   3.847   0.016 -0.1270  0.2375  0.3261
  154TMC2    C4 2395   3.982   4.079  17.660 -0.3344  0.1263 -0.2355
  154TMC2    C5 2396   4.052   3.990  17.573  0.4161 -1.0077 -0.2986
  154TMC2    C6 2397   4.107   3.869  17.618  0.7450 -0.7781  0.4479
  154TMC2     C 2398   3.913   4.131   0.156  0.4296  0.1021 -0.6647
  154TMC2     O 2399   3.852   4.076   0.246  0.6683  0.2410 -0.1141
  154TMC2     H 2400   3.999   3.900   0.209 -0.3138  0.9507  0.6187
  154TMC2    H1 2401   3.939   4.175  17.635 -1.3881 -0.7114 -1.6394
  154TMC2    H2 2402   4.144   3.793  17.550  1.2980 -0.4127  0.3469
  154TMC2    C7 2403   4.060   4.008  17.433  0.3510 -0.4531 -0.4822
  154TMC2    C8 2404   4.066   3.708   0.050 -0.1397 -0.0155 -0.7319
  154TMC2    O1 2405   4.085   3.907  17.364  0.2012 -0.5042 -0.2640
  154TMC2    O2 2406   3.973   3.672   0.127  0.0058  0.0322 -0.2640
  154TMC2    O5 2407   4.158   3.633  17.728  0.2378 -0.2412 -0.2554
  154TMC2    H5 2408   4.231   3.690  17.697  1.1435 -1.3664 -0.1397
  155MPD2     C 2409   3.849   4.493   0.127 -0.2741  0.2473 -0.2930
  155MPD2    C1 2410   3.830   4.368   0.175 -0.7618 -0.1813 -0.3870
  155MPD2    C2 2411   3.731   4.347   0.267  0.5414  0.3633  0.4320
  155MPD2    C3 2412   3.662   4.450   0.327 -0.5026  0.6483  0.0190
  155MPD2    C4 2413   3.703   4.580   0.287  0.5967  0.4837  0.8777
  155MPD2    C5 2414   3.792   4.599   0.183  0.0842  0.0066 -0.1924
  155MPD2     H 2415   3.697   4.251   0.304  3.8687 -0.6402  0.8906
  155MPD2    H1 2416   3.662   4.669   0.332 -0.3824  1.1155 -1.2472
  155MPD2    H2 2417   3.916   4.498   0.042 -0.4510  0.1639 -0.4386
  155MPD2    H3 2418   3.828   4.695   0.147  1.4542 -0.7948 -0.9698
  155MPD2     N 2419   3.554   4.426   0.416  0.6319 -0.5356 -0.1247
  155MPD2    H5 2420   3.535   4.329   0.436 -0.0220 -0.5264 -0.6992
  155MPD2    N1 2421   3.911   4.263   0.120 -0.5767 -1.1925 -0.4222
  155MPD2    H7 2422   3.980   4.294   0.053  1.4821 -0.8683  1.8488
  156TMC2    C1 2423   0.810   1.895  11.935 -0.0386  0.5586 -0.5841
  156TMC2    C2 2424   0.678   1.861  11.919  0.0989 -0.4668  0.4067
  156TMC2    C3 2425   0.611   1.888  11.798  0.4720 -0.5719 -0.1273
  156TMC2    C4 2426   0.882   1.944  11.830 -0.3783  0.0936  0.1233
  156TMC2    C5 2427   0.817   1.969  11.713  0.5919  0.3226 -0.4661
  156TMC2    C6 2428   0.682   1.939  11.690  0.2323 -0.2514  0.0260
  156TMC2     C 2429   0.862   1.908  12.070  0.1218  0.1865  0.2549
  156TMC2     O 2430   0.968   1.971  12.082  0.2344 -0.1199 -0.2813
  156TMC2     H 2431   0.617   1.818  11.998  1.0414 -1.8211  0.3946
  156TMC2    H1 2432   0.982   1.979  11.854 -0.0096  0.6782 -2.3643
  156TMC2    H2 2433   0.622   1.968  11.604  0.4419  2.0817  0.6488
  156TMC2    C7 2434   0.891   2.054  11.621  0.4421  0.7427  0.3628
  156TMC2    C8 2435   0.481   1.822  11.771 -0.4034  0.4555 -0.4295
  156TMC2    O1 2436   1.009   2.068  11.647 -0.2741  0.0020 -0.1545
  156TMC2    O2 2437   0.444   1.812  11.653 -0.6114 -0.0123  0.4466
  156TMC2    O5 2438   0.403   1.865  11.869 -0.2354  0.2667  0.2013
  156TMC2    H5 2439   0.441   1.897  11.954 -0.5552  0.5949  0.2220
  157MPD2     C 2440   0.704   1.816  12.389 -0.2261 -0.8362  0.2215
  157MPD2    C1 2441   0.804   1.854  12.301  0.1675 -0.4042 -0.2468
  157MPD2    C2 2442   0.929   1.877  12.353  0.2407 -0.0201 -0.2558
  157MPD2    C3 2443   0.954   1.862  12.490  0.4308 -0.1972  0.0679
  157MPD2    C4 2444   0.855   1.824  12.576  0.6978 -0.1796 -0.0602
  157MPD2    C5 2445   0.727   1.809  12.526 -0.1326 -0.5144 -0.1645
  157MPD2     H 2446   1.014   1.907  12.292 -0.5517  2.8058  0.0201
  157MPD2    H1 2447   0.860   1.807  12.683  1.2839 -2.1285 -0.4009
  157MPD2    H2 2448   0.606   1.788  12.351  0.6998 -0.4264 -2.4414
  157MPD2    H3 2449   0.656   1.770  12.598 -1.8331 -0.4585 -1.8017
  157MPD2     N 2450   1.084   1.889  12.527  0.0116 -0.5402  0.9753
  157MPD2    H5 2451   1.135   1.935  12.451 -1.3366 -2.0447 -0.8336
  157MPD2    N1 2452   0.772   1.859  12.166 -0.4272  0.1280  0.8619
  157MPD2    H7 2453   0.681   1.822  12.144 -0.0704  0.2198 -0.7848
  158TMC2    C1 2454   2.737   0.369  13.207 -0.3544  0.1202  0.3864
  158TMC2    C2 2455   2.838   0.348  13.123  0.0136  0.5259  0.3899
  158TMC2    C3 2456   2.808   0.314  12.993  0.0256  0.3834  0.7762
  158TMC2    C4 2457   2.603   0.364  13.177 -0.5683  0.3882 -0.2763
  158TMC2    C5 2458   2.575   0.351  13.042 -0.1326 -0.3464  0.5759
  158TMC2    C6 2459   2.676   0.329  12.951  0.3610  0.4786  0.2307
  158TMC2     C 2460   2.775   0.312  13.342 -0.4027  0.1777 -0.2315
  158TMC2     O 2461   2.895   0.319  13.365 -0.5860  0.4602 -0.3183
  158TMC2     H 2462   2.942   0.344  13.152  0.7681  0.1303 -2.3181
  158TMC2    H1 2463   2.532   0.407  13.247 -0.3567  0.3779 -0.0564
  158TMC2    H2 2464   2.654   0.335  12.845  2.4206 -0.1805 -0.2508
  158TMC2    C7 2465   2.439   0.384  12.985 -0.1944 -0.0839 -0.2907
  158TMC2    C8 2466   2.903   0.246  12.908  0.0318 -0.2363  0.3363
  158TMC2    O1 2467   2.420   0.351  12.871  0.2664  0.0909 -0.0513
  158TMC2    O2 2468   3.000   0.198  12.968 -0.2782  0.5005  0.3717
  158TMC2    O5 2469   2.844   0.182  12.806  0.5618 -0.8493  0.0886
  158TMC2    H5 2470   2.780   0.243  12.765  1.9711  0.9011  0.4643
  159MPD2     C 2471   2.668   0.140  13.810  0.4221  0.2482 -0.3536
  159MPD2    C1 2472   2.543   0.181  13.756  0.9246 -0.9850  0.0153
  159MPD2    C2 2473   2.549   0.221  13.624  0.2509  0.1546 -0.1028
  159MPD2    C3 2474   2.667   0.228  13.557  0.1753  0.1777  0.0481
  159MPD2    C4 2475   2.790   0.186  13.614 -0.2837 -0.1927  0.1391
  159MPD2    C5 2476   2.785   0.144  13.741 -0.3085 -0.1205 -0.6323
  159MPD2     H 2477   2.457   0.244  13.571  1.5132  0.5446 -2.1146
  159MPD2    H1 2478   2.885   0.199  13.563 -0.6532 -3.0833 -1.3144
  159MPD2    H2 2479   2.678   0.115  13.915 -1.5737  0.9286  0.0005
  159MPD2    H3 2480   2.875   0.149  13.802 -1.1500  2.0110  0.4560
  159MPD2     N 2481   2.666   0.277  13.426  0.3671 -0.4013 -0.5157
  159MPD2    H5 2482   2.572   0.297  13.394  0.0401  1.5441  1.6065
  159MPD2    N1 2483   2.424   0.178  13.832 -0.2640  0.8930  0.4160
  159MPD2    H7 2484   2.338   0.203  13.785 -1.0805  1.3548  2.1642
  160TMC2    C1 2485   2.029   3.061   1.127 -0.4356  0.0769 -0.6197
  160TMC2    C2 2486   1.987   3.180   1.075 -0.3857 -0.4177  0.6897
  160TMC2    C3 2487   2.076   3.281   1.103 -0.1985 -0.7282 -0.6426
  160TMC2    C4 2488   2.154   3.040   1.185  0.0550  0.1424  0.2221
  160TMC2    C5 2489   2.238   3.140   1.195 -0.5436 -0.9100 -0.6575
  160TMC2    C6 2490   2.196   3.268   1.169  0.3297 -0.1369  0.5031
  160TMC2     C 2491   1.920   2.964   1.160  0.1249  0.2792 -0.8583
  160TMC2     O 2492   1.947   2.846   1.181 -0.3961  0.3272 -0.0299
  160TMC2     H 2493   1.918   3.181   0.991 -0.4086  0.9516  0.7259
  160TMC2    H1 2494   2.183   2.938   1.210 -0.4009  0.3294  1.4801
  160TMC2    H2 2495   2.266   3.351   1.171 -0.6978  0.6700  3.0043
  160TMC2    C7 2496   2.336   3.123   1.305 -0.0598  0.1611 -0.3464
  160TMC2    C8 2497   2.057   3.401   1.028 -0.4220 -0.1294 -0.2733
  160TMC2    O1 2498   2.379   3.008   1.315 -0.4284  0.6760 -0.7179
  160TMC2    O2 2499   2.155   3.466   1.000 -0.2278 -0.1319  0.2038
  160TMC2    O5 2500   1.929   3.426   0.996 -0.2575 -0.4514  0.4840
  160TMC2    H5 2501   1.864   3.367   1.040 -0.7901  0.9731  1.6323
  161MPD2     C 2502   1.678   2.819   1.212 -1.0046  0.0569  0.2193
  161MPD2    C1 2503   1.674   2.946   1.157  0.0205  0.4341 -0.1760
  161MPD2    C2 2504   1.555   2.997   1.114 -0.7950  0.1482 -0.5946
  161MPD2    C3 2505   1.440   2.928   1.112 -0.5608 -0.3280 -0.0736
  161MPD2    C4 2506   1.443   2.800   1.163 -0.4935  0.5149  0.3732
  161MPD2    C5 2507   1.563   2.741   1.204  0.0686  0.4400  0.4765
  161MPD2     H 2508   1.559   3.093   1.062 -0.3516 -0.5258 -1.8037
  161MPD2    H1 2509   1.361   2.730   1.171 -0.5975  0.5729 -0.1940
  161MPD2    H2 2510   1.763   2.771   1.259  0.5573 -0.5801 -3.2659
  161MPD2    H3 2511   1.571   2.647   1.258 -1.7363 -0.7062 -1.2858
  161MPD2     N 2512   1.314   2.984   1.067  0.1155  0.0535  0.8150
  161MPD2    H5 2513   1.233   2.930   1.038  0.0626 -0.7196  2.3582
  161MPD2    N1 2514   1.795   3.019   1.144 -0.8598 -0.0034 -0.3450
  161MPD2    H7 2515   1.788   3.119   1.127  0.3689  0.0015 -0.8150
  162TMC2    C1 2516   4.632   0.308   1.274  0.3652  0.0924  0.5049
  162TMC2    C2 2517   4.566   0.425   1.293 -0.1744  0.6003  0.7638
  162TMC2    C3 2518   4.484   0.435   1.396  0.1601  0.0998  0.3020
  162TMC2    C4 2519   4.628   0.209   1.376 -0.4202  0.1102  0.0447
  162TMC2    C5 2520   4.559   0.242   1.492  0.2919 -0.2440  0.0594
  162TMC2    C6 2521   4.473   0.344   1.497  0.5566  0.1744  0.6542
  162TMC2     C 2522   4.677   0.264   1.138 -1.0459  0.2700  0.1973
  162TMC2     O 2523   4.702   0.144   1.125 -0.6959  0.1869 -0.2941
  162TMC2     H 2524   4.570   0.499   1.214 -2.2227  1.5434  1.5533
  162TMC2    H1 2525   4.679   0.115   1.355  1.7878  1.3293 -0.0422
  162TMC2    H2 2526   4.397   0.368   1.571  0.9855 -1.4988  1.6273
  162TMC2    C7 2527   4.531   0.119   1.564  1.1866 -0.5466 -0.3475
  162TMC2    C8 2528   4.393   0.545   1.390  0.4641 -0.1361 -0.1375
  162TMC2    O1 2529   4.570   0.014   1.527 -0.3388 -0.4767  0.2644
  162TMC2    O2 2530   4.435   0.654   1.354 -0.0569 -0.1586  0.5187
  162TMC2    O5 2531   4.275   0.496   1.354 -0.0347 -0.1572 -0.3591
  162TMC2    H5 2532   4.280   0.400   1.373 -0.6077 -0.1456 -0.1481
  163MPD2     C 2533   0.065   0.389   0.671 -0.4937 -0.5070 -0.3557
  163MPD2    C1 2534   0.030   0.267   0.712  0.2745 -0.3714 -0.5162
  163MPD2    C2 2535   4.727   0.263   0.845  0.1499  0.4251  0.2976
  163MPD2    C3 2536   4.718   0.375   0.926  0.7033  0.1749 -0.2494
  163MPD2    C4 2537   0.004   0.502   0.879  0.5019 -0.7933  0.3010
  163MPD2    C5 2538   0.061   0.503   0.749 -0.2490  0.6890 -0.3612
  163MPD2     H 2539   4.694   0.170   0.890  0.8543 -0.1014 -0.2651
  163MPD2    H1 2540   4.725   0.596   0.933 -1.9145 -0.7012 -0.4643
  163MPD2    H2 2541   0.102   0.407   0.570 -0.2205 -0.0297 -0.1725
  163MPD2    H3 2542   0.100   0.595   0.707 -0.5511  0.5262 -1.0025
  163MPD2     N 2543   4.692   0.374   1.058  0.0428 -0.0247  0.1677
  163MPD2    H5 2544   4.680   0.463   1.105  3.0717  0.9097 -0.8419
  163MPD2    N1 2545   0.030   0.154   0.617 -0.2773 -0.1890 -0.1420
  163MPD2    H7 2546   0.075   0.177   0.529  1.0406  2.5292  1.2371
  164TMC2    C1 2547   0.038   4.724  11.435 -0.9536  0.2232 -0.0895
  164TMC2    C2 2548   0.141   0.010  11.521 -0.4041 -0.6569  0.3351
  164TMC2    C3 2549   0.179   0.140  11.554  0.0803 -0.0904  0.2725
  164TMC2    C4 2550   4.724   0.091  11.360 -0.3493 -0.4867 -0.7002
  164TMC2    C5 2551   0.034   0.219  11.379 -0.2250  0.0499  0.0277
  164TMC2    C6 2552   0.135   0.241  11.480 -0.3138  0.2844 -0.0906
  164TMC2     C 2553   0.014   4.593  11.381 -0.3480  0.4920 -0.3682
  164TMC2     O 2554   0.020   4.502  11.458  0.0427 -0.5690 -0.2485
  164TMC2     H 2555   0.191   4.665  11.576 -0.8849 -0.8548  0.4860
  164TMC2    H1 2556   4.636   0.073  11.299 -1.1232 -0.7235  0.4807
  164TMC2    H2 2557   0.156   0.340  11.518  2.1518 -0.6925  1.0705
  164TMC2    C7 2558   4.701   0.321  11.311 -0.1748 -1.1056 -0.1932
  164TMC2    C8 2559   0.266   0.159  11.671 -0.2861 -0.3801  0.2266
  164TMC2    O1 2560   4.606   0.286  11.237 -0.1409  0.1626 -0.6133
  164TMC2    O2 2561   0.321   0.266  11.697  0.1772  0.5010  0.3290
  164TMC2    O5 2562   0.215   0.077  11.766 -0.1443  0.1304 -0.6075
  164TMC2    H5 2563   0.154   0.020  11.715  2.9669 -1.9479 -1.9910
  165TMC2    C1 2564   1.125   2.249   0.258 -0.0791 -0.9855 -0.0030
  165TMC2    C2 2565   1.138   2.226   0.125  0.3518  0.2260 -0.5246
  165TMC2    C3 2566   1.243   2.154   0.081  0.7791 -0.0684  0.1703
  165TMC2    C4 2567   1.210   2.196   0.348 -0.1402  0.2500 -0.5458
  165TMC2    C5 2568   1.312   2.120   0.303  0.2515 -0.7544 -0.0994
  165TMC2    C6 2569   1.332   2.099   0.168 -0.3040 -0.1555 -0.0730
  165TMC2     C 2570   1.007   2.312   0.311  0.4822 -0.5712 -0.1257
  165TMC2     O 2571   0.997   2.330   0.432 -0.0945  0.1171  0.7395
  165TMC2     H 2572   1.093   2.287   0.047  0.2059  0.2509 -0.4208
  165TMC2    H1 2573   1.183   2.205   0.452 -0.3934  1.4856 -0.7157
  165TMC2    H2 2574   1.411   2.045   0.118 -0.1360 -0.0402  0.0686
  165TMC2    C7 2575   1.425   2.094   0.389 -0.5679  0.1216 -0.6427
  165TMC2    C8 2576   1.286   2.168  17.684 -0.0471  0.6137  0.1128
  165TMC2    O1 2577   1.523   2.055   0.324 -0.8170 -0.4243  0.0683
  165TMC2    O2 2578   1.402   2.152  17.654  0.3236 -0.0506 -0.4920
  165TMC2    O5 2579   1.184   2.133  17.604  0.2078  0.0507 -0.0604
  165TMC2    H5 2580   1.103   2.133  17.658 -0.5309 -1.7649 -1.1746
  166MPD2     C 2581   0.539   2.522   0.245 -0.1428 -0.9467  0.4096
  166MPD2    C1 2582   0.613   2.500   0.363 -0.3290  0.9085  0.5477
  166MPD2    C2 2583   0.744   2.448   0.349 -1.0907  0.3073  0.7731
  166MPD2    C3 2584   0.784   2.393   0.232  0.8427 -0.4595  0.3895
  166MPD2    C4 2585   0.711   2.421   0.119  0.6185 -0.2083  0.4426
  166MPD2    C5 2586   0.593   2.488   0.122  1.2882  0.1168 -0.4343
  166MPD2     H 2587   0.804   2.440   0.440  0.1574  0.4084 -0.0367
  166MPD2    H1 2588   0.756   2.393   0.025 -1.0964 -0.9140 -0.1715
  166MPD2    H2 2589   0.443   2.573   0.241 -0.8069 -2.1232  1.1957
  166MPD2    H3 2590   0.535   2.507   0.033 -0.9100  0.8527  1.1620
  166MPD2     N 2591   0.913   2.336   0.214 -0.8361  0.1269 -0.2328
  166MPD2    H5 2592   0.941   2.298   0.124  0.4651 -0.3518  0.3676
  166MPD2    N1 2593   0.560   2.514   0.490 -0.4019 -0.0417  0.1899
  166MPD2    H7 2594   0.474   2.568   0.496 -1.0176 -1.0253  0.3280
  167TMC2    C1 2595   4.227   0.591  13.046 -0.1530  0.1691  0.3858
  167TMC2    C2 2596   4.229   0.614  13.182 -0.3633  0.1198  0.2150
  167TMC2    C3 2597   4.186   0.518  13.267 -0.2208 -0.3823  0.2012
  167TMC2    C4 2598   4.174   0.473  13.002  0.0047 -0.0218  0.6949
  167TMC2    C5 2599   4.123   0.381  13.090  0.0647 -0.5163 -0.3187
  167TMC2    C6 2600   4.135   0.402  13.223  0.0152 -0.2481 -0.5223
  167TMC2     C 2601   4.262   0.702  12.953  0.0382  0.4431 -0.1722
  167TMC2     O 2602   4.273   0.813  12.999  0.4270 -0.0951  0.0596
  167TMC2     H 2603   4.274   0.707  13.216 -0.2352 -0.8692  2.7203
  167TMC2    H1 2604   4.145   0.452  12.899 -1.3939  1.1085  0.8592
  167TMC2    H2 2605   4.098   0.331  13.296 -2.3066  2.1654  0.6818
  167TMC2    C7 2606   4.102   0.241  13.053 -0.5472 -0.3894 -0.1883
  167TMC2    C8 2607   4.235   0.503  13.401  0.2560 -0.8305 -0.1138
  167TMC2    O1 2608   4.059   0.165  13.138 -0.1234 -0.4545  0.2070
  167TMC2    O2 2609   4.179   0.438  13.485  0.0603 -0.2640  0.4606
  167TMC2    O5 2610   4.354   0.560  13.396 -0.5801 -0.1533 -0.2899
  167TMC2    H5 2611   4.400   0.576  13.311  0.4416  0.1391  0.3117
  168MPD2     C 2612   4.420   0.858  12.753  0.0432  0.2963  0.0324
  168MPD2    C1 2613   4.391   0.723  12.740 -0.3765  0.3034 -0.1296
  168MPD2    C2 2614   4.440   0.663  12.632  0.6404 -0.6676 -0.7672
  168MPD2    C3 2615   4.507   0.725  12.531 -0.2109 -0.1452 -0.0611
  168MPD2    C4 2616   4.531   0.858  12.543  0.2318  0.2758 -0.2533
  168MPD2    C5 2617   4.492   0.919  12.659  0.1055 -0.1947 -0.0798
  168MPD2     H 2618   4.419   0.557  12.622  1.4754 -1.0668  1.6973
  168MPD2    H1 2619   4.588   0.910  12.467  1.8302  0.8226  1.3277
  168MPD2    H2 2620   4.364   0.920  12.823 -0.6728 -2.6859  2.0785
  168MPD2    H3 2621   4.495   1.027  12.664 -2.0964 -0.2138  1.7428
  168MPD2     N 2622   4.543   0.677  12.403  0.1214  0.0615  0.2136
  168MPD2    H5 2623   4.610   0.723  12.343 -0.0777 -0.3669 -0.3413
  168MPD2    N1 2624   4.326   0.648  12.841  0.3097 -0.2108  0.4705
  168MPD2    H7 2625   4.327   0.547  12.827 -3.4842 -0.1994  0.2957
  169MPD1     C 2626   1.898   4.695   8.542  0.6206  0.3254 -0.3361
  169MPD1    C1 2627   1.795   4.673   8.632 -0.5607 -0.1548  0.3932
  169MPD1    C2 2628   1.827   4.599   8.748  0.3802 -0.5174 -0.3686
  169MPD1    C3 2629   1.956   4.549   8.774 -0.1556  0.0114 -0.5334
  169MPD1    C4 2630   2.046   4.569   8.674 -0.6509  0.0123 -0.1161
  169MPD1    C5 2631   2.019   4.639   8.561  0.4735 -0.8378  0.2663
  169MPD1     H 2632   1.751   4.583   8.823  1.0232 -2.9647 -0.2507
  169MPD1    H1 2633   2.148   4.535   8.682 -0.9546 -0.6001  1.2943
  169MPD1    H2 2634   1.888   0.022   8.453 -0.7273  0.1832 -0.2808
  169MPD1    H3 2635   2.095   4.655   8.485  0.9984  1.5836  1.2919
  169MPD1     N 2636   1.976   4.465   8.885  0.2071 -1.1106 -0.0436
  169MPD1    H5 2637   1.894   4.437   8.937 -0.5497  3.1438  1.0913
  169MPD1    N1 2638   1.670   4.734   8.607  0.0941  0.1281 -0.3572
  169MPD1    H6 2639   1.654   0.000   8.507 -0.9381  2.5988 -0.1839
  169MPD1    H7 2640   1.591   4.673   8.628  0.5503 -0.0659  0.7981
  170MPD1     C 2641   0.690   2.376  12.793  0.3687  0.3330 -0.4106
  170MPD1    C1 2642   0.576   2.442  12.826 -0.3362 -0.3040 -0.4206
  170MPD1    C2 2643   0.563   2.473  12.961  0.8825  0.5047 -0.1374
  170MPD1    C3 2644   0.656   2.441  13.059 -0.7437 -0.3251  0.2699
  170MPD1    C4 2645   0.767   2.385  13.018  0.7189 -0.0947  0.3226
  170MPD1    C5 2646   0.782   2.345  12.887 -0.0934 -0.6193  0.2040
  170MPD1     H 2647   0.474   2.524  12.994  0.0811 -1.3991  0.6045
  170MPD1    H1 2648   0.846   2.351  13.084 -0.0703 -1.1649  0.7314
  170MPD1    H2 2649   0.718   2.355  12.690 -0.6542 -0.0305 -0.6137
  170MPD1    H3 2650   0.877   2.295  12.869 -0.3195 -0.7691 -0.5666
  170MPD1     N 2651   0.636   2.487  13.188 -0.5041  0.3458  0.5218
  170MPD1    H5 2652   0.542   2.523  13.197 -0.5981  0.5127 -1.0788
  170MPD1    N1 2653   0.495   2.495  12.728 -0.0310 -0.2428 -0.9293
  170MPD1    H6 2654   0.514   2.462  12.633 -0.1386 -0.8784 -0.7305
  170MPD1    H7 2655   0.398   2.486  12.757 -0.2767  0.1490 -1.6336
  171MPD1     C 2656   3.375   3.178  15.964 -0.3571 -0.2753  0.3571
  171MPD1    C1 2657   3.368   3.136  15.830 -0.4327  0.5684  0.8543
  171MPD1    C2 2658   3.468   3.177  15.743  0.3181 -0.1912 -0.5579
  171MPD1    C3 2659   3.568   3.254  15.794  0.3476  0.4680 -0.4230
  171MPD1    C4 2660   3.574   3.294  15.927 -0.0574 -0.0719  0.0392
  171MPD1    C5 2661   3.479   3.253  16.014  0.3157  0.1010 -0.0837
  171MPD1     H 2662   3.471   3.140  15.641  4.3143 -1.7135  0.1418
  171MPD1    H1 2663   3.662   3.348  15.962 -0.7327  0.9577  0.1458
  171MPD1    H2 2664   3.292   3.158  16.031 -1.7934  1.2313 -1.0051
  171MPD1    H3 2665   3.478   3.276  16.120 -1.0466  1.6138 -0.4287
  171MPD1     N 2666   3.685   3.285  15.721 -0.1107 -0.0761 -0.4454
  171MPD1    H5 2667   3.758   3.330  15.776 -1.5970  2.5805 -0.6795
  171MPD1    N1 2668   3.250   3.068  15.788  0.3526  0.3500 -0.1725
  171MPD1    H6 2669   3.204   3.009  15.857 -0.0379 -0.3852 -1.0613
  171MPD1    H7 2670   3.265   3.011  15.705 -3.3127  0.1521 -0.7103
  172MPD1     C 2671   3.862   2.565   0.864  0.4741  0.2558  0.1773
  172MPD1    C1 2672   3.767   2.472   0.824  0.1743  0.6530  0.5144
  172MPD1    C2 2673   3.668   2.502   0.738 -0.3159 -0.4187 -0.3895
  172MPD1    C3 2674   3.649   2.633   0.691 -0.6452 -0.1426  0.4578
  172MPD1    C4 2675   3.754   2.725   0.725 -0.1730  0.0738  0.1122
  172MPD1    C5 2676   3.865   2.685   0.796 -0.4017  0.3600  0.0447
  172MPD1     H 2677   3.607   2.418   0.710 -0.4006  0.6156 -3.2231
  172MPD1    H1 2678   3.751   2.826   0.686 -5.0278 -0.0640  0.0808
  172MPD1    H2 2679   3.946   2.543   0.929  0.9093  0.6592 -0.2508
  172MPD1    H3 2680   3.941   2.761   0.814 -1.2878  1.1463  0.4833
  172MPD1     N 2681   3.542   2.676   0.609 -0.2383 -0.3899  0.4486
  172MPD1    H5 2682   3.537   2.770   0.570 -0.2479 -0.5456  0.0845
  172MPD1    N1 2683   3.786   2.338   0.865  0.5749  0.2126 -0.5916
  172MPD1    H6 2684   3.701   2.281   0.865  0.1280  0.8855  0.9483
  172MPD1    H7 2685   3.842   2.321   0.948 -2.0110 -2.6049  0.5845
  173MPD1     C 2686   4.549   2.113  13.885  0.4465  0.3874 -0.6355
  173MPD1    C1 2687   4.587   2.248  13.899 -0.1580 -1.1090  0.0831
  173MPD1    C2 2688   4.535   2.317  14.006  0.1045 -0.5047  0.1349
  173MPD1    C3 2689   4.462   2.254  14.102  0.1381 -0.2004 -0.6186
  173MPD1    C4 2690   4.420   2.124  14.088  0.4094 -0.4793 -0.0551
  173MPD1    C5 2691   4.464   2.053  13.976 -0.8189 -0.2611  0.3195
  173MPD1     H 2692   4.556   2.423  14.014 -0.8618 -0.3676  0.8977
  173MPD1    H1 2693   4.365   2.074  14.167 -0.6925  1.9822  0.7366
  173MPD1    H2 2694   4.589   2.049  13.808 -0.0678 -2.0011  1.0959
  173MPD1    H3 2695   4.444   1.947  13.971  1.9540 -0.7497 -0.3590
  173MPD1     N 2696   4.431   2.337  14.216 -0.5372  0.1385  0.5125
  173MPD1    H5 2697   4.468   2.431  14.217  0.5558 -0.3030  1.4485
  173MPD1    N1 2698   4.643   2.299  13.781  0.0451 -0.4760  0.5165
  173MPD1    H6 2699   4.700   2.223  13.744  0.3718 -0.1309  0.3081
  173MPD1    H7 2700   4.702   2.379  13.803  2.4223 -2.0685 -0.0898
  174MPD1     C 2701   4.493   3.101  14.017  0.4762  0.1688  0.3588
  174MPD1    C1 2702   4.395   3.115  14.105 -0.2630  1.1549  0.3766
  174MPD1    C2 2703   4.372   3.013  14.198 -0.1537  0.4880  0.1891
  174MPD1    C3 2704   4.459   2.904  14.190  0.1577 -0.9715  1.0215
  174MPD1    C4 2705   4.561   2.896  14.098  0.0265  0.3436  0.5751
  174MPD1    C5 2706   4.580   2.996  14.013  0.0499  0.6111  0.1275
  174MPD1     H 2707   4.283   3.003  14.259  0.9114 -1.2050  1.4809
  174MPD1    H1 2708   4.628   2.811  14.095 -2.6020 -1.7908  2.0457
  174MPD1    H2 2709   4.512   3.174  13.938 -2.2013 -0.3826 -0.7884
  174MPD1    H3 2710   4.654   2.977  13.937  0.7398  0.0897  0.9343
  174MPD1     N 2711   4.442   2.793  14.277 -0.9328 -0.2541 -0.1091
  174MPD1    H5 2712   4.510   2.722  14.254 -2.9724 -1.2408 -3.1748
  174MPD1    N1 2713   4.312   3.229  14.100 -0.2281  0.3317 -0.0973
  174MPD1    H6 2714   4.224   3.218  14.149 -0.4169  0.3770 -0.4264
  174MPD1    H7 2715   4.339   3.309  14.043  0.4274 -0.2731 -0.6366
  175MPD1     C 2716   2.973   3.228  15.377  0.1891 -0.3446 -0.7584
  175MPD1    C1 2717   2.929   3.353  15.425  0.5635  0.4557  0.6222
  175MPD1    C2 2718   2.873   3.343  15.551 -0.0178  0.5900  0.0418
  175MPD1    C3 2719   2.877   3.229  15.630  0.1055 -1.1433  0.6686
  175MPD1    C4 2720   2.932   3.107  15.578  0.1010 -0.3330 -0.0475
  175MPD1    C5 2721   2.979   3.114  15.451 -0.0072  0.2321 -0.7611
  175MPD1     H 2722   2.832   3.438  15.583 -2.4695 -0.4309 -0.1409
  175MPD1    H1 2723   2.945   3.014  15.632 -0.1377 -1.4795 -1.9265
  175MPD1    H2 2724   2.991   3.215  15.271  2.9988  1.3755 -0.4684
  175MPD1    H3 2725   3.030   3.029  15.408  0.3726 -0.4168  0.9512
  175MPD1     N 2726   2.851   3.227  15.768 -0.2015 -0.4510  0.0477
  175MPD1    H5 2727   2.872   3.139  15.814  0.6452 -0.3884 -0.2302
  175MPD1    N1 2728   2.911   3.460  15.340 -0.1721 -0.3330  0.3429
  175MPD1    H6 2729   2.909   3.547  15.395  0.6874  0.4123 -0.8133
  175MPD1    H7 2730   2.991   3.458  15.277 -0.6597 -0.7573 -0.2555
  176MPD1     C 2731   4.441   0.213  16.134  0.2409 -0.6192  0.0550
  176MPD1    C1 2732   4.363   0.329  16.140 -0.1945  0.5566  0.1988
  176MPD1    C2 2733   4.338   0.390  16.255 -0.1377  0.3204 -0.0544
  176MPD1    C3 2734   4.371   0.328  16.374  0.4104  0.2836 -0.0444
  176MPD1    C4 2735   4.434   0.207  16.367 -0.5075  0.3721 -0.0229
  176MPD1    C5 2736   4.459   0.142  16.249  0.2295  0.6505 -0.4875
  176MPD1     H 2737   4.271   0.475  16.257 -1.0276 -0.3964  1.2126
  176MPD1    H1 2738   4.445   0.144  16.455  0.8726 -1.2720 -1.3482
  176MPD1    H2 2739   4.471   0.159  16.045  0.4933  1.1080 -0.9148
  176MPD1    H3 2740   4.515   0.049  16.246  0.2963  0.6599  0.5648
  176MPD1     N 2741   4.333   0.388  16.498 -0.5295 -0.4153  0.4243
  176MPD1    H5 2742   4.268   0.465  16.493  1.6083  1.5284  2.3858
  176MPD1    N1 2743   4.329   0.392  16.013  0.9903  0.1857 -0.3627
  176MPD1    H6 2744   4.244   0.445  16.027  1.4893  0.6191  1.0646
  176MPD1    H7 2745   4.317   0.325  15.938  0.4553 -0.6479  0.4736
  177MPD1     C 2746   3.189   0.437  10.475  0.2699 -0.4073  0.2494
  177MPD1    C1 2747   3.114   0.385  10.369 -0.5270 -0.3849 -0.0162
  177MPD1    C2 2748   3.081   0.462  10.266 -0.2373  0.0406  0.1723
  177MPD1    C3 2749   3.130   0.593  10.259  0.4281 -0.4899 -0.1609
  177MPD1    C4 2750   3.207   0.642  10.367 -0.0838  0.3821  0.0278
  177MPD1    C5 2751   3.230   0.566  10.480  0.4342  0.2026  0.2604
  177MPD1     H 2752   3.010   0.430  10.191  0.1698  0.7051 -0.5003
  177MPD1    H1 2753   3.239   0.746  10.364 -1.1447  0.7451  1.2502
  177MPD1    H2 2754   3.212   0.361  10.549 -3.1267 -1.0049  0.6677
  177MPD1    H3 2755   3.289   0.615  10.557 -0.0179  2.3720 -0.7770
  177MPD1     N 2756   3.104   0.670  10.139  0.3919  0.6234 -0.9370
  177MPD1    H5 2757   3.061   0.620  10.061 -3.1734  1.6107  0.4252
  177MPD1    N1 2758   3.091   0.249  10.355  0.9843  0.1223 -0.6570
  177MPD1    H6 2759   3.015   0.232  10.291  1.8759 -1.1924 -1.3672
  177MPD1    H7 2760   3.066   0.201  10.441  0.9001  1.7029  0.2101
  178MPD1     C 2761   0.336   1.923  16.936 -0.4446 -0.2066  0.0796
  178MPD1    C1 2762   0.244   1.837  16.882 -0.2989  0.3984  0.2141
  178MPD1    C2 2763   0.273   1.700  16.882 -0.3454 -0.0229  0.3287
  178MPD1    C3 2764   0.388   1.650  16.940 -0.0607 -0.2122  0.5934
  178MPD1    C4 2765   0.462   1.742  17.016  0.2430 -0.3351 -0.1647
  178MPD1    C5 2766   0.440   1.875  17.011 -0.7154 -0.2410 -0.3557
  178MPD1     H 2767   0.207   1.632  16.829  1.2579  0.0060 -1.7091
  178MPD1    H1 2768   0.547   1.704  17.072  0.8091  1.2278  0.0259
  178MPD1    H2 2769   0.324   2.031  16.938  1.7132  0.0615 -0.8459
  178MPD1    H3 2770   0.503   1.946  17.063 -2.6141  1.4515 -0.3800
  178MPD1     N 2771   0.416   1.509  16.948  0.2118  0.0850 -0.0612
  178MPD1    H5 2772   0.469   1.485  17.032  0.1691  1.1692  0.2703
  178MPD1    N1 2773   0.148   1.887  16.801  0.1171  0.0239 -0.0808
  178MPD1    H6 2774   0.175   1.930  16.713 -1.2275 -1.5527 -1.2619
  178MPD1    H7 2775   0.075   1.824  16.767  0.8142 -1.1678  0.6329
  179MPD1     C 2776   0.174   0.155  15.496  0.7369 -0.2188 -0.6840
  179MPD1    C1 2777   0.247   0.145  15.610 -0.2366 -0.3590 -0.5546
  179MPD1    C2 2778   0.216   0.044  15.694  0.3136 -0.3499 -0.0223
  179MPD1    C3 2779   0.126   4.672  15.656 -0.2108 -0.2785  0.3147
  179MPD1    C4 2780   0.065   4.676  15.532 -0.4800  0.1166 -0.2449
  179MPD1    C5 2781   0.088   0.052  15.450  0.1845  0.3475 -0.4459
  179MPD1     H 2782   0.275   0.039  15.785 -3.5466  0.7807  2.5175
  179MPD1    H1 2783   4.730   4.597  15.508 -0.6528  0.2525 -0.1910
  179MPD1    H2 2784   0.186   0.246  15.439 -0.3145  0.3690  0.0242
  179MPD1    H3 2785   0.037   0.069  15.356 -0.5932 -1.5385 -0.3559
  179MPD1     N 2786   0.091   4.555  15.724 -0.7717  0.0159  0.0089
  179MPD1    H5 2787   0.034   4.488  15.675 -0.4887  0.3217 -0.7384
  179MPD1    N1 2788   0.313   0.259  15.666  0.0308  0.0831  0.8896
  179MPD1    H6 2789   0.338   0.322  15.590 -1.0028  0.6146  0.9917
  179MPD1    H7 2790   0.403   0.239  15.709  0.5505  0.5080 -0.0006
  180MPD1     C 2791   0.298   1.308  15.595 -0.5224 -0.7675 -0.0591
  180MPD1    C1 2792   0.393   1.295  15.508 -0.1776 -0.9157 -0.1548
  180MPD1    C2 2793   0.359   1.274  15.373  0.1415 -0.5773 -0.5131
  180MPD1    C3 2794   0.227   1.261  15.333 -0.7431 -0.7858 -0.0935
  180MPD1    C4 2795   0.129   1.276  15.430 -0.0311 -0.6605  0.2908
  180MPD1    C5 2796   0.164   1.299  15.562 -0.3932 -0.1756 -0.5964
  180MPD1     H 2797   0.431   1.266  15.292  4.1480  0.9029  2.8808
  180MPD1    H1 2798   0.023   1.273  15.406 -0.5159  3.4334  1.9151
  180MPD1    H2 2799   0.322   1.338  15.696  2.0226  0.3138 -0.9635
  180MPD1    H3 2800   0.095   1.314  15.644 -1.7064 -0.9144 -1.5682
  180MPD1     N 2801   0.187   1.211  15.199  0.2659 -0.0507  0.1612
  180MPD1    H5 2802   0.270   1.193  15.143 -0.5445 -1.2030 -0.6710
  180MPD1    N1 2803   0.528   1.311  15.540  0.9359  0.5656 -0.3588
  180MPD1    H6 2804   0.544   1.311  15.640  1.7160  2.7208 -0.4735
  180MPD1    H7 2805   0.582   1.232  15.505  0.0699  0.2056 -0.8878
  181MPD1     C 2806   1.397   3.007  10.369 -0.7713 -0.2206  0.0884
  181MPD1    C1 2807   1.471   3.057  10.470  0.3242  0.6344 -0.0581
  181MPD1    C2 2808   1.569   3.148  10.437 -0.2597  0.9236  0.1916
  181MPD1    C3 2809   1.587   3.185  10.303  0.1463 -0.2695  0.8647
  181MPD1    C4 2810   1.515   3.129  10.203  0.3768  0.2611 -0.0894
  181MPD1    C5 2811   1.422   3.034  10.241  0.0770 -0.0782 -0.0642
  181MPD1     H 2812   1.638   3.178  10.515 -1.6286 -0.0509  1.7541
  181MPD1    H1 2813   1.529   3.158  10.100  3.7240  0.1878  0.3417
  181MPD1    H2 2814   1.334   2.922  10.394  0.4059 -1.0517  0.2255
  181MPD1    H3 2815   1.354   2.987  10.170  2.0315 -2.1902 -0.5451
  181MPD1     N 2816   1.696   3.257  10.261 -0.6870  0.1494  0.5353
  181MPD1    H5 2817   1.720   3.255  10.162  1.4583  0.4116  1.0637
  181MPD1    N1 2818   1.456   3.028  10.608  0.3721  0.8322  0.5697
  181MPD1    H6 2819   1.538   3.045  10.666  0.9324  0.4323 -0.0891
  181MPD1    H7 2820   1.399   2.952  10.644  0.2617  0.5970 -0.1026
  182MPD1     C 2821   1.961   1.716   0.929  0.0172  0.0026  0.3317
  182MPD1    C1 2822   2.083   1.657   0.903  0.3862 -0.2820 -0.8090
  182MPD1    C2 2823   2.089   1.579   0.796  0.2628  0.3330 -0.1381
  182MPD1    C3 2824   1.993   1.584   0.699  0.3561 -0.4837  0.9543
  182MPD1    C4 2825   1.874   1.641   0.725 -0.7217 -0.2467  0.6473
  182MPD1    C5 2826   1.853   1.697   0.846 -0.2259 -0.3000 -0.5450
  182MPD1     H 2827   2.184   1.528   0.784  0.0480 -1.0353  3.8596
  182MPD1    H1 2828   1.795   1.642   0.650 -0.4051 -1.2409  0.3084
  182MPD1    H2 2829   1.935   1.772   1.019  0.0402  1.3134 -0.4768
  182MPD1    H3 2830   1.759   1.741   0.877 -1.0325 -0.8009 -2.3039
  182MPD1     N 2831   1.999   1.523   0.571  0.6407 -0.3095  0.0536
  182MPD1    H5 2832   1.916   1.543   0.516  2.3898  0.5551 -2.2805
  182MPD1    N1 2833   2.181   1.654   1.005  0.0929  0.1309  0.1905
  182MPD1    H6 2834   2.277   1.649   0.971 -0.0972  2.1731 -0.6314
  182MPD1    H7 2835   2.164   1.733   1.067 -0.1534  0.0561  0.2183
  183MPD1     C 2836   1.753   1.940   9.108 -0.4799 -0.2758  0.5200
  183MPD1    C1 2837   1.697   2.062   9.137  0.4383 -0.3734  0.3431
  183MPD1    C2 2838   1.754   2.143   9.226 -0.2337  0.0135  0.5589
  183MPD1    C3 2839   1.872   2.100   9.288 -0.0453 -0.2784 -0.5753
  183MPD1    C4 2840   1.940   1.984   9.254 -0.6319 -0.3643  1.0366
  183MPD1    C5 2841   1.882   1.905   9.159  0.2611  0.2001 -0.4331
  183MPD1     H 2842   1.701   2.234   9.251 -1.7882 -0.6546 -0.3284
  183MPD1    H1 2843   2.040   1.957   9.285 -0.5752 -0.3689  0.8506
  183MPD1    H2 2844   1.698   1.866   9.050 -0.7638 -0.8638  1.5434
  183MPD1    H3 2845   1.922   1.809   9.130  0.9917 -0.2489  2.1056
  183MPD1     N 2846   1.911   2.182   9.395 -0.2602  0.5604 -0.1855
  183MPD1    H5 2847   1.863   2.272   9.400 -2.2787 -0.4647 -1.0771
  183MPD1    N1 2848   1.565   2.076   9.087  0.3538 -0.2312  0.4287
  183MPD1    H6 2849   1.557   2.038   8.993 -2.6481  1.7825 -0.1329
  183MPD1    H7 2850   1.546   2.175   9.073  0.2561 -0.1064  1.4123
  184MPD1     C 2851   2.079   4.490   9.970  0.3651 -0.3398 -0.0760
  184MPD1    C1 2852   2.211   4.502  10.000 -0.7975  0.3179 -0.6977
  184MPD1    C2 2853   2.280   4.616   9.953  0.0780  0.5549 -0.7862
  184MPD1    C3 2854   2.222   4.695   9.858 -0.0092  0.4527 -0.1194
  184MPD1    C4 2855   2.089   4.685   9.832  0.2115 -0.5346 -0.3948
  184MPD1    C5 2856   2.021   4.585   9.890 -0.3050 -0.1643 -0.8733
  184MPD1     H 2857   2.374   4.648   9.996  0.0705 -0.2269 -0.1891
  184MPD1    H1 2858   2.044   0.010   9.753 -1.3786 -0.0594  0.8788
  184MPD1    H2 2859   2.028   4.405  10.015  1.1905 -0.9097 -0.2249
  184MPD1    H3 2860   1.918   4.567   9.859  0.0520  0.7590 -2.5871
  184MPD1     N 2861   2.288   0.066   9.798  0.2979  0.0408  0.0290
  184MPD1    H5 2862   2.239   0.120   9.727 -1.9227 -2.3230 -0.2097
  184MPD1    N1 2863   2.268   4.427  10.102 -0.1751 -0.3861 -0.6111
  184MPD1    H6 2864   2.241   4.331  10.083 -0.9294 -0.6541  1.8296
  184MPD1    H7 2865   2.366   4.430  10.077 -0.4957  0.7628 -1.7677
  185MPD1     C 2866   2.106   0.110   9.038  0.4554  0.5224  0.6077
  185MPD1    C1 2867   2.238   0.068   9.053  0.1116  0.0182  0.2588
  185MPD1    C2 2868   2.323   0.128   9.140  0.7277 -0.0832  0.6909
  185MPD1    C3 2869   2.266   0.204   9.242  0.1899 -0.1998  0.1866
  185MPD1    C4 2870   2.135   0.229   9.244  0.8459 -0.3305  0.1318
  185MPD1    C5 2871   2.049   0.191   9.138  0.7732  0.1948 -0.6333
  185MPD1     H 2872   2.429   0.108   9.126  0.3726 -1.4374 -0.0729
  185MPD1    H1 2873   2.081   0.292   9.315  1.2183  0.5787 -0.4000
  185MPD1    H2 2874   2.045   0.066   8.960 -1.4978  1.4056  1.6367
  185MPD1    H3 2875   1.945   0.218   9.128  0.6036 -0.2820 -0.1454
  185MPD1     N 2876   2.341   0.249   9.355  0.6255 -0.5969 -0.4339
  185MPD1    H5 2877   2.289   0.282   9.436  1.1410 -1.1205  0.1086
  185MPD1    N1 2878   2.292   4.727   8.946 -0.2630  0.3492  0.3302
  185MPD1    H6 2879   2.370   4.668   8.975 -0.5435  0.6484  1.6593
  185MPD1    H7 2880   2.222   4.657   8.923  0.9701 -1.0373  0.8095
  186MPD1     C 2881   0.310   4.426  15.496  0.0906  0.6277  0.2359
  186MPD1    C1 2882   0.298   4.321  15.589  0.2445 -0.5651  0.3454
  186MPD1    C2 2883   0.379   4.307  15.699 -0.8610  0.6347 -0.1940
  186MPD1    C3 2884   0.455   4.413  15.736  0.2756 -0.1549  0.4934
  186MPD1    C4 2885   0.456   4.524  15.655  0.3699 -0.7838 -0.2734
  186MPD1    C5 2886   0.392   4.528  15.534  0.3539 -0.6205 -0.1924
  186MPD1     H 2887   0.373   4.217  15.759  0.6641  1.9643  1.9339
  186MPD1    H1 2888   0.523   4.602  15.686  0.7448 -2.0613  2.1595
  186MPD1    H2 2889   0.256   4.425  15.402  0.1166 -0.1036  0.2270
  186MPD1    H3 2890   0.419   4.607  15.465 -1.1599 -0.1163 -0.1892
  186MPD1     N 2891   0.531   4.423  15.859 -0.0244  0.3628  0.4840
  186MPD1    H5 2892   0.567   4.518  15.865 -1.2538  0.8004  0.8723
  186MPD1    N1 2893   0.213   4.216  15.556  0.3250 -0.5078 -1.2193
  186MPD1    H6 2894   0.137   4.231  15.490 -0.2631 -1.6997 -0.8125
  186MPD1    H7 2895   0.188   4.151  15.630 -3.1875  1.5045 -0.6395
  187MPD1     C 2896   0.407   1.620   0.057  0.0059 -0.1857 -0.4240
  187MPD1    C1 2897   0.403   1.532  17.685 -0.3019 -0.3641  0.1457
  187MPD1    C2 2898   0.326   1.577  17.577  0.5186 -0.2985  0.0625
  187MPD1    C3 2899   0.278   1.708  17.569 -0.1639  0.0661  0.0994
  187MPD1    C4 2900   0.297   1.793  17.674  0.5790  0.7404  0.0849
  187MPD1    C5 2901   0.354   1.746   0.051  0.2510  0.4652  0.2186
  187MPD1     H 2902   0.315   1.509  17.493 -0.0416  1.1505 -1.0559
  187MPD1    H1 2903   0.257   1.894  17.671 -1.1965  0.0049 -1.0556
  187MPD1    H2 2904   0.461   1.589   0.145 -2.5142 -2.1782  0.4236
  187MPD1    H3 2905   0.364   1.824   0.127  1.5875  0.1196  0.4101
  187MPD1     N 2906   0.210   1.770  17.461 -0.0042  0.4146  0.3615
  187MPD1    H5 2907   0.169   1.861  17.475  1.7484  1.0712  1.2167
  187MPD1    N1 2908   0.429   1.396  17.708  0.5781  0.7606 -0.3317
  187MPD1    H6 2909   0.500   1.378   0.042 -2.0610  0.4189  2.2560
  187MPD1    H7 2910   0.455   1.353  17.619  0.6675  0.4133 -0.1400
  188MPD1     C 2911   4.420   2.101  10.470  0.1377 -0.5793 -0.0443
  188MPD1    C1 2912   4.492   2.012  10.546  0.1331  0.3562 -0.5495
  188MPD1    C2 2913   4.508   1.885  10.499  0.4206  0.2363 -0.8073
  188MPD1    C3 2914   4.463   1.843  10.374 -0.5152  0.4763 -0.2023
  188MPD1    C4 2915   4.409   1.935  10.296 -0.4487 -0.0832 -0.7854
  188MPD1    C5 2916   4.394   2.064  10.339  0.3003  0.3371 -0.2372
  188MPD1     H 2917   4.555   1.809  10.560 -0.7473  0.4047  0.2925
  188MPD1    H1 2918   4.362   1.903  10.204 -4.7881  0.7903  1.1160
  188MPD1    H2 2919   4.409   2.199  10.514 -1.8070 -0.7409 -0.1458
  188MPD1    H3 2920   4.341   2.130  10.271 -0.8174  0.9010  1.1927
  188MPD1     N 2921   4.451   1.715  10.334  0.5081  0.5867  0.3631
  188MPD1    H5 2922   4.424   1.690  10.240  0.1839 -0.1042  0.6336
  188MPD1    N1 2923   4.533   2.053  10.677  0.7476  0.2428 -0.6354
  188MPD1    H6 2924   4.618   2.004  10.706  0.4467 -0.4114 -0.8615
  188MPD1    H7 2925   4.518   2.145  10.716 -1.4287  0.0799 -1.0779
  189MPD1     C 2926   1.998   2.184  17.704 -0.6010 -0.0902 -0.2804
  189MPD1    C1 2927   1.870   2.135  17.689 -0.3645 -0.5409  0.2436
  189MPD1    C2 2928   1.758   2.218  17.688 -0.1959  0.2510  0.4595
  189MPD1    C3 2929   1.775   2.358  17.699  0.4162 -0.6991 -0.3615
  189MPD1    C4 2930   1.899   2.403  17.696 -0.0038 -0.0350 -0.3138
  189MPD1    C5 2931   2.013   2.324  17.711  0.5728 -0.1278 -0.2357
  189MPD1     H 2932   1.657   2.178  17.689 -0.4840  0.9863  0.0688
  189MPD1    H1 2933   1.930   2.506  17.699 -1.6475  0.4983 -1.6129
  189MPD1    H2 2934   2.080   2.116  17.721  1.0254  1.1625 -3.0307
  189MPD1    H3 2935   2.110   2.371  17.717  0.3513  0.2043  0.7445
  189MPD1     N 2936   1.663   2.440  17.683 -0.5285  0.0186  0.6711
  189MPD1    H5 2937   1.572   2.396  17.695 -1.2180  1.6723  1.5245
  189MPD1    N1 2938   1.845   2.000  17.722  0.7917 -0.3825 -0.1442
  189MPD1    H6 2939   1.926   1.940  17.712  0.8783 -0.1942 -0.5709
  189MPD1    H7 2940   1.758   1.964  17.682 -0.2721  0.2476  1.5848
  190MPD1     C 2941   0.192   0.814  14.780  0.8411 -0.2170  0.2057
  190MPD1    C1 2942   0.314   0.862  14.820  0.2924 -0.5278  0.5655
  190MPD1    C2 2943   0.340   0.873  14.955  0.1672  0.0948 -0.0572
  190MPD1    C3 2944   0.246   0.841  15.051 -0.2107  0.8057  0.8876
  190MPD1    C4 2945   0.118   0.796  15.009  0.3200  0.3540 -0.5312
  190MPD1    C5 2946   0.095   0.784  14.875 -0.5053 -0.2522 -0.0265
  190MPD1     H 2947   0.439   0.901  14.991 -0.1238  0.9258  0.1069
  190MPD1    H1 2948   0.034   0.766  15.070  0.3029  2.6732  0.5712
  190MPD1    H2 2949   0.174   0.796  14.674 -2.3617 -1.7909  1.0050
  190MPD1    H3 2950   0.004   0.733  14.845 -0.8312 -0.5064  1.3481
  190MPD1     N 2951   0.280   0.874  15.188  0.0447 -0.2223  0.8402
  190MPD1    H5 2952   0.376   0.903  15.205 -0.1850  0.1557  1.4811
  190MPD1    N1 2953   0.424   0.867  14.730  0.5672 -0.2621 -0.2366
  190MPD1    H6 2954   0.499   0.926  14.762  1.0690 -0.2858 -1.3820
  190MPD1    H7 2955   0.396   0.890  14.635  1.2357 -0.9291 -0.5898
  191MPD1     C 2956   0.027   2.774  12.985  0.0317 -0.4228 -0.3083
  191MPD1    C1 2957   4.656   2.687  13.009  0.7529  0.0428 -0.2386
  191MPD1    C2 2958   4.525   2.735  13.006 -0.3154  0.2157 -0.3684
  191MPD1    C3 2959   4.496   2.865  12.978 -0.0600 -0.4829  0.2334
  191MPD1    C4 2960   4.597   2.948  12.949 -0.2086  0.4956  0.4461
  191MPD1    C5 2961   4.728   2.902  12.956 -0.4110  0.4520  0.4617
  191MPD1     H 2962   4.444   2.668  13.032  1.4869 -2.3986 -1.5020
  191MPD1    H1 2963   4.586   3.056  12.939  0.3951  0.3173 -2.0189
  191MPD1    H2 2964   0.132   2.751  13.000 -0.3082 -1.4205  0.5443
  191MPD1    H3 2965   0.074   2.967  12.924 -0.5026 -0.0897 -0.8739
  191MPD1     N 2966   4.364   2.900  12.963  0.0098  0.4199 -0.0681
  191MPD1    H5 2967   4.285   2.837  12.967  1.8438 -1.7468  1.7089
  191MPD1    N1 2968   4.682   2.555  13.048  0.1646  0.0870 -0.0579
  191MPD1    H6 2969   4.602   2.493  13.060 -2.2363  3.0209 -0.9555
  191MPD1    H7 2970   0.032   2.506  13.020 -0.3981 -0.4700 -0.7801
  192MPD1     C 2971   3.509   3.306  13.380 -0.4125 -0.6084  0.1642
  192MPD1    C1 2972   3.632   3.255  13.409  0.1381 -0.0273  0.5126
  192MPD1    C2 2973   3.715   3.233  13.301 -0.7304  0.2001  0.2013
  192MPD1    C3 2974   3.684   3.246  13.171 -0.1887 -0.2319 -0.1200
  192MPD1    C4 2975   3.562   3.307  13.141  0.0638  0.5162  1.0991
  192MPD1    C5 2976   3.477   3.335  13.245  0.0549  0.3059  0.8931
  192MPD1     H 2977   3.818   3.206  13.324 -0.7409  2.1679  2.5923
  192MPD1    H1 2978   3.530   3.330  13.041  1.2588  0.0564  0.6102
  192MPD1    H2 2979   3.430   3.329  13.450 -0.7286  1.4036 -0.8496
  192MPD1    H3 2980   3.376   3.369  13.226 -1.1701 -3.5225  0.4804
  192MPD1     N 2981   3.787   3.231  13.072  0.3031  0.2792  0.4303
  192MPD1    H5 2982   3.770   3.282  12.986 -3.5850  1.3781  1.8445
  192MPD1    N1 2983   3.673   3.249  13.543 -0.3174  0.5436 -0.0893
  192MPD1    H6 2984   3.597   3.223  13.606 -0.6781 -1.9538 -1.5593
  192MPD1    H7 2985   3.748   3.180  13.552  0.0080  0.9119  0.0264
  193MPD1     C 2986   3.863   2.889  15.809 -0.9172  0.3368  0.2390
  193MPD1    C1 2987   3.949   2.803  15.871 -0.0440  0.0699  0.2688
  193MPD1    C2 2988   3.984   2.840  16.004 -0.2520 -0.6117  0.2952
  193MPD1    C3 2989   3.939   2.959  16.067  0.1774 -0.3154  0.4753
  193MPD1    C4 2990   3.843   3.033  16.002  0.6086 -0.2237  0.2397
  193MPD1    C5 2991   3.805   2.989  15.876  0.0246  0.2323 -0.9443
  193MPD1     H 2992   4.054   2.777  16.058  0.6127  0.1274  0.0339
  193MPD1    H1 2993   3.800   3.127  16.034  0.3110 -0.2257 -0.1545
  193MPD1    H2 2994   3.831   2.870  15.707  1.4585 -1.3370 -0.2098
  193MPD1    H3 2995   3.735   3.053  15.823 -2.4066 -1.3482  0.3721
  193MPD1     N 2996   3.962   3.002  16.198  0.2404 -0.4603  0.1937
  193MPD1    H5 2997   3.905   3.082  16.225  0.2517  0.1087 -1.4485
  193MPD1    N1 2998   4.008   2.696  15.802 -0.6859  0.2038  0.5890
  193MPD1    H6 2999   4.034   2.616  15.859  3.3432  1.6685  0.8070
  193MPD1    H7 3000   3.942   2.666  15.731  1.3891 -1.1807 -0.7611
  194MPD1     C 3001   0.982   3.802   0.477 -0.1755  0.3803 -0.2459
  194MPD1    C1 3002   0.974   3.802   0.338  0.7490  0.2588  0.2224
  194MPD1    C2 3003   1.089   3.758   0.267  0.2425  0.1568  0.4013
  194MPD1    C3 3004   1.205   3.726   0.338 -0.2972  0.3033  0.7648
  194MPD1    C4 3005   1.211   3.729   0.477 -0.5145 -0.0292  0.0599
  194MPD1    C5 3006   1.102   3.777   0.537  0.1942  0.3102  0.1391
  194MPD1     H 3007   1.080   3.752   0.159  1.4222  0.0774  0.3052
  194MPD1    H1 3008   1.306   3.701   0.522 -1.3203 -1.1000  1.1015
  194MPD1    H2 3009   0.902   3.839   0.539  0.5692  1.5727  0.0148
  194MPD1    H3 3010   1.094   3.796   0.644 -2.2281  0.5343 -0.0804
  194MPD1     N 3011   1.323   3.685   0.269 -0.1824  0.0208  0.3995
  194MPD1    H5 3012   1.403   3.659   0.326 -1.7953 -0.7172  2.2914
  194MPD1    N1 3013   0.859   3.821   0.262  0.2205 -0.3814 -0.2333
  194MPD1    H6 3014   0.799   3.887   0.310 -0.4894 -0.4443 -1.0466
  194MPD1    H7 3015   0.869   3.843   0.164  1.2393  0.2741  0.0161
  195MPD1     C 3016   3.822   2.103  17.188  0.1940  0.5456 -0.3868
  195MPD1    C1 3017   3.940   2.035  17.163 -0.2519  0.4038 -0.0173
  195MPD1    C2 3018   3.965   1.910  17.221 -0.6459  0.7435 -0.1750
  195MPD1    C3 3019   3.856   1.838  17.273 -0.1966 -0.0695 -0.2399
  195MPD1    C4 3020   3.734   1.902  17.276 -0.2331 -0.2846 -0.2014
  195MPD1    C5 3021   3.717   2.031  17.237 -0.1185  1.3771  0.0507
  195MPD1     H 3022   4.065   1.870  17.212 -0.5654  0.7644  0.6181
  195MPD1    H1 3023   3.650   1.843  17.311 -0.9737  1.2671  0.6530
  195MPD1    H2 3024   3.801   2.200  17.145  0.1449  1.6683  2.1603
  195MPD1    H3 3025   3.619   2.078  17.235 -2.2913 -3.0508  2.8891
  195MPD1     N 3026   3.860   1.713  17.339 -0.3757 -0.6680 -0.4981
  195MPD1    H5 3027   3.771   1.668  17.353 -0.2665 -0.1861  1.7740
  195MPD1    N1 3028   4.048   2.116  17.119 -0.0378 -0.4001  0.6154
  195MPD1    H6 3029   4.121   2.052  17.086 -1.1690 -0.0391 -2.6669
  195MPD1    H7 3030   4.019   2.173  17.040  2.6093  1.2366  0.8251
  196MPD1     C 3031   3.354   0.364  17.181  1.0351 -0.1427 -0.7060
  196MPD1    C1 3032   3.442   0.470  17.205  0.4466 -0.7988  0.5195
  196MPD1    C2 3033   3.443   0.532  17.328 -0.5558  0.5376 -0.6085
  196MPD1    C3 3034   3.348   0.499  17.424  0.1805 -0.2332 -0.0245
  196MPD1    C4 3035   3.254   0.404  17.393 -0.2675  0.2137 -0.4803
  196MPD1    C5 3036   3.257   0.339  17.271 -0.4236  0.1712  0.5236
  196MPD1     H 3037   3.529   0.594  17.350  0.5601 -1.9101  1.7875
  196MPD1    H1 3038   3.184   0.371  17.469  1.1710  1.2388  1.3166
  196MPD1    H2 3039   3.361   0.313  17.086  1.4341  0.1638 -0.8371
  196MPD1    H3 3040   3.187   0.258  17.251 -0.6718  0.6863 -0.7263
  196MPD1     N 3041   3.341   0.559  17.559  0.2629  0.2988 -0.7934
  196MPD1    H5 3042   3.257   0.537  17.611  2.0044  1.0614  2.3113
  196MPD1    N1 3043   3.555   0.461  17.128  0.5744  0.1192 -0.3453
  196MPD1    H6 3044   3.534   0.418  17.038  0.1639 -0.8976  0.2419
  196MPD1    H7 3045   3.604   0.549  17.114  1.9433 -0.6232 -0.2027
  197MPD1     C 3046   2.674   3.312  17.679 -0.3582  0.4157 -0.3035
  197MPD1    C1 3047   2.801   3.323  17.729 -0.1863 -1.1000  0.5371
  197MPD1    C2 3048   2.902   3.368  17.645 -0.3891  0.1142 -0.3021
  197MPD1    C3 3049   2.872   3.394  17.513  0.1298 -0.8473 -0.1390
  197MPD1    C4 3050   2.744   3.379  17.466 -0.1674  0.3439 -0.4397
  197MPD1    C5 3051   2.642   3.342  17.548 -0.3214 -0.5149 -0.3206
  197MPD1     H 3052   3.003   3.384  17.680 -1.2850  0.3818  2.1339
  197MPD1    H1 3053   2.724   3.393  17.360  1.5495  0.0771 -0.7894
  197MPD1    H2 3054   2.588   3.278   0.001  0.5930 -0.1270  0.7853
  197MPD1    H3 3055   2.545   3.313  17.510 -0.0826 -1.7138  0.0030
  197MPD1     N 3056   2.952   3.457  17.424 -0.3685 -0.3333 -0.2492
  197MPD1    H5 3057   2.924   3.460  17.326 -1.5923  1.7865  0.1556
  197MPD1    N1 3058   2.833   3.289   0.126  0.6315  0.1375 -0.5860
  197MPD1    H6 3059   2.917   3.232   0.137 -0.2910 -1.1240 -0.0657
  197MPD1    H7 3060   2.755   3.233   0.161 -0.1254  2.0331  0.7402
  198MPD1     C 3061   4.346   2.583  15.628 -0.1924  0.5631 -0.5839
  198MPD1    C1 3062   4.450   2.555  15.539 -0.2843 -0.5658  0.2722
  198MPD1    C2 3063   4.578   2.549  15.593 -0.6244  0.2254 -0.4308
  198MPD1    C3 3064   4.615   2.565  15.725 -0.1839 -0.6327  0.2265
  198MPD1    C4 3065   4.514   2.595  15.809  0.2463 -0.4652  0.4400
  198MPD1    C5 3066   4.386   2.606  15.765 -0.4983 -0.4873 -0.1577
  198MPD1     H 3067   4.653   2.508  15.527  0.0942 -1.1410  1.2250
  198MPD1    H1 3068   4.530   2.602  15.916 -2.3703 -0.3028  0.8352
  198MPD1    H2 3069   4.242   2.599  15.601 -0.6147 -0.1397  0.6077
  198MPD1    H3 3070   4.313   2.625  15.843 -0.3856 -2.8456  0.5365
  198MPD1     N 3071   0.017   2.535  15.754 -0.1487 -0.4266  0.9876
  198MPD1    H5 3072   0.072   2.514  15.672  1.4908 -0.2246  2.0481
  198MPD1    N1 3073   4.416   2.496  15.414  0.1176  0.5619 -0.7006
  198MPD1    H6 3074   4.500   2.508  15.358  2.2025 -2.0451  1.8828
  198MPD1    H7 3075   4.333   2.541  15.377  0.9120  2.2772 -0.4341
  199MPD1     C 3076   2.652   3.613   9.978 -0.1785 -0.1096 -0.3496
  199MPD1    C1 3077   2.582   3.504   9.930  0.0316 -0.0424  0.3835
  199MPD1    C2 3078   2.447   3.511   9.944  0.1739 -0.0729 -0.2557
  199MPD1    C3 3079   2.385   3.618  10.007 -0.0873  0.3906 -0.0295
  199MPD1    C4 3080   2.458   3.720  10.062 -0.0243 -0.4389 -0.3583
  199MPD1    C5 3081   2.594   3.721  10.038  0.5765 -0.3851 -0.4203
  199MPD1     H 3082   2.388   3.428   9.906 -1.7918 -0.0047  2.6933
  199MPD1    H1 3083   2.411   3.811  10.099  2.3151  0.3049  0.7991
  199MPD1    H2 3084   2.758   3.615   9.956 -0.2148 -1.0344 -0.6203
  199MPD1    H3 3085   2.656   3.805  10.067 -2.7865  1.5390  1.0936
  199MPD1     N 3086   2.248   3.631  10.012 -0.2261 -0.3355  0.3415
  199MPD1    H5 3087   2.217   3.711  10.065  2.5918  1.7504 -1.1397
  199MPD1    N1 3088   2.643   3.402   9.854 -0.2327 -0.4011 -0.1340
  199MPD1    H6 3089   2.738   3.391   9.889  0.1784  1.4815 -0.6540
  199MPD1    H7 3090   2.588   3.317   9.867  2.0623 -2.0020 -0.8772
  200MPD1     C 3091   2.002   4.536  15.471  0.6574  0.6715 -0.4091
  200MPD1    C1 3092   1.931   4.423  15.489 -0.1242  0.3900  0.8251
  200MPD1    C2 3093   1.849   4.388  15.382 -0.1176 -0.5100  0.2789
  200MPD1    C3 3094   1.828   4.472  15.276  0.6359  0.7153 -0.5514
  200MPD1    C4 3095   1.898   4.587  15.266 -0.2503 -0.2788 -0.0230
  200MPD1    C5 3096   1.982   4.616  15.369 -0.1572 -0.3862 -0.3625
  200MPD1     H 3097   1.796   4.294  15.392  0.0039 -0.3958  1.9033
  200MPD1    H1 3098   1.890   4.658  15.184  0.0167 -2.0098 -1.5274
  200MPD1    H2 3099   2.070   4.570  15.548  0.6410  0.5797 -0.3534
  200MPD1    H3 3100   2.042   4.706  15.371  1.4049 -1.3535 -3.1187
  200MPD1     N 3101   1.740   4.430  15.173  0.0502 -0.7430  0.1386
  200MPD1    H5 3102   1.706   4.335  15.188 -3.0344  0.3805  0.1417
  200MPD1    N1 3103   1.949   4.334  15.596  0.3854 -0.2180 -0.0638
  200MPD1    H6 3104   1.976   4.383  15.681 -1.3647  3.0120 -1.3882
  200MPD1    H7 3105   1.868   4.278  15.623  1.8030 -2.7417 -1.0596
  201MPD1     C 3106   2.868   2.507  13.507  0.3345  0.4027 -0.1124
  201MPD1    C1 3107   2.920   2.466  13.382  0.5451  0.4694 -0.5690
  201MPD1    C2 3108   3.036   2.395  13.382 -0.2844 -0.0324 -0.0159
  201MPD1    C3 3109   3.115   2.373  13.498 -0.2193  0.0069  0.4565
  201MPD1    C4 3110   3.067   2.424  13.615  0.0036  0.1443 -0.0163
  201MPD1    C5 3111   2.946   2.481  13.613  0.0107  0.0706  0.5934
  201MPD1     H 3112   3.080   2.351  13.293 -1.0013 -1.0856  0.1414
  201MPD1    H1 3113   3.116   2.407  13.711  0.8879 -1.8881 -0.8157
  201MPD1    H2 3114   2.783   2.573  13.516  1.3249  1.7504 -0.5921
  201MPD1    H3 3115   2.914   2.530  13.705 -1.4778  2.6541 -1.2890
  201MPD1     N 3116   3.242   2.315  13.487  0.1934 -0.0987  0.2533
  201MPD1    H5 3117   3.259   2.263  13.402 -0.9112  0.8266 -0.5282
  201MPD1    N1 3118   2.843   2.476  13.267  0.1268 -0.5731  0.2367
  201MPD1    H6 3119   2.890   2.467  13.177  0.8424  2.2901  0.3518
  201MPD1    H7 3120   2.774   2.551  13.268  2.2480  1.3690 -1.9239
  202MPD1     C 3121   2.807   1.637   9.122  0.3232 -0.3033  0.8137
  202MPD1    C1 3122   2.738   1.734   9.190 -0.2442 -0.0509 -0.8149
  202MPD1    C2 3123   2.795   1.783   9.307  0.2520  0.3486 -0.0377
  202MPD1    C3 3124   2.925   1.761   9.337 -0.3022 -0.4214 -0.5121
  202MPD1    C4 3125   2.998   1.679   9.254 -0.3748 -0.6439 -0.1818
  202MPD1    C5 3126   2.936   1.608   9.153 -0.0942  0.2039 -0.3035
  202MPD1     H 3127   2.730   1.837   9.374  0.9837 -1.5258  2.1898
  202MPD1    H1 3128   3.105   1.661   9.266 -0.1308  1.0247  0.1159
  202MPD1    H2 3129   2.764   1.586   9.036  1.2906 -0.6579  0.5340
  202MPD1    H3 3130   2.994   1.542   9.090 -2.5236 -2.1305 -0.0566
  202MPD1     N 3131   2.992   1.836   9.430  0.7876 -0.3717  0.3111
  202MPD1    H5 3132   3.094   1.830   9.432  0.7477 -1.0800  0.5022
  202MPD1    N1 3133   2.595   1.727   9.182  0.1129  0.4536 -0.6086
  202MPD1    H6 3134   2.570   1.710   9.085  0.2412 -1.7404 -0.2479
  202MPD1    H7 3135   2.555   1.819   9.199  2.8939  1.2485  1.7699
  203MPD1     C 3136   1.900   3.073  12.775  0.0111  0.1982  0.4824
  203MPD1    C1 3137   1.860   2.947  12.818  0.1416  0.0558 -0.1099
  203MPD1    C2 3138   1.961   2.849  12.821 -0.2492 -0.3123 -0.1566
  203MPD1    C3 3139   2.094   2.868  12.780 -0.4107  0.0546  0.2261
  203MPD1    C4 3140   2.131   2.996  12.741 -0.1417  0.7458 -0.2621
  203MPD1    C5 3141   2.036   3.090  12.745  0.4938  0.2721  0.5659
  203MPD1     H 3142   1.931   2.748  12.848 -0.8640  0.2838  1.3668
  203MPD1    H1 3143   2.226   3.039  12.713 -0.9438  0.7781 -2.9626
  203MPD1    H2 3144   1.833   3.157  12.771 -1.2317 -0.8683 -1.1558
  203MPD1    H3 3145   2.070   3.190  12.721  1.1165 -0.3383 -1.1343
  203MPD1     N 3146   2.185   2.761  12.781  0.1448  0.6028  0.7483
  203MPD1    H5 3147   2.155   2.673  12.823  0.1576  0.4164  0.3735
  203MPD1    N1 3148   1.732   2.930  12.877  0.0727 -0.2209 -0.6432
  203MPD1    H6 3149   1.655   2.988  12.844  1.6744  1.5584 -1.1977
  203MPD1    H7 3150   1.701   2.833  12.872  0.7826 -0.4778  0.0709
  204MPD1     C 3151   1.864   2.996   0.390  0.1362 -0.5285 -0.1725
  204MPD1    C1 3152   1.802   2.887   0.335 -0.0872 -0.5406 -0.2775
  204MPD1    C2 3153   1.825   2.856   0.208 -0.0582 -0.2306 -0.7065
  204MPD1    C3 3154   1.882   2.948   0.119  0.0045  0.6721 -0.1343
  204MPD1    C4 3155   1.937   3.062   0.166 -0.3658  0.1409  0.5710
  204MPD1    C5 3156   1.927   3.079   0.303  0.4442  0.4029  0.6169
  204MPD1     H 3157   1.788   2.768   0.157  1.2719 -0.2946 -1.5814
  204MPD1    H1 3158   1.991   3.136   0.109 -2.3188 -0.2581 -1.7964
  204MPD1    H2 3159   1.860   3.014   0.497  0.2355 -1.9278  0.0658
  204MPD1    H3 3160   1.978   3.161   0.353  1.8692  0.5061 -1.0063
  204MPD1     N 3161   1.891   2.897  17.725 -0.2720 -0.1962 -0.2852
  204MPD1    H5 3162   1.858   2.803  17.704 -0.8514  0.1130 -0.7731
  204MPD1    N1 3163   1.758   2.788   0.425 -0.0475  0.3954 -0.0884
  204MPD1    H6 3164   1.729   2.835   0.511  0.4866  0.0239  0.2971
  204MPD1    H7 3165   1.685   2.731   0.385 -0.7569 -0.2943  2.1708
  205MPD1     C 3166   3.518   2.331  17.485  0.1044  0.2465 -0.2101
  205MPD1    C1 3167   3.484   2.202  17.500 -0.4158 -0.8399 -0.0938
  205MPD1    C2 3168   3.347   2.171  17.484  0.7620 -0.7275  0.3696
  205MPD1    C3 3169   3.261   2.271  17.439  1.4783  0.2970  0.4670
  205MPD1    C4 3170   3.302   2.401  17.409  0.6432 -0.1398  0.5084
  205MPD1    C5 3171   3.435   2.429  17.438 -0.2426  0.0032  0.4398
  205MPD1     H 3172   3.319   2.069  17.504 -1.5243 -0.3950 -1.0919
  205MPD1    H1 3173   3.236   2.478  17.373  1.2887  0.6171  0.9552
  205MPD1    H2 3174   3.620   2.356  17.512  0.3772  1.5355 -2.4206
  205MPD1    H3 3175   3.471   2.528  17.415 -1.2037  0.7392  2.1108
  205MPD1     N 3176   3.125   2.242  17.424 -0.3683  0.3383 -0.5852
  205MPD1    H5 3177   3.061   2.320  17.412 -1.5477 -0.3978  0.9289
  205MPD1    N1 3178   3.570   2.111  17.564  0.0425  0.7006 -0.3180
  205MPD1    H6 3179   3.670   2.122  17.545  0.1260  0.8740  0.2194
  205MPD1    H7 3180   3.544   2.018  17.532  3.8361 -1.1894  2.1123
  206MPD1     C 3181   1.510   0.144  16.842 -0.4709 -0.3451 -0.2907
  206MPD1    C1 3182   1.505   0.255  16.760 -0.1301 -0.1645  0.1820
  206MPD1    C2 3183   1.554   0.251  16.626  0.2298 -0.4239 -0.2411
  206MPD1    C3 3184   1.602   0.131  16.580 -0.6399 -0.3553 -0.5488
  206MPD1    C4 3185   1.615   0.024  16.665  0.2834  0.7416  0.0758
  206MPD1    C5 3186   1.579   0.031  16.795 -0.1164 -0.3915 -0.1409
  206MPD1     H 3187   1.561   0.342  16.568  3.7222 -0.0524  0.7215
  206MPD1    H1 3188   1.648   4.669  16.613 -0.8308 -0.1071  0.8299
  206MPD1    H2 3189   1.465   0.147  16.941 -0.4728 -1.0709 -0.2675
  206MPD1    H3 3190   1.582   4.680  16.861 -0.7533 -1.0432 -0.9485
  206MPD1     N 3191   1.654   0.111  16.444  0.1969 -0.1631 -0.0894
  206MPD1    H5 3192   1.686   0.019  16.416  2.0926  0.6863 -0.6921
  206MPD1    N1 3193   1.433   0.374  16.797 -0.3305 -1.0084 -0.4884
  206MPD1    H6 3194   1.490   0.453  16.767 -0.7393 -1.6136 -2.8963
  206MPD1    H7 3195   1.406   0.390  16.894  1.7028 -2.8394  0.3905
  207MPD1     C 3196   4.133   3.222  10.022 -0.5363  0.2554  0.2356
  207MPD1    C1 3197   4.136   3.358  10.048  0.7402 -0.3246  0.2916
  207MPD1    C2 3198   4.221   3.416  10.143 -0.4385 -0.2680  0.7028
  207MPD1    C3 3199   4.306   3.324  10.209  0.2607 -0.3079  0.1641
  207MPD1    C4 3200   4.298   3.189  10.190 -0.1318  0.8667  0.1167
  207MPD1    C5 3201   4.209   3.139  10.099 -0.5350  0.0073  0.1310
  207MPD1     H 3202   4.229   3.523  10.161  1.0927  0.0550 -1.8979
  207MPD1    H1 3203   4.371   3.128  10.243 -1.3182  0.3462  1.1584
  207MPD1    H2 3204   4.078   3.188   9.934 -0.1295  1.5982 -0.5321
  207MPD1    H3 3205   4.201   3.033  10.075 -2.2366  0.2875 -0.5803
  207MPD1     N 3206   4.404   3.367  10.303 -0.6393  0.3607  0.1947
  207MPD1    H5 3207   4.469   3.296  10.332  0.8108  1.2243 -0.9189
  207MPD1    N1 3208   4.069   3.438   9.960 -0.3034 -0.1936 -0.2452
  207MPD1    H6 3209   3.979   3.400   9.932 -1.1997  1.8979 -0.1710
  207MPD1    H7 3210   4.057   3.531   9.999 -2.4590  0.0256 -1.4659
  208MPD1     C 3211   2.631   0.564  16.738  0.3509 -0.0312 -0.9325
  208MPD1    C1 3212   2.714   0.664  16.690 -0.6438  0.5483 -0.5126
  208MPD1    C2 3213   2.753   0.759  16.786 -0.2211  0.5232 -0.7763
  208MPD1    C3 3214   2.714   0.747  16.921 -0.2168 -0.2326 -0.1752
  208MPD1    C4 3215   2.641   0.642  16.963 -0.1028  0.2171  0.7449
  208MPD1    C5 3216   2.595   0.553  16.871  0.0234 -0.2455 -0.3148
  208MPD1     H 3217   2.819   0.834  16.745  1.4049 -0.9774 -0.9482
  208MPD1    H1 3218   2.586   0.641  17.057 -1.6450 -1.3059 -0.1741
  208MPD1    H2 3219   2.592   0.493  16.666  0.0114  0.2074 -0.9862
  208MPD1    H3 3220   2.523   0.478  16.902  1.4060 -0.7210  1.7601
  208MPD1     N 3221   2.769   0.844  17.009 -0.3522  0.3069 -0.3425
  208MPD1    H5 3222   2.801   0.930  16.966  0.0711  0.4768  0.3119
  208MPD1    N1 3223   2.743   0.679  16.554  0.4898  0.0838 -0.2776
  208MPD1    H6 3224   2.737   0.591  16.503  0.9687 -1.2503  1.9474
  208MPD1    H7 3225   2.825   0.732  16.524  1.4121 -0.5943  0.9948
  209MPD1     C 3226   4.277   2.281  11.470 -0.6007 -0.7686 -0.3309
  209MPD1    C1 3227   4.356   2.299  11.359  0.6951 -0.5265  0.0521
  209MPD1    C2 3228   4.431   2.414  11.357  0.3790 -0.5146 -0.4043
  209MPD1    C3 3229   4.400   2.518  11.449  0.0292 -0.2860  0.2709
  209MPD1    C4 3230   4.310   2.498  11.546 -0.7297  0.0191 -0.1438
  209MPD1    C5 3231   4.246   2.380  11.553  0.3354 -0.3849  0.3663
  209MPD1     H 3232   4.498   2.439  11.276  0.5901  1.3559  0.3313
  209MPD1    H1 3233   4.302   2.571  11.626 -0.0058 -1.4415  1.2895
  209MPD1    H2 3234   4.230   2.190  11.505  1.0038 -1.4044  0.1585
  209MPD1    H3 3235   4.178   2.362  11.635  1.4959 -0.5554  1.2940
  209MPD1     N 3236   4.476   2.639  11.432 -0.0663  0.0174 -0.3401
  209MPD1    H5 3237   4.517   2.656  11.341  1.7030 -1.4362  0.1879
  209MPD1    N1 3238   4.392   2.194  11.273 -0.5384 -0.3034  0.2258
  209MPD1    H6 3239   4.319   2.125  11.263  0.1241 -1.0709  0.6685
  209MPD1    H7 3240   4.416   2.228  11.180  0.0787 -1.8181 -0.1640
  210MPD1     C 3241   0.312   3.529  11.784  0.5121  0.4100  0.5750
  210MPD1    C1 3242   0.252   3.424  11.856 -0.3998 -0.9247  0.5765
  210MPD1    C2 3243   0.192   3.319  11.794  0.5383  0.6005 -0.4125
  210MPD1    C3 3244   0.183   3.310  11.658  0.5334 -0.0677  0.7658
  210MPD1    C4 3245   0.242   3.414  11.588  0.0244 -0.3798 -0.2740
  210MPD1    C5 3246   0.299   3.525  11.656  0.0986  0.0705  0.8216
  210MPD1     H 3247   0.148   3.248  11.864  3.2305 -1.0539 -0.3541
  210MPD1    H1 3248   0.236   3.415  11.480  1.6125  2.7889 -0.3373
  210MPD1    H2 3249   0.347   3.618  11.835  0.6076  1.4336 -1.3119
  210MPD1    H3 3250   0.337   3.601  11.589  1.0244 -1.1858 -0.0888
  210MPD1     N 3251   0.126   3.201  11.587 -0.9539  0.0517  0.7991
  210MPD1    H5 3252   0.143   3.195  11.487  1.7017 -0.1179  1.2657
  210MPD1    N1 3253   0.256   3.433  12.000  0.4326  0.5083 -0.0297
  210MPD1    H6 3254   0.325   3.493  12.044 -1.2350  0.8732  2.0826
  210MPD1    H7 3255   0.259   3.342  12.045  1.5264  0.5837  0.0438
  211MPD1     C 3256   3.059   2.395  16.905  0.4628 -0.4376  0.8946
  211MPD1    C1 3257   2.986   2.281  16.917  1.5824 -0.0460  0.3261
  211MPD1    C2 3258   2.862   2.287  16.849  0.0423  0.2648  0.6380
  211MPD1    C3 3259   2.829   2.393  16.767  0.3509  0.2656 -1.1539
  211MPD1    C4 3260   2.907   2.501  16.770 -0.2816  0.2353  0.1757
  211MPD1    C5 3261   3.023   2.507  16.837 -0.5009  0.0459 -0.9964
  211MPD1     H 3262   2.793   2.203  16.859  2.1596 -1.8575 -2.7527
  211MPD1    H1 3263   2.892   2.581  16.699  3.1549  0.2845 -0.4968
  211MPD1    H2 3264   3.162   2.397  16.940  1.2578 -0.0662 -1.4919
  211MPD1    H3 3265   3.094   2.589  16.827  0.4194 -0.5967  0.2888
  211MPD1     N 3266   2.710   2.393  16.692 -0.5072 -0.2997 -0.1833
  211MPD1    H5 3267   2.649   2.316  16.717  0.6626 -0.3819  2.4074
  211MPD1    N1 3268   3.022   2.188  17.019  0.3126 -0.3016 -0.2809
  211MPD1    H6 3269   3.119   2.173  17.044  0.4504  1.2280  0.0681
  211MPD1    H7 3270   2.985   2.095  16.998  0.0125  0.1980 -1.9581
  212MPD1     C 3271   1.379   0.870  16.438 -0.0387 -0.1585  0.5146
  212MPD1    C1 3272   1.276   0.907  16.525  0.0460  0.2518 -0.5556
  212MPD1    C2 3273   1.210   0.801  16.584 -0.5418 -0.1125 -0.4024
  212MPD1    C3 3274   1.265   0.671  16.585  0.1048 -0.5480  0.4476
  212MPD1    C4 3275   1.382   0.645  16.513  0.1590 -0.5825  0.8379
  212MPD1    C5 3276   1.431   0.743  16.431  0.0707  0.2199  0.1303
  212MPD1     H 3277   1.122   0.823  16.644 -0.1037 -0.6859  0.4560
  212MPD1    H1 3278   1.434   0.550  16.512 -0.2002 -0.7602 -1.5617
  212MPD1    H2 3279   1.407   0.941  16.360 -0.4975 -0.4233  0.1062
  212MPD1    H3 3280   1.510   0.717  16.361 -0.9068 -2.2651 -0.0207
  212MPD1     N 3281   1.209   0.557  16.655 -0.0750 -0.1450  0.5708
  212MPD1    H5 3282   1.260   0.470  16.664 -1.7182 -1.2898 -1.1634
  212MPD1    N1 3283   1.219   1.032  16.530  0.0910  0.5357 -0.3649
  212MPD1    H6 3284   1.169   1.037  16.618 -0.2447 -1.0324 -0.4694
  212MPD1    H7 3285   1.281   1.113  16.528  0.4920  0.2291 -0.3611
  213MPD1     C 3286   4.708   1.786  15.949  0.4977 -0.0084  0.1533
  213MPD1    C1 3287   4.573   1.796  15.954 -0.0823  0.2995 -0.3938
  213MPD1    C2 3288   4.509   1.804  15.827  0.7264 -0.5530  0.3987
  213MPD1    C3 3289   4.572   1.833  15.714  0.6141  0.1672 -0.2558
  213MPD1    C4 3290   4.712   1.831  15.713  0.2017 -0.5788 -0.2195
  213MPD1    C5 3291   0.043   1.807  15.831 -0.0073  0.2396 -0.0826
  213MPD1     H 3292   4.402   1.796  15.814  1.0952  0.1134 -3.1859
  213MPD1    H1 3293   0.038   1.822  15.624  1.2026  2.3722  0.1729
  213MPD1    H2 3294   0.034   1.783  16.039 -0.1874 -1.3606  0.5646
  213MPD1    H3 3295   0.151   1.807  15.832 -0.0297  0.5358  1.6092
  213MPD1     N 3296   4.489   1.829  15.596 -0.0217  0.1294  0.5802
  213MPD1    H5 3297   4.389   1.817  15.606 -0.3072 -1.1803 -3.7178
  213MPD1    N1 3298   4.502   1.730  16.060  0.1041  0.3674 -0.1180
  213MPD1    H6 3299   4.403   1.752  16.070 -0.1087  0.2564 -1.8496
  213MPD1    H7 3300   4.546   1.759  16.147 -0.2702  1.8346 -0.4231
  214MPD1     C 3301   3.761   1.432  15.056 -0.1373  0.1288  0.4157
  214MPD1    C1 3302   3.792   1.441  15.187  0.2142 -0.6594  0.7245
  214MPD1    C2 3303   3.909   1.501  15.215 -0.3244 -0.1160 -0.3796
  214MPD1    C3 3304   3.984   1.570  15.123 -0.5329  0.2232  0.2436
  214MPD1    C4 3305   3.948   1.573  14.993  0.1036  0.2670 -0.1929
  214MPD1    C5 3306   3.837   1.502  14.960 -0.6555 -0.1524  0.7679
  214MPD1     H 3307   3.943   1.488  15.318 -0.2789 -0.6645 -0.4615
  214MPD1    H1 3308   4.005   1.622  14.914  0.1526  1.3165  0.4861
  214MPD1    H2 3309   3.681   1.363  15.030  1.0797 -1.2565  0.3628
  214MPD1    H3 3310   3.812   1.490  14.855 -1.2057 -1.9736  1.0931
  214MPD1     N 3311   4.080   1.673  15.162 -0.0917  0.4214  0.7721
  214MPD1    H5 3312   4.139   1.707  15.087 -1.4441 -1.8474 -1.3354
  214MPD1    N1 3313   3.715   1.362  15.280  0.3369  0.2065  0.7248
  214MPD1    H6 3314   3.735   1.389  15.376 -1.4149 -0.2858  1.2317
  214MPD1    H7 3315   3.618   1.348  15.252  0.6249  2.1241 -1.2154
  215MPD1     C 3316   3.381   2.677  11.365 -0.5624  0.5198  0.6583
  215MPD1    C1 3317   3.389   2.786  11.447  0.4623 -0.4151  0.1653
  215MPD1    C2 3318   3.520   2.825  11.492 -0.8536 -0.0462  0.1059
  215MPD1    C3 3319   3.630   2.773  11.432 -0.2005 -0.0843 -0.9564
  215MPD1    C4 3320   3.617   2.670  11.341  0.0145 -0.4216 -0.5550
  215MPD1    C5 3321   3.496   2.622  11.304 -0.3721 -0.2748 -0.3249
  215MPD1     H 3322   3.532   2.917  11.548 -1.3707  0.3056 -0.3633
  215MPD1    H1 3323   3.707   2.628  11.298 -0.4827 -0.1764 -1.8137
  215MPD1    H2 3324   3.288   2.624  11.349 -2.0482  2.2360  3.4198
  215MPD1    H3 3325   3.497   2.536  11.239  0.7708 -0.9300  0.5805
  215MPD1     N 3326   3.759   2.825  11.467 -0.3771 -0.2581 -0.1672
  215MPD1    H5 3327   3.754   2.909  11.523  0.1613 -0.7177  0.5665
  215MPD1    N1 3328   3.268   2.814  11.520  0.6827 -0.6238 -0.1448
  215MPD1    H6 3329   3.264   2.909  11.558 -1.7920 -0.7942  0.0565
  215MPD1    H7 3330   3.186   2.810  11.459 -0.2360  0.7380  0.9778
  216MPD1     C 3331   0.501   4.134   0.667 -0.2165 -0.0750  0.2946
  216MPD1    C1 3332   0.608   4.160   0.749 -0.3831 -0.4867  0.4944
  216MPD1    C2 3333   0.690   4.056   0.788 -0.4875  0.2413  0.2196
  216MPD1    C3 3334   0.668   3.926   0.749  0.5171 -0.3610 -0.1220
  216MPD1    C4 3335   0.557   3.900   0.681  0.9031 -0.3445  0.3082
  216MPD1    C5 3336   0.471   4.001   0.648  0.1760  0.1268  0.2404
  216MPD1     H 3337   0.785   4.081   0.834  1.2491 -0.0447 -3.2018
  216MPD1    H1 3338   0.520   3.798   0.678 -0.0485  0.0029  0.3114
  216MPD1    H2 3339   0.436   4.208   0.622 -0.4609  1.0395  2.5008
  216MPD1    H3 3340   0.383   3.972   0.592  0.7607  2.4398 -1.8902
  216MPD1     N 3341   0.755   3.824   0.791  0.3402  0.4778  0.3384
  216MPD1    H5 3342   0.824   3.860   0.857  0.2060  1.6791 -0.1655
  216MPD1    N1 3343   0.643   4.293   0.775  0.2605 -0.4901  0.0155
  216MPD1    H6 3344   0.566   4.360   0.781 -0.0405 -0.9897  1.7455
  216MPD1    H7 3345   0.704   4.307   0.855  0.4178 -0.4795 -0.1064
  217MPD1     C 3346   1.047   1.614   9.082  0.4208  0.1839 -0.2767
  217MPD1    C1 3347   1.155   1.535   9.097  0.0441  0.0235  0.0706
  217MPD1    C2 3348   1.252   1.567   9.194  0.0799 -0.4744  0.0396
  217MPD1    C3 3349   1.248   1.688   9.260  0.4639 -0.9958 -0.1485
  217MPD1    C4 3350   1.129   1.763   9.240  0.3981  0.0007 -0.0235
  217MPD1    C5 3351   1.031   1.725   9.150 -0.0185  0.3794 -0.5033
  217MPD1     H 3352   1.334   1.498   9.211  0.0540 -0.2777  0.9778
  217MPD1    H1 3353   1.122   1.867   9.270  1.0033 -0.3135  1.1823
  217MPD1    H2 3354   0.965   1.583   9.018  1.3802  0.8862 -1.8494
  217MPD1    H3 3355   0.941   1.785   9.138  0.0962  0.2947 -1.7238
  217MPD1     N 3356   1.339   1.734   9.362 -0.7529 -0.3516  0.1767
  217MPD1    H5 3357   1.305   1.805   9.426 -1.4282 -2.0519  1.6946
  217MPD1    N1 3358   1.161   1.411   9.027 -0.9144  0.5367 -0.1697
  217MPD1    H6 3359   1.253   1.370   9.009 -0.5344  0.2185  2.5244
  217MPD1    H7 3360   1.113   1.407   8.937 -0.7668 -1.1072 -0.1849
  218MPD1     C 3361   3.244   2.857  13.511 -0.6463 -0.9465 -0.6409
  218MPD1    C1 3362   3.331   2.749  13.544 -0.6001  0.4763  0.7465
  218MPD1    C2 3363   3.446   2.727  13.475 -0.5394  0.0626  0.7593
  218MPD1    C3 3364   3.466   2.810  13.366 -0.9231  0.1364 -0.0366
  218MPD1    C4 3365   3.380   2.910  13.329 -0.4747  0.5915  0.4580
  218MPD1    C5 3366   3.274   2.939  13.406 -0.0029 -1.0077  0.3315
  218MPD1     H 3367   3.510   2.641  13.493 -0.2587  0.0245 -0.4579
  218MPD1    H1 3368   3.395   2.972  13.241 -0.0238 -2.2241 -1.4641
  218MPD1    H2 3369   3.162   2.880  13.578 -1.0440 -0.7271 -1.2039
  218MPD1    H3 3370   3.214   3.025  13.377  1.2046 -0.1462  0.3868
  218MPD1     N 3371   3.577   2.780  13.286  0.2189 -0.4403 -0.1412
  218MPD1    H5 3372   3.644   2.714  13.326  0.0337  1.0735  2.7131
  218MPD1    N1 3373   3.304   2.687  13.668  0.2333  0.5884  0.2520
  218MPD1    H6 3374   3.348   2.597  13.686 -0.2211  0.5768  1.3262
  218MPD1    H7 3375   3.204   2.683  13.684  0.0300  1.3981 -0.8268
  219MPD1     C 3376   3.717   2.636  12.305  0.3667 -0.3749 -0.4068
  219MPD1    C1 3377   3.828   2.710  12.342 -0.0161  0.1767  0.0509
  219MPD1    C2 3378   3.860   2.724  12.474 -0.1986  0.1245  0.3041
  219MPD1    C3 3379   3.771   2.685  12.572 -0.0343  0.2988 -0.1692
  219MPD1    C4 3380   3.658   2.628  12.532  0.4365 -0.8532  0.3113
  219MPD1    C5 3381   3.627   2.595  12.401 -0.5506 -0.1287  0.0518
  219MPD1     H 3382   3.956   2.769  12.498 -0.7406  0.8288  1.1564
  219MPD1    H1 3383   3.575   2.611  12.599 -1.1672  0.4906 -1.3446
  219MPD1    H2 3384   3.697   2.606  12.203  1.8726 -0.5009 -0.6730
  219MPD1    H3 3385   3.533   2.553  12.366 -2.0303  1.6563  1.9239
  219MPD1     N 3386   3.790   2.703  12.709 -0.4651  0.1982 -0.0069
  219MPD1    H5 3387   3.714   2.669  12.767  0.0114 -0.4050  0.2615
  219MPD1    N1 3388   3.918   2.744  12.239  0.0282 -0.3976 -0.7165
  219MPD1    H6 3389   3.869   2.784  12.160  2.8719  2.5938 -1.0049
  219MPD1    H7 3390   4.003   2.790  12.272 -0.8412  0.6239  0.0905
  220MPD1     C 3391   3.919   3.805  10.084  0.3945  0.1747 -0.4366
  220MPD1    C1 3392   4.032   3.804  10.166  0.0943  0.3581 -0.0714
  220MPD1    C2 3393   4.046   3.700  10.255  0.2467 -0.5849  0.3841
  220MPD1    C3 3394   3.941   3.602  10.266 -0.0894 -0.9620  0.7357
  220MPD1    C4 3395   3.824   3.622  10.195 -0.3657 -0.4775  0.4321
  220MPD1    C5 3396   3.816   3.721  10.105 -0.1211  0.2309 -0.1002
  220MPD1     H 3397   4.135   3.689  10.316 -0.7383 -1.7405  1.6331
  220MPD1    H1 3398   3.734   3.561  10.199 -0.7250  0.1540  2.0234
  220MPD1    H2 3399   3.892   3.882  10.013 -0.1263  0.8141  0.4507
  220MPD1    H3 3400   3.722   3.727  10.051  1.0261  1.6057 -1.9487
  220MPD1     N 3401   3.966   3.494  10.354 -0.7772 -0.3185 -0.0201
  220MPD1    H5 3402   4.051   3.489  10.409  0.1267 -1.2724 -1.4779
  220MPD1    N1 3403   4.142   3.886  10.139  0.0096  0.4371  0.0347
  220MPD1    H6 3404   4.122   3.984  10.118  0.1651  0.5664  0.4965
  220MPD1    H7 3405   4.199   3.891  10.223 -2.3167 -1.2667  1.7014
  221MPD1     C 3406   2.384   0.888  17.058  0.5045  0.0725  0.1773
  221MPD1    C1 3407   2.418   1.018  17.020  0.3064 -0.6487  0.1641
  221MPD1    C2 3408   2.432   1.043  16.881 -0.0864  0.4250  0.1907
  221MPD1    C3 3409   2.382   0.957  16.792 -0.7314  0.6496  0.4340
  221MPD1    C4 3410   2.333   0.840  16.831 -0.1186  0.3993 -0.2866
  221MPD1    C5 3411   2.334   0.808  16.964  0.1933 -0.0461  0.0482
  221MPD1     H 3412   2.454   1.146  16.857  1.4221 -0.5303 -2.4863
  221MPD1    H1 3413   2.298   0.773  16.754  0.8535 -0.7806  0.2974
  221MPD1    H2 3414   2.388   0.852  17.160  0.1496  0.7731  0.4358
  221MPD1    H3 3415   2.304   0.707  16.990 -0.5936  0.0137 -0.6318
  221MPD1     N 3416   2.383   0.987  16.656 -0.4350  0.0345  0.1386
  221MPD1    H5 3417   2.353   0.916  16.589  0.9800 -0.9242  0.5320
  221MPD1    N1 3418   2.475   1.102  17.123  0.1614  0.6276 -0.2532
  221MPD1    H6 3419   2.445   1.089  17.219 -0.2964 -0.8924 -0.5943
  221MPD1    H7 3420   2.482   1.200  17.095 -1.2853  0.1274 -2.3878
  222MPD1     C 3421   0.777   0.065   0.501  0.6455  0.4130  0.2817
  222MPD1    C1 3422   0.714   0.069   0.622 -0.3171  0.3041 -0.4704
  222MPD1    C2 3423   0.725   0.196   0.684 -0.2109  0.0667 -0.2062
  222MPD1    C3 3424   0.781   0.312   0.626 -0.3992  0.1377 -0.4026
  222MPD1    C4 3425   0.828   0.299   0.499  0.1572  0.5187 -0.3155
  222MPD1    C5 3426   0.820   0.175   0.438 -0.1106 -0.5374  0.2176
  222MPD1     H 3427   0.696   0.209   0.788 -1.8603  0.2505 -0.7016
  222MPD1    H1 3428   0.867   0.381   0.439  1.8604 -0.1672 -0.1497
  222MPD1    H2 3429   0.790   4.704   0.451 -0.4412 -0.6895  2.1262
  222MPD1    H3 3430   0.858   0.169   0.337  0.2443 -0.0469  0.3177
  222MPD1     N 3431   0.801   0.431   0.691 -0.2926 -0.1268 -0.1436
  222MPD1    H5 3432   0.827   0.516   0.641 -0.8129  1.1181  1.6809
  222MPD1    N1 3433   0.691   4.686   0.700  0.4322 -0.0231  0.3290
  222MPD1    H6 3434   0.634   4.702   0.784 -0.6735 -2.6180  0.0653
  222MPD1    H7 3435   0.664   4.606   0.644  1.8500 -0.5472  0.3909
  223MPD1     C 3436   0.404   0.759   1.539  0.1913  0.4811 -0.1975
  223MPD1    C1 3437   0.516   0.683   1.519  0.1694 -0.1052 -0.1598
  223MPD1    C2 3438   0.562   0.662   1.389  0.0375 -1.0076  0.3544
  223MPD1    C3 3439   0.512   0.733   1.282 -0.1670 -0.6596 -0.0299
  223MPD1    C4 3440   0.402   0.813   1.308  0.1057  0.4559  0.2133
  223MPD1    C5 3441   0.353   0.826   1.431  0.9540 -0.5240 -0.3940
  223MPD1     H 3442   0.648   0.598   1.374  2.0991  1.5946  1.1168
  223MPD1    H1 3443   0.361   0.882   1.235 -0.9232 -1.3441 -0.9025
  223MPD1    H2 3444   0.347   0.765   1.631  0.6455  0.3021  0.0958
  223MPD1    H3 3445   0.265   0.888   1.437  0.6440 -0.9174 -0.9032
  223MPD1     N 3446   0.574   0.721   1.160 -0.3539 -0.4043  0.0620
  223MPD1    H5 3447   0.641   0.646   1.147  0.2591  0.4444 -1.7006
  223MPD1    N1 3448   0.558   0.597   1.624 -0.2951 -0.0617  0.6233
  223MPD1    H6 3449   0.537   0.643   1.712  1.0206 -0.1207  0.9668
  223MPD1    H7 3450   0.656   0.569   1.615 -0.5847 -0.8910 -0.0312
  224MPD1     C 3451   1.510   2.166   9.517 -0.0063 -0.0688 -0.3544
  224MPD1    C1 3452   1.458   2.243   9.617 -0.2476  0.4306  0.0750
  224MPD1    C2 3453   1.527   2.259   9.738  0.3328 -0.3929  0.1531
  224MPD1    C3 3454   1.652   2.200   9.755  1.0204 -0.8144 -0.1015
  224MPD1    C4 3455   1.706   2.121   9.655 -0.1321  0.2321  0.0982
  224MPD1    C5 3456   1.624   2.103   9.544 -0.7115 -0.7849 -0.4983
  224MPD1     H 3457   1.482   2.325   9.812  0.7877 -0.0684  0.1373
  224MPD1    H1 3458   1.801   2.071   9.664 -0.6669 -0.4714  2.0165
  224MPD1    H2 3459   1.454   2.141   9.428 -0.0938 -2.1189  0.2689
  224MPD1    H3 3460   1.668   2.040   9.468 -0.0689  0.4045 -1.1047
  224MPD1     N 3461   1.729   2.197   9.872 -0.0780 -0.1404  0.4148
  224MPD1    H5 3462   1.822   2.163   9.851  0.0838  0.6013 -0.0883
  224MPD1    N1 3463   1.345   2.318   9.593 -0.8141  0.6156 -0.0793
  224MPD1    H6 3464   1.303   2.280   9.508  1.2770  0.2618 -0.9521
  224MPD1    H7 3465   1.290   2.325   9.678 -0.5522  3.1577 -0.1061
  225MPD1     C 3466   4.270   3.714  11.920  0.6164  0.0610  0.3675
  225MPD1    C1 3467   4.186   3.640  11.838  0.1893  0.0925  0.3856
  225MPD1    C2 3468   4.078   3.585  11.901  0.1404  0.1581 -0.7396
  225MPD1    C3 3469   4.034   3.627  12.027  0.1410 -0.4734 -0.1198
  225MPD1    C4 3470   4.119   3.707  12.099  0.4954 -0.0241  0.4049
  225MPD1    C5 3471   4.230   3.752  12.047 -0.2186 -0.3458  0.1779
  225MPD1     H 3472   4.015   3.515  11.847  0.7911 -0.9792 -0.0131
  225MPD1    H1 3473   4.096   3.727  12.203  1.3560 -1.1291  0.8106
  225MPD1    H2 3474   4.369   3.749  11.893  0.9498 -1.9018 -0.8802
  225MPD1    H3 3475   4.301   3.802  12.111  0.7822 -0.4081 -0.8745
  225MPD1     N 3476   3.915   3.573  12.090  0.3246  0.2101 -0.1730
  225MPD1    H5 3477   3.897   3.605  12.185  0.8622  0.9073 -0.3065
  225MPD1    N1 3478   4.229   3.598  11.714 -0.9441  0.4207  0.2702
  225MPD1    H6 3479   4.281   3.671  11.666 -1.5214  0.5075 -0.2217
  225MPD1    H7 3480   4.154   3.594  11.645  0.7053  0.6596 -1.5467
  226MPD1     C 3481   1.131   2.581   9.190 -0.8296 -0.1889  0.1280
  226MPD1    C1 3482   1.154   2.581   9.325 -0.3109  0.6993 -0.2168
  226MPD1    C2 3483   1.190   2.700   9.384 -0.0149 -0.0637 -0.1602
  226MPD1    C3 3484   1.205   2.822   9.316  0.5010  0.0029 -0.3208
  226MPD1    C4 3485   1.184   2.813   9.183 -0.4483  0.0225 -0.6594
  226MPD1    C5 3486   1.139   2.701   9.120  0.7412 -0.3737  0.2115
  226MPD1     H 3487   1.221   2.694   9.488  1.4698 -1.8385 -0.7030
  226MPD1    H1 3488   1.181   2.896   9.114  0.8715 -1.2948 -2.3088
  226MPD1    H2 3489   1.100   2.496   9.132  1.7669 -0.5823 -0.6920
  226MPD1    H3 3490   1.091   2.713   9.023 -1.7040  1.1847  1.6309
  226MPD1     N 3491   1.256   2.940   9.389  0.1652  0.7809 -0.4648
  226MPD1    H5 3492   1.275   2.924   9.488  0.9408  2.0473 -0.4138
  226MPD1    N1 3493   1.158   2.462   9.395 -0.4820  0.5230  0.4959
  226MPD1    H6 3494   1.110   2.384   9.350  0.1762  0.6837 -0.4870
  226MPD1    H7 3495   1.136   2.483   9.492  0.1079  0.1580  0.7070
  227MPD1     C 3496   1.584   3.954   9.120 -0.0528  0.4014 -0.3247
  227MPD1    C1 3497   1.689   3.874   9.141  0.2280 -0.2337  0.3004
  227MPD1    C2 3498   1.661   3.749   9.203  0.0220  0.7080 -0.4553
  227MPD1    C3 3499   1.533   3.706   9.242 -0.1986 -0.1442 -0.2062
  227MPD1    C4 3500   1.431   3.798   9.230 -0.5100  0.0190  0.4250
  227MPD1    C5 3501   1.461   3.915   9.164  0.3175 -0.2655 -0.6345
  227MPD1     H 3502   1.742   3.677   9.206 -1.8348 -1.4459 -1.5510
  227MPD1    H1 3503   1.327   3.777   9.254 -1.1886  0.5103 -2.1220
  227MPD1    H2 3504   1.586   4.042   9.057 -0.2686 -0.2126 -1.1831
  227MPD1    H3 3505   1.377   3.983   9.148 -0.7804 -0.8378  2.7659
  227MPD1     N 3506   1.518   3.572   9.289 -0.4558 -0.8679  0.0692
  227MPD1    H5 3507   1.600   3.512   9.280  0.1891  0.2837 -1.7236
  227MPD1    N1 3508   1.804   3.897   9.066 -0.3917 -0.1935  0.1788
  227MPD1    H6 3509   1.882   3.836   9.091 -1.7153 -1.6039  0.8901
  227MPD1    H7 3510   1.829   3.995   9.068  2.2578 -0.8754 -0.0038
  228MPD1     C 3511   1.062   1.529  13.468 -0.2390 -0.0438 -0.0792
  228MPD1    C1 3512   1.038   1.503  13.342  0.0052  0.1015 -0.4738
  228MPD1    C2 3513   0.924   1.433  13.299 -0.0216 -0.5073  0.3016
  228MPD1    C3 3514   0.816   1.428  13.393 -0.5328  0.4650 -0.1128
  228MPD1    C4 3515   0.835   1.483  13.518  0.0931 -0.0875 -0.4789
  228MPD1    C5 3516   0.962   1.527  13.562  0.2107 -0.2068 -0.9433
  228MPD1     H 3517   0.911   1.392  13.199 -0.8857  1.1719 -0.2817
  228MPD1    H1 3518   0.761   1.495  13.597 -0.3360 -0.5244 -0.8186
  228MPD1    H2 3519   1.152   1.584  13.494  1.6212 -3.0097 -0.2458
  228MPD1    H3 3520   0.971   1.560  13.665 -0.5139 -3.5418  0.1680
  228MPD1     N 3521   0.688   1.363  13.359 -0.3867  0.4264 -0.4346
  228MPD1    H5 3522   0.684   1.323  13.266  0.5099 -3.2233  1.0925
  228MPD1    N1 3523   1.141   1.516  13.242  0.2153  0.6102 -0.5162
  228MPD1    H6 3524   1.205   1.593  13.265 -0.0851  0.3069  1.3799
  228MPD1    H7 3525   1.113   1.525  13.145  2.3745 -0.9441 -1.2752
  229MPD1     C 3526   4.554   0.194  14.267 -0.4198  0.5977  0.3954
  229MPD1    C1 3527   4.605   0.287  14.359  0.2423 -0.0918  0.4727
  229MPD1    C2 3528   4.681   0.237  14.467  0.7978 -0.1399 -0.5454
  229MPD1    C3 3529   4.720   0.103  14.468 -0.1920 -0.2130 -0.1424
  229MPD1    C4 3530   4.678   0.021  14.370  0.1757  0.6166 -0.2123
  229MPD1    C5 3531   4.593   0.066  14.271 -0.2214 -0.1605 -0.0373
  229MPD1     H 3532   4.695   0.296  14.557  0.3658  1.7255 -1.6989
  229MPD1    H1 3533   4.709   4.652  14.355 -0.8130  0.0424  1.6647
  229MPD1    H2 3534   4.493   0.228  14.183  0.1118  0.8282  0.1025
  229MPD1    H3 3535   4.570   0.001  14.188  0.7919 -0.6035  0.0297
  229MPD1     N 3536   0.075   0.041  14.566 -0.2473 -0.2130  0.1713
  229MPD1    H5 3537   0.111   4.683  14.547  0.5869  0.4523 -1.5098
  229MPD1    N1 3538   4.566   0.419  14.360  0.0537  0.0802 -0.2683
  229MPD1    H6 3539   4.628   0.477  14.417  0.4005 -1.0174  0.4613
  229MPD1    H7 3540   4.548   0.466  14.271 -0.1543  0.6767  0.0824
  230MPD1     C 3541   0.667   0.147  15.485  0.2049 -0.8526 -0.2989
  230MPD1    C1 3542   0.704   0.028  15.426  0.1089 -0.5061 -0.1995
  230MPD1    C2 3543   0.629   4.722  15.318 -0.7285 -0.0823  0.7428
  230MPD1    C3 3544   0.511   0.050  15.275 -0.0886  0.2096 -0.6283
  230MPD1    C4 3545   0.470   0.154  15.350 -0.5427 -0.2864  0.2706
  230MPD1    C5 3546   0.551   0.206  15.450 -0.0796  0.3963 -0.1211
  230MPD1     H 3547   0.656   4.639  15.254 -0.9981 -0.6834  1.4170
  230MPD1    H1 3548   0.376   0.203  15.328 -0.8317 -1.9584 -2.2415
  230MPD1    H2 3549   0.723   0.194  15.565 -0.8981  1.0276 -0.6334
  230MPD1    H3 3550   0.518   0.294  15.503  0.7895  0.4860  0.2753
  230MPD1     N 3551   0.452   4.734  15.156 -0.4165  0.1573  0.4752
  230MPD1    H5 3552   0.498   4.657  15.108  0.5932  0.5639  0.8029
  230MPD1    N1 3553   0.815   4.685  15.473 -0.4616 -0.5064 -0.2769
  230MPD1    H6 3554   0.903   4.733  15.490 -0.6463 -0.6738  1.1454
  230MPD1    H7 3555   0.839   4.607  15.413  2.9235  0.3400 -0.0276
  231MPD1     C 3556   3.343   1.307  15.538 -0.1768  0.0778  0.1346
  231MPD1    C1 3557   3.257   1.370  15.452 -0.0419 -0.1249  0.2940
  231MPD1    C2 3558   3.305   1.479  15.389  0.0560 -0.0492 -0.2938
  231MPD1    C3 3559   3.440   1.528  15.408 -0.0416  1.2314  0.4616
  231MPD1    C4 3560   3.513   1.463  15.501  0.1771 -0.4990 -0.2134
  231MPD1    C5 3561   3.464   1.357  15.563 -0.2756 -0.4804  1.4461
  231MPD1     H 3562   3.244   1.529  15.314 -0.3769  1.5556  1.1373
  231MPD1    H1 3563   3.615   1.484  15.528 -0.0380  0.2345  0.0403
  231MPD1    H2 3564   3.316   1.227  15.606  0.3284  0.4380  0.7528
  231MPD1    H3 3565   3.534   1.300  15.623  1.8751  0.5512 -0.0898
  231MPD1     N 3566   3.498   1.630  15.332  0.2464  0.2075  0.1821
  231MPD1    H5 3567   3.438   1.678  15.265 -0.3850 -0.4976  0.2474
  231MPD1    N1 3568   3.141   1.311  15.407 -0.1807 -0.1219  0.2320
  231MPD1    H6 3569   3.101   1.241  15.468  0.6029 -1.8004 -1.1907
  231MPD1    H7 3570   3.072   1.383  15.388  0.0265  0.4767  1.7481
  232MPD1     C 3571   0.740   3.246  17.329  0.3308 -0.5326  0.4444
  232MPD1    C1 3572   0.744   3.235  17.465 -0.7737 -0.3330 -0.8391
  232MPD1    C2 3573   0.631   3.262  17.536 -0.5655 -0.5213 -0.0339
  232MPD1    C3 3574   0.521   3.332  17.482 -0.1417  0.5223 -0.6609
  232MPD1    C4 3575   0.522   3.358  17.349  0.4034 -0.0305  0.7048
  232MPD1    C5 3576   0.633   3.315  17.277 -0.3012 -1.0091 -0.2460
  232MPD1     H 3577   0.628   3.237  17.641  1.0047 -2.5301 -0.4587
  232MPD1    H1 3578   0.436   3.394  17.294  1.7391  1.9562 -0.0834
  232MPD1    H2 3579   0.824   3.229  17.263 -2.1773 -1.5099 -2.4688
  232MPD1    H3 3580   0.632   3.339  17.171 -2.0737  0.6051  0.1305
  232MPD1     N 3581   0.405   3.361  17.560 -0.1944 -0.0838  0.2620
  232MPD1    H5 3582   0.400   3.326  17.655  2.5414  0.8199  0.7364
  232MPD1    N1 3583   0.848   3.162  17.525  0.0519 -0.6632  0.0980
  232MPD1    H6 3584   0.939   3.173  17.481 -0.4820  1.8211 -0.3987
  232MPD1    H7 3585   0.862   3.178  17.625  0.0656 -0.7363  0.1073
  233MPD1     C 3586   0.938   1.955  16.921  0.6934  0.0020 -0.2688
  233MPD1    C1 3587   1.029   2.016  16.838  0.1023 -0.0285  0.2042
  233MPD1    C2 3588   1.164   1.977  16.840  0.2995 -0.0223 -0.1341
  233MPD1    C3 3589   1.198   1.870  16.922  0.4327  0.1593 -0.3507
  233MPD1    C4 3590   1.096   1.796  16.980  0.3640 -0.6910 -0.1252
  233MPD1    C5 3591   0.969   1.839  16.984 -0.7291 -0.0772 -0.5913
  233MPD1     H 3592   1.235   2.041  16.788  1.4857 -1.1705  0.0630
  233MPD1    H1 3593   1.114   1.701  17.030 -3.0642 -2.3877 -2.1732
  233MPD1    H2 3594   0.834   1.986  16.925 -0.0114 -2.6592  1.6406
  233MPD1    H3 3595   0.902   1.776  17.042 -0.6049 -2.1198 -2.6749
  233MPD1     N 3596   1.338   1.843  16.943 -0.2836  0.3363 -0.2432
  233MPD1    H5 3597   1.402   1.899  16.888 -0.1628 -0.6071 -1.0591
  233MPD1    N1 3598   0.996   2.141  16.792  0.0168  0.8289  0.4766
  233MPD1    H6 3599   0.899   2.140  16.763  0.1520  4.4559 -0.1596
  233MPD1    H7 3600   1.049   2.170  16.710 -0.1774 -0.2464 -0.0282
  234MPD1     C 3601   3.096   1.140   9.438  0.5684  0.2823 -0.5150
  234MPD1    C1 3602   3.016   1.201   9.347 -0.1996 -0.1802  0.5692
  234MPD1    C2 3603   2.956   1.325   9.379  0.0909 -0.1240  0.1308
  234MPD1    C3 3604   2.971   1.384   9.502  0.8293 -0.1785  0.2932
  234MPD1    C4 3605   3.055   1.317   9.596  0.1146 -0.3704  0.0349
  234MPD1    C5 3606   3.111   1.200   9.557  0.1095  0.5048 -0.2381
  234MPD1     H 3607   2.891   1.373   9.308  0.1773  0.2971  0.3397
  234MPD1    H1 3608   3.075   1.355   9.696  2.3950 -0.9261 -0.2032
  234MPD1    H2 3609   3.133   1.040   9.422 -1.6255 -0.7309  0.7225
  234MPD1    H3 3610   3.182   1.159   9.628 -1.4285 -0.7045  0.5839
  234MPD1     N 3611   2.900   1.501   9.539 -0.3631 -0.4147 -0.3093
  234MPD1    H5 3612   2.831   1.523   9.467  1.6582 -0.1626 -2.1672
  234MPD1    N1 3613   2.983   1.129   9.235 -0.3667 -0.7567 -0.6591
  234MPD1    H6 3614   2.947   1.198   9.169 -1.2135  0.1062  0.6807
  234MPD1    H7 3615   3.068   1.099   9.189 -0.7659  1.3854 -2.7906
  235MPD1     C 3616   4.555   3.607  10.876  0.3186 -0.0893 -0.0388
  235MPD1    C1 3617   4.480   3.692  10.799  1.4694 -0.4374 -0.1257
  235MPD1    C2 3618   4.520   3.827  10.806 -0.6278 -0.4627  0.1885
  235MPD1    C3 3619   4.632   3.874  10.865 -0.8207  0.2150 -0.9999
  235MPD1    C4 3620   4.705   3.783  10.935 -0.4453 -0.7829  0.4192
  235MPD1    C5 3621   4.658   3.656  10.956 -0.2571  0.0591  0.6346
  235MPD1     H 3622   4.473   3.896  10.737 -1.6942  1.0569  2.4274
  235MPD1    H1 3623   0.056   3.815  10.994  0.4590 -0.7649 -0.8880
  235MPD1    H2 3624   4.526   3.504  10.891  0.6633  0.0168  1.3697
  235MPD1    H3 3625   4.710   3.588  11.022  0.0282  0.8799  1.2460
  235MPD1     N 3626   4.672   4.008  10.848  0.0037  0.2652  0.4279
  235MPD1    H5 3627   4.609   4.066  10.793  0.6042  0.6800  0.1724
  235MPD1    N1 3628   4.342   3.660  10.773  0.3810 -0.0191 -0.3172
  235MPD1    H6 3629   4.328   3.566  10.738 -0.3413 -0.9025  2.3126
  235MPD1    H7 3630   4.296   3.716  10.701 -0.0677  0.7370  0.5511
  236MPD1     C 3631   3.313   0.419   9.729  0.0997  0.0461  0.5787
  236MPD1    C1 3632   3.320   0.295   9.674 -0.7368 -0.5515  0.2141
  236MPD1    C2 3633   3.414   0.211   9.730  0.1188 -0.5330 -0.1448
  236MPD1    C3 3634   3.486   0.236   9.842 -0.0660 -0.3024  0.2845
  236MPD1    C4 3635   3.476   0.360   9.894 -0.0380 -0.5922  0.8678
  236MPD1    C5 3636   3.393   0.446   9.834  1.1555 -0.0546 -0.4080
  236MPD1     H 3637   3.420   0.115   9.680  1.6520 -1.2784  1.4826
  236MPD1    H1 3638   3.545   0.400   9.968  0.9775  1.6668 -1.2867
  236MPD1    H2 3639   3.251   0.491   9.676 -0.7500 -0.0037  1.5105
  236MPD1    H3 3640   3.394   0.549   9.870  2.8414  0.6469 -2.4977
  236MPD1     N 3641   3.564   0.136   9.909  0.3813 -0.2976 -0.3650
  236MPD1    H5 3642   3.607   0.182   9.988  0.3786  0.4386 -0.7866
  236MPD1    N1 3643   3.255   0.265   9.553 -0.7499  0.2623  0.1354
  236MPD1    H6 3644   3.260   0.168   9.522 -2.4061 -0.2851  1.5874
  236MPD1    H7 3645   3.160   0.298   9.541 -0.6911  0.0011 -1.0194
  237MPD1     C 3646   3.841   3.526  14.478 -1.2579 -0.3912 -0.5051
  237MPD1    C1 3647   3.873   3.510  14.611 -0.1303  0.3292  0.3461
  237MPD1    C2 3648   3.827   3.402  14.681  0.3471 -0.7527  0.0853
  237MPD1    C3 3649   3.748   3.309  14.618 -0.4360 -0.0008 -0.4466
  237MPD1    C4 3650   3.729   3.317  14.480  0.5219 -0.2835  0.7699
  237MPD1    C5 3651   3.784   3.418  14.415 -0.1400  0.2220 -0.1303
  237MPD1     H 3652   3.858   3.392  14.784  1.4386 -0.2019 -0.1984
  237MPD1    H1 3653   3.680   3.239  14.422 -1.5703  1.4352  0.2181
  237MPD1    H2 3654   3.876   3.609  14.417  0.1471  1.3160  2.5978
  237MPD1    H3 3655   3.775   3.412  14.307 -0.6532  1.0163 -0.1315
  237MPD1     N 3656   3.692   3.200  14.683 -0.0920  0.0547  0.0050
  237MPD1    H5 3657   3.624   3.145  14.632  0.4159  0.4621 -1.1067
  237MPD1    N1 3658   3.930   3.619  14.678  0.5846 -0.0552  0.0740
  237MPD1    H6 3659   3.981   3.590  14.762  0.1279  1.4724  0.8889
  237MPD1    H7 3660   4.000   3.667  14.621  2.1794  0.6012  2.5840
  238MPD1     C 3661   0.374   1.582  16.060  0.6774  0.4128  0.5774
  238MPD1    C1 3662   0.474   1.643  15.980 -0.0092 -0.6131  0.6481
  238MPD1    C2 3663   0.451   1.642  15.840 -0.1557  0.4194  0.6698
  238MPD1    C3 3664   0.331   1.600  15.787  0.3582  0.4155  0.3604
  238MPD1    C4 3665   0.246   1.532  15.869  0.0761  0.5382 -0.5864
  238MPD1    C5 3666   0.269   1.523  16.007 -0.4046  0.0098 -0.0253
  238MPD1     H 3667   0.519   1.694  15.774  0.2583  1.7208  2.1191
  238MPD1    H1 3668   0.167   1.473  15.824  1.5044 -1.0881 -0.9780
  238MPD1    H2 3669   0.387   1.577  16.168 -1.0065 -0.6466  0.7383
  238MPD1    H3 3670   0.198   1.479  16.076 -2.3746 -0.0328 -2.0597
  238MPD1     N 3671   0.286   1.608  15.652  0.7234  0.7939  0.0413
  238MPD1    H5 3672   0.197   1.565  15.631  0.6227  0.7342  0.5809
  238MPD1    N1 3673   0.601   1.661  16.037 -0.3088  0.1331  0.0093
  238MPD1    H6 3674   0.600   1.683  16.136  0.6339  2.4781 -0.5054
  238MPD1    H7 3675   0.655   1.726  15.980  3.8000 -2.5190  0.8645
  239MPD1     C 3676   1.030   3.197  14.508 -0.1405 -0.0735 -0.2134
  239MPD1    C1 3677   0.972   3.314  14.462 -0.1190  0.5578  0.0142
  239MPD1    C2 3678   0.878   3.306  14.364  0.2653  0.2391  0.0341
  239MPD1    C3 3679   0.819   3.186  14.325 -0.0378 -0.3690 -0.0654
  239MPD1    C4 3680   0.854   3.076  14.400 -0.7196  0.8110 -0.2685
  239MPD1    C5 3681   0.970   3.078  14.480 -0.0566 -0.8772  0.5348
  239MPD1     H 3682   0.856   3.405  14.325 -1.8643  0.2902  1.3713
  239MPD1    H1 3683   0.803   2.983  14.377 -0.5761  1.3732 -2.7986
  239MPD1    H2 3684   1.118   3.196  14.571 -1.4921 -1.1012  1.6505
  239MPD1    H3 3685   1.007   2.985  14.523 -1.9522 -1.5227  0.7873
  239MPD1     N 3686   0.722   3.182  14.221 -0.7870 -0.1017  0.1057
  239MPD1    H5 3687   0.684   3.091  14.197  1.7470 -0.4882 -2.3351
  239MPD1    N1 3688   1.032   3.437  14.493 -0.6939  0.1275  0.6257
  239MPD1    H6 3689   1.069   3.443  14.588  1.7955  0.4478 -0.3459
  239MPD1    H7 3690   0.973   3.515  14.467 -0.2651  0.2013 -0.1367
  240MPD1     C 3691   0.383   2.621  14.693 -0.3676 -0.1318 -0.8179
  240MPD1    C1 3692   0.444   2.530  14.774 -0.0180 -0.1752  0.3775
  240MPD1    C2 3693   0.398   2.397  14.758 -0.0885 -0.3287  0.3093
  240MPD1    C3 3694   0.305   2.357  14.662  0.4392 -0.2990 -0.1281
  240MPD1    C4 3695   0.256   2.448  14.572 -1.5517 -0.0646 -0.5081
  240MPD1    C5 3696   0.305   2.578  14.593 -0.1019  0.3060  0.7181
  240MPD1     H 3697   0.426   2.320  14.829 -0.6569 -0.8499 -0.0356
  240MPD1    H1 3698   0.185   2.430  14.492  1.3166 -1.9298 -2.6558
  240MPD1    H2 3699   0.407   2.727  14.698  2.1859 -0.7384 -0.4833
  240MPD1    H3 3700   0.263   2.655  14.530  1.4771 -1.3853 -2.4238
  240MPD1     N 3701   0.269   2.222  14.666  0.1713 -0.2739 -0.2453
  240MPD1    H5 3702   0.311   2.161  14.735  0.0199  0.9080  0.8840
  240MPD1    N1 3703   0.518   2.562  14.884 -0.1387 -0.1530  0.5636
  240MPD1    H6 3704   0.571   2.644  14.857 -0.5055 -0.2492 -0.4228
  240MPD1    H7 3705   0.585   2.487  14.901 -0.4728 -0.1692  1.8396
  241MPD1     C 3706   0.378   2.027  15.411 -0.5346  0.0578 -0.0998
  241MPD1    C1 3707   0.242   2.011  15.397  0.1858 -0.3726 -1.0801
  241MPD1    C2 3708   0.188   1.985  15.271  0.0795 -0.0043  0.1309
  241MPD1    C3 3709   0.276   1.971  15.166  0.4270 -0.4728  0.5803
  241MPD1    C4 3710   0.415   1.971  15.183 -0.4702  0.2653  0.4527
  241MPD1    C5 3711   0.467   2.008  15.303 -0.2515  1.1175 -0.3339
  241MPD1     H 3712   0.080   1.973  15.266 -0.1275  1.7785  0.2712
  241MPD1    H1 3713   0.487   1.968  15.102 -0.2236  0.0735  0.6787
  241MPD1    H2 3714   0.416   2.056  15.508 -1.2390 -0.9918  0.4800
  241MPD1    H3 3715   0.574   2.021  15.316 -0.3982  1.3963  0.5878
  241MPD1     N 3716   0.220   1.967  15.038 -0.7357 -0.2460  0.4919
  241MPD1    H5 3717   0.287   1.985  14.964  1.3516  0.0532  2.4536
  241MPD1    N1 3718   0.151   2.037  15.507  0.5280 -0.4571 -0.1193
  241MPD1    H6 3719   0.064   1.984  15.503  0.6351 -0.5793 -0.9163
  241MPD1    H7 3720   0.198   2.023  15.596 -1.6776 -3.5507  0.5565
  242MPD1     C 3721   4.444   4.526  15.811 -0.3957  0.2034  0.4438
  242MPD1    C1 3722   4.502   4.632  15.871 -0.7465  0.5290  0.3734
  242MPD1    C2 3723   4.524   0.011  15.800  1.1714 -0.0814  0.3929
  242MPD1    C3 3724   4.503   0.021  15.664 -0.4042  0.0495 -0.5716
  242MPD1    C4 3725   4.454   4.639  15.601 -0.5677  0.5750 -0.7593
  242MPD1    C5 3726   4.424   4.523  15.673 -0.5307 -0.8907 -0.0008
  242MPD1     H 3727   4.562   0.099  15.850 -2.7657  2.2859 -0.8574
  242MPD1    H1 3728   4.444   4.625  15.494 -1.6335  2.0729 -0.8558
  242MPD1    H2 3729   4.418   4.429  15.853  0.7643 -0.0840  0.4953
  242MPD1    H3 3730   4.378   4.439  15.623 -2.3754 -0.7760  1.4956
  242MPD1     N 3731   4.528   0.142  15.591 -0.0969  0.1891 -0.3088
  242MPD1    H5 3732   4.510   0.148  15.491 -0.7809  3.4263 -0.0039
  242MPD1    N1 3733   4.511   4.634  16.017  0.7507  0.6402 -0.0473
  242MPD1    H6 3734   4.589   4.687  16.056  0.2726  1.5596 -0.3229
  242MPD1    H7 3735   4.513   4.544  16.065 -0.1281  0.2171 -0.8023
  243MPD1     C 3736   1.648   2.834  17.381 -0.2612  0.5249  0.6810
  243MPD1    C1 3737   1.698   2.736  17.306 -0.7761 -0.2730  0.2996
  243MPD1    C2 3738   1.754   2.761  17.184 -0.0211  0.2509 -0.7392
  243MPD1    C3 3739   1.746   2.888  17.129  0.6607  0.3210  0.2728
  243MPD1    C4 3740   1.703   2.991  17.211 -0.2902 -0.2839 -0.3275
  243MPD1    C5 3741   1.653   2.964  17.336 -0.0035 -0.7150  0.3329
  243MPD1     H 3742   1.787   2.681  17.119 -1.3017 -1.0348  0.1738
  243MPD1    H1 3743   1.702   3.092  17.172  0.7199 -0.1618 -0.0388
  243MPD1    H2 3744   1.600   2.820  17.478  1.0746 -0.0843  1.2501
  243MPD1    H3 3745   1.616   3.047  17.395  1.8869  1.0105 -0.8862
  243MPD1     N 3746   1.793   2.906  17.001 -0.0875 -0.1470 -0.5648
  243MPD1    H5 3747   1.841   2.826  16.961  1.4137  0.7884 -0.6159
  243MPD1    N1 3748   1.684   2.604  17.341  0.8092  0.2323 -0.0282
  243MPD1    H6 3749   1.681   2.581  17.440 -2.0798 -1.1005 -0.4167
  243MPD1    H7 3750   1.750   2.542  17.295  2.2885  0.2863  2.0362
  244MPD1     C 3751   2.546   2.607  16.953 -0.4727  0.1085 -0.2616
  244MPD1    C1 3752   2.427   2.589  17.016  0.3436 -0.0155  0.2266
  244MPD1    C2 3753   2.310   2.642  16.955 -0.7291  0.3941  1.2154
  244MPD1    C3 3754   2.318   2.727  16.854  0.0061 -0.1676  0.0734
  244MPD1    C4 3755   2.439   2.753  16.794  0.9836  0.8287  0.0643
  244MPD1    C5 3756   2.553   2.697  16.847 -0.1999 -0.1291 -0.1193
  244MPD1     H 3757   2.210   2.629  16.996 -0.6778 -2.9912  0.2735
  244MPD1    H1 3758   2.441   2.811  16.703 -0.2746 -1.7687 -1.6186
  244MPD1    H2 3759   2.639   2.573  16.996 -2.2053 -2.6795  1.2325
  244MPD1    H3 3760   2.652   2.708  16.804  1.0469  0.2536  2.8541
  244MPD1     N 3761   2.196   2.786  16.809  0.0114 -0.0551 -0.3820
  244MPD1    H5 3762   2.110   2.761  16.857  0.8834 -0.4946  0.9726
  244MPD1    N1 3763   2.412   2.495  17.120  0.0760 -0.3204  0.4143
  244MPD1    H6 3764   2.497   2.479  17.173  0.9475  1.0915 -0.5556
  244MPD1    H7 3765   2.366   2.540  17.199  0.6616 -0.5355  0.8767
  245MPD1     C 3766   3.895   4.686  12.541 -0.1182  0.2585  0.3860
  245MPD1    C1 3767   3.867   4.602  12.648  0.2307 -0.6118  0.3338
  245MPD1    C2 3768   3.832   4.663  12.768 -0.2608 -0.1046 -0.0850
  245MPD1    C3 3769   3.830   0.067  12.785  0.0987  0.2910 -0.3210
  245MPD1    C4 3770   3.892   0.138  12.689  0.0099 -0.2265  0.0436
  245MPD1    C5 3771   3.925   0.084  12.566  0.0339  0.2946  0.1643
  245MPD1     H 3772   3.807   4.599  12.852 -0.2082  3.6034  2.7726
  245MPD1    H1 3773   3.907   0.246  12.697 -3.1660  0.1807  0.6659
  245MPD1    H2 3774   3.908   4.641  12.444  0.5751  0.0630  0.5718
  245MPD1    H3 3775   3.978   0.136  12.487  1.9386 -0.4103  0.9935
  245MPD1     N 3776   3.779   0.118  12.917 -0.5028  0.0224 -0.0852
  245MPD1    H5 3777   3.749   0.053  12.989  0.9701 -1.4370 -0.7781
  245MPD1    N1 3778   3.847   4.465  12.622  0.0635  0.9480  0.1389
  245MPD1    H6 3779   3.854   4.413  12.709 -1.9123 -1.1401 -0.9245
  245MPD1    H7 3780   3.914   4.435  12.552 -1.5007 -1.5979 -0.2963
  246MPD1     C 3781   3.316   3.669  10.163 -0.4109 -0.0221  0.1773
  246MPD1    C1 3782   3.200   3.694  10.098  0.1841  0.4630 -0.4177
  246MPD1    C2 3783   3.191   3.810  10.022  0.2189  0.1675 -0.0977
  246MPD1    C3 3784   3.295   3.907  10.019 -0.4321  0.2551  0.0319
  246MPD1    C4 3785   3.409   3.875  10.095  0.0705  0.3130  0.2999
  246MPD1    C5 3786   3.421   3.754  10.157  0.2764 -0.0043  0.0227
  246MPD1     H 3787   3.099   3.826   9.967  1.9880  2.0554 -2.5087
  246MPD1    H1 3788   3.504   3.923  10.078 -0.3839  1.7865  1.9044
  246MPD1    H2 3789   3.336   3.571  10.205  0.4014 -0.7241 -1.8193
  246MPD1    H3 3790   3.518   3.717  10.186  0.1323 -1.4965 -1.4187
  246MPD1     N 3791   3.283   4.028   9.942  0.0845 -0.2911  0.1289
  246MPD1    H5 3792   3.191   4.034   9.901  0.4770  0.1418 -0.6973
  246MPD1    N1 3793   3.106   3.591  10.082 -0.3064 -0.1975 -0.7844
  246MPD1    H6 3794   3.104   3.526  10.160 -1.9037 -1.0420 -1.5174
  246MPD1    H7 3795   3.015   3.636  10.072 -0.1161 -0.3929 -3.3382
  247MPD1     C 3796   3.084   0.091  16.952  0.5222  0.0189  0.8594
  247MPD1    C1 3797   3.084   4.709  17.017 -0.1586  0.3785  0.7818
  247MPD1    C2 3798   3.100   4.588  16.954 -0.1678 -0.0953  0.2104
  247MPD1    C3 3799   3.128   4.589  16.820  0.1068 -0.4871  0.1006
  247MPD1    C4 3800   3.131   4.702  16.751  0.2496  0.3797 -0.7851
  247MPD1    C5 3801   3.113   0.086  16.813  0.5397 -0.2781  0.5622
  247MPD1     H 3802   3.083   4.495  17.007  1.1486 -0.8147 -0.6233
  247MPD1    H1 3803   3.167   4.691  16.649  0.8948 -2.3579 -0.2426
  247MPD1    H2 3804   3.086   0.188  17.001 -1.0796  0.7697 -0.6047
  247MPD1    H3 3805   3.138   0.177  16.758  1.8228 -0.2042  1.2682
  247MPD1     N 3806   3.134   4.471  16.739 -0.4430  0.4639 -0.0058
  247MPD1    H5 3807   3.138   4.480  16.638  1.2716 -2.7603 -0.2374
  247MPD1    N1 3808   3.079   4.708  17.159  0.1694  0.0031 -0.1398
  247MPD1    H6 3809   3.052   4.616  17.192 -0.5067  0.3532  0.2824
  247MPD1    H7 3810   3.017   0.047  17.194  2.4678  1.9412 -0.0957
  248MPD1     C 3811   4.057   4.283  17.015  0.2024 -0.8951 -0.6271
  248MPD1    C1 3812   4.016   4.367  17.114 -0.2103  0.5818 -0.3576
  248MPD1    C2 3813   3.999   4.309  17.239  0.1359 -0.0921 -0.8583
  248MPD1    C3 3814   4.016   4.176  17.262  0.1814 -0.8362 -0.7792
  248MPD1    C4 3815   4.042   4.100  17.156  0.1198 -0.0828  0.3050
  248MPD1    C5 3816   4.068   4.156  17.036 -0.3616  0.1325  0.0774
  248MPD1     H 3817   3.983   4.375  17.323  0.1235 -1.6426  0.3559
  248MPD1    H1 3818   4.059   3.993  17.163  1.2993  0.1645  1.2977
  248MPD1    H2 3819   4.064   4.325  16.915  0.3877  2.1315  0.6583
  248MPD1    H3 3820   4.088   4.087  16.955  4.7143  1.1697  0.4463
  248MPD1     N 3821   4.011   4.133  17.398  0.0254 -0.0591 -0.0728
  248MPD1    H5 3822   3.972   4.195  17.468 -1.8638 -1.9770  0.5405
  248MPD1    N1 3823   4.026   4.505  17.095  0.2577 -0.3867  0.1595
  248MPD1    H6 3824   4.008   4.534  17.000 -0.3734 -2.1003 -0.2500
  248MPD1    H7 3825   3.958   4.552  17.156  0.9755  0.1412  0.5470
  249MPD1     C 3826   1.175   3.780   9.581 -0.1313  0.1350 -0.4190
  249MPD1    C1 3827   1.146   3.798   9.719 -0.2056  0.0349 -0.3513
  249MPD1    C2 3828   1.124   3.921   9.767  0.5016  0.1397  0.2225
  249MPD1    C3 3829   1.104   4.024   9.675 -0.5028 -0.7301  0.4126
  249MPD1    C4 3830   1.140   4.010   9.542 -0.4168  0.2370 -0.5766
  249MPD1    C5 3831   1.189   3.885   9.498  0.2180  0.4967  0.0596
  249MPD1     H 3832   1.112   3.925   9.875  2.0091  0.8704  0.3537
  249MPD1    H1 3833   1.132   4.087   9.466  0.9150  0.5630 -0.3935
  249MPD1    H2 3834   1.190   3.680   9.542 -0.7966 -0.6286  1.3222
  249MPD1    H3 3835   1.204   3.869   9.392 -0.8394 -0.6773  0.0970
  249MPD1     N 3836   1.057   4.141   9.734 -0.2638  0.8800  0.2236
  249MPD1    H5 3837   1.049   4.136   9.835  0.3139 -1.3676  0.1622
  249MPD1    N1 3838   1.158   3.691   9.801 -0.2768  0.2989  0.5000
  249MPD1    H6 3839   1.115   3.713   9.891 -0.9671  3.3722 -0.5812
  249MPD1    H7 3840   1.114   3.609   9.760  0.3055  0.0397  0.3928
  250MPD2     C 3841   1.631   3.295  12.612 -0.2089  0.4700  0.0163
  250MPD2    C1 3842   1.523   3.361  12.660  0.3789 -0.7416 -0.5588
  250MPD2    C2 3843   1.398   3.328  12.616 -0.1777 -0.1353  0.1803
  250MPD2    C3 3844   1.373   3.232  12.519  0.0256 -0.4012 -0.1654
  250MPD2    C4 3845   1.481   3.175  12.457  0.6036 -0.2129 -0.5530
  250MPD2    C5 3846   1.609   3.206  12.507  0.2835 -0.3309  0.4755
  250MPD2     H 3847   1.315   3.372  12.670 -1.2175 -0.9202 -0.7580
  250MPD2    H1 3848   1.454   3.106  12.377  0.7466  0.9435 -1.5970
  250MPD2    H2 3849   1.730   3.291  12.655  0.2050  2.8828 -0.7004
  250MPD2    H3 3850   1.698   3.160  12.465  2.2833  1.5682  2.6361
  250MPD2     N 3851   1.243   3.171  12.492 -0.0347  0.3554 -0.5830
  250MPD2    H5 3852   1.247   3.077  12.453  1.8297  1.0142 -1.9728
  250MPD2    N1 3853   1.549   3.458  12.751 -0.2744 -0.2039 -0.0345
  250MPD2    H7 3854   1.647   3.482  12.766 -0.8234  1.9344  0.1516
  251TMC3    C1 3855   1.505   3.628  12.908 -0.6084 -0.5261  0.1823
  251TMC3    C2 3856   1.463   3.758  12.922  0.0738  0.0393 -0.2758
  251TMC3    C3 3857   1.534   3.835  13.015  0.4677  0.3675  0.3422
  251TMC3    C4 3858   1.613   3.582  12.986  0.8125 -0.0879  0.2103
  251TMC3    C5 3859   1.680   3.661  13.074 -0.9287  0.3552  0.5550
  251TMC3    C6 3860   1.639   3.789  13.091 -0.4165  0.6568 -0.6366
  251TMC3     C 3861   1.452   3.542  12.804  0.1838  0.3469  0.0833
  251TMC3     O 3862   1.330   3.552  12.786  0.0487 -0.0608  0.1789
  251TMC3     H 3863   1.376   3.789  12.865  1.0286  0.4280 -1.5502
  251TMC3    H1 3864   1.651   3.480  12.979 -0.9359 -0.6555 -0.8811
  251TMC3    H2 3865   1.662   3.846  13.180 -0.4905 -1.7536  0.9080
  251TMC3    C7 3866   1.778   3.602  13.164  0.2062 -0.2679  0.0727
  251TMC3    C8 3867   1.507   3.976  13.014  0.4735  0.1550  0.0234
  251TMC3    O1 3868   1.774   3.483  13.189 -0.0465 -0.1892 -0.1115
  251TMC3    O2 3869   1.406   4.006  12.954  0.2169  0.0412 -0.0187
  252TMC3    C1 3870   2.106   4.336   9.043 -0.6440 -0.6833 -0.1268
  252TMC3    C2 3871   2.227   4.311   9.095 -0.0084  0.1449  0.0284
  252TMC3    C3 3872   2.231   4.234   9.210  0.7794  0.3467 -0.5761
  252TMC3    C4 3873   1.993   4.306   9.109 -0.0544 -0.0875 -0.4078
  252TMC3    C5 3874   1.999   4.212   9.207 -0.2555 -0.7991  0.4350
  252TMC3    C6 3875   2.118   4.180   9.267  0.0073  0.5292 -0.0507
  252TMC3     C 3876   2.104   4.407   8.917 -0.2812 -0.1546  0.5456
  252TMC3     O 3877   2.215   4.424   8.863 -0.3645 -0.1247  0.2559
  252TMC3     H 3878   2.317   4.346   9.044  0.1213 -0.0787  0.1022
  252TMC3    H1 3879   1.899   4.344   9.073  1.4539  2.2042 -1.9560
  252TMC3    H2 3880   2.121   4.102   9.342 -0.3739 -0.1235 -0.7136
  252TMC3    C7 3881   1.866   4.183   9.267  0.3898  0.2474 -0.2991
  252TMC3    C8 3882   2.358   4.227   9.276 -0.4526 -0.8599  0.1510
  252TMC3    O1 3883   1.759   4.207   9.210  0.3484  0.2427  0.0923
  252TMC3    O2 3884   2.453   4.253   9.208  0.1594  0.3182  0.4675
  253MPD2     C 3885   2.817   2.961  14.743  0.3123 -0.7324  0.3475
  253MPD2    C1 3886   2.699   2.989  14.808 -0.0932  0.1038  0.3638
  253MPD2    C2 3887   2.690   2.982  14.945 -0.1350  0.0326  0.0708
  253MPD2    C3 3888   2.797   2.953  15.023  0.1918 -0.4206 -0.3081
  253MPD2    C4 3889   2.917   2.923  14.957  0.2330  0.0790 -0.1764
  253MPD2    C5 3890   2.927   2.930  14.819 -0.1435  0.1649  0.1876
  253MPD2     H 3891   2.591   3.000  14.985  0.0806  0.8076  0.2562
  253MPD2    H1 3892   2.995   2.875  15.014  0.9479  1.6194  0.1471
  253MPD2    H2 3893   2.826   2.964  14.635 -1.4363  0.2363  0.2271
  253MPD2    H3 3894   3.022   2.912  14.770  1.5104  0.4223  3.3011
  253MPD2     N 3895   2.789   2.938  15.165  0.0163 -0.4806  0.2844
  253MPD2    H5 3896   2.866   2.908  15.224  0.9073 -1.4173 -1.3768
  253MPD2    N1 3897   2.587   3.024  14.740  0.2067  0.1369  0.5049
  253MPD2    H7 3898   2.498   3.038  14.787  0.5360 -0.0770  1.1786
  254TMC3    C1 3899   2.668   2.956  15.369  0.3888  0.4900  0.1285
  254TMC3    C2 3900   2.594   3.033  15.457  0.0478 -0.0701 -0.4474
  254TMC3    C3 3901   2.569   2.983  15.581  0.7150  0.1017 -0.3234
  254TMC3    C4 3902   2.715   2.832  15.403  0.0859  0.3980 -0.3667
  254TMC3    C5 3903   2.673   2.783  15.528  0.1905 -0.5042 -0.4866
  254TMC3    C6 3904   2.602   2.862  15.619 -0.2700  0.1318  0.0552
  254TMC3     C 3905   2.691   3.009  15.237  0.5989 -0.2290 -0.8708
  254TMC3     O 3906   2.617   3.094  15.198 -0.1851 -0.6692  0.2783
  254TMC3     H 3907   2.550   3.125  15.419 -0.0600  0.5027  1.0591
  254TMC3    H1 3908   2.753   2.764  15.327  0.1381 -0.1918  0.1809
  254TMC3    H2 3909   2.593   2.832  15.723  2.4035 -1.5102 -0.1714
  254TMC3    C7 3910   2.762   2.696  15.591  0.2933 -0.1488 -0.5813
  254TMC3    C8 3911   2.492   3.049  15.679 -0.0242  0.3708  0.4403
  254TMC3    O1 3912   2.717   2.628  15.686 -0.7627  0.0937 -0.2509
  254TMC3    O2 3913   2.445   2.975  15.767 -0.6820  0.1433  0.0691
  255MPD2     C 3914   2.033   0.855  10.669 -0.2381 -0.6127 -0.4022
  255MPD2    C1 3915   1.944   0.850  10.564 -0.5984  0.0605  0.1880
  255MPD2    C2 3916   1.948   0.733  10.488  0.2555 -0.2056 -1.0830
  255MPD2    C3 3917   2.039   0.634  10.521  0.4224 -0.4964  0.0614
  255MPD2    C4 3918   2.112   0.635  10.637 -0.0548  0.3591 -0.1958
  255MPD2    C5 3919   2.110   0.749  10.711  0.5696  0.1965  0.4105
  255MPD2     H 3920   1.879   0.709  10.407  0.0172 -1.1898 -0.5892
  255MPD2    H1 3921   2.167   0.547  10.670  0.7672  1.2318  0.7623
  255MPD2    H2 3922   2.037   0.951  10.718  0.0521 -2.7306  3.7053
  255MPD2    H3 3923   2.173   0.758  10.798  0.4147 -0.6715  0.6029
  255MPD2     N 3924   2.040   0.525  10.439 -0.2295 -0.5716 -0.2013
  255MPD2    H5 3925   1.978   0.531  10.358 -0.7122  1.4960  0.3186
  255MPD2    N1 3926   1.855   0.961  10.545 -0.2224 -0.0895 -0.3251
  255MPD2    H7 3927   1.870   1.040  10.607 -3.0741  0.4948 -0.3817
  256TMC3    C1 3928   1.685   1.087  10.448  0.5263 -0.3390  0.0379
  256TMC3    C2 3929   1.681   1.175  10.555  0.5429  0.1997  1.3516
  256TMC3    C3 3930   1.598   1.281  10.541  0.3396 -0.1946 -0.2584
  256TMC3    C4 3931   1.597   1.106  10.342  0.5226  0.0758 -0.2236
  256TMC3    C5 3932   1.506   1.204  10.343 -0.7311  0.6314  0.8521
  256TMC3    C6 3933   1.501   1.298  10.444 -0.0336  0.4412  0.1652
  256TMC3     C 3934   1.764   0.966  10.445  0.2080 -0.1947  0.3095
  256TMC3     O 3935   1.740   0.885  10.355  0.3667  1.0556  0.1102
  256TMC3     H 3936   1.728   1.154  10.649 -0.6891 -0.2231  1.8764
  256TMC3    H1 3937   1.594   1.027  10.267 -0.8943 -1.0862  1.0692
  256TMC3    H2 3938   1.432   1.381  10.444 -0.3236  0.1941  1.4547
  256TMC3    C7 3939   1.395   1.201  10.252 -1.2469 -0.0271 -0.0609
  256TMC3    C8 3940   1.598   1.376  10.653  0.6329  0.4583  0.0485
  256TMC3    O1 3941   1.405   1.122  10.158 -0.0105 -0.1962 -0.5406
  256TMC3    O2 3942   1.637   1.340  10.763  0.1106  0.3499 -0.5329
  257MPD2     C 3943   0.055   3.070  13.238 -0.4850  0.3762  1.0905
  257MPD2    C1 3944   0.180   3.078  13.171 -0.0686 -0.0715  0.0759
  257MPD2    C2 3945   0.295   3.006  13.224 -0.0049  0.6992  0.6980
  257MPD2    C3 3946   0.280   2.929  13.340 -0.0467  0.1234 -0.2759
  257MPD2    C4 3947   0.149   2.930  13.403 -1.0362  0.0111 -0.6750
  257MPD2    C5 3948   0.042   2.992  13.344 -0.3824 -0.8948 -0.7616
  257MPD2     H 3949   0.393   3.012  13.180 -0.1894 -1.4653  0.0035
  257MPD2    H1 3950   0.128   2.882  13.498  0.1925 -0.2912 -0.5498
  257MPD2    H2 3951   4.703   3.127  13.206 -1.7273 -2.4157 -0.5471
  257MPD2    H3 3952   4.675   2.980  13.383  0.2208 -0.0456  1.0668
  257MPD2     N 3953   0.388   2.846  13.386 -0.0272  0.4838  0.1923
  257MPD2    H5 3954   0.468   2.838  13.323  0.2057  0.2317  0.5169
  257MPD2    N1 3955   0.185   3.165  13.058 -0.2316 -0.2036  0.3379
  257MPD2    H7 3956   0.099   3.214  13.034  0.6884  2.0429  1.6576
  258TMC3    C1 3957   0.506   2.704  13.523 -0.4024  0.4654 -0.2305
  258TMC3    C2 3958   0.552   2.637  13.405 -0.2352  0.1273 -0.0750
  258TMC3    C3 3959   0.662   2.546  13.417 -0.7280  0.0002 -0.3497
  258TMC3    C4 3960   0.566   2.691  13.641 -0.6921  0.2283 -0.0160
  258TMC3    C5 3961   0.674   2.603  13.650  0.7634  0.2534  0.0149
  258TMC3    C6 3962   0.717   2.531  13.540  0.2229 -0.6665  0.3296
  258TMC3     C 3963   0.394   2.787  13.513 -0.1909  0.6174 -0.3000
  258TMC3     O 3964   0.320   2.810  13.608  0.5246 -0.2181 -0.2620
  258TMC3     H 3965   0.496   2.625  13.312 -2.1686  0.7771  1.0016
  258TMC3    H1 3966   0.532   2.736  13.733  0.7294 -0.8814  1.0536
  258TMC3    H2 3967   0.787   2.448  13.540  0.1466 -0.7268 -0.2963
  258TMC3    C7 3968   0.672   2.538  13.777  0.0552  0.1357  0.3729
  258TMC3    C8 3969   0.719   2.484  13.301  0.1634  0.0578  0.1774
  258TMC3    O1 3970   0.562   2.531  13.834 -0.1953  0.7769 -0.1132
  258TMC3    O2 3971   0.834   2.442  13.306 -0.0928  0.1037  0.2607
  259MPD2     C 3972   4.020   0.011   0.993  0.3288 -0.2901 -0.3686
  259MPD2    C1 3973   4.001   4.617   1.027  0.1819  0.6134  0.2468
  259MPD2    C2 3974   4.065   4.516   0.954  0.7344  0.0562 -0.6541
  259MPD2    C3 3975   4.153   4.546   0.857 -0.0729 -0.3266 -0.1865
  259MPD2    C4 3976   4.166   4.675   0.819 -0.1457  0.6176  0.5229
  259MPD2    C5 3977   4.094   0.040   0.885 -0.2155  0.8270  0.3625
  259MPD2     H 3978   4.072   4.418   0.999 -1.4744  0.3775  0.3770
  259MPD2    H1 3979   4.227   4.704   0.734  1.4141  2.3379  2.2476
  259MPD2    H2 3980   3.969   0.092   1.044  1.4721  1.3260 -1.7778
  259MPD2    H3 3981   4.113   0.143   0.858  0.8117  0.5722  0.1054
  259MPD2     N 3982   4.215   4.439   0.792  0.3280 -0.4659  0.1591
  259MPD2    H5 3983   4.179   4.346   0.811 -1.8437  0.4495  0.5347
  259MPD2    N1 3984   3.926   4.592   1.145  0.4529 -0.5796 -0.4708
  259MPD2    H7 3985   3.875   4.666   1.192 -1.4547 -1.5640 -1.0160
  260TMC3    C1 3986   4.389   4.325   0.685  0.1082  0.0827 -0.7720
  260TMC3    C2 3987   4.496   4.335   0.600  0.8326 -0.0253  0.0796
  260TMC3    C3 3988   4.543   4.222   0.544  0.1176 -0.1391 -0.5642
  260TMC3    C4 3989   4.323   4.207   0.710  0.2782 -0.3621 -0.5256
  260TMC3    C5 3990   4.384   4.088   0.666 -0.7668 -0.3922  0.1861
  260TMC3    C6 3991   4.499   4.099   0.587 -0.0063 -0.4738  0.2314
  260TMC3     C 3992   4.331   4.453   0.724 -0.0952 -0.3765  0.5068
  260TMC3     O 3993   4.395   4.559   0.702  0.4425 -0.6122 -0.3016
  260TMC3     H 3994   4.537   4.430   0.570 -0.9993  1.0785  1.1103
  260TMC3    H1 3995   4.240   4.204   0.780  1.0646 -0.3346  0.4055
  260TMC3    H2 3996   4.550   4.008   0.556  0.9860  0.6214 -1.3795
  260TMC3    C7 3997   4.322   3.958   0.675  0.5343  0.5163 -0.2090
  260TMC3    C8 3998   4.605   4.244   0.410  0.2287  0.4573 -0.1244
  260TMC3    O1 3999   4.386   3.864   0.630  0.0416 -0.7553  0.5022
  260TMC3    O2 4000   4.640   4.358   0.377 -0.2092 -0.0772  0.4200
  261MPD2     C 4001   0.623   3.102  12.046 -0.7250  0.0031  0.5993
  261MPD2    C1 4002   0.687   3.207  12.115  0.2192 -0.4430  0.1088
  261MPD2    C2 4003   0.694   3.328  12.047 -0.5896  0.5081 -0.0757
  261MPD2    C3 4004   0.649   3.346  11.914  0.0412 -0.6196  0.2629
  261MPD2    C4 4005   0.596   3.240  11.847  0.2237 -0.5020  0.7964
  261MPD2    C5 4006   0.570   3.130  11.922 -0.6961  0.0609  0.7824
  261MPD2     H 4007   0.733   3.410  12.106  0.1051 -0.9924  1.5572
  261MPD2    H1 4008   0.573   3.236  11.742  3.9502 -0.3856 -0.0217
  261MPD2    H2 4009   0.605   3.002  12.085 -1.7917 -0.0395 -0.0157
  261MPD2    H3 4010   0.521   3.046  11.874  2.0333 -0.0214 -1.9145
  261MPD2     N 4011   0.671   3.473  11.853 -0.0337  1.2751 -0.4465
  261MPD2    H5 4012   0.702   3.549  11.913 -0.2642  0.2270  1.0059
  261MPD2    N1 4013   0.745   3.183  12.240  0.0581 -0.1368 -0.1098
  261MPD2    H7 4014   0.804   3.264  12.258 -1.1373  0.8806 -0.7206
  262TMC3    C1 4015   0.721   3.627  11.687  0.2677 -0.5681  0.1225
  262TMC3    C2 4016   0.698   3.728  11.772  0.4220  0.4669  0.4458
  262TMC3    C3 4017   0.756   3.846  11.748  0.7225  0.3970 -0.4263
  262TMC3    C4 4018   0.805   3.648  11.583 -0.0926 -0.0667 -0.8609
  262TMC3    C5 4019   0.869   3.770  11.564  0.3731 -0.6039  0.8016
  262TMC3    C6 4020   0.842   3.877  11.645  0.0993 -0.1623  0.0175
  262TMC3     C 4021   0.686   3.490  11.719 -0.3349 -0.5527 -0.0075
  262TMC3     O 4022   0.691   3.403  11.631 -0.0211  0.2279  0.3184
  262TMC3     H 4023   0.624   3.716  11.851 -1.3205 -0.6034 -1.3296
  262TMC3    H1 4024   0.810   3.570  11.508 -1.4319 -0.3842 -0.6120
  262TMC3    H2 4025   0.883   3.976  11.633 -1.1483  0.3345 -0.1664
  262TMC3    C7 4026   0.970   3.772  11.464  0.5225  0.1904  0.5569
  262TMC3    C8 4027   0.742   3.967  11.831 -0.5923 -0.4203  0.3141
  262TMC3    O1 4028   0.978   3.667  11.398  0.5940  0.2407  0.1495
  262TMC3    O2 4029   0.755   4.076  11.783  0.4933  0.3947  0.2771
  263MPD2     C 4030   2.202   1.806  11.426 -0.0791  0.3893  0.9942
  263MPD2    C1 4031   2.247   1.931  11.459  0.4224  0.0032 -0.5343
  263MPD2    C2 4032   2.235   2.037  11.371  0.0573  0.2410  0.0952
  263MPD2    C3 4033   2.186   2.015  11.242  0.0664 -0.8500 -0.0742
  263MPD2    C4 4034   2.131   1.895  11.211  0.0114  0.1275  0.0541
  263MPD2    C5 4035   2.143   1.789  11.304  0.0152 -0.1877  0.2328
  263MPD2     H 4036   2.281   2.133  11.391  1.0098 -0.9190  3.5178
  263MPD2    H1 4037   2.072   1.877  11.122 -0.1401 -1.6387  0.5055
  263MPD2    H2 4038   2.230   1.723  11.488  1.6771  2.5887  3.1504
  263MPD2    H3 4039   2.102   1.694  11.272  3.6171 -1.8986  0.6330
  263MPD2     N 4040   2.173   2.124  11.150 -0.3225  0.1345 -0.3842
  263MPD2    H5 4041   2.185   2.215  11.193  3.2134 -0.4434 -0.1271
  263MPD2    N1 4042   2.302   1.948  11.587 -0.1595  0.7144 -0.2919
  263MPD2    H7 4043   2.327   1.865  11.640  2.2331  1.1374 -0.7946
  264TMC3    C1 4044   2.169   2.250  10.956  0.8710  0.5012 -0.1293
  264TMC3    C2 4045   2.098   2.363  11.000  0.0785 -0.5414  0.1252
  264TMC3    C3 4046   2.115   2.477  10.933 -0.1514  0.1539  0.2651
  264TMC3    C4 4047   2.253   2.257  10.847 -0.1549  0.2624  1.0683
  264TMC3    C5 4048   2.276   2.377  10.797 -0.0707  0.5395 -0.2659
  264TMC3    C6 4049   2.210   2.490  10.835  0.2578  0.8698 -0.2728
  264TMC3     C 4050   2.151   2.117  11.013 -0.3698  0.2531 -0.5389
  264TMC3     O 4051   2.149   2.021  10.939  0.3623 -0.2424  0.0201
  264TMC3     H 4052   2.013   2.337  11.062 -0.5749 -2.8212 -1.7203
  264TMC3    H1 4053   2.295   2.168  10.802 -2.1824  1.3986 -3.0247
  264TMC3    H2 4054   2.236   2.587  10.795 -0.8635  0.1687 -2.6967
  264TMC3    C7 4055   2.393   2.394  10.707 -0.0399 -0.5322  0.3901
  264TMC3    C8 4056   2.067   2.601  10.997  0.3128 -0.2761 -0.0087
  264TMC3    O1 4057   2.486   2.320  10.734 -0.0351  0.4381  0.8136
  264TMC3    O2 4058   2.075   2.702  10.927  0.2042 -0.4796 -0.0105
  265MPD2     C 4059   4.029   2.869  15.116 -0.0781 -0.3121 -0.1843
  265MPD2    C1 4060   4.131   2.963  15.139 -0.1484 -0.4893  0.6474
  265MPD2    C2 4061   4.248   2.943  15.077 -0.4019  0.0933 -1.1678
  265MPD2    C3 4062   4.271   2.839  14.986 -0.8158 -0.0344  0.8116
  265MPD2    C4 4063   4.163   2.749  14.961  0.9751 -0.6584  0.2931
  265MPD2    C5 4064   4.052   2.762  15.037 -0.5942  0.7284  0.0945
  265MPD2     H 4065   4.331   3.011  15.091  0.5434 -1.2262 -0.4213
  265MPD2    H1 4066   4.168   2.667  14.890  4.0381  0.7358 -1.1435
  265MPD2    H2 4067   3.930   2.871  15.161 -0.0321 -0.7149 -0.0626
  265MPD2    H3 4068   3.979   2.682  15.026 -0.5375  0.8346 -0.9957
  265MPD2     N 4069   4.389   2.823  14.910 -0.3761 -0.4350  0.3176
  265MPD2    H5 4070   4.384   2.736  14.858  3.2057 -0.2649 -0.3442
  265MPD2    N1 4071   4.120   3.068  15.235 -0.4431 -0.0231  0.5491
  265MPD2    H7 4072   4.200   3.121  15.266  1.2133  0.2848 -4.2167
  266TMC3    C1 4073   4.020   3.193  15.402 -0.0787  0.3927 -0.2729
  266TMC3    C2 4074   4.111   3.165  15.502  0.5258  0.4446 -0.3610
  266TMC3    C3 4075   4.070   3.179  15.633  0.4271 -0.4075 -0.3555
  266TMC3    C4 4076   3.899   3.242  15.441  0.7097 -1.3892 -0.6872
  266TMC3    C5 4077   3.857   3.255  15.570  0.4809  0.5553  0.4625
  266TMC3    C6 4078   3.947   3.222  15.667  1.1030  0.0535  0.2529
  266TMC3     C 4079   4.004   3.104  15.292  0.0426  0.0742 -0.6108
  266TMC3     O 4080   3.891   3.060  15.270  0.3189  0.3596 -0.1098
  266TMC3     H 4081   4.206   3.119  15.476  1.0016  1.6445 -0.7323
  266TMC3    H1 4082   3.824   3.258  15.364 -0.0571 -2.3505 -0.1499
  266TMC3    H2 4083   3.919   3.232  15.771 -1.5597  0.1873 -0.4756
  266TMC3    C7 4084   3.717   3.256  15.593 -0.5011 -0.2217  0.5561
  266TMC3    C8 4085   4.156   3.130  15.735  0.0797 -0.1650 -0.0428
  266TMC3    O1 4086   3.643   3.239  15.498  0.4812  0.1572 -0.0703
  266TMC3    O2 4087   4.237   3.041  15.708  0.2682 -0.4585 -0.4162
  267MPD2     C 4088   1.332   3.879   1.405  0.1475 -0.1214  0.1431
  267MPD2    C1 4089   1.393   3.797   1.301  0.6333  0.1341  0.4596
  267MPD2    C2 4090   1.309   3.723   1.219  0.1840  0.2195  0.3605
  267MPD2    C3 4091   1.174   3.746   1.219 -0.2661 -0.0288  0.0556
  267MPD2    C4 4092   1.126   3.844   1.306 -0.1888  0.0713 -0.9072
  267MPD2    C5 4093   1.205   3.898   1.403  0.0781  0.1530 -0.8439
  267MPD2     H 4094   1.344   3.656   1.142 -2.0730 -2.1391  1.3622
  267MPD2    H1 4095   1.020   3.869   1.306 -0.0288  0.8017  1.4170
  267MPD2    H2 4096   1.389   3.928   1.483  0.4444 -1.1091  0.5553
  267MPD2    H3 4097   1.167   3.971   1.473  1.4236 -2.8624  3.0344
  267MPD2     N 4098   1.091   3.685   1.122 -0.3296 -0.2080 -0.4764
  267MPD2    H5 4099   0.997   3.723   1.113 -1.2550 -2.8440 -2.0061
  267MPD2    N1 4100   1.535   3.789   1.297  0.1816  1.2408 -0.1569
  267MPD2    H7 4101   1.585   3.842   1.368 -1.4895 -1.9335  3.3828
  268TMC3    C1 4102   1.741   3.739   1.193  0.4931  0.5507 -0.2298
  268TMC3    C2 4103   1.795   3.737   1.068 -0.8478  0.0093  0.4495
  268TMC3    C3 4104   1.932   3.745   1.057 -0.1898 -0.2421 -0.2096
  268TMC3    C4 4105   1.821   3.750   1.305 -1.0595  0.6687  0.5222
  268TMC3    C5 4106   1.958   3.747   1.286 -0.5202  0.0236 -0.0023
  268TMC3    C6 4107   2.016   3.754   1.163 -0.1000  0.0811  0.1330
  268TMC3     C 4108   1.596   3.714   1.205  0.1054  0.8759 -0.1110
  268TMC3     O 4109   1.561   3.652   1.107 -0.1180 -0.3920  0.2991
  268TMC3     H 4110   1.735   3.716   0.981  2.0885 -0.8491 -1.3902
  268TMC3    H1 4111   1.784   3.731   1.405 -0.5434  1.3845  0.8486
  268TMC3    H2 4112   2.123   3.746   1.153 -0.3892 -2.5300 -0.6688
  268TMC3    C7 4113   2.054   3.782   1.387  0.1857 -0.0253 -1.1681
  268TMC3    C8 4114   1.999   3.772   0.934 -0.3676  0.0766  0.0818
  268TMC3    O1 4115   2.170   3.740   1.380  0.8030  0.5405 -0.0827
  268TMC3    O2 4116   2.096   3.848   0.951 -0.1353 -0.2385 -0.5719
  269MPD2     C 4117   2.251   3.109  15.446 -0.0206  0.3635  0.3318
  269MPD2    C1 4118   2.144   3.132  15.529 -0.5279  0.1184 -0.0838
  269MPD2    C2 4119   2.092   3.260  15.529  0.2560 -0.8011  0.8837
  269MPD2    C3 4120   2.133   3.361  15.443 -0.6507 -0.2904 -0.0323
  269MPD2    C4 4121   2.234   3.334  15.351 -0.2762  0.3855 -0.2382
  269MPD2    C5 4122   2.283   3.207  15.354  0.1661 -0.5904 -0.2219
  269MPD2     H 4123   2.014   3.282  15.602 -0.0677 -0.2507  0.3685
  269MPD2    H1 4124   2.270   3.392  15.266  0.8531  1.9546  1.3110
  269MPD2    H2 4125   2.294   3.010  15.445  1.2863  0.9148  3.4815
  269MPD2    H3 4126   2.357   3.197  15.275  1.8421  1.2206  1.1107
  269MPD2     N 4127   2.057   3.485  15.434  0.6185  0.2700  0.4596
  269MPD2    H5 4128   1.969   3.492  15.485  1.1862  2.8121  1.0635
  269MPD2    N1 4129   2.101   3.031  15.616  0.9994 -0.1095  0.6971
  269MPD2    H7 4130   2.154   2.945  15.608 -0.4999 -0.9682 -0.1545
  270TMC3    C1 4131   1.947   2.893  15.718 -0.1514  0.0572  0.7276
  270TMC3    C2 4132   1.835   2.855  15.655  0.6116 -0.0309 -0.2952
  270TMC3    C3 4133   1.836   2.742  15.580  0.5709 -0.2444 -0.6675
  270TMC3    C4 4134   2.058   2.813  15.720  0.2906  0.6291  0.0674
  270TMC3    C5 4135   2.057   2.697  15.659  0.7667  0.1578 -0.0512
  270TMC3    C6 4136   1.949   2.666  15.578 -0.1725  0.4400 -0.1639
  270TMC3     C 4137   1.978   3.030  15.678  0.3191 -0.9490  0.0660
  270TMC3     O 4138   1.886   3.112  15.684  0.3088  0.0438 -0.9570
  270TMC3     H 4139   1.751   2.923  15.659  1.4652  1.1688 -2.9962
  270TMC3    H1 4140   2.146   2.847  15.773 -0.2364  0.8779  0.7959
  270TMC3    H2 4141   1.940   2.577  15.517 -0.1788 -0.2621  0.8569
  270TMC3    C7 4142   2.179   2.668  15.598 -0.3421  0.4211  0.0252
  270TMC3    C8 4143   1.814   2.774  15.442  0.8722  0.3121 -0.7748
  270TMC3    O1 4144   2.278   2.696  15.662 -0.0254 -0.1513  1.1381
  270TMC3    O2 4145   1.896   2.744  15.361  0.3171 -0.1703 -0.2823
  271MPD2     C 4146   1.017   2.887  13.969  0.0941 -0.0738 -0.5326
  271MPD2    C1 4147   1.060   2.993  14.055  0.0652  0.4344 -0.7532
  271MPD2    C2 4148   1.014   3.122  14.033  0.3506 -0.2756  0.0681
  271MPD2    C3 4149   0.948   3.152  13.919  0.4141  0.0225 -0.1211
  271MPD2    C4 4150   0.909   3.054  13.830  0.4516  0.2588 -0.6482
  271MPD2    C5 4151   0.940   2.925  13.854  0.8577  0.3922 -0.2364
  271MPD2     H 4152   1.048   3.198  14.102 -1.4057  0.8306 -0.2706
  271MPD2    H1 4153   0.849   3.083  13.744  1.0326  0.6406 -0.9314
  271MPD2    H2 4154   1.048   2.784  13.979 -1.4492 -0.4595  0.1959
  271MPD2    H3 4155   0.907   2.844  13.789  1.1601  0.1333 -0.0704
  271MPD2     N 4156   0.906   3.289  13.889  0.0889  0.1154  0.1556
  271MPD2    H5 4157   0.850   3.285  13.804  2.1796  0.7380 -1.2542
  271MPD2    N1 4158   1.150   2.975  14.162  0.3326 -0.6282  0.3424
  271MPD2    H7 4159   1.172   3.056  14.218 -1.7261  1.1311 -1.3746
  272TMC3    C1 4160   1.332   2.879  14.285  0.2054 -0.1928  0.7878
  272TMC3    C2 4161   1.455   2.843  14.242 -0.4965  0.2059 -0.3236
  272TMC3    C3 4162   1.563   2.866  14.326  0.1332  0.1716 -0.1344
  272TMC3    C4 4163   1.310   2.935  14.407 -0.3204  0.1656  0.5507
  272TMC3    C5 4164   1.414   2.939  14.493 -0.4011  0.1034 -0.4509
  272TMC3    C6 4165   1.542   2.901  14.458  0.3040 -0.0996 -0.4243
  272TMC3     C 4166   1.227   2.861  14.180 -0.4208 -0.9290 -0.3674
  272TMC3     O 4167   1.249   2.773  14.092  0.1222  0.1036  0.4383
  272TMC3     H 4168   1.461   2.791  14.147  0.7294 -1.5448  0.7222
  272TMC3    H1 4169   1.207   2.961  14.429  0.0963  1.2086  1.2622
  272TMC3    H2 4170   1.624   2.921  14.526  0.4416 -2.5981  0.1223
  272TMC3    C7 4171   1.402   2.986  14.626 -0.2118  0.0391 -0.1280
  272TMC3    C8 4172   1.684   2.806  14.271 -0.3443  0.4128 -0.7387
  272TMC3    O1 4173   1.497   3.040  14.681  0.6510  0.0683 -0.5054
  272TMC3    O2 4174   1.734   2.842  14.164 -0.3826 -0.3476  0.1873
  273MPD2     C 4175   3.018   1.295  11.932  0.4416 -0.5318  0.8245
  273MPD2    C1 4176   3.119   1.337  11.854  0.0499 -0.3864 -0.9745
  273MPD2    C2 4177   3.113   1.297  11.723 -0.6451 -0.3589  0.2172
  273MPD2    C3 4178   3.017   1.204  11.679  0.2237  0.3951  1.1994
  273MPD2    C4 4179   2.918   1.165  11.763 -0.2820 -0.5092 -0.4059
  273MPD2    C5 4180   2.916   1.219  11.894 -0.1665  0.1415 -0.5662
  273MPD2     H 4181   3.175   1.339  11.644 -1.9405 -1.1155 -1.2185
  273MPD2    H1 4182   2.853   1.091  11.719 -2.2248  1.8884 -1.5995
  273MPD2    H2 4183   3.008   1.349  12.025  1.2149 -0.0975  0.6570
  273MPD2    H3 4184   2.832   1.199  11.959  0.1411 -0.1875 -0.2665
  273MPD2     N 4185   3.015   1.170  11.542 -0.2323 -0.6559 -0.2649
  273MPD2    H5 4186   2.926   1.136  11.508 -1.3503  0.6823  1.3356
  273MPD2    N1 4187   3.214   1.421  11.908  0.5289  0.0313  0.1102
  273MPD2    H7 4188   3.187   1.455  12.000 -6.8051 -2.9924 -0.9016
  274TMC3    C1 4189   3.092   1.224  11.322  0.1330 -0.4631 -0.5864
  274TMC3    C2 4190   2.960   1.187  11.291 -0.6362  0.4922 -0.6038
  274TMC3    C3 4191   2.887   1.284  11.221 -0.6234 -0.5898  0.2917
  274TMC3    C4 4192   3.134   1.346  11.286 -0.4428  0.1886 -0.0187
  274TMC3    C5 4193   3.040   1.442  11.243  0.9926 -0.1921  0.5403
  274TMC3    C6 4194   2.927   1.405  11.182  0.1653  1.1508 -0.4322
  274TMC3     C 4195   3.125   1.186  11.461  1.0394 -0.1682 -0.1690
  274TMC3     O 4196   3.245   1.182  11.489  0.1340  0.0135  0.1217
  274TMC3     H 4197   2.928   1.085  11.308  0.5099  0.0662 -0.9914
  274TMC3    H1 4198   3.227   1.376  11.332 -0.1935 -0.6325  0.0180
  274TMC3    H2 4199   2.845   1.474  11.163 -2.4971 -0.7681  4.0529
  274TMC3    C7 4200   3.007   1.536  11.358 -0.2749  0.8026  0.8781
  274TMC3    C8 4201   2.745   1.246  11.201 -0.4869  0.3071 -0.2034
  274TMC3    O1 4202   2.886   1.552  11.390 -0.2285 -0.1229 -0.3092
  274TMC3    O2 4203   2.706   1.144  11.256 -0.1745 -1.0299 -0.5113
  275MPD2     C 4204   2.678   4.260  14.438  0.8461 -0.3843 -0.1502
  275MPD2    C1 4205   2.645   4.174  14.534  0.2926 -0.0477 -0.7194
  275MPD2    C2 4206   2.531   4.099  14.514 -0.3284  0.2812 -0.3007
  275MPD2    C3 4207   2.446   4.132  14.407 -0.1300  1.0390  0.2058
  275MPD2    C4 4208   2.479   4.239  14.322  0.1834 -0.3067  0.6770
  275MPD2    C5 4209   2.608   4.290  14.321 -0.2580 -0.2615  0.2448
  275MPD2     H 4210   2.501   4.023  14.585 -1.1499  0.2821 -0.6483
  275MPD2    H1 4211   2.414   4.270  14.241  0.2612 -0.9694  0.3524
  275MPD2    H2 4212   2.771   4.316  14.444 -0.6957  2.0912  0.4539
  275MPD2    H3 4213   2.647   4.351  14.240 -1.3610  1.0187  0.6653
  275MPD2     N 4214   2.322   4.071  14.372  0.4152 -0.3436 -0.0690
  275MPD2    H5 4215   2.268   4.113  14.297  1.2753  0.7025 -0.1131
  275MPD2    N1 4216   2.725   4.147  14.649 -0.1338 -0.0017  0.3836
  275MPD2    H7 4217   2.694   4.071  14.708 -0.1312 -2.4994 -2.7922
  276TMC3    C1 4218   2.893   4.168  14.815 -0.0543  0.6745 -0.9630
  276TMC3    C2 4219   2.911   4.034  14.825  0.4368 -0.3036 -0.0746
  276TMC3    C3 4220   2.969   3.994  14.941 -0.7590  0.2656 -0.2572
  276TMC3    C4 4221   2.956   4.266  14.891  0.2652  0.5623  1.2109
  276TMC3    C5 4222   3.028   4.221  15.002  0.5253  0.1268 -0.4275
  276TMC3    C6 4223   3.036   4.079  15.023 -0.1590  0.2665 -0.0305
  276TMC3     C 4224   2.839   4.215  14.688 -0.8202  0.2179  0.5565
  276TMC3     O 4225   2.877   4.326  14.652  0.3534 -0.3788 -0.1089
  276TMC3     H 4226   2.868   3.957  14.762 -1.2509 -0.6300  1.4737
  276TMC3    H1 4227   2.942   4.371  14.867 -3.0588 -0.7353 -2.6901
  276TMC3    H2 4228   3.078   4.040  15.115  3.0992 -0.4606 -1.7988
  276TMC3    C7 4229   3.113   4.299  15.093 -0.2937  0.2871  0.3979
  276TMC3    C8 4230   2.982   3.853  14.957 -0.0375  0.1954  0.2054
  276TMC3    O1 4231   3.177   4.243  15.183  0.4353 -0.3098  0.0430
  276TMC3    O2 4232   3.077   3.812  15.024 -0.5129  0.3156 -0.1818
  277MPD2     C 4233   4.306   3.272  13.175 -0.9593  0.1086  0.0853
  277MPD2    C1 4234   4.197   3.320  13.245 -0.5140  0.1667 -0.0268
  277MPD2    C2 4235   4.174   3.269  13.368 -0.2430 -0.2884 -0.1509
  277MPD2    C3 4236   4.253   3.173  13.430  0.0918  0.1288  0.4108
  277MPD2    C4 4237   4.357   3.127  13.355  0.5204  0.1322 -0.1910
  277MPD2    C5 4238   4.386   3.172  13.228  0.2576 -0.1182  0.4258
  277MPD2     H 4239   4.088   3.308  13.420 -0.6357 -0.5705 -0.5843
  277MPD2    H1 4240   4.428   3.055  13.393  0.8524  0.3486 -0.3979
  277MPD2    H2 4241   4.329   3.329  13.085  0.2438 -0.8704 -0.2307
  277MPD2    H3 4242   4.466   3.140  13.164 -1.9298 -1.8549 -1.4467
  277MPD2     N 4243   4.224   3.138  13.568 -0.0703 -0.6892 -0.9321
  277MPD2    H5 4244   4.147   3.184  13.614 -0.2806 -1.7544 -0.2184
  277MPD2    N1 4245   4.123   3.426  13.192 -0.0683 -0.4144  0.4314
  277MPD2    H7 4246   4.152   3.451  13.097  0.0925 -1.8827  0.1027
  278TMC3    C1 4247   4.255   3.031  13.779 -0.1525 -0.0467 -0.1010
  278TMC3    C2 4248   4.287   2.909  13.841  0.3234 -0.5689  0.3945
  278TMC3    C3 4249   4.207   2.855  13.933 -0.0243  0.0073  0.1410
  278TMC3    C4 4250   4.139   3.097  13.813  0.1890 -0.0100  0.2356
  278TMC3    C5 4251   4.053   3.030  13.900  0.1397  0.5911  0.3573
  278TMC3    C6 4252   4.085   2.914  13.961  0.5541  0.6231  0.0927
  278TMC3     C 4253   4.283   3.032  13.630 -0.2077 -0.0006  0.0756
  278TMC3     O 4254   4.360   2.951  13.582  0.0710 -0.2374  0.2721
  278TMC3     H 4255   4.366   2.848  13.798  1.6293 -0.1943  2.2732
  278TMC3    H1 4256   4.122   3.199  13.780  3.0738  0.4165  0.1395
  278TMC3    H2 4257   4.011   2.854  14.014  0.4457 -2.6170 -3.6827
  278TMC3    C7 4258   3.936   3.109  13.934 -0.0709  0.3499  0.7431
  278TMC3    C8 4259   4.218   2.713  13.950 -1.3066 -0.3211 -0.0828
  278TMC3    O1 4260   3.936   3.220  13.894  0.1430 -0.3142  0.3963
  278TMC3    O2 4261   4.323   2.666  13.985  0.6899 -0.0288  0.5980
  279MPD2     C 4262   2.949   2.651  17.647  0.2428  0.2216  0.7774
  279MPD2    C1 4263   3.074   2.679  17.688  0.4557  0.2110  0.4052
  279MPD2    C2 4264   3.170   2.706  17.597  0.1480  0.6770 -0.1080
  279MPD2    C3 4265   3.144   2.714  17.458 -0.3100  0.2679  0.5311
  279MPD2    C4 4266   3.016   2.680  17.420 -0.7435 -0.5022 -0.2001
  279MPD2    C5 4267   2.918   2.655  17.514 -0.2384 -0.2300  0.5166
  279MPD2     H 4268   3.273   2.707  17.630 -0.8609  0.2762  3.0069
  279MPD2    H1 4269   2.989   2.682  17.316  2.2638  0.4665 -0.9741
  279MPD2    H2 4270   2.868   2.633  17.717  1.8490 -0.4940  2.4253
  279MPD2    H3 4271   2.814   2.646  17.484 -0.2279 -2.0532  1.0241
  279MPD2     N 4272   3.236   2.751  17.361 -0.2585  0.0275 -0.0452
  279MPD2    H5 4273   3.202   2.748  17.265  2.4424 -2.0184 -0.9344
  279MPD2    N1 4274   3.097   2.681   0.089  0.2450 -0.1109 -0.1555
  279MPD2    H7 4275   3.016   2.692   0.150  0.4345 -1.7816  0.3876
  280TMC3    C1 4276   3.213   2.691   0.293 -0.6957  0.2487  0.6144
  280TMC3    C2 4277   3.281   2.616   0.386  0.5884  0.1488  0.6882
  280TMC3    C3 4278   3.340   2.669   0.494  0.2353  0.0197 -0.1228
  280TMC3    C4 4279   3.189   2.823   0.323 -0.2958 -0.5295  0.6154
  280TMC3    C5 4280   3.247   2.872   0.438 -0.2138 -0.3873 -0.4975
  280TMC3    C6 4281   3.326   2.801   0.521 -0.6105  0.0662  0.1942
  280TMC3     C 4282   3.219   2.660   0.156 -0.7142 -0.7752 -0.0735
  280TMC3     O 4283   3.318   2.607   0.114  0.1161  0.4182  0.1123
  280TMC3     H 4284   3.320   2.517   0.363  2.7293  0.5990  2.3831
  280TMC3    H1 4285   3.146   2.895   0.254 -0.8323 -1.6474 -0.2064
  280TMC3    H2 4286   3.353   2.846   0.615  1.6360 -0.4362 -0.2037
  280TMC3    C7 4287   3.296   3.005   0.436 -0.1656 -0.1434 -0.2700
  280TMC3    C8 4288   3.442   2.593   0.564 -0.8511  0.2161  0.3905
  280TMC3    O1 4289   3.407   3.024   0.483 -0.6752 -0.3201  0.0754
  280TMC3    O2 4290   3.408   2.480   0.585  0.1219 -0.3058  0.4491
  281TMC3    C1 4291   1.583   3.315  13.482 -0.3216 -0.1102 -0.2208
  281TMC3    C2 4292   1.703   3.366  13.526  0.6628 -0.3654  0.6827
  281TMC3    C3 4293   1.811   3.281  13.511 -0.4323 -0.2286  0.3276
  281TMC3    C4 4294   1.561   3.197  13.434 -0.6241 -0.1850  0.5334
  281TMC3    C5 4295   1.673   3.121  13.408  1.1901 -0.6630  0.2981
  281TMC3    C6 4296   1.800   3.159  13.454 -0.2249  0.0302  0.4972
  281TMC3     C 4297   1.466   3.402  13.444  0.0868 -0.0306  0.3963
  281TMC3     O 4298   1.359   3.358  13.406 -0.0712 -0.5656  0.5768
  281TMC3     H 4299   1.710   3.463  13.574  2.5297  0.2353 -0.7956
  281TMC3    H1 4300   1.463   3.155  13.417 -0.6477 -0.2797  0.8985
  281TMC3    H2 4301   1.884   3.093  13.436 -1.5571 -0.8465 -2.6397
  281TMC3    C7 4302   1.644   2.984  13.375  0.2917 -0.0679  0.1539
  281TMC3    C8 4303   1.930   3.300  13.594  0.2040 -1.1266  0.2770
  281TMC3    O1 4304   1.530   2.969  13.336 -0.1228  0.2231 -0.1057
  281TMC3    O2 4305   1.978   3.199  13.645  0.2371 -0.1640 -0.2695
  282MPD2     C 4306   4.255   4.569  15.062  0.5130  0.2538 -0.3251
  282MPD2    C1 4307   4.158   4.655  15.109 -0.0153 -0.5308  0.1002
  282MPD2    C2 4308   4.065   4.711  15.027  0.1620 -0.1733 -0.6161
  282MPD2    C3 4309   4.065   4.686  14.890  0.1746  0.3266 -0.3780
  282MPD2    C4 4310   4.164   4.599  14.845  0.5278 -0.1041  0.1855
  282MPD2    C5 4311   4.251   4.537  14.935 -0.6528  0.5682  0.5404
  282MPD2     H 4312   3.985   0.034  15.072  1.0704  0.5312  0.0715
  282MPD2    H1 4313   4.171   4.556  14.746  1.5159 -1.9343  1.0342
  282MPD2    H2 4314   4.320   4.513  15.128  0.0552 -1.2043 -1.1222
  282MPD2    H3 4315   4.326   4.471  14.892  0.9475  2.9442 -0.3046
  282MPD2     N 4316   3.949   4.707  14.811 -0.3408 -0.1466 -0.0892
  282MPD2    H5 4317   3.873   0.030  14.848  1.3166  1.4846  0.7818
  282MPD2    N1 4318   4.149   4.677  15.246  0.1862  0.6217 -0.0323
  282MPD2    H7 4319   4.098   0.018  15.290  1.9149  0.9270  1.4562
  283TMC3    C1 4320   4.155   4.625  15.469 -0.4105  0.1998  0.2540
  283TMC3    C2 4321   4.159   0.025  15.496 -0.1461  0.0228  0.0031
  283TMC3    C3 4322   4.127   0.061  15.625  0.3805  0.4201  0.1969
  283TMC3    C4 4323   4.123   4.528  15.557  0.1399 -0.4110  0.2570
  283TMC3    C5 4324   4.079   4.573  15.673 -0.2824 -0.9640  1.0494
  283TMC3    C6 4325   4.085   4.701  15.712 -0.0260 -0.2457  0.1490
  283TMC3     C 4326   4.180   4.579  15.339 -0.0484  0.2759  0.1767
  283TMC3     O 4327   4.203   4.458  15.329  0.1738  0.6068  0.2283
  283TMC3     H 4328   4.186   0.105  15.428 -2.3904 -0.0267 -0.9542
  283TMC3    H1 4329   4.134   4.421  15.543 -2.7952 -0.2858 -3.1431
  283TMC3    H2 4330   4.071   0.001  15.814 -1.3498 -0.2343 -0.0355
  283TMC3    C7 4331   4.007   4.484  15.766  0.2517 -0.1896  0.3656
  283TMC3    C8 4332   4.173   0.183  15.685 -0.2478  0.3708 -0.3190
  283TMC3    O1 4333   3.982   4.521  15.879  0.0438  0.3049 -0.0196
  283TMC3    O2 4334   4.231   0.180  15.792  0.3116 -0.2084 -0.0212
  284MPD2     C 4335   1.963   3.848  12.468  1.5496  0.3174  0.0787
  284MPD2    C1 4336   2.062   3.895  12.382  0.5754  0.2110  1.0964
  284MPD2    C2 4337   2.190   3.902  12.434 -0.1410  0.0127 -0.0139
  284MPD2    C3 4338   2.224   3.840  12.552  0.0147  0.8012  0.3959
  284MPD2    C4 4339   2.126   3.798  12.629  0.8636  0.3636  0.0725
  284MPD2    C5 4340   1.996   3.799  12.592  0.6559 -0.0117  0.3378
  284MPD2     H 4341   2.262   3.939  12.362  1.2403 -0.1690  1.2799
  284MPD2    H1 4342   2.147   3.762  12.729  0.0937  1.6049  0.6809
  284MPD2    H2 4343   1.861   3.850  12.433  1.7272  0.8029 -0.4094
  284MPD2    H3 4344   1.923   3.764  12.664 -0.7519  2.8812  0.3260
  284MPD2     N 4345   2.357   3.823  12.590  0.4308 -0.2847  0.2555
  284MPD2    H5 4346   2.375   3.783  12.682 -0.4912  1.1762  1.0781
  284MPD2    N1 4347   2.028   3.933  12.248  0.0101 -0.0004  0.3949
  284MPD2    H7 4348   2.103   3.981  12.200  1.7396 -2.2147  0.8927
  285TMC3    C1 4349   1.929   3.926  12.037  0.1885  0.5430 -0.2426
  285TMC3    C2 4350   1.959   3.842  11.933 -0.0679 -0.4099  0.2765
  285TMC3    C3 4351   2.001   3.905  11.818 -0.1534 -0.6924 -0.6053
  285TMC3    C4 4352   1.951   4.062  12.041  0.0856 -0.1413  0.1847
  285TMC3    C5 4353   1.985   4.114  11.923  0.4965 -0.0382  0.6454
  285TMC3    C6 4354   2.028   4.045  11.811  0.1754 -0.1459  0.5149
  285TMC3     C 4355   1.926   3.876  12.174 -0.5403 -0.9317  0.3573
  285TMC3     O 4356   1.871   3.770  12.190  0.3587 -0.5092  0.5031
  285TMC3     H 4357   1.962   3.735  11.944  1.9688 -0.5939 -2.2034
  285TMC3    H1 4358   1.926   4.128  12.124 -0.4780 -1.1528  0.8248
  285TMC3    H2 4359   2.055   4.092  11.717 -2.1643 -0.3284 -0.2495
  285TMC3    C7 4360   2.021   4.253  11.914  0.1214 -0.0359 -0.8021
  285TMC3    C8 4361   2.073   3.816  11.729  0.1938 -0.2843 -0.1078
  285TMC3    O1 4362   2.134   4.288  11.897 -0.0410  0.3316 -0.1203
  285TMC3    O2 4363   2.027   3.702  11.716  0.4114  0.1885 -0.3967
  286MPD2     C 4364   2.382   1.642   0.234 -1.2412 -0.3023  0.4798
  286MPD2    C1 4365   2.420   1.626   0.369 -0.5627 -0.6308  0.6026
  286MPD2    C2 4366   2.516   1.540   0.404 -0.4143  0.1698  0.5502
  286MPD2    C3 4367   2.573   1.454   0.310 -0.5642  0.4595  0.7201
  286MPD2    C4 4368   2.543   1.475   0.179  0.2714 -0.4983  0.1955
  286MPD2    C5 4369   2.446   1.562   0.140  0.3398 -0.0350 -0.0321
  286MPD2     H 4370   2.537   1.549   0.510  2.7432 -0.4234 -0.0156
  286MPD2    H1 4371   2.578   1.396   0.113  1.2331 -0.1540  0.2891
  286MPD2    H2 4372   2.307   1.705   0.188  1.3784  1.4711 -1.3011
  286MPD2    H3 4373   2.427   1.569   0.034  1.1082  0.1334 -0.1597
  286MPD2     N 4374   2.674   1.361   0.344 -0.0096  0.2462  0.6046
  286MPD2    H5 4375   2.728   1.318   0.269 -0.6186 -0.0688  0.3381
  286MPD2    N1 4376   2.372   1.708   0.471  0.0644  0.3947  0.2064
  286MPD2    H7 4377   2.428   1.713   0.555  0.0892 -0.2404  0.2309
  287TMC3    C1 4378   2.817   1.226   0.475  0.4110 -0.3605  0.6357
  287TMC3    C2 4379   2.848   1.144   0.365  0.5822 -0.3524  0.4347
  287TMC3    C3 4380   2.962   1.064   0.368 -0.2427 -0.5962  0.1596
  287TMC3    C4 4381   2.894   1.228   0.588 -0.1483 -0.0688 -0.1092
  287TMC3    C5 4382   3.007   1.144   0.584  0.8793  0.2290  0.4660
  287TMC3    C6 4383   3.045   1.071   0.478 -0.5972  0.3134  0.1519
  287TMC3     C 4384   2.712   1.331   0.476  0.7062  0.3948  0.8902
  287TMC3     O 4385   2.670   1.373   0.582 -0.5736 -0.1745 -0.0861
  287TMC3     H 4386   2.786   1.133   0.276  0.7599 -0.5553  0.3356
  287TMC3    H1 4387   2.858   1.275   0.679 -0.6026  0.0060 -0.3295
  287TMC3    H2 4388   3.140   1.020   0.465 -1.0187 -0.3745 -0.2183
  287TMC3    C7 4389   3.102   1.172   0.691  0.1893 -0.2218  1.1094
  287TMC3    C8 4390   3.000   0.992   0.240  0.2570 -0.3293 -0.1611
  287TMC3    O1 4391   3.054   1.240   0.776 -0.5063  0.0103  0.7264
  287TMC3    O2 4392   3.037   0.875   0.239 -0.8825 -0.4924 -0.0964
  288TMC3    C1 4393   4.347   2.646  14.430 -0.2087 -0.1271 -0.3002
  288TMC3    C2 4394   4.328   2.628  14.565 -0.1421  0.5868 -0.0870
  288TMC3    C3 4395   4.309   2.501  14.611  0.4419  0.1304  0.2954
  288TMC3    C4 4396   4.343   2.540  14.343 -0.1394 -0.8408  0.3015
  288TMC3    C5 4397   4.324   2.416  14.402  0.2963 -0.3534 -0.2919
  288TMC3    C6 4398   4.299   2.393  14.531 -0.2199 -0.1744 -0.2132
  288TMC3     C 4399   4.360   2.782  14.391  0.1355  0.0610  0.8110
  288TMC3     O 4400   4.308   2.871  14.457  0.6475 -0.8662  0.3223
  288TMC3     H 4401   4.330   2.715  14.630  2.5994  1.9533 -2.0100
  288TMC3    H1 4402   4.369   2.558  14.239 -0.3034  1.2178  0.6011
  288TMC3    H2 4403   4.298   2.293  14.573 -0.0286 -0.7801 -1.6569
  288TMC3    C7 4404   4.343   2.303  14.316  0.0004  0.1119 -0.0066
  288TMC3    C8 4405   4.300   2.476  14.756  0.2234  0.4128 -0.1590
  288TMC3    O1 4406   4.316   2.190  14.354 -0.0786  0.0059 -0.3372
  288TMC3    O2 4407   4.367   2.552  14.821 -0.2368 -0.0538  0.1406
  289MPD2     C 4408   4.496   1.433  14.681 -0.0638  0.4228 -0.1064
  289MPD2    C1 4409   4.500   1.555  14.613  0.0133  0.6734  0.3556
  289MPD2    C2 4410   4.407   1.579  14.512 -0.5009  0.4022  0.7222
  289MPD2    C3 4411   4.313   1.481  14.477  0.1724  0.2471 -0.2566
  289MPD2    C4 4412   4.309   1.361  14.548 -0.0586 -0.3283  0.9220
  289MPD2    C5 4413   4.396   1.337  14.648 -0.3800  0.2746 -0.7607
  289MPD2     H 4414   4.414   1.679  14.469 -1.9159 -0.4025 -1.3926
  289MPD2    H1 4415   4.237   1.286  14.516 -0.5204  1.5872 -2.4574
  289MPD2    H2 4416   4.562   1.413  14.765 -0.2456  1.1355  0.2021
  289MPD2    H3 4417   4.394   1.251  14.713 -0.2738 -0.0701 -1.2196
  289MPD2     N 4418   4.225   1.486  14.369 -0.0466 -0.1498  0.3650
  289MPD2    H5 4419   4.171   1.409  14.332 -0.9348  1.1676 -1.1235
  289MPD2    N1 4420   4.599   1.653  14.652  0.0747 -0.2361 -0.0583
  289MPD2    H7 4421   4.664   1.628  14.725 -1.8523 -0.1562  1.6822
  290TMC3    C1 4422   4.099   1.618  14.199  0.0252 -0.8719  0.2027
  290TMC3    C2 4423   4.065   1.744  14.162  0.0320  0.1550  0.4865
  290TMC3    C3 4424   4.003   1.750  14.042  0.4841  0.7152  0.0375
  290TMC3    C4 4425   4.048   1.502  14.146  0.3321 -0.4138  0.8645
  290TMC3    C5 4426   3.978   1.518  14.033 -0.0109 -0.1816 -0.3753
  290TMC3    C6 4427   3.966   1.638  13.974 -0.3404  0.0771  0.7905
  290TMC3     C 4428   4.197   1.607  14.307 -0.1169 -0.3968  0.1790
  290TMC3     O 4429   4.230   1.719  14.349 -0.6450  0.2765  0.4776
  290TMC3     H 4430   4.113   1.834  14.198  3.1972 -1.9820  1.5821
  290TMC3    H1 4431   4.092   1.406  14.168  1.5984  0.2092  1.0793
  290TMC3    H2 4432   3.911   1.659  13.883  0.6119  0.6151  0.3373
  290TMC3    C7 4433   3.894   1.414  13.969 -0.5369 -0.7152  0.5292
  290TMC3    C8 4434   3.933   1.872  13.994 -0.7964 -0.0068  0.1936
  290TMC3    O1 4435   3.826   1.448  13.873 -0.2465 -0.0984 -0.5273
  290TMC3    O2 4436   3.902   1.878  13.874 -0.1019  0.3278  0.4352
  291MPD2     C 4437   4.394   1.147   0.274 -0.1705 -0.0531  0.4098
  291MPD2    C1 4438   4.282   1.082   0.223  0.3465  0.0399 -0.7675
  291MPD2    C2 4439   4.215   1.131   0.110 -0.1187  0.3459  0.0323
  291MPD2    C3 4440   4.257   1.248   0.051  0.0983 -0.0982 -0.2362
  291MPD2    C4 4441   4.372   1.307   0.104  0.1629 -0.2136 -0.3059
  291MPD2    C5 4442   4.439   1.254   0.206  0.3792  1.0002 -0.1463
  291MPD2     H 4443   4.126   1.079   0.076  2.1070 -1.9775 -2.3260
  291MPD2    H1 4444   4.413   1.392   0.052 -1.6406 -1.6647 -4.0472
  291MPD2    H2 4445   4.461   1.117   0.354  0.3865  0.2659  0.0631
  291MPD2    H3 4446   4.525   1.308   0.244  1.2626  0.9181 -2.0371
  291MPD2     N 4447   4.198   1.301  17.665 -0.5234 -0.2354 -0.3223
  291MPD2    H5 4448   4.216   1.400  17.651  2.3173 -0.6514  0.2778
  291MPD2    N1 4449   4.236   0.955   0.269 -0.1763 -0.4495  0.1168
  291MPD2    H7 4450   4.168   0.912   0.207  0.6952  1.2892 -2.0451
  292TMC3    C1 4451   4.186   0.785   0.410 -0.6087 -0.1800 -0.1429
  292TMC3    C2 4452   4.143   0.781   0.536 -0.7564  0.4519 -0.4885
  292TMC3    C3 4453   4.012   0.753   0.555 -0.1949 -0.0979  0.0231
  292TMC3    C4 4454   4.106   0.740   0.301 -0.9467 -0.3039 -0.7863
  292TMC3    C5 4455   3.976   0.711   0.322  0.1301 -0.0670  0.7443
  292TMC3    C6 4456   3.929   0.723   0.450 -0.6058 -1.0624 -1.2922
  292TMC3     C 4457   4.284   0.892   0.384 -0.1397  0.2950  0.5650
  292TMC3     O 4458   4.343   0.941   0.479  0.3400  0.0249  0.2425
  292TMC3     H 4459   4.206   0.822   0.614 -0.4284 -1.8124  0.4327
  292TMC3    H1 4460   4.151   0.726   0.204 -0.3118  1.2820 -0.7090
  292TMC3    H2 4461   3.828   0.686   0.462 -0.4592 -0.4313  1.8701
  292TMC3    C7 4462   3.904   0.648   0.217 -0.5860 -0.0078 -0.7573
  292TMC3    C8 4463   3.953   0.774   0.683  0.3764 -0.1651 -0.4162
  292TMC3    O1 4464   3.960   0.654   0.105 -0.1542 -0.2685  0.3292
  292TMC3    O2 4465   4.034   0.763   0.771  0.1996 -0.2720 -0.0327
  293MPD2     C 4466   0.346   3.270  12.386 -0.3932 -0.1094 -0.3106
  293MPD2    C1 4467   0.333   3.189  12.497 -0.6935  0.0765  0.3494
  293MPD2    C2 4468   0.434   3.189  12.597 -0.0730 -0.1264  0.8595
  293MPD2    C3 4469   0.536   3.283  12.593  0.3458  0.6205  0.8590
  293MPD2    C4 4470   0.545   3.364  12.479 -0.3265 -0.0033 -0.9082
  293MPD2    C5 4471   0.452   3.357  12.378 -0.0946  0.1673 -0.1847
  293MPD2     H 4472   0.422   3.132  12.689  1.5846 -0.1371  1.0654
  293MPD2    H1 4473   0.638   3.416  12.461 -1.0467  2.2318  1.8535
  293MPD2    H2 4474   0.272   3.268  12.307 -0.5124 -4.0303 -0.1179
  293MPD2    H3 4475   0.466   3.420  12.291  0.6565 -1.1814 -1.0344
  293MPD2     N 4476   0.622   3.296  12.704  0.6598 -0.1001 -0.1918
  293MPD2    H5 4477   0.600   3.239  12.785  1.0584 -2.0199 -1.4350
  293MPD2    N1 4478   0.209   3.122  12.517 -0.1565 -0.5354 -0.1843
  293MPD2    H7 4479   0.143   3.140  12.442 -2.4229  1.0560  2.1717
  294TMC3    C1 4480   0.066   2.941  12.584  0.4674 -0.0631  0.1857
  294TMC3    C2 4481   0.057   2.809  12.621  0.2675 -0.5231 -0.0092
  294TMC3    C3 4482   4.662   2.761  12.649 -0.0902  1.1441 -0.0265
  294TMC3    C4 4483   4.688   3.019  12.559 -0.5432 -0.5195 -0.2877
  294TMC3    C5 4484   4.566   2.959  12.574 -0.1899 -0.1157 -0.6303
  294TMC3    C6 4485   4.546   2.837  12.632 -0.9784 -0.0134  0.1620
  294TMC3     C 4486   0.195   3.008  12.597  0.5208  0.0158 -0.5154
  294TMC3     O 4487   0.274   2.954  12.674  0.3596  0.4974 -0.6274
  294TMC3     H 4488   0.145   2.745  12.617  1.4657  1.2343 -1.8732
  294TMC3    H1 4489   4.693   3.109  12.498  1.7435 -0.4586 -0.0095
  294TMC3    H2 4490   4.447   2.796  12.646 -0.8060  0.4616  2.8563
  294TMC3    C7 4491   4.438   3.026  12.534 -0.0012  0.0995 -0.1852
  294TMC3    C8 4492   4.638   2.622  12.637 -0.0313 -0.2629 -0.3808
  294TMC3    O1 4493   4.336   2.956  12.528 -0.0513  0.1777 -0.4064
  294TMC3    O2 4494   0.006   2.560  12.613 -0.1823  0.1339  0.0564
  295MPD2     C 4495   1.149   2.014   0.937 -0.1473 -0.1200 -0.5631
  295MPD2    C1 4496   1.069   1.903   0.910 -0.1853 -0.5837  0.0721
  295MPD2    C2 4497   1.004   1.845   1.018  0.6104  0.1869  0.3292
  295MPD2    C3 4498   1.015   1.907   1.145  0.2051  0.0700 -0.0595
  295MPD2    C4 4499   1.089   2.021   1.165 -0.7637 -0.1605  0.3163
  295MPD2    C5 4500   1.154   2.073   1.056 -0.0877 -0.1632 -0.2991
  295MPD2     H 4501   0.936   1.762   1.006  0.3298  0.4950 -0.1671
  295MPD2    H1 4502   1.088   2.074   1.259 -0.5362  0.5424 -0.0839
  295MPD2    H2 4503   1.215   2.058   0.862  0.2780 -2.3460 -1.5028
  295MPD2    H3 4504   1.218   2.160   1.065 -0.8174  0.2076  1.1860
  295MPD2     N 4505   0.928   1.864   1.249  0.0602 -0.4233  0.5310
  295MPD2    H5 4506   0.918   1.919   1.333 -2.5814 -0.6559  0.3623
  295MPD2    N1 4507   1.071   1.836   0.786  0.0578 -0.3859  0.3011
  295MPD2    H7 4508   1.018   1.752   0.770 -0.2522 -0.1498  0.0939
  296TMC3    C1 4509   0.779   1.706   1.358 -0.7590 -0.7567  0.3684
  296TMC3    C2 4510   0.668   1.779   1.345  0.6526  0.2340  0.3741
  296TMC3    C3 4511   0.558   1.730   1.399 -0.2998 -0.1095  0.5033
  296TMC3    C4 4512   0.790   1.583   1.432  0.6868  0.2559 -0.5391
  296TMC3    C5 4513   0.670   1.546   1.495 -0.2047 -0.2608 -0.5668
  296TMC3    C6 4514   0.553   1.620   1.475 -0.4049  0.7215  0.7093
  296TMC3     C 4515   0.883   1.727   1.261  0.4646  0.3174 -1.1321
  296TMC3     O 4516   0.925   1.629   1.204  0.1185 -0.0644  0.2719
  296TMC3     H 4517   0.670   1.865   1.280 -1.6356 -2.1142 -2.7728
  296TMC3    H1 4518   0.878   1.519   1.436 -0.6808 -1.7581 -2.3787
  296TMC3    H2 4519   0.456   1.589   1.510 -0.4678 -2.1486 -1.9740
  296TMC3    C7 4520   0.666   1.423   1.565 -0.6006  0.1564 -0.2413
  296TMC3    C8 4521   0.435   1.810   1.409 -0.2140  0.4474 -0.0810
  296TMC3    O1 4522   0.766   1.353   1.557 -0.4272 -0.0332  0.0475
  296TMC3    O2 4523   0.335   1.764   1.459 -0.1752  0.6485  0.4305
  297MPD2     C 4524   3.201   3.240  16.454 -0.0761 -0.1046  0.4251
  297MPD2    C1 4525   3.188   3.293  16.325 -0.0690  0.3660  0.3906
  297MPD2    C2 4526   3.274   3.392  16.286  0.2023 -0.4241 -0.1236
  297MPD2    C3 4527   3.390   3.431  16.358  0.5636 -0.1371  0.1235
  297MPD2    C4 4528   3.399   3.378  16.485  0.8197  0.2263 -0.3639
  297MPD2    C5 4529   3.310   3.289  16.526  0.4963 -0.0251 -0.2064
  297MPD2     H 4530   3.270   3.439  16.188 -0.0963 -0.7889 -0.2875
  297MPD2    H1 4531   3.486   3.405  16.544 -0.8689 -0.6183  2.5689
  297MPD2    H2 4532   3.144   3.171  16.515 -0.3581 -0.6283 -0.4293
  297MPD2    H3 4533   3.330   3.242  16.622  1.2538  1.3042  0.2870
  297MPD2     N 4534   3.479   3.531  16.312  0.3804  0.4479 -0.8522
  297MPD2    H5 4535   3.456   3.578  16.226 -2.4517 -1.9811 -1.4134
  297MPD2    N1 4536   3.076   3.264  16.236 -0.3034 -0.3094  0.5247
  297MPD2    H7 4537   3.069   3.327  16.157 -3.2563  0.6630  1.5976
  298TMC3    C1 4538   2.867   3.171  16.171 -0.3236  0.2306  0.0771
  298TMC3    C2 4539   2.883   3.205  16.043 -0.6291 -0.1648  0.3383
  298TMC3    C3 4540   2.792   3.280  15.982  0.0973 -0.1582  0.1387
  298TMC3    C4 4541   2.763   3.220  16.241 -0.3547  0.4657 -1.4500
  298TMC3    C5 4542   2.668   3.303  16.180 -0.8036 -0.1539 -0.4018
  298TMC3    C6 4543   2.694   3.347  16.055  0.4462 -0.0336 -0.2065
  298TMC3     C 4544   2.978   3.175  16.263  0.2281 -0.3385 -0.2074
  298TMC3     O 4545   2.981   3.093  16.352 -0.0914  0.1102  0.1646
  298TMC3     H 4546   2.969   3.157  15.997 -1.1884 -1.8727  1.1160
  298TMC3    H1 4547   2.751   3.194  16.346 -1.3194  0.2051 -1.6316
  298TMC3    H2 4548   2.636   3.418  15.998  0.9547  0.3857 -0.2013
  298TMC3    C7 4549   2.608   3.402  16.267  0.4615 -0.2698 -0.4903
  298TMC3    C8 4550   2.795   3.324  15.845 -0.1800  0.2334 -0.3698
  298TMC3    O1 4551   2.619   3.380  16.390 -0.9349  0.0837 -0.4446
  298TMC3    O2 4552   2.756   3.437  15.825  0.1312 -0.0811 -0.0747
  299MPD2     C 4553   3.561   2.597  10.975 -0.0789 -0.2748  0.3869
  299MPD2    C1 4554   3.549   2.712  10.899 -0.0758  0.0418 -0.7526
  299MPD2    C2 4555   3.435   2.723  10.817 -0.2144  0.1202 -0.4464
  299MPD2    C3 4556   3.344   2.622  10.805  0.1734 -0.6725 -0.3333
  299MPD2    C4 4557   3.361   2.506  10.884  0.3012  0.0674 -0.2898
  299MPD2    C5 4558   3.480   2.486  10.950  0.1229  0.7457 -0.1573
  299MPD2     H 4559   3.420   2.819  10.769 -1.0661  1.3888  2.3835
  299MPD2    H1 4560   3.293   2.423  10.871  0.5500 -0.1404 -0.2615
  299MPD2    H2 4561   3.647   2.581  11.039  2.2450  0.6758 -2.4781
  299MPD2    H3 4562   3.505   2.397  11.006 -2.1103  0.0511 -0.2879
  299MPD2     N 4563   3.224   2.625  10.734 -0.1823  0.2827  0.7152
  299MPD2    H5 4564   3.158   2.549  10.744  0.2345 -0.2052 -0.2579
  299MPD2    N1 4565   3.650   2.811  10.904 -0.2486  0.5167  0.1267
  299MPD2    H7 4566   3.721   2.795  10.976  0.8843  0.1359 -1.0688
  300TMC3    C1 4567   3.050   2.728  10.608  0.0756  0.4214  0.4128
  300TMC3    C2 4568   3.021   2.821  10.510  0.2244 -0.0666  0.7992
  300TMC3    C3 4569   2.897   2.874  10.491 -0.3337 -0.1903 -0.5007
  300TMC3    C4 4570   2.952   2.696  10.693 -0.0379 -0.5998  0.6497
  300TMC3    C5 4571   2.825   2.744  10.682 -0.0637  0.2694  0.2260
  300TMC3    C6 4572   2.799   2.837  10.582 -0.0650 -0.2033  0.1076
  300TMC3     C 4573   3.183   2.740  10.662 -0.2012 -0.1821  0.0679
  300TMC3     O 4574   3.234   2.851  10.645  0.2446  0.6182  0.8512
  300TMC3     H 4575   3.101   2.856  10.446 -3.0298  0.4226 -3.0057
  300TMC3    H1 4576   2.976   2.643  10.785 -0.5129 -0.8890  0.6075
  300TMC3    H2 4577   2.697   2.873  10.580  0.3720  1.0173 -0.1522
  300TMC3    C7 4578   2.743   2.734  10.803 -0.2396 -0.2720  0.0434
  300TMC3    C8 4579   2.896   2.999  10.410  0.4933 -0.2772 -0.1772
  300TMC3    O1 4580   2.763   2.622  10.855  0.0590 -0.4725  0.4867
  300TMC3    O2 4581   3.004   3.034  10.362 -0.0057  0.4900  0.4682
  301MPD2     C 4582   0.807   3.729   1.407  0.2859  0.6180 -0.2757
  301MPD2    C1 4583   0.754   3.708   1.279  0.1141 -0.1780  0.1916
  301MPD2    C2 4584   0.770   3.587   1.217  0.0927 -0.4340  0.1509
  301MPD2    C3 4585   0.835   3.484   1.281  0.5121  0.1718 -0.0263
  301MPD2    C4 4586   0.887   3.500   1.408 -0.0394 -0.3681  0.3700
  301MPD2    C5 4587   0.866   3.616   1.466 -0.0825  0.3553 -0.2589
  301MPD2     H 4588   0.720   3.561   1.125  0.1571 -1.2796  0.3623
  301MPD2    H1 4589   0.917   3.409   1.460 -0.1960  0.7631  2.4320
  301MPD2    H2 4590   0.808   3.821   1.465 -1.2731  0.2277  0.3525
  301MPD2    H3 4591   0.887   3.622   1.572 -1.9924 -0.0253  0.1515
  301MPD2     N 4592   0.865   3.363   1.225  0.0793  0.2992  0.0405
  301MPD2    H5 4593   0.925   3.300   1.278 -0.5340 -0.2629  0.0646
  301MPD2    N1 4594   0.672   3.809   1.216 -0.2966 -0.0552 -0.1010
  301MPD2    H7 4595   0.601   3.782   1.148 -0.3137 -1.1066  0.3355
  302TMC3    C1 4596   0.939   3.210   1.052  0.4251  0.4798  0.2091
  302TMC3    C2 4597   1.066   3.211   1.096  0.3629 -1.0460 -0.2971
  302TMC3    C3 4598   1.149   3.137   1.014  0.3960  0.3075  0.3718
  302TMC3    C4 4599   0.896   3.153   0.934  0.4173 -0.2908  0.7347
  302TMC3    C5 4600   0.982   3.075   0.864  0.3000  0.2869 -0.2887
  302TMC3    C6 4601   1.107   3.054   0.910  0.2120 -0.1794  0.2913
  302TMC3     C 4602   0.833   3.316   1.099  0.2478 -0.2010  0.3929
  302TMC3     O 4603   0.754   3.357   1.013  0.4993 -0.4304  0.3660
  302TMC3     H 4604   1.102   3.260   1.186 -2.7680  0.3720  0.1802
  302TMC3    H1 4605   0.790   3.154   0.914  0.6829 -0.4692 -0.6646
  302TMC3    H2 4606   1.183   3.002   0.852 -1.7972 -0.5997 -1.9830
  302TMC3    C7 4607   0.966   3.051   0.721  0.3536  0.1934 -0.0791
  302TMC3    C8 4608   1.284   3.117   1.068 -0.6095 -0.9180  0.3913
  302TMC3    O1 4609   1.043   2.980   0.662  0.0821  0.1046 -0.0123
  302TMC3    O2 4610   1.364   3.207   1.069  0.4594  0.2055  0.3749
  303MPD2     C 4611   1.569   2.374  10.597 -0.0544  0.4848 -0.2612
  303MPD2    C1 4612   1.496   2.486  10.584  0.3693  0.7146  0.5581
  303MPD2    C2 4613   1.455   2.535  10.464 -0.4085 -0.2996 -0.4129
  303MPD2    C3 4614   1.484   2.472  10.349 -0.0432  0.0384 -0.3119
  303MPD2    C4 4615   1.565   2.356  10.359 -0.2383  0.3994  0.3099
  303MPD2    C5 4616   1.602   2.313  10.481 -0.7316  0.0028  1.0396
  303MPD2     H 4617   1.381   2.614  10.467  2.3908  2.3809 -1.4158
  303MPD2    H1 4618   1.595   2.296  10.274 -1.1519 -1.0030  0.9699
  303MPD2    H2 4619   1.602   2.327  10.689 -0.1944 -1.0595 -1.0084
  303MPD2    H3 4620   1.661   2.222  10.477 -0.4684  0.2817 -1.2860
  303MPD2     N 4621   1.447   2.510  10.214 -0.3255  0.0093  0.4637
  303MPD2    H5 4622   1.473   2.451  10.135 -1.3711 -0.8856  0.7924
  303MPD2    N1 4623   1.445   2.542  10.706 -0.1279 -0.0628  0.7069
  303MPD2    H7 4624   1.467   2.488  10.789 -1.0454  0.5764  1.3629
  304TMC3    C1 4625   1.333   2.686  10.843  0.1036  0.2230  0.4693
  304TMC3    C2 4626   1.258   2.803  10.856  0.9223  0.1305  0.5536
  304TMC3    C3 4627   1.151   2.812  10.943  0.2426 -0.3332 -0.3643
  304TMC3    C4 4628   1.306   2.578  10.927 -0.5383 -0.3112  0.9778
  304TMC3    C5 4629   1.204   2.589  11.016  0.5071  0.2385 -0.0445
  304TMC3    C6 4630   1.128   2.703  11.028 -0.8184 -0.5616 -0.4884
  304TMC3     C 4631   1.385   2.666  10.716 -0.2820  0.0027 -0.3337
  304TMC3     O 4632   1.383   2.758  10.633 -0.0929  0.7465 -0.2626
  304TMC3     H 4633   1.286   2.892  10.800 -0.4204 -0.2790 -0.7611
  304TMC3    H1 4634   1.380   2.502  10.951 -0.6154 -0.8329 -0.3887
  304TMC3    H2 4635   1.040   2.712  11.091  0.1998 -0.6045  0.9324
  304TMC3    C7 4636   1.129   2.469  11.040  0.2485 -0.1206 -0.7424
  304TMC3    C8 4637   1.035   2.855  10.876  0.3321  0.5790 -0.3056
  304TMC3    O1 4638   1.179   2.363  11.071  0.2435 -0.4201  1.0598
  304TMC3    O2 4639   0.936   2.789  10.907 -0.0147 -0.3664 -0.5417
  305MPD2     C 4640   4.207   0.374  14.018  0.7465  0.9237 -0.6373
  305MPD2    C1 4641   4.204   0.243  14.039 -0.8987  0.5572 -0.0432
  305MPD2    C2 4642   4.203   0.162  13.922 -0.0139  0.5073 -0.9504
  305MPD2    C3 4643   4.241   0.223  13.805 -0.8497  0.1284  0.4788
  305MPD2    C4 4644   4.264   0.356  13.790  0.1086  0.3386  0.0765
  305MPD2    C5 4645   4.245   0.435  13.901  0.3033  0.0142 -0.6106
  305MPD2     H 4646   4.177   0.058  13.935 -0.1313  0.4807 -1.4128
  305MPD2    H1 4647   4.307   0.395  13.698 -0.9462  0.4898 -0.3528
  305MPD2    H2 4648   4.185   0.441  14.101  1.5812  0.0568  0.2830
  305MPD2    H3 4649   4.254   0.543  13.903  0.1909 -0.0198  1.5804
  305MPD2     N 4650   4.281   0.151  13.691 -0.3853  0.1497  0.1792
  305MPD2    H5 4651   4.319   0.200  13.611  3.1068 -2.0812  0.4779
  305MPD2    N1 4652   4.189   0.188  14.168 -0.0929  0.3133 -0.3867
  305MPD2    H7 4653   4.187   0.263  14.236 -0.0565 -0.3798  0.3738
  306TMC3    C1 4654   4.206   0.054  14.351  0.0710 -0.1117 -0.2615
  306TMC3    C2 4655   4.280   4.686  14.395 -0.1936  0.1448  0.0672
  306TMC3    C3 4656   4.332   4.685  14.521 -0.6489  0.4324 -0.6368
  306TMC3    C4 4657   4.184   0.169  14.431 -0.1528 -0.5868  0.4389
  306TMC3    C5 4658   4.237   0.164  14.552  0.4002 -0.6005 -0.4416
  306TMC3    C6 4659   4.306   0.055  14.604 -0.2114 -0.2916 -0.2168
  306TMC3     C 4660   4.179   0.057  14.206 -0.0259  0.6728 -0.1653
  306TMC3     O 4661   4.175   4.689  14.140  0.5584  0.3521  0.2553
  306TMC3     H 4662   4.300   4.600  14.331  1.6859  1.3242 -0.9374
  306TMC3    H1 4663   4.106   0.241  14.408  1.3423  1.3934  1.5568
  306TMC3    H2 4664   4.322   0.052  14.711  1.8292  0.4677 -0.4861
  306TMC3    C7 4665   4.167   0.246  14.652  0.3422 -0.1407  0.1789
  306TMC3    C8 4666   4.420   4.578  14.565 -0.0183  0.0280 -1.2068
  306TMC3    O1 4667   4.044   0.250  14.640 -0.0394  0.2325  0.1575
  306TMC3    O2 4668   4.432   4.479  14.494  0.0789 -0.1069 -0.1287
  307MPD2     C 4669   2.666   2.576   0.751 -0.1085 -0.1188  0.2138
  307MPD2    C1 4670   2.594   2.639   0.854 -0.3420  0.4530  0.7906
  307MPD2    C2 4671   2.457   2.615   0.868 -0.6326  0.6014  0.6676
  307MPD2    C3 4672   2.398   2.525   0.776 -0.1657  0.0022  0.5754
  307MPD2    C4 4673   2.472   2.463   0.677  0.4048 -0.3304 -0.5357
  307MPD2    C5 4674   2.606   2.492   0.668  0.5595  0.1290  0.4960
  307MPD2     H 4675   2.412   2.675   0.946 -1.7417  2.6700 -1.5802
  307MPD2    H1 4676   2.437   2.395   0.601 -0.1626 -0.2983 -0.2985
  307MPD2    H2 4677   2.774   2.583   0.746 -0.2327  1.3308 -0.6303
  307MPD2    H3 4678   2.665   2.437   0.596 -1.1486 -0.2847 -0.5867
  307MPD2     N 4679   2.260   2.508   0.781 -0.3116  0.1890  0.3543
  307MPD2    H5 4680   2.220   2.428   0.732  0.8665 -0.1236 -0.1083
  307MPD2    N1 4681   2.644   2.734   0.940  0.7026 -0.4309  0.9340
  307MPD2    H7 4682   2.586   2.761   1.019 -0.5512 -2.2556  0.6516
  308TMC3    C1 4683   1.855   2.402   0.760  0.2636  0.4170  0.6613
  308TMC3    C2 4684   1.773   2.472   0.842 -0.4352  0.2188 -0.6184
  308TMC3    C3 4685   1.808   2.591   0.898  0.5891  0.1398  0.2566
  308TMC3    C4 4686   1.993   2.434   0.763  0.1584  0.4051 -0.6998
  308TMC3    C5 4687   2.031   2.552   0.826  0.0511 -0.1162  0.2702
  308TMC3    C6 4688   1.935   2.637   0.889 -0.2177  0.1376  0.3321
  308TMC3     C 4689   1.806   2.387   0.621  0.3732 -0.0902  0.5772
  308TMC3     O 4690   1.882   2.332   0.543 -0.2142  0.0194  0.3159
  308TMC3     H 4691   1.674   2.434   0.865  0.2748  0.5402  3.0206
  308TMC3    H1 4692   2.060   2.375   0.702  0.5960  0.9335 -0.7356
  308TMC3    H2 4693   1.959   2.732   0.935 -1.4779  0.1121  1.0508
  308TMC3    C7 4694   2.170   2.585   0.847 -0.6080  0.6515 -0.0043
  308TMC3    C8 4695   1.697   2.684   0.873 -0.7652  0.0388 -0.5426
  308TMC3    O1 4696   2.189   2.668   0.936 -0.3017  0.0358  0.2613
  308TMC3    O2 4697   1.588   2.631   0.856  0.1784 -0.3661  0.2117
  309MPD2     C 4698   1.116   2.632  17.104  0.2804  0.1141 -0.5706
  309MPD2    C1 4699   1.087   2.738  17.023 -0.3185  0.1475  0.0323
  309MPD2    C2 4700   0.956   2.787  17.019  0.0070 -0.4767  0.6861
  309MPD2    C3 4701   0.858   2.734  17.100 -0.0143 -0.2062 -0.4936
  309MPD2    C4 4702   0.891   2.634  17.179  0.1769 -0.0886 -0.0551
  309MPD2    C5 4703   1.021   2.583  17.183 -0.0964 -0.1988 -0.4321
  309MPD2     H 4704   0.933   2.866  16.947 -1.2102 -1.4842 -0.0370
  309MPD2    H1 4705   0.814   2.588  17.240 -0.0836 -0.3000 -0.5391
  309MPD2    H2 4706   1.215   2.588  17.109  0.2077  0.1679  1.2511
  309MPD2    H3 4707   1.057   2.507  17.251  3.3108 -0.5109 -2.5881
  309MPD2     N 4708   0.720   2.775  17.103 -0.1582  0.3484  0.1467
  309MPD2    H5 4709   0.661   2.732  17.174  1.2449 -1.7876  0.0144
  309MPD2    N1 4710   1.178   2.795  16.934 -0.8513  0.5204 -0.0842
  309MPD2    H7 4711   1.124   2.852  16.868 -0.9881  0.4503 -0.0334
  310TMC3    C1 4712   1.363   2.827  16.796 -0.5332  0.0768  0.5095
  310TMC3    C2 4713   1.297   2.934  16.736 -0.0836 -0.8128  0.3293
  310TMC3    C3 4714   1.370   2.990  16.632  0.1244 -0.3152  0.5304
  310TMC3    C4 4715   1.476   2.776  16.751  0.1243  0.4382  0.5893
  310TMC3    C5 4716   1.529   2.833  16.635  0.1248  0.2898 -0.0908
  310TMC3    C6 4717   1.483   2.946  16.579  0.1173  0.0472 -0.0340
  310TMC3     C 4718   1.304   2.752  16.908 -0.4255 -0.3073 -0.1693
  310TMC3     O 4719   1.374   2.672  16.967 -0.0322 -0.3145  0.0290
  310TMC3     H 4720   1.195   2.960  16.765 -0.1558 -2.4197  1.5497
  310TMC3    H1 4721   1.508   2.678  16.785 -0.3489 -0.7030 -2.2600
  310TMC3    H2 4722   1.522   3.007  16.498  0.8930  0.1048  0.3887
  310TMC3    C7 4723   1.642   2.769  16.572  0.8955  0.0097  0.1384
  310TMC3    C8 4724   1.296   3.066  16.539 -0.2530  0.7495 -0.0379
  310TMC3    O1 4725   1.699   2.679  16.639 -0.1235  0.0065 -0.3431
  310TMC3    O2 4726   1.326   3.047  16.420  0.7106 -0.6195 -0.1707
  311MPD2     C 4727   3.307   4.518  12.730 -0.3963  0.3828 -0.1333
  311MPD2    C1 4728   3.257   4.645  12.712  0.1822 -0.0783 -0.4492
  311MPD2    C2 4729   3.129   4.677  12.755 -0.1905 -0.4168 -0.6006
  311MPD2    C3 4730   3.055   4.591  12.832  0.4529 -0.2896  0.5503
  311MPD2    C4 4731   3.105   4.466  12.859  0.4014 -0.3518 -0.0105
  311MPD2    C5 4732   3.230   4.433  12.812 -0.1736  0.8322 -0.2340
  311MPD2     H 4733   3.091   0.040  12.726 -0.7837  0.0326  1.7374
  311MPD2    H1 4734   3.060   4.394  12.928  1.1063  0.5678  1.4080
  311MPD2    H2 4735   3.404   4.489  12.692  0.3733  2.4303  0.2647
  311MPD2    H3 4736   3.268   4.334  12.837  1.0275  1.3528 -0.0159
  311MPD2     N 4737   2.927   4.636  12.861  0.1075 -0.4721 -0.0977
  311MPD2    H5 4738   2.894   4.727  12.833  0.5116 -0.3096 -0.0451
  311MPD2    N1 4739   3.339   0.007  12.644 -0.6241  0.7228 -0.8530
  311MPD2    H7 4740   3.307   0.103  12.650  1.1702  1.2639  0.2717
  312TMC3    C1 4741   2.723   4.651  12.964  0.8835 -0.0732  0.3078
  312TMC3    C2 4742   2.647   4.677  12.853 -0.0365 -0.2455  0.9809
  312TMC3    C3 4743   2.521   4.724  12.885  0.3643  0.5359 -0.0963
  312TMC3    C4 4744   2.674   4.656  13.094  0.6699 -1.0350 -0.2183
  312TMC3    C5 4745   2.562   4.722  13.115 -0.1386  0.2016  0.8457
  312TMC3    C6 4746   2.482   0.022  13.011 -0.4343 -0.0622 -0.4049
  312TMC3     C 4747   2.837   4.567  12.941 -0.2851 -0.1980  0.3231
  312TMC3     O 4748   2.849   4.472  13.017 -0.3117  0.5911  0.5348
  312TMC3     H 4749   2.664   4.653  12.748  1.7679  1.0807  0.9746
  312TMC3    H1 4750   2.734   4.623  13.178  0.0919  0.0475  0.5991
  312TMC3    H2 4751   2.380   0.056  13.028 -0.6832  0.5521 -3.1034
  312TMC3    C7 4752   2.490   4.702  13.245  0.0194 -0.1407  0.2584
  312TMC3    C8 4753   2.421   4.687  12.794  0.1301 -0.2384 -0.0330
  312TMC3    O1 4754   2.368   4.730  13.251  0.2280 -0.0798 -0.0369
  312TMC3    O2 4755   2.409   4.566  12.774  0.0408  0.0649 -0.2446
  313MPD2     C 4756   1.923   4.482  11.518  0.2831 -0.6843  0.4300
  313MPD2    C1 4757   1.947   4.436  11.389  0.0741 -0.1064  0.5395
  313MPD2    C2 4758   1.920   4.307  11.351 -0.1484  0.0578 -0.0814
  313MPD2    C3 4759   1.853   4.217  11.443  0.0923  0.3847 -0.4061
  313MPD2    C4 4760   1.823   4.269  11.566  0.9817  0.1272  0.3778
  313MPD2    C5 4761   1.861   4.397  11.606  0.6536 -0.6775 -0.2026
  313MPD2     H 4762   1.962   4.267  11.259 -0.1711 -2.7933  1.1621
  313MPD2    H1 4763   1.771   4.219  11.647  1.1676  0.0455  0.4475
  313MPD2    H2 4764   1.961   4.573  11.564 -1.6837 -0.7551  2.1833
  313MPD2    H3 4765   1.825   4.428  11.703 -0.4912 -0.6154 -0.6428
  313MPD2     N 4766   1.830   4.077  11.403  0.8716 -0.3418 -0.1987
  313MPD2    H5 4767   1.875   4.051  11.316  3.1423  2.6542  0.0782
  313MPD2    N1 4768   2.016   4.515  11.297  0.2300 -0.3259  0.0641
  313MPD2    H7 4769   2.057   4.464  11.219 -2.2965 -1.2439 -0.6489
  314TMC3    C1 4770   2.060   4.708  11.182  0.3861  0.3636  0.1510
  314TMC3    C2 4771   2.184   0.030  11.187  0.2536 -0.2515  0.3319
  314TMC3    C3 4772   2.257   0.020  11.069  0.2308 -0.3894 -0.6273
  314TMC3    C4 4773   2.007   4.655  11.072  0.0883 -0.3714 -0.2754
  314TMC3    C5 4774   2.078   4.656  10.955 -0.5236  0.6044  0.0375
  314TMC3    C6 4775   2.210   4.703  10.949 -1.2824  0.0657  0.3171
  314TMC3     C 4776   2.018   4.657  11.306 -0.1298 -0.8314 -0.3321
  314TMC3     O 4777   1.949   4.729  11.378 -0.1365 -0.1215  0.2246
  314TMC3     H 4778   2.216   0.076  11.280  0.7933  2.2802 -1.0971
  314TMC3    H1 4779   1.916   4.599  11.092  0.0296  0.1327  0.8939
  314TMC3    H2 4780   2.259   4.728  10.856  0.0899  0.4513  1.1574
  314TMC3    C7 4781   2.029   4.562  10.858 -0.2969  0.7261 -0.2028
  314TMC3    C8 4782   2.388   0.092  11.062  0.3217  0.1976 -0.8769
  314TMC3    O1 4783   1.911   4.538  10.874 -0.3648  0.1046 -0.5040
  314TMC3    O2 4784   2.424   0.110  10.947  0.0570 -0.0234  0.1602
  315MPD2     C 4785   2.272   3.235   0.269  0.3477  0.0602 -0.3782
  315MPD2    C1 4786   2.375   3.263   0.353  0.3147 -1.0447  0.3195
  315MPD2    C2 4787   2.476   3.352   0.316 -0.4322 -0.1248  0.1430
  315MPD2    C3 4788   2.467   3.432   0.205 -0.0695  0.2905 -0.5678
  315MPD2    C4 4789   2.365   3.401   0.119 -0.0805 -0.4928  0.1807
  315MPD2    C5 4790   2.269   3.301   0.146  0.0988 -0.5680  0.1161
  315MPD2     H 4791   2.553   3.370   0.390 -1.1561 -0.3280  0.9443
  315MPD2    H1 4792   2.347   3.445   0.022 -1.7109  1.0238  1.1661
  315MPD2    H2 4793   2.193   3.165   0.294 -0.1153 -0.2938 -2.8863
  315MPD2    H3 4794   2.196   3.281   0.069  0.1171 -0.5591  0.0966
  315MPD2     N 4795   2.570   3.533   0.179  0.0506  0.5833  0.2103
  315MPD2    H5 4796   2.649   3.537   0.244  0.5244 -0.2753 -0.3094
  315MPD2    N1 4797   2.405   3.187   0.475 -0.0582  0.0358  0.7009
  315MPD2    H7 4798   2.494   3.216   0.512 -0.0757 -0.4516  1.1345
  316TMC3    C1 4799   2.718   3.663   0.052 -0.2011  0.7830 -0.0273
  316TMC3    C2 4800   2.822   3.639   0.136 -0.3843  0.3131 -0.4440
  316TMC3    C3 4801   2.948   3.684   0.101  0.3818 -0.1896 -0.0255
  316TMC3    C4 4802   2.734   3.744  17.678 -0.3603 -0.2075  1.1870
  316TMC3    C5 4803   2.863   3.799  17.647  0.6292 -0.0434  0.6796
  316TMC3    C6 4804   2.971   3.767  17.726  0.2605 -1.0959 -0.1258
  316TMC3     C 4805   2.579   3.618   0.071  0.0199 -0.4266  0.3660
  316TMC3     O 4806   2.485   3.661   0.002 -0.6946  0.1932 -0.0393
  316TMC3     H 4807   2.802   3.572   0.219 -1.5994  1.5184  0.2407
  316TMC3    H1 4808   2.645   3.760  17.617  0.6571  1.2025  0.0755
  316TMC3    H2 4809   3.075   3.788  17.703  0.1428 -1.0415 -0.6250
  316TMC3    C7 4810   2.899   3.829  17.506 -0.3484 -0.5846 -0.0926
  316TMC3    C8 4811   3.066   3.647   0.180 -0.0686 -1.0356  0.0022
  316TMC3    O1 4812   3.008   3.870  17.482  0.0071 -0.4597 -0.4353
  316TMC3    O2 4813   3.159   3.722   0.184 -0.2619 -0.4602 -0.4928
  317MPD2     C 4814   4.363   1.947  13.106  0.0879 -0.7809 -0.0549
  317MPD2    C1 4815   4.415   1.822  13.074 -0.4035  0.4420 -0.4734
  317MPD2    C2 4816   4.458   1.742  13.184 -0.3873  0.3056  0.1779
  317MPD2    C3 4817   4.451   1.796  13.316  0.3834  0.1234 -0.0634
  317MPD2    C4 4818   4.399   1.925  13.346 -0.7100 -0.4923  0.4598
  317MPD2    C5 4819   4.352   1.997  13.241  0.2141  0.1823  0.1280
  317MPD2     H 4820   4.504   1.646  13.166  1.3162  0.9844  0.8661
  317MPD2    H1 4821   4.398   1.960  13.448 -1.2999 -0.1827  0.3521
  317MPD2    H2 4822   4.345   2.025  13.033 -1.0846 -0.0761  0.9976
  317MPD2    H3 4823   4.328   2.103  13.251  2.2253  0.8458 -2.0288
  317MPD2     N 4824   4.506   1.710  13.422  0.0123  0.2712  0.5603
  317MPD2    H5 4825   4.532   1.614  13.401 -3.9452  0.0997 -3.4116
  317MPD2    N1 4826   4.440   1.767  12.944  0.2065  0.0254  0.1444
  317MPD2    H7 4827   4.490   1.679  12.940 -0.4474 -0.4236  2.0005
  318TMC3    C1 4828   4.586   1.649  13.634  0.0958 -0.1434  0.2678
  318TMC3    C2 4829   4.533   1.522  13.616 -0.0009  0.2881 -0.5338
  318TMC3    C3 4830   4.595   1.425  13.680 -0.4075 -0.7396  0.0321
  318TMC3    C4 4831   4.695   1.675  13.713 -0.8665  0.6781  0.1442
  318TMC3    C5 4832   0.008   1.568  13.778 -0.1330  0.1998 -0.2838
  318TMC3    C6 4833   4.697   1.449  13.762 -0.4070  0.4202  0.4555
  318TMC3     C 4834   4.549   1.765  13.544 -0.1987  0.2273 -0.2220
  318TMC3     O 4835   4.572   1.878  13.584 -0.2482 -0.0357  0.4014
  318TMC3     H 4836   4.454   1.509  13.544 -0.0973 -2.6329  0.1086
  318TMC3    H1 4837   0.005   1.774  13.707 -0.6779  0.6340  0.8976
  318TMC3    H2 4838   0.014   1.365  13.808  0.4950  0.1287 -1.0848
  318TMC3    C7 4839   0.127   1.598  13.856  0.3804  1.0994 -0.1066
  318TMC3    C8 4840   4.542   1.289  13.674  0.7929 -0.4281  0.3251
  318TMC3    O1 4841   0.130   1.707  13.910  0.3426  0.0910 -0.4699
  318TMC3    O2 4842   4.618   1.197  13.707 -0.4939  0.2924 -0.1770
  319MPD2     C 4843   0.767   2.592  15.922  0.4912 -0.0422 -0.2371
  319MPD2    C1 4844   0.719   2.636  16.048 -0.7336 -0.3124  0.3549
  319MPD2    C2 4845   0.598   2.700  16.050  0.2619  0.1054 -0.1149
  319MPD2    C3 4846   0.516   2.714  15.944 -0.4876 -0.2887  0.5088
  319MPD2    C4 4847   0.560   2.665  15.821  0.7255 -0.5267  0.3437
  319MPD2    C5 4848   0.684   2.611  15.807 -0.2281  0.6857 -0.0741
  319MPD2     H 4849   0.576   2.737  16.150  2.2200  0.3069  0.2325
  319MPD2    H1 4850   0.492   2.676  15.738  0.5047  2.2176  0.9016
  319MPD2    H2 4851   0.868   2.555  15.911  1.6088  2.6011  0.9964
  319MPD2    H3 4852   0.716   2.587  15.707 -0.9614  0.9790 -0.3856
  319MPD2     N 4853   0.390   2.773  15.949 -0.0671  0.2294 -1.2949
  319MPD2    H5 4854   0.349   2.794  15.859 -0.4855  0.8124 -0.9700
  319MPD2    N1 4855   0.798   2.645  16.162  0.1695 -0.5307 -0.0064
  319MPD2    H7 4856   0.762   2.705  16.236  2.3063  2.2542 -1.2011
  320TMC3    C1 4857   0.194   2.867  16.050 -0.1052  0.1147 -0.2591
  320TMC3    C2 4858   0.143   2.910  15.929  0.0080  0.6950  0.3993
  320TMC3    C3 4859   0.010   2.944  15.922 -0.4061 -0.2407 -0.0001
  320TMC3    C4 4860   0.113   2.862  16.159  0.3405 -0.1190  0.4732
  320TMC3    C5 4861   4.720   2.907  16.147 -0.0003  0.6482 -0.2104
  320TMC3    C6 4862   4.658   2.937  16.030  0.3575 -0.1277  0.2064
  320TMC3     C 4863   0.320   2.802  16.063 -0.0208 -0.2620 -0.3267
  320TMC3     O 4864   0.342   2.759  16.175 -0.1874  0.0420 -0.2000
  320TMC3     H 4865   0.212   2.946  15.854 -0.8575  2.5359  0.5028
  320TMC3    H1 4866   0.153   2.835  16.256  1.6929 -0.7514 -0.2494
  320TMC3    H2 4867   4.563   2.989  16.032  0.1605 -0.4567 -0.7259
  320TMC3    C7 4868   4.651   2.940  16.270  0.0051  0.0903  0.1614
  320TMC3    C8 4869   4.697   3.033  15.815  0.0981  0.5432  0.0659
  320TMC3    O1 4870   4.629   3.059  16.270 -0.2507 -0.5352 -0.7188
  320TMC3    O2 4871   4.601   3.102  15.848 -0.2437 -0.7291  0.0154
  321TMC3    C1 4872   0.982   2.634  16.318 -0.6200 -0.1086 -0.3433
  321TMC3    C2 4873   0.891   2.652  16.418  0.2551  0.2775 -0.2999
  321TMC3    C3 4874   0.945   2.682  16.541 -0.1605 -0.2640 -0.0529
  321TMC3    C4 4875   1.116   2.644  16.335 -0.5284  0.4743  0.1566
  321TMC3    C5 4876   1.161   2.682  16.455  0.5088 -0.1865  0.9221
  321TMC3    C6 4877   1.078   2.707  16.561  1.3054 -0.4387  0.5544
  321TMC3     C 4878   0.924   2.600  16.183  0.1767 -0.1544 -0.1632
  321TMC3     O 4879   0.998   2.543  16.101  0.0905 -0.1907  0.4316
  321TMC3     H 4880   0.785   2.631  16.423  0.7393 -2.1437  0.0963
  321TMC3    H1 4881   1.179   2.622  16.250 -0.6727  0.4795  0.0480
  321TMC3    H2 4882   1.114   2.739  16.658 -3.0390  1.0718  1.6769
  321TMC3    C7 4883   1.269   2.596  16.490 -0.1107 -0.0276  0.0382
  321TMC3    C8 4884   0.897   2.603  16.657  0.1195 -0.8202  0.1809
  321TMC3    O1 4885   1.366   2.583  16.418 -0.2237  0.0130 -0.4919
  321TMC3    O2 4886   0.985   2.569  16.731  0.5383 -0.4286  0.0524
  322MPD2     C 4887   4.095   4.177  13.575  0.1307  0.2986 -0.6461
  322MPD2    C1 4888   4.123   4.108  13.690 -0.0526 -0.3169 -0.1903
  322MPD2    C2 4889   4.163   3.983  13.677 -0.1284  0.0826  0.7754
  322MPD2    C3 4890   4.170   3.918  13.547 -0.6039 -0.1553  0.5236
  322MPD2    C4 4891   4.147   3.988  13.436  0.4227 -0.7453 -0.3123
  322MPD2    C5 4892   4.118   4.121  13.450  0.1814 -0.0436 -0.1507
  322MPD2     H 4893   4.190   3.923  13.763 -0.5369 -0.7260  0.3459
  322MPD2    H1 4894   4.157   3.933  13.344 -0.5170 -4.6638  1.9306
  322MPD2    H2 4895   4.052   4.277  13.580 -2.1943 -0.6862 -0.7470
  322MPD2    H3 4896   4.098   4.181  13.362 -1.1557 -1.2299 -0.6482
  322MPD2     N 4897   4.207   3.784  13.543 -0.5930 -0.0909  0.0738
  322MPD2    H5 4898   4.222   3.740  13.633 -0.2067 -0.7502 -0.3126
  322MPD2    N1 4899   4.125   4.185  13.814  0.1662 -0.1851 -0.5525
  322MPD2    H7 4900   4.100   4.283  13.799 -0.9906 -0.6507 -1.7181
  323TMC3    C1 4901   4.165   4.213  14.048  0.7007  0.6446  0.0726
  323TMC3    C2 4902   4.239   4.326  14.015 -0.5039 -0.0183 -0.4942
  323TMC3    C3 4903   4.323   4.382  14.114  0.9471  0.1671  0.7379
  323TMC3    C4 4904   4.175   4.152  14.167  0.1967 -0.6480 -0.1032
  323TMC3    C5 4905   4.269   4.199  14.258 -0.7309 -0.3377 -0.6467
  323TMC3    C6 4906   4.336   4.315  14.238  0.4940 -0.1757  0.2916
  323TMC3     C 4907   4.138   4.124  13.937  0.4188  0.5204 -0.0711
  323TMC3     O 4908   4.158   4.006  13.959  0.4469  0.2899  0.0197
  323TMC3     H 4909   4.237   4.381  13.922  0.4169  0.3516 -0.2998
  323TMC3    H1 4910   4.125   4.063  14.204  2.4663 -0.8281  2.5615
  323TMC3    H2 4911   4.423   4.336  14.299  2.2582  1.2355 -2.7149
  323TMC3    C7 4912   4.305   4.109  14.364  0.2656  0.2624  0.3001
  323TMC3    C8 4913   4.453   4.418  14.067 -0.5970  0.0880 -0.1841
  323TMC3    O1 4914   4.277   3.988  14.363  0.3256  0.2742  0.6299
  323TMC3    O2 4915   4.547   4.349  14.104  0.7207  0.7216  0.0445
  324MPD2     C 4916   1.360   0.605  14.264 -0.5785  0.0636  0.0213
  324MPD2    C1 4917   1.394   0.718  14.202 -0.0416  0.4307  0.1176
  324MPD2    C2 4918   1.303   0.809  14.157 -0.4066 -0.0831  0.1402
  324MPD2    C3 4919   1.172   0.782  14.182  0.1799 -0.1019 -0.3824
  324MPD2    C4 4920   1.136   0.656  14.233 -0.2952  0.3839 -0.2169
  324MPD2    C5 4921   1.234   0.566  14.274 -0.2811  1.2899 -0.1280
  324MPD2     H 4922   1.344   0.900  14.116 -0.8623  0.5860  1.1622
  324MPD2    H1 4923   1.029   0.638  14.233 -0.1119 -0.6426  1.1067
  324MPD2    H2 4924   1.436   0.538  14.303  0.7513  2.1762  1.0307
  324MPD2    H3 4925   1.189   0.473  14.308  1.3163  1.7246  3.2115
  324MPD2     N 4926   1.071   0.871  14.156 -0.0308  0.2628  0.4595
  324MPD2    H5 4927   0.979   0.845  14.191 -0.2711 -0.8477 -1.0316
  324MPD2    N1 4928   1.527   0.750  14.165  0.2739 -0.2350  1.1809
  324MPD2    H7 4929   1.537   0.822  14.095  2.2548 -0.3277  1.3599
  325TMC3    C1 4930   0.962   1.051  14.074  0.3636  0.0121  0.6888
  325TMC3    C2 4931   0.873   0.971  14.011 -0.0618  0.3157  0.3447
  325TMC3    C3 4932   0.745   0.969  14.061 -0.2072  0.0270 -0.0371
  325TMC3    C4 4933   0.925   1.128  14.180 -0.7633  0.2574  0.2163
  325TMC3    C5 4934   0.791   1.142  14.209  0.3585  0.0702  0.8115
  325TMC3    C6 4935   0.699   1.062  14.152  0.1932 -0.2318  0.5701
  325TMC3     C 4936   1.087   0.993  14.097  0.6166 -0.3546  0.1788
  325TMC3     O 4937   1.184   1.054  14.053  0.2531  0.0652 -0.2503
  325TMC3     H 4938   0.919   0.894  13.949  1.7260  2.1204 -0.5559
  325TMC3    H1 4939   0.991   1.183  14.246 -1.2483  0.3659  0.6105
  325TMC3    H2 4940   0.594   1.070  14.176  0.1084  0.3623  0.0026
  325TMC3    C7 4941   0.760   1.237  14.311 -0.1690  0.2678  0.1310
  325TMC3    C8 4942   0.651   0.883  13.993 -0.0519  0.4844 -0.1398
  325TMC3    O1 4943   0.854   1.307  14.341  0.4799  0.2028 -0.3067
  325TMC3    O2 4944   0.699   0.820  13.901 -0.3422  0.4199  0.0900
  326MPD2     C 4945   2.401   1.252  11.594  0.0120  0.1228 -0.4585
  326MPD2    C1 4946   2.339   1.317  11.480  0.3134 -0.2419  0.1214
  326MPD2    C2 4947   2.394   1.430  11.428 -0.7907 -1.0654  0.0526
  326MPD2    C3 4948   2.525   1.458  11.455  0.4679 -0.5607  0.8135
  326MPD2    C4 4949   2.588   1.389  11.556  0.2057 -0.1944  0.6104
  326MPD2    C5 4950   2.529   1.292  11.628 -0.5627  0.2806  0.0360
  326MPD2     H 4951   2.334   1.475  11.350 -1.1628  0.2998  1.1355
  326MPD2    H1 4952   2.692   1.407  11.584 -0.6137 -0.1941  3.5728
  326MPD2    H2 4953   2.357   1.176  11.656  2.5192 -2.0620 -1.3586
  326MPD2    H3 4954   2.591   1.250  11.706  1.1343  0.2725 -1.3302
  326MPD2     N 4955   2.598   1.548  11.384  0.1425 -0.2430  0.0673
  326MPD2    H5 4956   2.695   1.561  11.410  0.5935  0.1928 -1.8545
  326MPD2    N1 4957   2.213   1.277  11.438 -0.2405 -0.1542 -0.4474
  326MPD2    H7 4958   2.153   1.345  11.392  1.0976  1.2324 -0.1148
  327TMC3    C1 4959   2.061   1.130  11.363 -0.0385 -0.3937  0.0608
  327TMC3    C2 4960   1.966   1.227  11.361 -0.1338 -0.4383 -0.2987
  327TMC3    C3 4961   1.911   1.243  11.233  0.1749 -0.0807  0.0322
  327TMC3    C4 4962   2.086   1.037  11.265  0.6040  1.1219  0.2542
  327TMC3    C5 4963   2.029   1.061  11.145  0.4786 -0.4533  0.0367
  327TMC3    C6 4964   1.944   1.167  11.124  0.1081 -0.4378 -0.4797
  327TMC3     C 4965   2.171   1.149  11.453  0.4990 -0.0077 -0.1940
  327TMC3     O 4966   2.240   1.045  11.469 -0.2152 -0.6309  0.0025
  327TMC3     H 4967   1.956   1.292  11.447 -1.2269  1.4159 -1.8345
  327TMC3    H1 4968   2.158   0.958  11.280  1.2170  1.7962  0.8849
  327TMC3    H2 4969   1.899   1.178  11.026 -1.3807 -0.9161  0.1410
  327TMC3    C7 4970   2.127   1.053  11.039 -0.3401  0.2348 -0.6383
  327TMC3    C8 4971   1.839   1.363  11.199  0.2290 -0.1126 -0.0010
  327TMC3    O1 4972   2.088   1.065  10.926 -0.7029  0.5087 -0.1102
  327TMC3    O2 4973   1.793   1.367  11.084  0.3135  0.7036 -0.1536
  328MPD2     C 4974   4.662   0.918  17.093 -0.2244 -0.5346  0.5029
  328MPD2    C1 4975   4.613   0.907  16.965 -0.5286 -0.6557  0.3521
  328MPD2    C2 4976   4.602   1.021  16.890 -0.6177  0.3338 -0.4225
  328MPD2    C3 4977   4.640   1.152  16.932 -0.6121  0.3931 -0.0474
  328MPD2    C4 4978   4.701   1.156  17.054 -0.0011  0.2813  0.5642
  328MPD2    C5 4979   4.703   1.045  17.135  0.3556 -0.0915  0.4172
  328MPD2     H 4980   4.559   1.005  16.792  0.9485  1.8232 -1.3428
  328MPD2    H1 4981   4.724   1.254  17.094 -1.1679  0.3588  1.0220
  328MPD2    H2 4982   4.670   0.843  17.170 -0.4392 -2.1287 -1.0301
  328MPD2    H3 4983   0.007   1.063  17.235 -1.3747 -1.2665  1.2872
  328MPD2     N 4984   4.588   1.262  16.861  0.1236 -0.0366 -0.9279
  328MPD2    H5 4985   4.615   1.356  16.889 -0.6154 -0.4427  1.1946
  328MPD2    N1 4986   4.557   0.785  16.909 -0.2853 -0.5457 -0.1853
  328MPD2    H7 4987   4.504   0.781  16.823 -0.7094 -0.1575  0.0578
  329TMC3    C1 4988   4.432   0.577  16.916  0.4554 -0.5470  0.5390
  329TMC3    C2 4989   4.318   0.652  16.905  0.0733  0.0410 -0.2615
  329TMC3    C3 4990   4.227   0.621  16.805 -0.0486  0.2585 -0.9493
  329TMC3    C4 4991   4.457   0.479  16.823  0.0835  0.1790  0.2373
  329TMC3    C5 4992   4.365   0.451  16.728  0.0764  0.0750 -0.4824
  329TMC3    C6 4993   4.251   0.523  16.718 -0.4187 -0.3796 -0.1054
  329TMC3     C 4994   4.540   0.663  16.975  0.0523  0.3240  0.5982
  329TMC3     O 4995   4.571   0.636  17.093  0.2615  0.5223 -0.0467
  329TMC3     H 4996   4.311   0.727  16.983 -0.1602 -1.3239  1.0484
  329TMC3    H1 4997   4.553   0.429  16.832  0.3247  0.5955 -0.0373
  329TMC3    H2 4998   4.181   0.512  16.636  0.7420 -1.2528 -0.9821
  329TMC3    C7 4999   4.405   0.373  16.618 -0.7418  0.1741  0.1626
  329TMC3    C8 5000   4.113   0.710  16.780  0.4735 -0.2146  0.4631
  329TMC3    O1 5001   4.499   0.304  16.651 -0.3804  0.2101  0.3972
  329TMC3    O2 5002   4.048   0.691  16.679 -0.2821 -0.5204  0.5333
  330TMC3    C1 5003   3.001   1.039   9.868 -0.5871  0.2214  0.1706
  330TMC3    C2 5004   2.976   0.958   9.753 -0.8172 -0.7379  0.0568
  330TMC3    C3 5005   3.012   0.824   9.765 -0.2350 -0.4877  0.1525
  330TMC3    C4 5006   3.055   0.988   9.982  0.5074 -0.2985  0.0424
  330TMC3    C5 5007   3.089   0.854   9.986  0.2588 -0.1286 -0.5423
  330TMC3    C6 5008   3.060   0.766   9.884  0.5495  0.2319 -0.6030
  330TMC3     C 5009   2.921   1.155   9.891 -0.3390 -0.1578 -0.5080
  330TMC3     O 5010   2.948   1.216   9.994  0.9877  0.3934  0.0845
  330TMC3     H 5011   2.940   1.005   9.662 -0.8520  0.7013  0.8157
  330TMC3    H1 5012   3.067   1.052  10.068  3.1123  0.8450 -1.1698
  330TMC3    H2 5013   3.089   0.662   9.892  1.4224  0.5084 -0.2045
  330TMC3    C7 5014   3.132   0.803  10.117 -0.3887 -0.0729  0.1544
  330TMC3    C8 5015   2.989   0.738   9.649 -0.3010 -0.8868  0.0619
  330TMC3    O1 5016   3.171   0.880  10.198 -0.0394  0.0287  0.5255
  330TMC3    O2 5017   2.984   0.790   9.544 -0.2672 -0.1475  0.0941
  331MPD2     C 5018   0.194   0.316  12.813  0.9123  0.5350 -0.3191
  331MPD2    C1 5019   0.330   0.333  12.798  0.8425 -0.1646 -0.1753
  331MPD2    C2 5020   0.395   0.231  12.732  0.0161 -0.4808 -0.2056
  331MPD2    C3 5021   0.336   0.126  12.673 -0.1741 -0.6557  0.2203
  331MPD2    C4 5022   0.205   0.108  12.700 -0.5044  0.2081  0.8394
  331MPD2    C5 5023   0.130   0.200  12.758 -1.1073  0.2775 -0.0698
  331MPD2     H 5024   0.502   0.239  12.715  0.0950 -0.0909  0.4923
  331MPD2    H1 5025   0.152   0.030  12.646  1.9168 -0.6115 -0.3633
  331MPD2    H2 5026   0.142   0.389  12.874  1.0401 -1.4296  2.1275
  331MPD2    H3 5027   0.022   0.193  12.757 -1.1182  0.4392 -0.0303
  331MPD2     N 5028   0.416   0.051  12.583  0.8567 -0.3675 -1.3806
  331MPD2    H5 5029   0.506   0.092  12.560  0.7335  0.5865 -0.1230
  331MPD2    N1 5030   0.391   0.447  12.848 -0.0084  0.1754 -0.5243
  331MPD2    H7 5031   0.336   0.527  12.876  0.4121  0.2008  0.2315
  332TMC3    C1 5032   0.514   4.613  12.489 -0.3363  0.9346  0.6871
  332TMC3    C2 5033   0.598   4.686  12.404  0.3126  0.2063  0.1316
  332TMC3    C3 5034   0.733   4.659  12.426  0.0206  0.0591 -0.6828
  332TMC3    C4 5035   0.559   4.515  12.566  0.3810 -0.0838 -0.6026
  332TMC3    C5 5036   0.692   4.489  12.580 -0.4119  0.8473 -0.5044
  332TMC3    C6 5037   0.784   4.570  12.514 -0.1218  0.4951 -0.0345
  332TMC3     C 5038   0.387   4.661  12.532 -0.3514 -0.3423  0.2567
  332TMC3     O 5039   0.294   4.592  12.565 -0.8381 -0.1115 -0.0940
  332TMC3     H 5040   0.567   0.032  12.338  0.4898 -0.2982 -0.5651
  332TMC3    H1 5041   0.500   4.459  12.638 -0.2959  0.7417 -0.5284
  332TMC3    H2 5042   0.890   4.554  12.522 -0.5010 -2.1775 -0.5418
  332TMC3    C7 5043   0.739   4.396  12.684 -0.7284 -0.6018  0.6454
  332TMC3    C8 5044   0.835   4.723  12.343 -0.3120  0.8324 -0.4880
  332TMC3    O1 5045   0.662   4.359  12.774 -0.1899 -0.0292 -0.3522
  332TMC3    O2 5046   0.946   0.008  12.394 -0.4962 -0.7516  0.2611
  333MPD2     C 5047   0.838   4.699  11.226 -0.0318 -0.7038  0.3071
  333MPD2    C1 5048   0.806   4.610  11.131  0.7700  0.6128  0.1286
  333MPD2    C2 5049   0.728   4.501  11.162  0.0624  0.8732 -0.2310
  333MPD2    C3 5050   0.684   4.486  11.292 -0.1021 -0.5203  0.2573
  333MPD2    C4 5051   0.727   4.576  11.392 -0.1605  0.1954  0.6556
  333MPD2    C5 5052   0.813   4.681  11.356  0.2274 -0.0746 -0.3588
  333MPD2     H 5053   0.700   4.430  11.085  2.0266 -2.0714  1.7763
  333MPD2    H1 5054   0.706   4.567  11.498  0.6084 -2.4049  0.5824
  333MPD2    H2 5055   0.895   0.054  11.204  0.3193 -0.5678  1.7336
  333MPD2    H3 5056   0.862   0.005  11.434 -0.2224  0.1475 -0.2455
  333MPD2     N 5057   0.631   4.360  11.335 -0.3043  0.8585 -0.1277
  333MPD2    H5 5058   0.626   4.291  11.262 -0.1920 -1.2222  1.8367
  333MPD2    N1 5059   0.870   4.634  11.001 -0.1860  0.2570  0.4996
  333MPD2    H7 5060   0.915   4.722  10.976  0.4907 -0.7262 -1.7257
  334TMC3    C1 5061   0.946   4.591  10.772  0.4294  0.8419  0.2375
  334TMC3    C2 5062   1.002   4.495  10.686 -0.0282 -0.0761 -0.3489
  334TMC3    C3 5063   1.081   4.544  10.581 -0.2712 -0.9094  0.4842
  334TMC3    C4 5064   0.947   4.725  10.746 -0.3980 -0.1948  0.1835
  334TMC3    C5 5065   1.022   0.032  10.641  0.5502  0.0220 -0.1549
  334TMC3    C6 5066   1.089   4.681  10.560  0.1429  0.2246  0.1405
  334TMC3     C 5067   0.870   4.543  10.893  0.3507  0.0257 -0.3247
  334TMC3     O 5068   0.821   4.434  10.893  0.5557 -0.4463  0.5190
  334TMC3     H 5069   1.013   4.391  10.716 -0.0868  0.1581  0.4859
  334TMC3    H1 5070   0.876   0.055  10.797 -1.3729 -0.7780 -0.4104
  334TMC3    H2 5071   1.154   4.724  10.484  1.1634 -0.7834  0.4387
  334TMC3    C7 5072   1.033   0.176  10.615  0.1507  0.5156 -0.0607
  334TMC3    C8 5073   1.181   4.448  10.530  0.7560  0.5914  0.2527
  334TMC3    O1 5074   1.022   0.261  10.706 -0.3184  0.5621 -0.1461
  334TMC3    O2 5075   1.149   4.330  10.522  0.4590 -0.1047 -0.1510
  335TMC3    C1 5076   0.390   1.280  16.962  0.4765  0.2815 -0.3865
  335TMC3    C2 5077   0.306   1.170  16.969  0.4063  0.1949  0.7602
  335TMC3    C3 5078   0.340   1.071  17.055  0.1833  0.3932  0.4711
  335TMC3    C4 5079   0.508   1.270  17.034 -0.3980 -0.3422 -0.2088
  335TMC3    C5 5080   0.532   1.164  17.116  0.2906  0.3563  0.1609
  335TMC3    C6 5081   0.446   1.067  17.134 -0.1397 -0.2759  0.7119
  335TMC3     C 5082   0.346   1.408  16.899 -0.6406  0.4756  0.3373
  335TMC3     O 5083   0.241   1.414  16.834  0.4596  0.1905 -0.3715
  335TMC3     H 5084   0.216   1.163  16.909  0.0813 -1.7539  1.4643
  335TMC3    H1 5085   0.581   1.349  17.036  1.4507 -2.0433 -0.2460
  335TMC3    H2 5086   0.476   0.971  17.174 -0.4385 -1.5930 -2.2390
  335TMC3    C7 5087   0.677   1.143  17.140 -0.9722  0.5569 -0.5503
  335TMC3    C8 5088   0.277   0.939  17.045  0.1364  0.6726  0.1128
  335TMC3    O1 5089   0.766   1.212  17.091  0.4937 -0.0575  0.3564
  335TMC3    O2 5090   0.275   0.878  17.152 -0.3286  0.1045 -0.4955
  336MPD2     C 5091   0.333   3.990  16.400 -0.5048  0.4693  0.5580
  336MPD2    C1 5092   0.286   3.952  16.276 -0.0121  0.1792 -0.1577
  336MPD2    C2 5093   0.274   3.820  16.247  0.6438 -0.9355 -0.4631
  336MPD2    C3 5094   0.327   3.716  16.334  0.1302  0.5849  0.5957
  336MPD2    C4 5095   0.379   3.761  16.451 -0.3765 -0.3350 -0.5602
  336MPD2    C5 5096   0.367   3.890  16.487 -0.5455  0.1126 -0.7001
  336MPD2     H 5097   0.230   3.795  16.151 -0.6546  0.3795 -0.2025
  336MPD2    H1 5098   0.408   3.699  16.535  1.6074 -2.2105 -2.6331
  336MPD2    H2 5099   0.335   4.094  16.428 -2.0243  1.2641 -2.2946
  336MPD2    H3 5100   0.398   3.924  16.585  0.5373  1.1985 -1.4221
  336MPD2     N 5101   0.330   3.577  16.309  0.2702  0.8179  0.0154
  336MPD2    H5 5102   0.368   3.523  16.386  0.5985  1.8062  0.5533
  336MPD2    N1 5103   0.243   4.042  16.165  0.0760 -0.2094  0.2612
  336MPD2    H7 5104   0.222   3.998  16.076 -2.4304 -2.8705  2.1548
  337TMC3    C1 5105   0.148   4.223  16.058 -0.6438 -0.1789  1.4047
  337TMC3    C2 5106   0.045   4.145  16.016  0.4851 -0.0035  1.0297
  337TMC3    C3 5107   4.706   4.196  15.910  0.0828 -0.5923 -0.1482
  337TMC3    C4 5108   0.180   4.343  16.005 -0.0949 -0.0965 -0.0176
  337TMC3    C5 5109   0.110   4.386  15.897  0.3250  0.0767 -0.1946
  337TMC3    C6 5110   0.003   4.318  15.845 -0.0042 -0.9257 -0.0981
  337TMC3     C 5111   0.223   4.174  16.176 -0.1350 -0.4753 -0.0375
  337TMC3     O 5112   0.258   4.250  16.266 -0.2834  0.1004 -0.2967
  337TMC3     H 5113   0.006   4.065  16.079  0.1564  0.2396  1.1367
  337TMC3    H1 5114   0.251   4.402  16.063 -0.9536  1.0715 -0.1521
  337TMC3    H2 5115   4.664   4.366  15.781 -2.4889 -3.3953  0.9160
  337TMC3    C7 5116   0.139   4.520  15.850  0.4275 -0.6974 -0.2796
  337TMC3    C8 5117   4.571   4.140  15.901 -0.4659  0.3604  0.5928
  337TMC3    O1 5118   0.209   4.582  15.929 -0.1167  0.1086  0.0499
  337TMC3    O2 5119   4.516   4.090  16.002  0.1606  0.2191 -0.2117
  338MPD2     C 5120   0.784   2.779   0.888  0.6331  0.3240  0.4923
  338MPD2    C1 5121   0.709   2.805   0.773  0.4149 -0.6288  0.0932
  338MPD2    C2 5122   0.587   2.865   0.795 -0.2377  0.5296  0.3282
  338MPD2    C3 5123   0.544   2.891   0.927 -0.0593 -0.6837  0.2696
  338MPD2    C4 5124   0.625   2.862   1.035 -0.8675  0.6793  0.3898
  338MPD2    C5 5125   0.744   2.801   1.011 -0.3924 -0.1186  0.2363
  338MPD2     H 5126   0.525   2.900   0.713  1.3345 -0.3044 -1.2407
  338MPD2    H1 5127   0.589   2.877   1.136 -0.9917  1.7956  0.1868
  338MPD2    H2 5128   0.889   2.752   0.881  0.3778 -0.2110 -1.3623
  338MPD2    H3 5129   0.813   2.784   1.092  0.2586  2.3685  0.1964
  338MPD2     N 5130   0.414   2.952   0.939 -0.1476 -0.0179  0.2227
  338MPD2    H5 5131   0.362   2.978   0.856 -1.2384 -1.9785  0.2940
  338MPD2    N1 5132   0.754   2.776   0.638 -0.4087 -0.6088 -0.3249
  338MPD2    H7 5133   0.700   2.809   0.558 -0.3742  0.5932  0.1575
  339TMC3    C1 5134   0.209   3.019   1.028 -0.1852  0.2197 -0.5221
  339TMC3    C2 5135   0.146   3.091   1.126  0.0172  0.2231  0.2333
  339TMC3    C3 5136   0.033   3.155   1.092 -0.1535 -0.1227 -0.7867
  339TMC3    C4 5137   0.162   3.019   0.898 -0.2092 -0.3428  0.4784
  339TMC3    C5 5138   0.042   3.079   0.877  0.0936 -0.1380  0.6804
  339TMC3    C6 5139   4.709   3.151   0.970  0.0978 -0.4750  0.2161
  339TMC3     C 5140   0.348   2.965   1.055  0.1535 -0.1729 -0.1314
  339TMC3     O 5141   0.378   2.935   1.168  0.2023 -0.1647 -0.3576
  339TMC3     H 5142   0.189   3.090   1.225  0.5956  2.4887  0.0214
  339TMC3    H1 5143   0.214   2.976   0.813 -1.4894 -1.0297  0.0523
  339TMC3    H2 5144   4.621   3.207   0.941  0.4025 -0.3982 -0.5416
  339TMC3    C7 5145   0.001   3.101   0.736 -0.1618  0.0154  0.4026
  339TMC3    C8 5146   4.674   3.178   1.204  0.8365  0.4283  0.8596
  339TMC3    O1 5147   4.665   3.198   0.701 -0.1437 -0.0855 -0.5003
  339TMC3    O2 5148   4.722   3.212   1.314  0.4343 -0.5545  0.6505
  340MPD2     C 5149   0.930   1.338  10.102 -0.4802  0.2250  0.2003
  340MPD2    C1 5150   1.035   1.285  10.029 -0.9286 -0.3010  0.5439
  340MPD2    C2 5151   1.156   1.267  10.087  0.0920 -0.2208  0.5274
  340MPD2    C3 5152   1.167   1.297  10.224  0.1107  0.3277 -0.2069
  340MPD2    C4 5153   1.065   1.351  10.298  0.0733 -0.6124  0.1787
  340MPD2    C5 5154   0.944   1.370  10.235  0.2773  0.0090 -0.4830
  340MPD2     H 5155   1.235   1.220  10.030 -0.0247  1.5065 -1.0579
  340MPD2    H1 5156   1.071   1.374  10.403  1.8020 -2.3381  0.4534
  340MPD2    H2 5157   0.830   1.351  10.062 -0.8935 -0.1063  1.1112
  340MPD2    H3 5158   0.864   1.404  10.299  0.0404 -0.9916 -0.2457
  340MPD2     N 5159   1.284   1.270  10.297 -0.2286 -0.0335  0.4644
  340MPD2    H5 5160   1.273   1.282  10.397  0.5965  0.2285  0.5290
  340MPD2    N1 5161   1.010   1.246   9.887 -0.1084 -0.0414  0.0516
  340MPD2    H7 5162   0.917   1.234   9.847 -0.9775  0.9771  1.7581
  341TMC3    C1 5163   1.040   1.118   9.690  0.7776 -0.0152  0.2893
  341TMC3    C2 5164   0.944   1.024   9.712  1.1110  0.6246  0.5115
  341TMC3    C3 5165   0.925   0.923   9.624 -0.1560  0.7543 -0.0262
  341TMC3    C4 5166   1.113   1.112   9.574 -1.0766 -0.0768 -0.5605
  341TMC3    C5 5167   1.103   1.001   9.491  0.0099 -0.4425  0.1489
  341TMC3    C6 5168   1.009   0.909   9.517 -0.4582  0.6162  0.2186
  341TMC3     C 5169   1.100   1.186   9.801 -0.0790  0.5563 -0.1360
  341TMC3     O 5170   1.225   1.186   9.801  0.1175 -0.2924 -0.7260
  341TMC3     H 5171   0.893   1.032   9.808 -2.2873 -0.2352 -1.2329
  341TMC3    H1 5172   1.199   1.176   9.557 -0.6396 -0.2860  0.8989
  341TMC3    H2 5173   0.991   0.828   9.447 -0.1350  0.7821 -0.0537
  341TMC3    C7 5174   1.202   0.978   9.390 -0.4222 -0.1336  0.8387
  341TMC3    C8 5175   0.828   0.829   9.662  0.4619  0.4297  0.0870
  341TMC3    O1 5176   1.267   1.077   9.353  0.6238  0.1445  0.1744
  341TMC3    O2 5177   0.754   0.851   9.761 -0.2644 -0.2984 -0.0167
  342MPD2     C 5178   3.619   4.315  17.606  0.0775  0.3064 -0.5843
  342MPD2    C1 5179   3.657   4.308  17.471 -0.0940 -0.7500 -0.2020
  342MPD2    C2 5180   3.671   4.424  17.399  0.6968  0.1514 -0.3684
  342MPD2    C3 5181   3.636   4.544  17.458 -0.0252  0.9596 -0.1068
  342MPD2    C4 5182   3.578   4.552  17.584  0.7597  0.2096  0.7689
  342MPD2    C5 5183   3.574   4.435  17.654  0.3788 -0.1738 -0.0611
  342MPD2     H 5184   3.707   4.406  17.298  2.4545 -1.8277  0.5968
  342MPD2    H1 5185   3.559   4.640  17.644 -0.3832  0.8914 -0.6006
  342MPD2    H2 5186   3.615   4.234  17.678  1.9909  0.9346  0.2154
  342MPD2    H3 5187   3.541   4.433   0.021  0.7016  2.2895  0.0888
  342MPD2     N 5188   3.643   4.670  17.383  0.1940  0.2630  0.3370
  342MPD2    H5 5189   3.633   0.019  17.440  3.0160  0.1482  0.9874
  342MPD2    N1 5190   3.670   4.189  17.400 -0.0811  0.5502  0.0255
  342MPD2    H7 5191   3.684   4.202  17.300 -0.1933 -2.4848 -0.4064
  343TMC3    C1 5192   3.677   3.964  17.342  0.1935  0.1470  0.7037
  343TMC3    C2 5193   3.747   3.988  17.226 -0.7559 -0.0067  0.5102
  343TMC3    C3 5194   3.759   3.878  17.150  0.1821  0.2519  0.0721
  343TMC3    C4 5195   3.632   3.840  17.392  0.6142  0.3407  0.0008
  343TMC3    C5 5196   3.666   3.730  17.316 -0.6640  0.2502  0.2533
  343TMC3    C6 5197   3.722   3.749  17.193 -0.7470 -1.2266 -0.0542
  343TMC3     C 5198   3.666   4.064  17.446  0.0260 -0.3472 -0.6051
  343TMC3     O 5199   3.661   4.027  17.567 -0.4840 -0.0479  0.4130
  343TMC3     H 5200   3.765   4.088  17.189  0.3469  0.7375  3.0729
  343TMC3    H1 5201   3.564   3.836  17.476  1.2981 -3.5522  0.3652
  343TMC3    H2 5202   3.712   3.672  17.117  0.1217 -1.3678 -0.0305
  343TMC3    C7 5203   3.623   3.596  17.360  0.0724 -0.2109  0.3675
  343TMC3    C8 5204   3.818   3.890  17.014 -0.1632 -0.2714  0.0409
  343TMC3    O1 5205   3.582   3.520  17.271 -0.1674 -0.4305  0.4104
  343TMC3    O2 5206   3.789   3.993  16.953 -0.2780  0.2924 -0.5998
  344MPD2     C 5207   3.551   3.481  10.563 -0.1744 -0.5877  0.4581
  344MPD2    C1 5208   3.681   3.489  10.615 -0.8284  1.0012  0.2424
  344MPD2    C2 5209   3.753   3.613  10.603 -0.2866 -0.5495  0.4254
  344MPD2    C3 5210   3.690   3.718  10.530 -0.7483 -0.4065  0.3720
  344MPD2    C4 5211   3.569   3.698  10.473 -0.4670 -0.0664 -0.0046
  344MPD2    C5 5212   3.507   3.581  10.479  0.3160 -0.1004 -0.0706
  344MPD2     H 5213   3.845   3.621  10.660 -0.4832 -1.8205  0.9208
  344MPD2    H1 5214   3.531   3.783  10.417 -0.3567  1.0115  1.5382
  344MPD2    H2 5215   3.490   3.394  10.582 -0.7954 -0.7111 -2.1234
  344MPD2    H3 5216   3.420   3.562  10.417 -0.8037 -1.0588  1.7935
  344MPD2     N 5217   3.752   3.840  10.501 -0.2713  0.2078  0.2027
  344MPD2    H5 5218   3.709   3.908  10.439 -0.9113 -1.4252 -1.1153
  344MPD2    N1 5219   3.728   3.375  10.683 -0.3125 -0.0363  0.2623
  344MPD2    H7 5220   3.662   3.301  10.704 -0.8100  0.2041 -0.4508
  345TMC3    C1 5221   3.913   4.007  10.480 -0.0842 -0.3123 -0.3450
  345TMC3    C2 5222   3.955   4.086  10.588 -0.4866  0.6444  0.6214
  345TMC3    C3 5223   3.946   4.222  10.569 -0.3132  0.1387 -0.2059
  345TMC3    C4 5224   3.885   4.056  10.357  0.4767 -1.0585 -0.0526
  345TMC3    C5 5225   3.909   4.189  10.342  0.3448 -0.4626  0.3306
  345TMC3    C6 5226   3.934   4.278  10.444  0.5677  0.3318  0.3331
  345TMC3     C 5227   3.881   3.868  10.525  0.7617 -0.0844  0.1454
  345TMC3     O 5228   3.965   3.818  10.599 -0.1954  0.2664  0.3598
  345TMC3     H 5229   3.994   4.046  10.681 -0.1109 -1.2530 -0.3616
  345TMC3    H1 5230   3.857   3.993  10.273 -0.3324 -1.6731  0.6771
  345TMC3    H2 5231   3.900   4.381  10.445 -0.3424  0.0415 -0.5250
  345TMC3    C7 5232   3.918   4.237  10.208  0.6944  0.2218  0.0842
  345TMC3    C8 5233   4.028   4.305  10.649  0.2378  0.0491 -0.4230
  345TMC3    O1 5234   3.866   4.167  10.121 -0.0067 -0.3096  0.2716
  345TMC3    O2 5235   4.104   4.383  10.592 -0.1417  0.2188  0.0038
  346MPD2     C 5236   4.118   0.939  14.471 -0.2363 -1.0016  0.0538
  346MPD2    C1 5237   4.237   0.915  14.410 -0.2015  0.1632 -0.1099
  346MPD2    C2 5238   4.358   0.944  14.471  0.0631 -0.5740  0.3291
  346MPD2    C3 5239   4.357   0.986  14.609 -0.2728  0.9778 -0.8028
  346MPD2    C4 5240   4.237   1.019  14.665 -0.0249 -0.1807 -0.3311
  346MPD2    C5 5241   4.120   0.985  14.598  0.3400  0.2202 -0.5350
  346MPD2     H 5242   4.450   0.918  14.419  0.1264  1.2844 -0.4859
  346MPD2    H1 5243   4.237   1.064  14.763 -3.7381  0.1372 -0.4891
  346MPD2    H2 5244   4.026   0.901  14.429  0.3522 -2.3596 -0.0191
  346MPD2    H3 5245   4.027   0.984  14.653 -0.6189 -3.6704 -2.3079
  346MPD2     N 5246   4.486   1.004  14.673 -0.4279 -0.2568  0.2553
  346MPD2    H5 5247   4.567   0.982  14.616 -0.9254  0.4482 -0.7180
  346MPD2    N1 5248   4.252   0.871  14.277  1.1611 -0.5785 -0.5380
  346MPD2    H7 5249   4.350   0.865  14.250  0.7077 -0.3616 -2.1863
  347TMC3    C1 5250   4.639   1.071  14.845 -1.0689  0.0644  0.3430
  347TMC3    C2 5251   4.719   1.119  14.745  0.3263 -0.0766 -0.0883
  347TMC3    C3 5252   0.106   1.172  14.790  0.1330  0.6921 -0.5062
  347TMC3    C4 5253   4.665   1.099  14.973 -0.4945 -0.1382  0.0439
  347TMC3    C5 5254   0.050   1.147  15.013  0.3076  0.1573 -0.2228
  347TMC3    C6 5255   0.141   1.185  14.921 -1.0344  0.6345 -0.2367
  347TMC3     C 5256   4.509   1.022  14.811 -0.8464 -0.5403 -0.4126
  347TMC3     O 5257   4.424   1.025  14.896 -0.3101  0.0558 -0.0879
  347TMC3     H 5258   4.731   1.081  14.644 -3.4386  1.1944 -1.0133
  347TMC3    H1 5259   4.591   1.067  15.045 -1.5603 -1.5473 -1.6879
  347TMC3    H2 5260   0.239   1.211  14.959 -0.5667 -1.0600 -0.2798
  347TMC3    C7 5261   0.066   1.192  15.152  0.4988  0.1305 -0.5359
  347TMC3    C8 5262   0.201   1.192  14.685  0.6771 -0.9110  0.3836
  347TMC3    O1 5263   4.695   1.212  15.211 -0.8044  0.5440  0.1403
  347TMC3    O2 5264   0.193   1.126  14.585 -0.4391 -0.2187  0.4436
  348MPD2     C 5265   3.592   0.429  11.998 -0.4414  0.4514  0.4415
  348MPD2    C1 5266   3.472   0.463  11.939 -0.2588  0.2603  0.5178
  348MPD2    C2 5267   3.474   0.521  11.815  0.1567  0.1457 -1.0880
  348MPD2    C3 5268   3.595   0.549  11.752  0.0676 -0.2870 -0.0974
  348MPD2    C4 5269   3.714   0.521  11.806 -0.2768  0.0135 -0.2011
  348MPD2    C5 5270   3.710   0.457  11.928  0.5617 -0.0545  0.6699
  348MPD2     H 5271   3.380   0.537  11.765 -0.2592 -2.6635 -1.2185
  348MPD2    H1 5272   3.807   0.555  11.761  0.1812 -0.6899  0.2025
  348MPD2    H2 5273   3.607   0.373  12.090  0.1379  1.7163  1.1159
  348MPD2    H3 5274   3.792   0.413  11.982  0.3473  0.5224  1.4628
  348MPD2     N 5275   3.590   0.598  11.618 -0.1268 -0.3573 -0.1913
  348MPD2    H5 5276   3.495   0.610  11.586 -0.1805 -1.1997 -0.3658
  348MPD2    N1 5277   3.351   0.428  11.997  0.1085 -0.1853 -0.2157
  348MPD2    H7 5278   3.273   0.431  11.931  2.4794 -1.4389 -3.0555
  349TMC3    C1 5279   3.212   0.298  12.135  0.1870 -0.4738  0.0849
  349TMC3    C2 5280   3.235   0.184  12.216 -0.3896 -0.2939  0.5171
  349TMC3    C3 5281   3.170   0.063  12.187 -0.4762 -0.1919  0.5120
  349TMC3    C4 5282   3.127   0.287  12.030  0.3139  0.1148  0.0686
  349TMC3    C5 5283   3.055   0.163  12.007  0.2158 -0.1422  0.0997
  349TMC3    C6 5284   3.077   0.051  12.081  0.3441  0.8870 -0.8186
  349TMC3     C 5285   3.332   0.383  12.127 -0.1510 -0.1336 -0.0688
  349TMC3     O 5286   3.415   0.385  12.221 -0.2672  0.2504  0.3595
  349TMC3     H 5287   3.321   0.190  12.282 -2.3661 -0.0843  3.0244
  349TMC3    H1 5288   3.095   0.378  11.980  1.0679 -0.0013 -0.6292
  349TMC3    H2 5289   3.035   4.692  12.045  1.9316 -0.5518  1.0779
  349TMC3    C7 5290   2.955   0.157  11.898 -0.0785 -0.1505 -0.2321
  349TMC3    C8 5291   3.241   4.685  12.247  0.1296  0.0129  0.5622
  349TMC3    O1 5292   2.862   0.075  11.904 -0.2944  0.6278 -0.0578
  349TMC3    O2 5293   3.351   4.700  12.284  0.5361  0.1809 -0.4605
  350MPD2     C 5294   2.279   3.674  10.717  0.0395  0.3656 -0.6893
  350MPD2    C1 5295   2.154   3.616  10.696 -0.1951 -0.0017 -0.3622
  350MPD2    C2 5296   2.063   3.627  10.801 -0.1827  0.2394  0.9466
  350MPD2    C3 5297   2.087   3.700  10.913 -0.1207 -0.4574 -0.0186
  350MPD2    C4 5298   2.215   3.752  10.932  0.5547  0.4280 -0.8805
  350MPD2    C5 5299   2.314   3.740  10.834  0.1877  0.3015  0.3601
  350MPD2     H 5300   1.964   3.585  10.786  0.8261 -1.5019 -0.7371
  350MPD2    H1 5301   2.242   3.776  11.034  0.7605  2.2918 -1.3861
  350MPD2    H2 5302   2.361   3.666  10.647  0.2737  2.8662 -0.6940
  350MPD2    H3 5303   2.414   3.780  10.849  0.2983  0.3345 -0.4461
  350MPD2     N 5304   1.980   3.700  11.013  0.2814 -0.2990  0.1826
  350MPD2    H5 5305   1.899   3.641  10.997  1.0376 -1.6915  1.5342
  350MPD2    N1 5306   2.109   3.536  10.583  0.1566 -0.4121  0.3010
  350MPD2    H7 5307   2.013   3.504  10.592  1.2116 -3.6852 -0.0656
  351TMC3    C1 5308   2.112   3.449  10.366 -0.0421  0.7041 -0.4184
  351TMC3    C2 5309   2.183   3.355  10.291  0.2539  0.6817 -0.4060
  351TMC3    C3 5310   2.110   3.248  10.243 -0.1001 -0.5268 -0.7967
  351TMC3    C4 5311   1.978   3.443  10.381 -0.5413 -0.2613  0.0187
  351TMC3    C5 5312   1.909   3.346  10.312  0.7058 -0.6111  0.2247
  351TMC3    C6 5313   1.976   3.243  10.248 -0.0638  1.0064 -0.4430
  351TMC3     C 5314   2.186   3.519  10.464  0.7680 -0.2237 -0.0530
  351TMC3     O 5315   2.297   3.568  10.435  0.5683  0.4274  0.1185
  351TMC3     H 5316   2.289   3.373  10.277  0.3137 -0.4678 -1.4838
  351TMC3    H1 5317   1.930   3.520  10.440  0.5362  1.1658 -0.9762
  351TMC3    H2 5318   1.928   3.179  10.175 -0.6686  0.7343  0.1927
  351TMC3    C7 5319   1.771   3.339  10.346  0.1932 -0.2740  0.1541
  351TMC3    C8 5320   2.184   3.144  10.177 -0.1783  0.6277  0.4044
  351TMC3    O1 5321   1.743   3.392  10.453  0.0328 -1.1206  0.5365
  351TMC3    O2 5322   2.299   3.172  10.155 -0.0988  0.1126 -0.1354
  352MPD2     C 5323   0.790   0.084   1.056 -0.6792  0.3104  0.1206
  352MPD2    C1 5324   0.653   0.068   1.069 -0.1616 -0.4583  0.0641
  352MPD2    C2 5325   0.608   4.676   1.092 -0.1363  0.2848 -0.3964
  352MPD2    C3 5326   0.690   4.569   1.087 -0.4000  0.3062 -0.0950
  352MPD2    C4 5327   0.825   4.580   1.080  1.2999 -0.2184  0.1054
  352MPD2    C5 5328   0.874   4.705   1.053 -0.0854  0.1354 -0.5475
  352MPD2     H 5329   0.501   4.673   1.104  0.1438 -2.2201  1.5756
  352MPD2    H1 5330   0.894   4.497   1.072  1.2377  0.0256 -3.3221
  352MPD2    H2 5331   0.828   0.186   1.048  3.1089 -0.9582  1.7899
  352MPD2    H3 5332   0.979   4.716   1.029  0.4502  1.6936  2.5233
  352MPD2     N 5333   0.644   4.435   1.112 -0.5754  0.6363 -0.3023
  352MPD2    H5 5334   0.713   4.363   1.093  1.0928  2.1143  0.2879
  352MPD2    N1 5335   0.572   0.181   1.078 -0.2978  0.5793 -0.2926
  352MPD2    H7 5336   0.611   0.268   1.043 -0.9314  1.0862  0.2649
  353TMC3    C1 5337   0.496   4.242   1.136  0.7406 -0.2282 -0.7092
  353TMC3    C2 5338   0.598   4.162   1.187 -0.4436  0.0963  0.2424
  353TMC3    C3 5339   0.578   4.027   1.176 -0.5629 -0.0033  0.4802
  353TMC3    C4 5340   0.383   4.205   1.078  0.5466 -0.0623 -0.2317
  353TMC3    C5 5341   0.369   4.073   1.078  0.9854  0.2917  0.7251
  353TMC3    C6 5342   0.462   3.982   1.122 -0.6120 -0.3206  0.0843
  353TMC3     C 5343   0.517   4.388   1.134  0.3593 -0.1243 -0.0900
  353TMC3     O 5344   0.415   4.447   1.148  0.6912 -0.6874  0.8330
  353TMC3     H 5345   0.688   4.198   1.235 -1.2510  1.2389  0.9050
  353TMC3    H1 5346   0.313   4.278   1.038  1.0510 -0.3379 -1.5997
  353TMC3    H2 5347   0.443   3.876   1.123  2.5715 -0.8578  0.6331
  353TMC3    C7 5348   0.269   4.016   0.990 -0.0952 -0.1890 -0.2939
  353TMC3    C8 5349   0.674   3.942   1.248  0.0693 -0.4757 -0.5617
  353TMC3    O1 5350   0.237   4.073   0.884 -0.0577 -0.1110  0.0414
  353TMC3    O2 5351   0.760   3.995   1.313  0.7450  0.5439  0.3888
  354TMC3    C1 5352   2.330   1.540  13.526 -0.2971  0.2716  0.2501
  354TMC3    C2 5353   2.259   1.658  13.493 -0.2793 -0.2366 -0.0762
  354TMC3    C3 5354   2.271   1.713  13.367 -0.4331  0.0375  0.0504
  354TMC3    C4 5355   2.398   1.469  13.424  0.0563  0.1470 -0.3001
  354TMC3    C5 5356   2.399   1.522  13.301  0.4549 -0.2007  0.1121
  354TMC3    C6 5357   2.340   1.640  13.265  1.0794  0.8440  0.3867
  354TMC3     C 5358   2.296   1.475  13.651 -0.6584 -0.7302 -1.2114
  354TMC3     O 5359   2.197   1.509  13.714  0.2312 -0.0761 -0.4313
  354TMC3     H 5360   2.200   1.711  13.567  0.8915 -0.0764  0.7424
  354TMC3    H1 5361   2.456   1.378  13.438 -0.3420 -0.0717 -0.0405
  354TMC3    H2 5362   2.329   1.672  13.162 -1.6622  1.6019  0.9224
  354TMC3    C7 5363   2.491   1.464  13.204 -0.0714  0.3140 -0.2815
  354TMC3    C8 5364   2.207   1.844  13.344 -0.2886  0.1838  0.3459
  354TMC3    O1 5365   2.509   1.345  13.222 -0.5530  0.1595 -0.2328
  354TMC3    O2 5366   2.123   1.867  13.430 -0.8144 -0.3452  0.1961
  355MPD2     C 5367   2.172   2.494  11.729 -1.0976 -0.1351  0.1046
  355MPD2    C1 5368   2.252   2.498  11.620  0.0894 -0.7208  0.3748
  355MPD2    C2 5369   2.385   2.527  11.650 -0.0585 -0.3886  0.1634
  355MPD2    C3 5370   2.431   2.586  11.764 -0.0264  0.4444  0.0089
  355MPD2    C4 5371   2.342   2.582  11.868  0.2727 -0.3572 -0.0106
  355MPD2    C5 5372   2.218   2.528  11.853  0.4003  0.0883  0.0767
  355MPD2     H 5373   2.462   2.531  11.573 -0.4604 -1.4088 -0.2839
  355MPD2    H1 5374   2.376   2.621  11.963 -0.1735  0.8999 -0.3741
  355MPD2    H2 5375   2.071   2.456  11.718 -1.8175  1.7268  0.2340
  355MPD2    H3 5376   2.165   2.508  11.946  1.0887 -0.5889  0.3177
  355MPD2     N 5377   2.556   2.648  11.780  0.2354  0.4881  0.2412
  355MPD2    H5 5378   2.574   2.695  11.869  2.0848  1.4388 -0.6401
  355MPD2    N1 5379   2.211   2.457  11.492 -0.8840 -0.0030 -1.0688
  355MPD2    H7 5380   2.124   2.406  11.488 -0.7448 -0.1542 -2.0644
  356TMC3    C1 5381   2.762   2.761  11.716 -0.3325 -0.0667  0.5426
  356TMC3    C2 5382   2.814   2.848  11.621  0.2670 -0.1724 -0.0680
  356TMC3    C3 5383   2.900   2.946  11.654  0.1064  0.3992  0.1524
  356TMC3    C4 5384   2.791   2.770  11.848  0.9527  0.4634  0.4905
  356TMC3    C5 5385   2.886   2.873  11.872  0.0470 -0.0335  0.4368
  356TMC3    C6 5386   2.946   2.959  11.787 -1.3949  0.1592 -0.4365
  356TMC3     C 5387   2.656   2.669  11.683 -0.2576  0.0815 -0.3662
  356TMC3     O 5388   2.663   2.616  11.574 -0.1711  0.3614 -0.4395
  356TMC3     H 5389   2.780   2.839  11.518 -1.1866 -2.0449  0.5733
  356TMC3    H1 5390   2.761   2.696  11.921  3.3616 -2.3647 -1.3961
  356TMC3    H2 5391   2.998   3.046  11.826 -1.6083  0.5733 -1.0607
  356TMC3    C7 5392   2.910   2.889  12.020  0.1539  0.0145 -0.4702
  356TMC3    C8 5393   2.960   3.023  11.544 -0.3573 -0.0413 -0.1875
  356TMC3    O1 5394   2.810   2.868  12.088 -0.2571  0.4983  0.2273
  356TMC3    O2 5395   2.914   3.005  11.434 -0.0047 -0.2806  0.4059
  357MPD2     C 5396   1.651   1.719   0.143 -0.3053 -1.0507  0.3682
  357MPD2    C1 5397   1.730   1.642   0.067 -0.3275  0.6350  0.1136
  357MPD2    C2 5398   1.720   1.657  17.668 -0.3776 -0.3443  0.3829
  357MPD2    C3 5399   1.644   1.749  17.613 -0.0324 -0.6350 -0.6030
  357MPD2    C4 5400   1.569   1.828  17.690  0.2278  0.5851 -0.2099
  357MPD2    C5 5401   1.574   1.815   0.088  0.1467  0.2268  0.0672
  357MPD2     H 5402   1.782   1.595  17.604 -0.8056 -0.6556  0.2719
  357MPD2    H1 5403   1.503   1.905  17.650 -0.3298  1.4611  2.3568
  357MPD2    H2 5404   1.650   1.715   0.251  1.1114 -0.5268  0.3970
  357MPD2    H3 5405   1.515   1.875   0.157 -0.8479 -2.1260  1.2424
  357MPD2     N 5406   1.639   1.774  17.474  0.4156 -0.6646 -0.2908
  357MPD2    H5 5407   1.569   1.838  17.436  0.6149 -0.3101 -0.0661
  357MPD2    N1 5408   1.823   1.562   0.133 -0.3345 -0.5966 -0.3213
  357MPD2    H7 5409   1.831   1.570   0.234 -0.8256  1.7365 -0.4589
  358TMC3    C1 5410   1.978   1.387   0.170 -0.1338  0.4330 -0.4851
  358TMC3    C2 5411   2.079   1.317   0.121  0.9234  0.3841  0.4480
  358TMC3    C3 5412   2.192   1.295   0.201  0.2973 -0.3259 -0.8303
  358TMC3    C4 5413   1.984   1.418   0.304 -0.3067 -0.4305 -0.2358
  358TMC3    C5 5414   2.088   1.386   0.387 -0.1849 -0.1271  0.4914
  358TMC3    C6 5415   2.191   1.317   0.333 -0.4844  0.4332  0.5727
  358TMC3     C 5416   1.899   1.463   0.077  0.4737 -1.0661 -0.4655
  358TMC3     O 5417   1.915   1.430  17.696  0.7377 -0.4542 -0.4004
  358TMC3     H 5418   2.083   1.286   0.017  0.7103  1.2913  0.1735
  358TMC3    H1 5419   1.900   1.471   0.349 -1.2077 -2.0696 -0.0034
  358TMC3    H2 5420   2.284   1.309   0.388 -0.2856 -1.7502 -0.0560
  358TMC3    C7 5421   2.100   1.437   0.529 -0.1543 -0.2557  0.2044
  358TMC3    C8 5422   2.304   1.238   0.136  0.5029  0.1762  0.8845
  358TMC3    O1 5423   2.200   1.391   0.585  0.7437 -0.3405 -0.4688
  358TMC3    O2 5424   2.310   1.273   0.016  0.4218  0.0432 -0.2337
  359MPD2     C 5425   3.013   2.063  12.188  0.1907  0.0834 -0.3298
  359MPD2    C1 5426   2.998   1.943  12.120  0.1821 -0.3570 -0.1685
  359MPD2    C2 5427   2.860   1.896  12.119  0.1255 -0.0821  0.1364
  359MPD2    C3 5428   2.762   1.964  12.185  0.1240  0.3966  0.3763
  359MPD2    C4 5429   2.782   2.081  12.242 -0.1177 -0.0307  0.0845
  359MPD2    C5 5430   2.909   2.132  12.241 -0.0429 -0.3045  0.5237
  359MPD2     H 5431   2.841   1.799  12.074  1.1645 -0.0166 -0.4565
  359MPD2    H1 5432   2.704   2.148  12.274 -0.8953 -1.0801  0.3603
  359MPD2    H2 5433   3.106   2.118  12.195 -0.6232  1.0825  2.4510
  359MPD2    H3 5434   2.942   2.225  12.286  0.3824 -0.8580  1.3786
  359MPD2     N 5435   2.623   1.914  12.192  0.3263 -0.0318 -0.7508
  359MPD2    H5 5436   2.554   1.963  12.248  1.5724 -0.5036  1.2240
  359MPD2    N1 5437   3.106   1.871  12.062 -0.3641  0.1521 -0.3005
  359MPD2    H7 5438   3.082   1.780  12.024 -1.0807 -0.1485  0.8532
  360TMC3    C1 5439   3.313   1.825  11.980  0.4945  0.3649  0.1239
  360TMC3    C2 5440   3.433   1.874  11.936  0.8226 -0.8545  0.7300
  360TMC3    C3 5441   3.519   1.777  11.877  0.0312 -0.4395  0.4664
  360TMC3    C4 5442   3.282   1.686  11.972 -0.5541  0.4862  0.3583
  360TMC3    C5 5443   3.374   1.606  11.908  0.5528 -0.1569  0.8767
  360TMC3    C6 5444   3.495   1.645  11.867  0.3418 -0.3683 -0.3324
  360TMC3     C 5445   3.224   1.925  12.033  0.2919  0.8494  0.5286
  360TMC3     O 5446   3.274   2.036  12.046 -0.1601  0.6796  0.7790
  360TMC3     H 5447   3.456   1.980  11.933 -0.2435 -0.7425 -2.4863
  360TMC3    H1 5448   3.191   1.639  12.006 -1.0277  0.3647 -1.0641
  360TMC3    H2 5449   3.567   1.577  11.824  0.6149  0.6314 -1.4571
  360TMC3    C7 5450   3.329   1.479  11.847  0.6662  0.0240 -0.0184
  360TMC3    C8 5451   3.589   1.844  11.768  0.0683  0.6844  1.1871
  360TMC3    O1 5452   3.384   1.445  11.748  0.3437 -0.1184 -0.1773
  360TMC3    O2 5453   3.609   1.964  11.773 -0.1825  0.2381 -0.0188
  361MPD2     C 5454   4.540   4.558  16.460 -0.6423  0.3743  0.1482
  361MPD2    C1 5455   4.503   4.570  16.594 -0.0792  0.1967  0.1293
  361MPD2    C2 5456   4.590   4.524  16.688 -0.0295  0.0582 -0.3629
  361MPD2    C3 5457   4.696   4.447  16.652 -0.0654  0.1252  0.7825
  361MPD2    C4 5458   4.731   4.443  16.522 -0.3974  1.0115 -0.2699
  361MPD2    C5 5459   4.654   4.492  16.420  0.2171  0.1823  0.9413
  361MPD2     H 5460   4.559   4.526  16.792 -2.5006  1.9267 -1.1520
  361MPD2    H1 5461   0.071   4.370  16.494 -0.3916  1.5107 -1.5619
  361MPD2    H2 5462   4.476   4.594  16.381 -0.1879 -1.9078 -1.2688
  361MPD2    H3 5463   4.683   4.487  16.315 -2.6314 -1.0643  0.2061
  361MPD2     N 5464   0.031   4.352  16.734 -0.3840  0.4971 -0.5794
  361MPD2    H5 5465   0.098   4.286  16.696  0.6574  1.3145 -0.1258
  361MPD2    N1 5466   4.388   4.639  16.634 -0.1915  0.1480  0.0400
  361MPD2    H7 5467   4.382   4.648  16.735 -3.0172 -2.0094  0.0461
  362TMC3    C1 5468   4.192   0.034  16.624  0.2780 -0.2579  0.4329
  362TMC3    C2 5469   4.220   0.071  16.750 -0.2296 -0.0035 -0.0143
  362TMC3    C3 5470   4.141   0.162  16.805 -0.1340  1.0596  0.2163
  362TMC3    C4 5471   4.085   0.080  16.548  0.1656  0.4685 -0.2682
  362TMC3    C5 5472   4.009   0.173  16.607 -0.9877 -0.0568  0.1294
  362TMC3    C6 5473   4.049   0.229  16.731 -0.7196  0.0058  0.6580
  362TMC3     C 5474   4.287   4.686  16.552 -0.1213 -0.3806 -0.5867
  362TMC3     O 5475   4.278   4.688  16.429  0.4377  0.1812 -0.4228
  362TMC3     H 5476   4.313   0.059  16.805 -1.4649 -1.5911  1.7447
  362TMC3    H1 5477   4.062   0.036  16.451 -1.0237 -1.6009  0.9349
  362TMC3    H2 5478   3.981   0.306  16.766 -2.1503 -0.5504 -0.8699
  362TMC3    C7 5479   3.922   0.262  16.530  0.1752 -0.7485  0.6877
  362TMC3    C8 5480   4.188   0.221  16.933  0.3269 -0.1337 -0.3212
  362TMC3    O1 5481   3.954   0.381  16.530 -0.0203 -0.3491 -0.2430
  362TMC3    O2 5482   4.301   0.199  16.980  0.3260 -0.4925  0.0885
  363TMC3    C1 5483   2.037   2.262   9.568  0.4605  0.1025  0.2345
  363TMC3    C2 5484   2.123   2.234   9.670  0.0237  0.5217  0.0322
  363TMC3    C3 5485   2.127   2.315   9.778  0.2965  0.6568  0.7103
  363TMC3    C4 5486   1.956   2.374   9.575  0.5438  0.2820 -0.4664
  363TMC3    C5 5487   1.970   2.455   9.691 -0.2182 -0.1764  0.1851
  363TMC3    C6 5488   2.056   2.426   9.796 -0.3095 -0.7268  0.2298
  363TMC3     C 5489   2.022   2.159   9.472 -0.0073 -0.2354  0.4751
  363TMC3     O 5490   2.099   2.065   9.477 -0.2346  0.0539 -0.0521
  363TMC3     H 5491   2.171   2.137   9.672 -1.4534 -0.2496 -1.9312
  363TMC3    H1 5492   1.885   2.407   9.499  0.2655 -1.5123 -0.9918
  363TMC3    H2 5493   2.073   2.482   9.887 -0.9788 -1.4579  0.8009
  363TMC3    C7 5494   1.896   2.579   9.691  0.2534 -0.6212  0.2603
  363TMC3    C8 5495   2.225   2.307   9.885  0.4688  0.2635  0.8999
  363TMC3    O1 5496   1.797   2.590   9.617  0.3907 -0.0422 -0.1943
  363TMC3    O2 5497   2.209   2.357   9.994 -0.4539 -0.0019 -0.9050
  364MPD2     C 5498   1.781   1.866  11.257  0.2912  0.0492  0.2324
  364MPD2    C1 5499   1.797   1.794  11.142 -0.0156 -0.3081 -0.0084
  364MPD2    C2 5500   1.803   1.655  11.157  0.3413  1.2393 -0.0473
  364MPD2    C3 5501   1.806   1.594  11.281  0.0452 -0.1971  1.1845
  364MPD2    C4 5502   1.793   1.667  11.393 -0.4634 -0.0142 -0.4584
  364MPD2    C5 5503   1.791   1.804  11.382 -0.4144 -0.5560  0.2692
  364MPD2     H 5504   1.824   1.596  11.069 -0.3582 -0.2679  0.8041
  364MPD2    H1 5505   1.815   1.626  11.491  3.1808  0.8409 -0.9158
  364MPD2    H2 5506   1.772   1.974  11.259 -1.4144 -0.0726 -0.9878
  364MPD2    H3 5507   1.792   1.865  11.471  1.6644  0.9017 -0.7543
  364MPD2     N 5508   1.837   1.458  11.296  0.4156  0.2354 -0.5169
  364MPD2    H5 5509   1.867   1.439  11.391 -2.2160 -0.9603  0.1022
  364MPD2    N1 5510   1.801   1.863  11.017 -0.2183 -0.0557 -0.6475
  364MPD2    H7 5511   1.778   1.962  11.019  0.8106  0.1569  0.8668
  365TMC3    C1 5512   1.789   1.896  10.779  0.2534  0.3751  0.0516
  365TMC3    C2 5513   1.802   1.849  10.646  0.0970  0.5311  0.0195
  365TMC3    C3 5514   1.838   1.936  10.548 -0.2517  0.0114  0.3027
  365TMC3    C4 5515   1.822   2.026  10.801 -0.4099 -0.4100 -0.9361
  365TMC3    C5 5516   1.851   2.113  10.700  0.1287  0.7075  0.3414
  365TMC3    C6 5517   1.864   2.065  10.572  0.3027 -0.3966 -0.0291
  365TMC3     C 5518   1.815   1.803  10.891 -0.1001  0.4452 -0.2893
  365TMC3     O 5519   1.850   1.688  10.864 -0.2114  0.1136  0.1199
  365TMC3     H 5520   1.782   1.746  10.619  0.4735  0.4161  0.1790
  365TMC3    H1 5521   1.819   2.069  10.901  1.9860  1.0852 -1.5117
  365TMC3    H2 5522   1.899   2.127  10.490  1.1914 -1.2720 -0.3118
  365TMC3    C7 5523   1.876   2.251  10.730 -0.6708  0.4898  0.1048
  365TMC3    C8 5524   1.829   1.891  10.415  0.4351  0.9005  0.1005
  365TMC3    O1 5525   1.945   2.316  10.650 -0.4174 -0.3035  0.0960
  365TMC3    O2 5526   1.762   1.955  10.335  0.1703 -0.3205 -0.0260
  366MPD2     C 5527   0.401   3.023  14.750 -0.0985 -0.2804  0.3480
  366MPD2    C1 5528   0.391   2.989  14.882  0.9454 -0.0988 -0.3497
  366MPD2    C2 5529   0.504   2.929  14.943 -0.1740  0.0700 -0.6749
  366MPD2    C3 5530   0.613   2.903  14.873  0.4934 -0.7238  0.8773
  366MPD2    C4 5531   0.613   2.921  14.738  0.5145  0.3433 -0.0210
  366MPD2    C5 5532   0.503   2.985  14.675 -0.1504 -0.0585 -0.5586
  366MPD2     H 5533   0.497   2.902  15.048  0.7218  2.3176 -0.0421
  366MPD2    H1 5534   0.703   2.894  14.684 -0.9990 -2.0147 -1.3621
  366MPD2    H2 5535   0.320   3.079  14.703  0.9995  0.0997 -1.1130
  366MPD2    H3 5536   0.501   3.009  14.570  0.2559 -0.7138 -0.7153
  366MPD2     N 5537   0.726   2.847  14.936  0.1490  0.5504  0.3483
  366MPD2    H5 5538   0.782   2.791  14.872 -0.4152 -0.6146  0.8937
  366MPD2    N1 5539   0.285   3.018  14.969 -0.6887  0.2086 -0.4891
  366MPD2    H7 5540   0.306   2.999  15.067 -2.8320 -0.8902 -0.2394
  367TMC3    C1 5541   0.114   3.158  15.045  0.4242 -0.5780  1.0072
  367TMC3    C2 5542   0.200   3.203  15.142 -0.3991 -0.1808  0.3160
  367TMC3    C3 5543   0.165   3.307  15.223  0.6475  0.7052  0.3577
  367TMC3    C4 5544   4.730   3.224  15.022  0.4225  0.1382  0.2726
  367TMC3    C5 5545   4.692   3.319  15.112 -1.2943  0.0600  0.2266
  367TMC3    C6 5546   0.043   3.361  15.210 -0.1079 -0.5372  0.2713
  367TMC3     C 5547   0.171   3.089  14.930 -0.9360 -0.7767  0.1293
  367TMC3     O 5548   0.124   3.105  14.821 -0.3084 -0.3135  0.1807
  367TMC3     H 5549   0.301   3.164  15.151 -0.3201  0.5261  2.4692
  367TMC3    H1 5550   4.673   3.197  14.934 -2.0612 -1.4997  2.4020
  367TMC3    H2 5551   0.006   3.430  15.286 -0.8617 -0.2207 -0.3842
  367TMC3    C7 5552   4.571   3.392  15.082  0.4346  0.4894 -0.1791
  367TMC3    C8 5553   0.243   3.314  15.344 -0.8503 -0.2171 -0.0385
  367TMC3    O1 5554   4.572   3.506  15.126 -0.1767 -0.5056 -0.7177
  367TMC3    O2 5555   0.291   3.205  15.376 -0.7800 -0.0669 -0.0982
  368MPD2     C 5556   1.610   0.898  13.391 -0.3207  0.0149 -0.1830
  368MPD2    C1 5557   1.616   0.902  13.256 -0.8785  0.2135  0.4876
  368MPD2    C2 5558   1.733   0.886  13.192  0.4363  0.2851 -0.2697
  368MPD2    C3 5559   1.853   0.902  13.262 -0.4209 -0.4850  0.6063
  368MPD2    C4 5560   1.848   0.917  13.394  0.3230  0.7123 -0.6600
  368MPD2    C5 5561   1.727   0.905  13.458  0.1514 -1.4965  0.7810
  368MPD2     H 5562   1.740   0.871  13.084 -0.9692 -3.2207  0.1114
  368MPD2    H1 5563   1.941   0.933  13.446  0.5603 -0.9484 -0.5729
  368MPD2    H2 5564   1.529   0.898  13.463 -0.4286 -0.9815 -0.3088
  368MPD2    H3 5565   1.725   0.920  13.565  0.6413 -0.8590  0.7023
  368MPD2     N 5566   1.977   0.923  13.203  0.2002 -0.1334 -0.1022
  368MPD2    H5 5567   2.066   0.924  13.253  1.0134 -1.8205 -1.5223
  368MPD2    N1 5568   1.495   0.934  13.187  0.0722  0.1380 -0.2518
  368MPD2    H7 5569   1.417   0.945  13.251  0.5559 -0.7139  0.4819
  369TMC3    C1 5570   1.349   1.012  13.026 -0.0989  0.1971  0.0018
  369TMC3    C2 5571   1.336   1.129  12.951  0.8882  0.5159 -0.1948
  369TMC3    C3 5572   1.207   1.175  12.921 -1.3105  0.3875  0.2188
  369TMC3    C4 5573   1.236   0.937  13.066 -0.3638 -0.0393  0.1232
  369TMC3    C5 5574   1.114   0.986  13.022  0.0036 -0.0534 -0.8721
  369TMC3    C6 5575   1.094   1.106  12.958  1.1186  0.7875 -1.0410
  369TMC3     C 5576   1.483   0.955  13.051  0.0854 -0.2965 -0.5693
  369TMC3     O 5577   1.567   0.962  12.966  0.3331 -0.4805  0.1204
  369TMC3     H 5578   1.427   1.170  12.908  0.5363  0.2001 -1.2430
  369TMC3    H1 5579   1.240   0.848  13.128 -0.1305  0.0067  0.1708
  369TMC3    H2 5580   0.993   1.143  12.954  1.1639  0.8576 -1.5116
  369TMC3    C7 5581   0.999   0.903  13.053 -0.1491 -0.3602  0.2061
  369TMC3    C8 5582   1.188   1.304  12.856  0.1032 -0.2259  0.0568
  369TMC3    O1 5583   1.019   0.810  13.129 -0.0819  0.0846 -0.7320
  369TMC3    O2 5584   1.077   1.357  12.847  0.0453  0.5334 -0.0164
  370TMC3    C1 5585   0.710   0.803  16.358  0.2690  0.5394  0.1356
  370TMC3    C2 5586   0.653   0.724  16.451 -0.0027  0.2158  0.0299
  370TMC3    C3 5587   0.615   0.594  16.414 -0.1003 -0.5364  0.3428
  370TMC3    C4 5588   0.752   0.751  16.236  0.0523 -0.0371 -1.4281
  370TMC3    C5 5589   0.732   0.622  16.211  0.0123  0.3336 -0.5312
  370TMC3    C6 5590   0.661   0.536  16.296  0.4575  0.1874  0.0678
  370TMC3     C 5591   0.773   0.917  16.421  0.1910  0.3240 -0.1413
  370TMC3     O 5592   0.784   0.924  16.542 -0.3014 -0.1480  0.6347
  370TMC3     H 5593   0.611   0.774  16.538  0.6889 -0.9213  1.0192
  370TMC3    H1 5594   0.811   0.807  16.165 -1.1932  1.1595 -1.5262
  370TMC3    H2 5595   0.644   0.432  16.270  0.0787 -0.5065  3.0020
  370TMC3    C7 5596   0.772   0.574  16.085  0.1938 -0.3475  0.2749
  370TMC3    C8 5597   0.586   0.497  16.519 -0.1570  0.2430  0.4407
  370TMC3    O1 5598   0.784   0.658  15.999  0.6365  0.5290  0.8595
  370TMC3    O2 5599   0.574   0.381  16.484  0.5746 -0.2043  0.3411
  371TMC3    C1 5600   1.987   3.690  15.344 -0.0203  0.4485  0.2975
  371TMC3    C2 5601   1.922   3.732  15.459 -0.4070 -0.8995  1.2502
  371TMC3    C3 5602   1.887   3.863  15.477 -0.4849  0.8502  0.8767
  371TMC3    C4 5603   2.024   3.786  15.254  0.2822  0.5068 -0.5716
  371TMC3    C5 5604   1.994   3.919  15.275  0.1040 -1.0951 -1.2283
  371TMC3    C6 5605   1.922   3.956  15.386 -0.1956 -0.4716 -0.7022
  371TMC3     C 5606   2.087   3.584  15.344 -0.9348 -0.4120 -0.2666
  371TMC3     O 5607   2.189   3.597  15.276  0.3428  0.4344  0.0824
  371TMC3     H 5608   1.880   3.662  15.530 -0.6671 -1.0038  0.9925
  371TMC3    H1 5609   2.095   3.761  15.176 -0.1000  0.7435 -0.9923
  371TMC3    H2 5610   1.896   4.060  15.404  2.4690  0.0259  0.3389
  371TMC3    C7 5611   2.046   4.031  15.194  0.0590 -0.4487  0.1693
  371TMC3    C8 5612   1.857   3.895  15.617 -0.1984 -0.0902  0.0074
  371TMC3    O1 5613   2.016   4.141  15.238  0.4633 -0.4661 -0.5173
  371TMC3    O2 5614   1.858   3.807  15.701 -0.0654  0.1647  0.8040
  372MPD2     C 5615   2.199   0.536  12.914  0.0409  0.3053  0.8272
  372MPD2    C1 5616   2.219   0.488  13.041  0.0446  0.2393 -0.2729
  372MPD2    C2 5617   2.116   0.508  13.134 -0.0437  0.3256  0.0435
  372MPD2    C3 5618   1.995   0.555  13.090  0.1004  0.4959  0.3471
  372MPD2    C4 5619   1.977   0.617  12.967 -0.4570  0.0789  0.0861
  372MPD2    C5 5620   2.080   0.593  12.874  0.1702 -0.4405  0.7990
  372MPD2     H 5621   2.127   0.464  13.232  1.1518 -1.6885 -0.9825
  372MPD2    H1 5622   1.884   0.661  12.935 -0.0773 -0.2103 -1.3946
  372MPD2    H2 5623   2.276   0.516  12.840  1.9089  3.0369  2.0035
  372MPD2    H3 5624   2.063   0.613  12.769 -0.0833 -0.9083  0.7531
  372MPD2     N 5625   1.884   0.537  13.175  0.1186 -0.0477 -0.0507
  372MPD2    H5 5626   1.895   0.503  13.271  0.3313  0.5250  0.1258
  372MPD2    N1 5627   2.343   0.426  13.077  0.5481  0.2484 -0.3416
  372MPD2    H7 5628   2.371   0.422  13.174 -2.1645  0.6680  0.4486
  373TMC3    C1 5629   1.665   0.510  13.237  0.0768  0.0559  0.9343
  373TMC3    C2 5630   1.698   0.549  13.362 -0.9046 -0.2300  0.1328
  373TMC3    C3 5631   1.611   0.520  13.460 -0.3994  0.1091  0.4731
  373TMC3    C4 5632   1.550   0.444  13.201 -0.5597 -0.2033 -0.5396
  373TMC3    C5 5633   1.468   0.410  13.306  0.3223 -0.7506 -0.3947
  373TMC3    C6 5634   1.495   0.449  13.432 -0.0153  0.5980 -0.7649
  373TMC3     C 5635   1.754   0.541  13.134  0.4157  0.1265 -0.4430
  373TMC3     O 5636   1.711   0.530  13.022  0.4092  0.0795 -0.0423
  373TMC3     H 5637   1.780   0.616  13.384  1.5933 -2.8564 -1.1701
  373TMC3    H1 5638   1.516   0.409  13.105 -0.0245 -1.0179 -0.4357
  373TMC3    H2 5639   1.430   0.418  13.514  1.1955  2.1868  0.8002
  373TMC3    C7 5640   1.384   0.298  13.284 -0.8007 -0.5513 -0.2538
  373TMC3    C8 5641   1.668   0.524  13.592 -0.0850 -0.2855 -0.8563
  373TMC3    O1 5642   1.396   0.240  13.178  0.5676  0.0410 -0.1321
  373TMC3    O2 5643   1.787   0.517  13.598 -0.1048 -0.3990  0.3263
  374TMC3    C1 5644   2.446   0.218   9.729  0.4376  0.0908  0.3668
  374TMC3    C2 5645   2.552   0.298   9.770  0.1441  0.2580  0.0774
  374TMC3    C3 5646   2.614   0.375   9.673  0.7074 -0.2428  0.2573
  374TMC3    C4 5647   2.432   0.189   9.596 -0.3377  0.1772  0.6068
  374TMC3    C5 5648   2.505   0.260   9.507  0.5537 -0.0082 -0.0462
  374TMC3    C6 5649   2.595   0.350   9.540  0.2974  0.3122 -0.2692
  374TMC3     C 5650   2.412   0.116   9.829  0.1105 -0.4111 -0.0725
  374TMC3     O 5651   2.498   0.092   9.916 -0.2448  0.0153 -0.3987
  374TMC3     H 5652   2.542   0.328   9.873 -0.5966 -0.8306  0.3190
  374TMC3    H1 5653   2.364   0.108   9.572  0.4823  0.4051 -2.5140
  374TMC3    H2 5654   2.647   0.408   9.465  2.1162 -1.7143 -0.5906
  374TMC3    C7 5655   2.473   0.239   9.368 -0.2290 -0.2027  0.2663
  374TMC3    C8 5656   2.631   0.513   9.704 -0.4872 -0.0895  0.0092
  374TMC3    O1 5657   2.565   0.226   9.290 -0.1076 -0.2107 -0.3663
  374TMC3    O2 5658   2.595   0.586   9.611  0.2825  0.5908 -0.1650
  375MPD2     C 5659   1.775   0.478  16.729  0.0627 -0.4519  0.0929
  375MPD2    C1 5660   1.740   0.593  16.655 -0.3154 -0.7507  0.7336
  375MPD2    C2 5661   1.773   0.594  16.525  0.5497 -0.4593 -0.6129
  375MPD2    C3 5662   1.858   0.500  16.470 -0.4224  0.2722  0.3014
  375MPD2    C4 5663   1.902   0.395  16.546 -0.4026  0.0555  0.6387
  375MPD2    C5 5664   1.851   0.383  16.671  0.2587  0.4435  0.1758
  375MPD2     H 5665   1.735   0.668  16.455  1.7651  1.7888  1.0900
  375MPD2    H1 5666   1.962   0.312  16.510 -0.4709  0.1985  0.2041
  375MPD2    H2 5667   1.743   0.463  16.831 -0.3980  0.6804  0.1172
  375MPD2    H3 5668   1.871   0.296  16.733 -3.8982 -0.8535 -0.2747
  375MPD2     N 5669   1.910   0.502  16.339 -0.6090 -0.2405  0.1182
  375MPD2    H5 5670   1.984   0.439  16.310 -0.3722 -0.0553  0.3265
  375MPD2    N1 5671   1.660   0.696  16.709 -0.2746  0.0884  0.2467
  375MPD2    H7 5672   1.634   0.776  16.652 -0.5235  1.6028  2.4929
  376TMC3    C1 5673   1.968   0.593  16.120  0.8571  0.1842 -0.4132
  376TMC3    C2 5674   2.104   0.574  16.146  0.0307  0.2760  0.3522
  376TMC3    C3 5675   2.189   0.637  16.060  0.2549  0.1769 -0.1516
  376TMC3    C4 5676   1.922   0.663  16.013 -0.2564 -0.2626  0.0586
  376TMC3    C5 5677   2.013   0.734  15.932  0.1261  0.2616  0.1093
  376TMC3    C6 5678   2.150   0.722  15.961 -0.0968 -0.0892 -0.5355
  376TMC3     C 5679   1.874   0.583  16.233 -0.0023  0.0285  0.1196
  376TMC3     O 5680   1.768   0.639  16.217  0.2126 -0.1773  0.1962
  376TMC3     H 5681   2.131   0.501  16.221  0.0482 -0.9247 -0.8193
  376TMC3    H1 5682   1.816   0.686  16.008 -0.5029 -1.3134  0.4368
  376TMC3    H2 5683   2.220   0.771  15.894  2.5278 -0.8826  1.6070
  376TMC3    C7 5684   1.978   0.840  15.837  0.7651  0.2105  0.3312
  376TMC3    C8 5685   2.335   0.609  16.058  0.0123  0.3483 -0.5583
  376TMC3    O1 5686   2.071   0.895  15.774 -0.1097 -0.4705 -0.1524
  376TMC3    O2 5687   2.404   0.636  15.959  0.1952 -0.1938 -0.0656
  377MPD2     C 5688   0.198   1.222  12.412  0.0863  0.1564 -0.1596
  377MPD2    C1 5689   0.278   1.168  12.505  0.6148 -0.4475  0.0826
  377MPD2    C2 5690   0.226   1.118  12.623  0.0495 -0.2260 -0.1561
  377MPD2    C3 5691   0.091   1.131  12.645 -0.2104  0.3531  0.6303
  377MPD2    C4 5692   0.005   1.184  12.548 -0.1261 -0.1042  0.0028
  377MPD2    C5 5693   0.065   1.228  12.434 -0.1632  0.2818 -0.4544
  377MPD2     H 5694   0.292   1.077  12.699 -0.5467  0.4474  0.7392
  377MPD2    H1 5695   4.634   1.201  12.564 -0.2158 -0.2145 -0.4625
  377MPD2    H2 5696   0.244   1.270  12.326  0.2113 -0.6908 -0.5666
  377MPD2    H3 5697   0.004   1.267  12.352 -2.3984 -1.2649  0.4907
  377MPD2     N 5698   0.040   1.091  12.771 -0.0423  0.5856 -0.4937
  377MPD2    H5 5699   4.676   1.113  12.787  0.5965  1.7035  1.8643
  377MPD2    N1 5700   0.412   1.173  12.480 -0.7565 -0.7283 -0.5740
  377MPD2    H7 5701   0.437   1.213  12.390  0.4648  0.7181  0.4045
  378TMC3    C1 5702   0.779   1.178  12.321  0.0939 -0.3132 -0.1157
  378TMC3    C2 5703   0.654   1.199  12.371  0.3049 -0.1329 -0.1693
  378TMC3    C3 5704   0.645   1.183  12.510  0.2086 -0.2540  0.1948
  378TMC3    C4 5705   0.884   1.145  12.396  0.4383  0.4035  0.2923
  378TMC3    C5 5706   0.869   1.157  12.533  0.4250 -0.3639 -0.4210
  378TMC3    C6 5707   0.751   1.173  12.592 -0.4018 -0.1380 -0.2532
  378TMC3     C 5708   0.787   1.181  12.178 -0.1509  0.6709  0.0574
  378TMC3     O 5709   0.687   1.202  12.112 -0.2816  0.0334  0.5041
  378TMC3     H 5710   0.565   1.217  12.311 -0.8565  0.8107  1.8245
  378TMC3    H1 5711   0.983   1.123  12.358  0.1727 -0.4817  0.1326
  378TMC3    H2 5712   0.740   1.161  12.699  0.7703 -0.8359 -0.2171
  378TMC3    C7 5713   0.980   1.102  12.612  0.2621 -0.3282  0.1955
  378TMC3    C8 5714   0.519   1.146  12.568 -0.1606 -0.2496  1.1578
  378TMC3    O1 5715   0.951   1.045  12.716  0.4773 -0.5305  0.4191
  378TMC3    O2 5716   0.523   1.098  12.678  0.4288 -0.4054 -0.0045
  379MPD2     C 5717   0.859   3.300  16.405  0.3585  0.5549 -0.3772
  379MPD2    C1 5718   0.969   3.274  16.320 -0.5564  0.2527  0.5981
  379MPD2    C2 5719   1.087   3.220  16.384 -0.6333 -0.1001  0.0186
  379MPD2    C3 5720   1.085   3.199  16.524 -0.0036 -0.9956 -0.1513
  379MPD2    C4 5721   0.977   3.233  16.595  0.5783  0.3447  0.2260
  379MPD2    C5 5722   0.860   3.280  16.538  0.0010  0.1097  0.6845
  379MPD2     H 5723   1.171   3.195  16.320 -0.7480  1.5616 -0.7816
  379MPD2    H1 5724   0.986   3.232  16.703  1.1968  1.0847  0.1772
  379MPD2    H2 5725   0.764   3.332  16.365 -0.0429 -0.1188  0.0356
  379MPD2    H3 5726   0.770   3.302  16.594 -0.5369  1.0918 -0.5694
  379MPD2     N 5727   1.197   3.143  16.595  0.5631 -0.1793  0.5672
  379MPD2    H5 5728   1.188   3.141  16.696  1.3832  0.1918  0.6490
  379MPD2    N1 5729   0.944   3.280  16.182  0.0220  0.8199 -0.6901
  379MPD2    H7 5730   0.848   3.299  16.153 -0.3888 -0.7245 -0.3560
  380TMC3    C1 5731   0.967   3.291  15.957  0.8728  0.2719  0.0768
  380TMC3    C2 5732   1.050   3.307  15.850 -0.0096  0.5404 -0.4840
  380TMC3    C3 5733   0.991   3.352  15.733 -0.1425 -0.0280  0.4044
  380TMC3    C4 5734   0.830   3.320  15.948 -0.0004  0.2469 -0.2134
  380TMC3    C5 5735   0.784   3.376  15.833  0.2711 -0.2398 -0.1221
  380TMC3    C6 5736   0.860   3.378  15.717  1.0017 -0.2777 -0.2741
  380TMC3     C 5737   1.034   3.252  16.083  0.0228 -0.6473 -0.4901
  380TMC3     O 5738   1.152   3.220  16.088  0.5198  0.4239 -0.3908
  380TMC3     H 5739   1.155   3.283  15.860 -0.8666 -2.4534  1.0884
  380TMC3    H1 5740   0.768   3.328  16.036  1.3075 -0.4071  0.7651
  380TMC3    H2 5741   0.818   3.424  15.628 -0.1946 -0.7748  0.0270
  380TMC3    C7 5742   0.659   3.433  15.830 -0.1097 -0.3434 -0.0949
  380TMC3    C8 5743   1.078   3.390  15.620 -0.3430 -0.1678 -1.0006
  380TMC3    O1 5744   0.637   3.508  15.922 -0.1274 -0.0218  0.5674
  380TMC3    O2 5745   1.013   3.394  15.512 -0.0489 -0.5359  0.8674
  381TMC3    C1 5746   0.618   4.374  16.071  0.0181 -0.0163  0.2561
  381TMC3    C2 5747   0.679   4.494  16.071 -0.7734 -0.0820 -0.0770
  381TMC3    C3 5748   0.736   4.533  16.194 -0.3191  0.7217  0.2731
  381TMC3    C4 5749   0.625   4.291  16.183 -0.0938  0.2095  0.3162
  381TMC3    C5 5750   0.669   4.343  16.305 -0.6206 -0.5556  0.7941
  381TMC3    C6 5751   0.721   4.465  16.314  0.0124  0.2559  0.4042
  381TMC3     C 5752   0.542   4.328  15.957 -0.6399 -0.2795  0.1709
  381TMC3     O 5753   0.499   4.209  15.950  0.2133 -0.8044 -0.0306
  381TMC3     H 5754   0.694   4.556  15.983  0.4506 -0.4788 -0.1569
  381TMC3    H1 5755   0.577   4.194  16.193 -1.4928  0.6835 -1.7383
  381TMC3    H2 5756   0.771   4.506  16.401  0.3271 -3.0536  1.7744
  381TMC3    C7 5757   0.629   4.280  16.430  0.2854 -0.1023 -0.4814
  381TMC3    C8 5758   0.807   4.655  16.196  0.0914 -0.1760 -0.3832
  381TMC3    O1 5759   0.627   4.160  16.430 -0.3532 -0.1772  0.2308
  381TMC3    O2 5760   0.894   4.673  16.111 -0.0229  0.3687 -0.0082
  382MPD2     C 5761   0.204   2.496  16.786  0.5942 -0.3638 -0.2529
  382MPD2    C1 5762   0.154   2.508  16.918 -1.3079 -0.1656 -0.4695
  382MPD2    C2 5763   0.126   2.395  16.995 -0.0901  0.4360 -0.0042
  382MPD2    C3 5764   0.137   2.267  16.936 -0.0506  0.6723  0.2747
  382MPD2    C4 5765   0.187   2.258  16.807 -1.1317  0.1829 -0.1093
  382MPD2    C5 5766   0.228   2.368  16.731  0.2130  0.0345 -0.3592
  382MPD2     H 5767   0.076   2.413  17.089 -1.5655  0.9680 -0.8916
  382MPD2    H1 5768   0.194   2.161  16.760  1.8478  0.6967 -0.7133
  382MPD2    H2 5769   0.220   2.580  16.720 -1.2361  1.7007  1.8982
  382MPD2    H3 5770   0.264   2.356  16.629 -0.3955 -0.6236 -0.4962
  382MPD2     N 5771   0.095   2.148  16.994 -0.7159  0.3239 -0.4918
  382MPD2    H5 5772   0.098   2.062  16.941  2.8475  0.2480 -0.1939
  382MPD2    N1 5773   0.143   2.628  16.986 -0.2132  0.5395 -0.3841
  382MPD2    H7 5774   0.105   2.609  17.079  0.5561  1.0207  0.0288
  383TMC3    C1 5775   0.047   1.994  17.153 -0.0881  0.0492  0.1000
  383TMC3    C2 5776   4.701   1.921  17.070 -0.0756  0.2410 -0.4935
  383TMC3    C3 5777   4.688   1.782  17.076  0.1440 -0.6378 -0.5372
  383TMC3    C4 5778   0.116   1.926  17.254  0.1786 -0.4879 -0.2968
  383TMC3    C5 5779   0.100   1.788  17.260 -0.5326 -0.2913  0.1296
  383TMC3    C6 5780   0.021   1.718  17.177  0.2031  0.3197  0.9737
  383TMC3     C 5781   0.087   2.128  17.130 -0.3545  0.9683 -0.1876
  383TMC3     O 5782   0.136   2.195  17.220 -0.1824  0.0330 -0.1620
  383TMC3     H 5783   4.635   1.965  16.996  0.2712  0.2774 -0.7806
  383TMC3    H1 5784   0.194   1.974  17.312 -0.3677  0.6304 -0.5043
  383TMC3    H2 5785   0.022   1.610  17.190  2.4824  0.1178 -0.8250
  383TMC3    C7 5786   0.192   1.712  17.336 -0.1062  0.9091 -0.6819
  383TMC3    C8 5787   4.542   1.754  17.080 -0.0083  0.0481 -0.4096
  383TMC3    O1 5788   0.226   1.604  17.293 -0.4313 -0.2334 -0.0691
  383TMC3    O2 5789   4.457   1.841  17.067  0.0239  0.5451  0.9739
  384MPD2     C 5790   1.006   3.523  11.939 -0.1551  0.1537  0.7998
  384MPD2    C1 5791   1.046   3.657  11.936  0.3366  0.0050  0.0569
  384MPD2    C2 5792   1.145   3.691  11.846  0.3596  0.9549  0.2267
  384MPD2    C3 5793   1.201   3.606  11.759  0.0227 -0.3744 -0.5574
  384MPD2    C4 5794   1.147   3.481  11.752 -0.5331  0.3137 -0.1400
  384MPD2    C5 5795   1.054   3.443  11.839 -0.0725  0.5991 -0.9037
  384MPD2     H 5796   1.191   3.788  11.861  0.0521  1.4640 -2.1869
  384MPD2    H1 5797   1.183   3.412  11.677 -1.3187  1.0667 -1.2141
  384MPD2    H2 5798   0.939   3.486  12.016 -0.5736  1.2161  0.9577
  384MPD2    H3 5799   1.018   3.340  11.837  0.4603  0.4520 -2.3299
  384MPD2     N 5800   1.308   3.642  11.670 -0.1162  0.2287  0.4014
  384MPD2    H5 5801   1.361   3.568  11.625 -0.6707 -1.4532  2.5145
  384MPD2    N1 5802   1.006   3.744  12.041  0.2010  0.3096  0.1250
  384MPD2    H7 5803   0.937   3.692  12.093  1.9199 -0.5206  1.5674
  385TMC3    C1 5804   1.503   3.756  11.741  0.7322  0.1063 -0.2527
  385TMC3    C2 5805   1.570   3.635  11.736 -0.7281 -0.6781 -0.0089
  385TMC3    C3 5806   1.646   3.595  11.835  0.6429 -0.3361 -0.2343
  385TMC3    C4 5807   1.522   3.834  11.851  0.1750  0.3276 -0.7052
  385TMC3    C5 5808   1.605   3.789  11.958 -0.1098 -0.5487  0.0266
  385TMC3    C6 5809   1.672   3.669  11.946 -0.3085 -0.6512  0.1697
  385TMC3     C 5810   1.377   3.764  11.673 -0.3283 -0.0430  0.1415
  385TMC3     O 5811   1.325   3.866  11.709 -0.2257 -0.0033 -0.0996
  385TMC3     H 5812   1.555   3.578  11.645  2.0312 -1.6030  0.1292
  385TMC3    H1 5813   1.463   3.923  11.871  1.9151  1.0526  1.1669
  385TMC3    H2 5814   1.715   3.619  12.033  0.6976  0.4146  0.2825
  385TMC3    C7 5815   1.576   3.863  12.077 -0.0452 -0.3803 -0.5293
  385TMC3    C8 5816   1.704   3.454  11.837  1.2227 -0.4544 -0.6156
  385TMC3    O1 5817   1.523   3.974  12.069  0.3294 -0.4184  0.3768
  385TMC3    O2 5818   1.795   3.434  11.914  0.2282  0.2863 -0.3421
  386TMC3    C1 5819   1.852   1.024  11.706 -0.5659 -0.9265  0.2108
  386TMC3    C2 5820   1.860   0.954  11.588  0.1440 -0.1188 -0.1734
  386TMC3    C3 5821   1.742   0.924  11.525  0.0911  0.8686  0.3438
  386TMC3    C4 5822   1.731   1.074  11.753  0.7434  0.1063 -0.3283
  386TMC3    C5 5823   1.618   1.034  11.682  0.3231 -0.0152 -0.0286
  386TMC3    C6 5824   1.620   0.960  11.565 -0.9655  0.0873  0.4727
  386TMC3     C 5825   1.972   1.057  11.779  0.4470  0.2696 -0.3711
  386TMC3     O 5826   1.966   1.127  11.880 -0.4230  0.4682  0.2936
  386TMC3     H 5827   1.958   0.938  11.543  1.3685 -2.6882  3.4110
  386TMC3    H1 5828   1.743   1.145  11.833 -0.6795 -0.4912  0.4143
  386TMC3    H2 5829   1.525   0.931  11.519 -0.3048  4.6746 -3.7232
  386TMC3    C7 5830   1.501   1.117  11.706  0.2484 -0.9458  0.1759
  386TMC3    C8 5831   1.750   0.941  11.383 -0.8886 -0.0465  0.1612
  386TMC3    O1 5832   1.484   1.145  11.823 -0.8022 -0.0083 -0.1521
  386TMC3    O2 5833   1.669   1.014  11.330  0.3036  0.2230  0.0204
  387MPD2     C 5834   3.989   1.164   9.970  0.0714  0.5506  0.4257
  387MPD2    C1 5835   4.064   1.119  10.076 -0.1315 -0.1891  0.3514
  387MPD2    C2 5836   4.067   0.986  10.101 -0.7671  0.3978 -0.9492
  387MPD2    C3 5837   4.007   0.896  10.024 -0.8046  0.1330 -1.3276
  387MPD2    C4 5838   3.926   0.939   9.916  0.1304  0.4390 -0.8002
  387MPD2    C5 5839   3.914   1.070   9.898 -0.1792 -0.3375 -0.5128
  387MPD2     H 5840   4.128   0.951  10.183 -1.0730  0.0204 -0.8816
  387MPD2    H1 5841   3.871   0.864   9.861  0.3974  0.5725 -1.2476
  387MPD2    H2 5842   3.985   1.268   9.938  0.9498  0.6654  0.6979
  387MPD2    H3 5843   3.863   1.101   9.808 -0.8328 -2.2875 -0.8106
  387MPD2     N 5844   4.022   0.765  10.047 -0.5099 -0.2344 -0.2605
  387MPD2    H5 5845   4.076   0.744  10.131 -0.6268  0.7192  0.0507
  387MPD2    N1 5846   4.141   1.194  10.163  0.1725  0.7051  0.3332
  387MPD2    H7 5847   4.178   1.147  10.245 -0.4154  0.3538  0.3953
  388TMC3    C1 5848   4.287   1.350  10.260  0.1670 -0.1155 -0.2875
  388TMC3    C2 5849   4.346   1.472  10.275  0.2046 -0.0731 -0.0264
  388TMC3    C3 5850   4.461   1.474  10.349 -0.3945  0.3895 -0.6174
  388TMC3    C4 5851   4.366   1.241  10.299  0.3725  0.3631 -0.7520
  388TMC3    C5 5852   4.487   1.247  10.370  0.8026 -0.0134  0.5903
  388TMC3    C6 5853   4.533   1.371  10.404 -0.1774  0.0608  0.0669
  388TMC3     C 5854   4.186   1.327  10.155 -0.2532 -0.1766  1.0922
  388TMC3     O 5855   4.149   1.413  10.076  0.0816 -0.1350  0.2264
  388TMC3     H 5856   4.283   1.559  10.257  1.6700  0.7628 -1.0935
  388TMC3    H1 5857   4.343   1.143  10.258 -1.7613  0.2709  0.6712
  388TMC3    H2 5858   4.636   1.395  10.431 -0.0683 -1.0280  0.6155
  388TMC3    C7 5859   4.568   1.127  10.373  0.0798  0.2679  0.2460
  388TMC3    C8 5860   4.489   1.603  10.413  0.0451 -0.1963  0.1451
  388TMC3    O1 5861   4.688   1.142  10.382 -0.3641  0.9952  0.3091
  388TMC3    O2 5862   4.495   1.587  10.535  0.1408  0.2561  0.2101
  389MPD2     C 5863   3.532   3.705  10.881  0.9145  0.4414  0.4683
  389MPD2    C1 5864   3.396   3.682  10.872 -0.0943 -0.3854  0.0133
  389MPD2    C2 5865   3.334   3.639  10.987 -0.2407 -0.0107 -0.2893
  389MPD2    C3 5866   3.401   3.644  11.107  0.1374  0.1102  0.0425
  389MPD2    C4 5867   3.531   3.680  11.110 -0.2889  0.1316 -0.1133
  389MPD2    C5 5868   3.598   3.716  10.997 -0.1674 -0.6907  0.0614
  389MPD2     H 5869   3.228   3.615  10.982 -0.5505  1.1198  0.8070
  389MPD2    H1 5870   3.580   3.694  11.206  0.3313  1.1752 -0.5722
  389MPD2    H2 5871   3.591   3.729  10.793  0.4457 -0.1172 -0.0014
  389MPD2    H3 5872   3.703   3.743  11.004 -0.5839  0.7910  0.5701
  389MPD2     N 5873   3.351   3.590  11.234  1.0587 -1.0209  0.0609
  389MPD2    H5 5874   3.414   3.600  11.313 -1.1075 -0.3601  1.6980
  389MPD2    N1 5875   3.334   3.707  10.748  0.1147  0.3287 -0.0950
  389MPD2    H7 5876   3.392   3.728  10.667  0.6142 -3.4675 -0.7112
  390TMC3    C1 5877   3.177   3.521  11.385 -0.5184  0.5695  0.2506
  390TMC3    C2 5878   3.059   3.465  11.393 -0.6079 -0.0454 -0.6313
  390TMC3    C3 5879   3.000   3.468  11.515  0.0234 -0.2375  0.2397
  390TMC3    C4 5880   3.242   3.583  11.486 -0.1127 -0.9231  0.0199
  390TMC3    C5 5881   3.172   3.590  11.606  0.1454 -0.6044  1.0274
  390TMC3    C6 5882   3.050   3.524  11.626  0.4066 -0.2644  0.5373
  390TMC3     C 5883   3.234   3.522  11.250  0.7465  0.6126 -0.8538
  390TMC3     O 5884   3.160   3.483  11.156 -0.7222  0.6779 -0.6394
  390TMC3     H 5885   3.018   3.407  11.310  1.0367 -1.8258 -0.1921
  390TMC3    H1 5886   3.342   3.624  11.478  0.0437 -1.3084  0.0323
  390TMC3    H2 5887   2.997   3.528  11.720  1.2578 -0.7765  1.0399
  390TMC3    C7 5888   3.228   3.676  11.705 -0.3277 -0.4363  0.0443
  390TMC3    C8 5889   2.888   3.375  11.524  0.6396  0.2463 -0.0345
  390TMC3    O1 5890   3.318   3.749  11.677  0.0202  0.6078 -0.7540
  390TMC3    O2 5891   2.833   3.350  11.416  0.0629  0.8402 -0.5544
  391MPD2     C 5892   3.058   0.534  11.256 -0.5068 -0.3022 -0.3919
  391MPD2    C1 5893   3.162   0.569  11.173  0.1556 -1.1037  0.1954
  391MPD2    C2 5894   3.122   0.609  11.052 -0.0768  0.3049  0.6885
  391MPD2    C3 5895   2.995   0.593  11.000 -0.3337  0.4650 -0.2694
  391MPD2    C4 5896   2.891   0.555  11.078  0.3365  0.5219 -0.1234
  391MPD2    C5 5897   2.925   0.528  11.206 -0.8096 -0.2055 -0.7481
  391MPD2     H 5898   3.190   0.660  10.985 -3.3914  2.1954 -1.2582
  391MPD2    H1 5899   2.786   0.551  11.050  0.3265  0.0633 -0.0096
  391MPD2    H2 5900   3.079   0.506  11.359  2.1689  0.8243 -0.6304
  391MPD2    H3 5901   2.852   0.510  11.284 -3.5665  1.8770 -2.8752
  391MPD2     N 5902   2.979   0.641  10.868  0.1058  0.1215  0.3078
  391MPD2    H5 5903   3.068   0.676  10.834  1.0088 -0.1525  2.3977
  391MPD2    N1 5904   3.292   0.588  11.221 -0.2929 -0.0843 -0.4248
  391MPD2    H7 5905   3.302   0.590  11.322 -0.5740  0.2921 -0.4037
  392TMC3    C1 5906   2.883   0.728  10.667  0.1801  0.1446  0.5384
  392TMC3    C2 5907   2.829   0.686  10.550 -0.4992 -0.3663  0.1809
  392TMC3    C3 5908   2.861   0.754  10.433 -0.7079  0.9546  0.4445
  392TMC3    C4 5909   2.975   0.830  10.663 -0.2998  0.1151  0.1594
  392TMC3    C5 5910   3.006   0.889  10.543 -0.0946  0.4487  0.7375
  392TMC3    C6 5911   2.949   0.854  10.420 -0.5082  0.0842  1.3381
  392TMC3     C 5912   2.866   0.644  10.789  0.4694  0.4415  0.1116
  392TMC3     O 5913   2.755   0.589  10.799  0.1770  0.3067 -0.1196
  392TMC3     H 5914   2.751   0.611  10.556 -2.4790  1.6106 -0.6613
  392TMC3    H1 5915   3.019   0.874  10.752  0.3750  0.7210 -0.4692
  392TMC3    H2 5916   2.976   0.887  10.320  2.1027 -0.4313  1.8712
  392TMC3    C7 5917   3.100   0.992  10.550 -0.1913 -0.1883 -0.4356
  392TMC3    C8 5918   2.795   0.706  10.312 -0.5621  0.0247 -1.0802
  392TMC3    O1 5919   3.167   0.997  10.652 -0.0605  0.1111  0.2034
  392TMC3    O2 5920   2.756   0.589  10.302  0.2943  0.6349 -0.3481
  393TMC3    C1 5921   1.376   3.522  10.284 -0.9329 -0.0450  0.1017
  393TMC3    C2 5922   1.300   3.446  10.200 -0.3841 -0.1695  0.1636
  393TMC3    C3 5923   1.215   3.350  10.249  0.2544  0.3392 -0.2574
  393TMC3    C4 5924   1.364   3.511  10.422  0.3316  0.1940 -0.0909
  393TMC3    C5 5925   1.288   3.410  10.468  0.1189 -0.5038 -0.4215
  393TMC3    C6 5926   1.217   3.325  10.384 -0.8312 -0.5979  0.2993
  393TMC3     C 5927   1.475   3.598  10.213  0.4230  0.5713  0.5880
  393TMC3     O 5928   1.462   3.630  10.096  0.5917  0.3920 -0.0432
  393TMC3     H 5929   1.307   3.457  10.092  0.4311 -0.8223  0.1450
  393TMC3    H1 5930   1.412   3.582  10.489  0.9123 -1.3219  1.0860
  393TMC3    H2 5931   1.146   3.253  10.422 -0.8172 -0.8285 -0.1138
  393TMC3    C7 5932   1.240   3.410  10.609 -0.0478  0.6293 -0.4181
  393TMC3    C8 5933   1.165   3.264  10.151 -0.0328 -0.0888 -0.0345
  393TMC3    O1 5934   1.126   3.372  10.638 -0.3291  0.7497  0.1946
  393TMC3    O2 5935   1.132   3.315  10.047  0.7253 -0.1570  0.2404
  394TMC3    C1 5936   3.166   3.736  10.588 -0.1326 -0.0847  0.2504
  394TMC3    C2 5937   3.055   3.673  10.531  0.4293 -0.4221 -0.3187
  394TMC3    C3 5938   3.010   3.717  10.408 -0.4109 -0.3612  0.2315
  394TMC3    C4 5939   3.223   3.845  10.524  0.8082 -0.6113  0.3474
  394TMC3    C5 5940   3.167   3.884  10.405  0.5695  0.2255  0.3264
  394TMC3    C6 5941   3.062   3.827  10.347 -0.1572 -0.1579  0.2935
  394TMC3     C 5942   3.206   3.676  10.714  0.3009 -0.0264 -0.2253
  394TMC3     O 5943   3.126   3.614  10.782  0.1963  0.2200 -0.4022
  394TMC3     H 5944   3.009   3.593  10.588  0.4011 -1.9902 -2.5519
  394TMC3    H1 5945   3.309   3.901  10.561  0.6444  0.8335 -1.4326
  394TMC3    H2 5946   3.025   3.858  10.250 -0.2670 -0.3705  0.2688
  394TMC3    C7 5947   3.217   4.014  10.363 -0.1360 -0.9434 -0.2197
  394TMC3    C8 5948   2.900   3.644  10.342 -0.6116 -0.0195 -0.3624
  394TMC3    O1 5949   3.322   4.055  10.408  0.6388  0.4370  0.1523
  394TMC3    O2 5950   2.835   3.707  10.259 -0.8705 -0.7718  0.2121
  395TMC3    C1 5951   2.991   1.108  14.488  0.2434 -0.1193 -0.0610
  395TMC3    C2 5952   2.863   1.122  14.542  0.3395 -0.0592  0.0138
  395TMC3    C3 5953   2.855   1.194  14.653  0.3971 -0.0240 -0.1060
  395TMC3    C4 5954   3.095   1.187  14.524  0.0745 -0.3044  0.5598
  395TMC3    C5 5955   3.078   1.265  14.635 -0.2428  0.6851  0.4782
  395TMC3    C6 5956   2.958   1.268  14.706  0.0760 -0.2819 -0.0024
  395TMC3     C 5957   3.030   0.970  14.499 -0.0045 -0.5737  0.0817
  395TMC3     O 5958   2.957   0.909  14.577 -0.9366  0.5332 -0.2348
  395TMC3     H 5959   2.778   1.078  14.492  1.6454 -0.6383 -1.7083
  395TMC3    H1 5960   3.194   1.187  14.481 -0.7431  3.9001 -1.3454
  395TMC3    H2 5961   2.947   1.321  14.799  0.6694  0.7963 -0.5484
  395TMC3    C7 5962   3.182   1.363  14.682 -0.2605 -0.1982  0.3662
  395TMC3    C8 5963   2.758   1.147  14.754 -0.0638 -0.3667 -0.6857
  395TMC3    O1 5964   3.156   1.410  14.789  0.0045 -0.4779 -0.0765
  395TMC3    O2 5965   2.756   1.214  14.857 -0.2549  0.4804 -0.3041
  396MPD2     C 5966   2.678   1.819  16.603 -0.1771 -0.7408  0.1601
  396MPD2    C1 5967   2.783   1.869  16.678  0.2707 -0.4053 -0.7225
  396MPD2    C2 5968   2.848   1.991  16.641 -0.2073  0.1051 -0.2021
  396MPD2    C3 5969   2.798   2.061  16.536 -0.0698  0.1193 -0.4591
  396MPD2    C4 5970   2.691   2.012  16.466  0.2881 -0.7631 -0.9920
  396MPD2    C5 5971   2.636   1.891  16.492  0.2663 -0.6567  0.0604
  396MPD2     H 5972   2.929   2.035  16.697 -0.3917 -1.0475  0.9630
  396MPD2    H1 5973   2.663   2.060  16.373 -2.2490  1.3343  0.8517
  396MPD2    H2 5974   2.620   1.730  16.624  0.2285 -1.5334 -2.0106
  396MPD2    H3 5975   2.556   1.848  16.432  0.5916  1.4519 -1.8746
  396MPD2     N 5976   2.870   2.174  16.491 -0.2584 -0.6783  0.2404
  396MPD2    H5 5977   2.959   2.204  16.530  0.9624 -0.8322 -2.3710
  396MPD2    N1 5978   2.827   1.783  16.774  0.3329 -0.8012  0.2988
  396MPD2    H7 5979   2.777   1.695  16.778  0.1155 -0.7336 -0.7203
  397TMC3    C1 5980   2.952   1.697  16.952 -1.2465 -0.0571 -0.0433
  397TMC3    C2 5981   3.061   1.725  17.034  0.4310 -0.4448 -0.6946
  397TMC3    C3 5982   3.154   1.630  17.058  0.1053 -0.1382  0.1496
  397TMC3    C4 5983   2.955   1.583  16.879 -0.2583  0.0928  0.0778
  397TMC3    C5 5984   3.055   1.487  16.904 -0.6042  0.8150 -0.0150
  397TMC3    C6 5985   3.159   1.508  16.994 -0.1620  0.5020 -0.1042
  397TMC3     C 5986   2.914   1.817  16.874  1.0899 -0.0939  0.1611
  397TMC3     O 5987   2.950   1.927  16.917 -0.0792 -0.5459 -0.0185
  397TMC3     H 5988   3.046   1.806  17.105 -1.8684 -1.2629 -0.2540
  397TMC3    H1 5989   2.867   1.544  16.828 -0.3442  2.1942 -1.3455
  397TMC3    H2 5990   3.227   1.426  17.016 -1.0030 -0.0131  0.6260
  397TMC3    C7 5991   3.039   1.357  16.836 -0.4968  0.0735 -0.3197
  397TMC3    C8 5992   3.250   1.650  17.162  0.1193 -0.5771 -0.6028
  397TMC3    O1 5993   2.979   1.370  16.730 -0.2662  0.0094 -0.0525
  397TMC3    O2 5994   3.255   1.560  17.247 -0.4448  0.0163 -0.0609
  398MPD2     C 5995   1.557   3.233  17.623  0.2079  0.0502  0.4151
  398MPD2    C1 5996   1.567   3.151  17.729 -0.4559  0.2741 -0.2993
  398MPD2    C2 5997   1.635   3.192   0.105  0.5677 -0.1389  0.4286
  398MPD2    C3 5998   1.696   3.315   0.107 -0.8682  0.7248  0.0392
  398MPD2    C4 5999   1.692   3.393  17.734 -0.0038  0.6627  0.6531
  398MPD2    C5 6000   1.628   3.350  17.621  0.6105 -0.2273 -0.1923
  398MPD2     H 6001   1.642   3.129   0.192 -3.4535  0.3224  1.1184
  398MPD2    H1 6002   1.749   3.485  17.725  1.2148 -0.0947  0.6288
  398MPD2    H2 6003   1.511   3.207  17.528  2.2984  1.9049 -1.1160
  398MPD2    H3 6004   1.629   3.408  17.530  0.6392  0.7168  0.4124
  398MPD2     N 6005   1.763   3.345   0.230 -0.0663  0.4123 -0.0077
  398MPD2    H5 6006   1.742   3.280   0.304  0.5864 -0.2285 -0.3855
  398MPD2    N1 6007   1.495   3.028   0.005  0.5510 -0.6295  0.7215
  398MPD2    H7 6008   1.508   2.976   0.092 -0.4440 -0.2872  1.0772
  399TMC3    C1 6009   1.399   2.828  17.670 -0.6252  0.8678  0.1898
  399TMC3    C2 6010   1.506   2.764  17.714  0.7271  0.6687  0.3673
  399TMC3    C3 6011   1.520   2.632  17.681  0.6754  0.0392  0.5835
  399TMC3    C4 6012   1.297   2.764  17.612  0.0664 -0.2196  0.6955
  399TMC3    C5 6013   1.310   2.628  17.589 -0.1268 -0.3947 -0.5770
  399TMC3    C6 6014   1.426   2.558  17.618 -0.0290 -0.8021  0.8227
  399TMC3     C 6015   1.420   2.973  17.638 -0.0282 -0.0162  0.1117
  399TMC3     O 6016   1.389   3.024  17.530 -0.1284  0.2303  0.1488
  399TMC3     H 6017   1.584   2.813   0.035  0.3163 -1.1027  2.4519
  399TMC3    H1 6018   1.210   2.819  17.577  1.8625  1.1689 -1.5844
  399TMC3    H2 6019   1.436   2.453  17.593 -1.2628 -1.0941  1.5765
  399TMC3    C7 6020   1.193   2.547  17.551  0.0424 -0.2807  0.5054
  399TMC3    C8 6021   1.653   2.579  17.687  0.0974  0.5116 -0.0643
  399TMC3    O1 6022   1.216   2.429  17.532 -0.5598  0.5043 -0.0910
  399TMC3    O2 6023   1.741   2.665  17.686 -0.2011  0.0484  0.0737
  400TMC3    C1 6024   4.455   1.394  16.708 -0.5904 -0.4551 -0.5702
  400TMC3    C2 6025   4.327   1.401  16.657  0.0654  0.7806  0.4720
  400TMC3    C3 6026   4.266   1.522  16.654  0.1850 -0.3262 -0.7288
  400TMC3    C4 6027   4.524   1.509  16.752  0.2250 -0.0213 -0.1812
  400TMC3    C5 6028   4.459   1.629  16.748 -0.3409 -0.3525 -0.0068
  400TMC3    C6 6029   4.332   1.635  16.695 -0.3233 -0.3753  0.2601
  400TMC3     C 6030   4.483   1.262  16.764  0.2960 -0.6833  0.4266
  400TMC3     O 6031   4.407   1.174  16.738 -0.3435  0.2949 -0.5960
  400TMC3     H 6032   4.290   1.319  16.596 -0.0371  1.5018 -0.4423
  400TMC3    H1 6033   4.626   1.509  16.790 -0.2077  1.3962  1.0285
  400TMC3    H2 6034   4.278   1.726  16.672  0.3938 -0.1789 -0.6414
  400TMC3    C7 6035   4.536   1.743  16.717 -0.9360  0.7684  0.4309
  400TMC3    C8 6036   4.130   1.535  16.601  0.9588 -0.1701 -0.0275
  400TMC3    O1 6037   4.657   1.728  16.698 -0.2409 -0.6368  0.4078
  400TMC3    O2 6038   4.099   1.648  16.561 -0.0925 -0.5024  0.1684
  401MPD2     C 6039   2.793   0.243   0.808 -0.3069  0.8827 -1.1717
  401MPD2    C1 6040   2.920   0.285   0.776 -0.0499  0.4740 -0.1918
  401MPD2    C2 6041   3.012   0.185   0.747 -0.1440 -0.4181 -0.3767
  401MPD2    C3 6042   2.972   0.050   0.741  0.5216  0.6924  0.2467
  401MPD2    C4 6043   2.847   0.008   0.772  1.1758  0.1252 -0.7235
  401MPD2    C5 6044   2.755   0.109   0.798 -0.1900 -0.0329  0.3416
  401MPD2     H 6045   3.115   0.213   0.731 -1.2110  3.7332  0.0489
  401MPD2    H1 6046   2.802   4.645   0.759  2.6609 -0.5171 -1.0302
  401MPD2    H2 6047   2.723   0.318   0.842  2.5065  1.6084  2.9794
  401MPD2    H3 6048   2.657   0.071   0.823 -0.9571  0.8214 -1.4194
  401MPD2     N 6049   3.074   4.687   0.707 -0.0353 -0.7038 -0.6719
  401MPD2    H5 6050   3.166   4.724   0.684 -1.2389  3.4296  1.2109
  401MPD2    N1 6051   2.970   0.419   0.786 -0.2539 -0.0887 -1.1877
  401MPD2    H7 6052   3.065   0.439   0.754 -0.3303  1.0378 -0.6772
  402TMC3    C1 6053   3.181   4.479   0.682  0.0784  0.4024 -0.1008
  402TMC3    C2 6054   3.195   4.356   0.735 -0.6974 -0.6033  0.1134
  402TMC3    C3 6055   3.300   4.282   0.689  0.3203  0.4773 -0.4808
  402TMC3    C4 6056   3.264   4.538   0.586  0.3781 -0.0508 -0.0759
  402TMC3    C5 6057   3.374   4.462   0.552 -0.4470 -0.0444  0.1247
  402TMC3    C6 6058   3.396   4.334   0.603  0.1748 -0.1678 -0.3759
  402TMC3     C 6059   3.067   4.556   0.730 -0.1430 -0.0268 -0.2790
  402TMC3     O 6060   3.006   4.500   0.818 -0.0103  0.1589  0.0441
  402TMC3     H 6061   3.131   4.321   0.815  0.9729  0.2919  1.8361
  402TMC3    H1 6062   3.247   4.627   0.528  2.2743 -0.9833 -2.0840
  402TMC3    H2 6063   3.487   4.278   0.588 -0.1795 -0.9219  0.3194
  402TMC3    C7 6064   3.482   4.524   0.480 -0.2042 -0.3405  0.2940
  402TMC3    C8 6065   3.312   4.135   0.712  0.0538 -0.1780  0.2426
  402TMC3    O1 6066   3.466   4.646   0.474  0.0469 -0.2249 -0.2885
  402TMC3    O2 6067   3.232   4.090   0.795  0.2113  0.1811  0.0250
  403MPD2     C 6068   1.151   3.118  12.942 -0.4725 -0.1154  0.0111
  403MPD2    C1 6069   1.137   3.231  13.011 -1.3257  0.0662  0.3801
  403MPD2    C2 6070   1.146   3.229  13.151  0.1850  0.0713  0.0727
  403MPD2    C3 6071   1.163   3.111  13.215 -1.3948 -0.7194 -0.1888
  403MPD2    C4 6072   1.161   2.993  13.145  0.5505 -0.1915  0.0019
  403MPD2    C5 6073   1.175   3.003  13.008  0.2930  0.5109  0.3237
  403MPD2     H 6074   1.123   3.318  13.208 -0.1240 -0.9473  1.5293
  403MPD2    H1 6075   1.152   2.898  13.198  1.8883 -1.3025 -1.7547
  403MPD2    H2 6076   1.144   3.120  12.833  0.4331 -0.7131 -0.0656
  403MPD2    H3 6077   1.179   2.912  12.951 -2.8727  1.5508 -1.5521
  403MPD2     N 6078   1.183   3.118  13.355  0.3887  0.0079 -0.3838
  403MPD2    H5 6079   1.218   3.206  13.391 -0.4675  0.3207 -0.3236
  403MPD2    N1 6080   1.075   3.348  12.949  0.4228 -0.2610  0.0595
  403MPD2    H7 6081   1.057   3.345  12.849  1.7234 -0.8957 -0.1673
  404TMC3    C1 6082   0.941   3.521  12.981  0.7766  0.0368 -1.1023
  404TMC3    C2 6083   0.877   3.473  13.093  0.6025 -0.0565  0.1132
  404TMC3    C3 6084   0.775   3.385  13.071 -0.4302 -0.5717  0.3736
  404TMC3    C4 6085   0.902   3.471  12.860  0.0981 -0.4681 -0.0610
  404TMC3    C5 6086   0.792   3.389  12.845 -0.2329 -0.8700 -0.2512
  404TMC3    C6 6087   0.728   3.338  12.951  0.3909 -0.1709  0.6943
  404TMC3     C 6088   1.078   3.480  13.001  0.0246 -1.2234 -0.0441
  404TMC3     O 6089   1.134   3.534  13.097 -0.0414 -0.7102  0.2094
  404TMC3     H 6090   0.911   3.487  13.195  1.5357  0.2854 -0.2449
  404TMC3    H1 6091   0.946   3.519  12.774 -1.1593  1.8796  0.6236
  404TMC3    H2 6092   0.638   3.278  12.957  0.0770  0.1210 -0.8444
  404TMC3    C7 6093   0.734   3.376  12.705  0.3397  0.5859  0.7030
  404TMC3    C8 6094   0.726   3.316  13.190  0.0185 -0.5951 -0.5483
  404TMC3    O1 6095   0.790   3.443  12.620  0.3270 -0.4525 -0.4395
  404TMC3    O2 6096   0.715   3.384  13.290  0.2640  0.1700  0.3197
  405MPD2     C 6097   1.498   0.063  14.451  0.1899  0.4610  0.1697
  405MPD2    C1 6098   1.424   4.703  14.527 -0.1707 -0.2395 -0.0655
  405MPD2    C2 6099   1.286   0.001  14.544 -0.6751  0.6681 -0.0221
  405MPD2    C3 6100   1.225   0.106  14.475 -0.0893  0.2636 -0.0949
  405MPD2    C4 6101   1.302   0.192  14.398 -0.3688  0.3240 -0.6409
  405MPD2    C5 6102   1.437   0.173  14.390  0.1570  0.3623  0.4319
  405MPD2     H 6103   1.220   4.674  14.603 -0.3003 -0.2235 -0.5196
  405MPD2    H1 6104   1.268   0.279  14.343  0.9013  0.8664 -0.5730
  405MPD2    H2 6105   1.606   0.061  14.451  0.2026  0.9656  0.1030
  405MPD2    H3 6106   1.493   0.249  14.336  0.0398  0.1726  0.0455
  405MPD2     N 6107   1.091   0.130  14.511 -0.3265  0.5653  0.5271
  405MPD2    H5 6108   1.045   0.062  14.570  0.8934 -0.5852  0.1356
  405MPD2    N1 6109   1.496   4.601  14.594 -0.5256 -0.2306 -0.3679
  405MPD2    H7 6110   1.594   4.590  14.572 -0.9783 -1.1284 -1.9255
  406TMC3    C1 6111   0.649   0.214  14.533  0.3866 -0.4346  0.1330
  406TMC3    C2 6112   0.644   0.130  14.640 -0.2749  0.5887  0.3214
  406TMC3    C3 6113   0.765   0.102  14.695  0.3226  0.4627  0.8163
  406TMC3    C4 6114   0.766   0.270  14.478  0.2299  0.2411  0.1702
  406TMC3    C5 6115   0.885   0.233  14.543  0.1171  0.0124  1.0527
  406TMC3    C6 6116   0.885   0.154  14.656 -0.7163 -0.8561  0.0807
  406TMC3     C 6117   0.535   0.209  14.445  0.1253  0.6429 -0.3096
  406TMC3     O 6118   0.504   0.304  14.373  0.1912  0.0121  0.0610
  406TMC3     H 6119   0.552   0.100  14.689 -0.7574  0.9963 -0.3306
  406TMC3    H1 6120   0.752   0.337  14.394  0.6412 -2.6371 -2.2042
  406TMC3    H2 6121   0.974   0.143  14.716  0.5906 -1.1099 -1.9131
  406TMC3    C7 6122   1.012   0.238  14.473  0.1097  0.5336  0.4168
  406TMC3    C8 6123   0.757   4.731  14.794 -0.4054 -0.0234 -0.1285
  406TMC3    O1 6124   1.042   0.334  14.402 -0.0660  0.8415 -0.5607
  406TMC3    O2 6125   0.670   0.002  14.879  0.2618 -0.4076  0.1084
  407MPD2     C 6126   3.458   0.811   9.670 -0.6494  0.1283  0.8323
  407MPD2    C1 6127   3.553   0.779   9.765  0.4677 -0.1672 -0.6923
  407MPD2    C2 6128   3.577   0.860   9.873 -0.4447  0.3709  0.3786
  407MPD2    C3 6129   3.494   0.968   9.901  0.1820 -0.5598  0.3413
  407MPD2    C4 6130   3.393   0.992   9.807 -0.0711 -0.9332  0.6608
  407MPD2    C5 6131   3.374   0.912   9.697  0.1961  0.0015  0.2257
  407MPD2     H 6132   3.648   0.833   9.950  1.4329  0.0496 -1.4820
  407MPD2    H1 6133   3.321   1.074   9.804  1.4236  0.2954 -1.4836
  407MPD2    H2 6134   3.453   0.759   9.575  3.3494 -0.9855  1.2277
  407MPD2    H3 6135   3.293   0.934   9.628 -1.0405 -2.1199  0.9842
  407MPD2     N 6136   3.512   1.060  10.000  0.7333 -0.1820  0.1404
  407MPD2    H5 6137   3.442   1.133  10.003  2.1530  1.2260 -1.2254
  407MPD2    N1 6138   3.650   0.680   9.741  0.5250  0.0960 -0.1861
  407MPD2    H7 6139   3.723   0.657   9.808  0.3151  0.8498  0.2912
  408TMC3    C1 6140   3.755   0.492   9.632 -0.0247  0.8476  0.3898
  408TMC3    C2 6141   3.881   0.537   9.649 -0.2049  0.4440  0.9853
  408TMC3    C3 6142   3.981   0.439   9.626  0.3048  0.1485  1.1052
  408TMC3    C4 6143   3.723   0.364   9.590 -0.0240 -0.8771 -0.3204
  408TMC3    C5 6144   3.824   0.272   9.564  0.1853 -0.8118  0.1035
  408TMC3    C6 6145   3.956   0.315   9.579 -0.3287 -0.5286 -0.1045
  408TMC3     C 6146   3.648   0.587   9.635 -0.5552 -0.0062 -0.7041
  408TMC3     O 6147   3.566   0.567   9.547  0.4375 -0.0453  0.1424
  408TMC3     H 6148   3.904   0.641   9.667  0.5300  0.2981  0.8973
  408TMC3    H1 6149   3.620   0.331   9.581 -0.2985  0.2065 -1.2564
  408TMC3    H2 6150   4.036   0.247   9.551 -0.8169 -1.5813  1.0589
  408TMC3    C7 6151   3.783   0.134   9.556 -0.1416  0.7337  0.2387
  408TMC3    C8 6152   4.113   0.470   9.685  0.2209  0.1648  0.0686
  408TMC3    O1 6153   3.662   0.113   9.553  0.6855 -0.1399 -0.3088
  408TMC3    O2 6154   4.183   0.372   9.709 -0.2273  0.3315  0.0186
  409MPD2     C 6155   3.397   1.209  16.835 -0.2636 -0.2973 -0.0209
  409MPD2    C1 6156   3.451   1.240  16.959  0.0226 -0.2616 -0.3186
  409MPD2    C2 6157   3.478   1.373  16.992 -0.0771 -0.4367  0.0245
  409MPD2    C3 6158   3.473   1.469  16.887 -0.1782 -0.0613 -0.1601
  409MPD2    C4 6159   3.436   1.425  16.763  0.3197  0.2385  0.9912
  409MPD2    C5 6160   3.396   1.300  16.736 -0.0588  0.6578  0.0867
  409MPD2     H 6161   3.509   1.394  17.093  0.2972  1.6453 -0.5232
  409MPD2    H1 6162   3.436   1.500  16.684  1.3796  0.3161  1.0637
  409MPD2    H2 6163   3.369   1.107  16.816 -0.7776 -0.2480  0.4912
  409MPD2    H3 6164   3.359   1.280  16.637  1.0024  2.5389 -0.6808
  409MPD2     N 6165   3.515   1.604  16.908  0.1010 -0.0342 -0.3698
  409MPD2    H5 6166   3.514   1.659  16.822 -0.6501  0.2399 -0.1772
  409MPD2    N1 6167   3.477   1.152  17.065 -0.3100  0.2454 -0.6298
  409MPD2    H7 6168   3.516   1.196  17.148  0.1962 -0.6348 -0.4076
  410TMC3    C1 6169   3.674   1.749  16.982 -0.4200  0.1898 -0.5494
  410TMC3    C2 6170   3.802   1.695  16.975  0.0653  0.4763 -0.0827
  410TMC3    C3 6171   3.885   1.743  16.882 -0.4350  0.5660 -0.0510
  410TMC3    C4 6172   3.638   1.837  16.881 -0.4083 -0.9275 -0.2635
  410TMC3    C5 6173   3.726   1.886  16.788 -0.2578  0.9564  0.0354
  410TMC3    C6 6174   3.855   1.843  16.797 -0.5993  0.4153 -0.1456
  410TMC3     C 6175   3.574   1.652  17.019 -0.1391 -0.1666  0.2235
  410TMC3     O 6176   3.601   1.594  17.123  0.3760  0.1684 -0.0391
  410TMC3     H 6177   3.837   1.622  17.047  0.9994 -0.1249 -1.1624
  410TMC3    H1 6178   3.537   1.873  16.871  0.5555  1.6916 -0.4417
  410TMC3    H2 6179   3.920   1.858  16.711  0.7133 -1.4553  0.5111
  410TMC3    C7 6180   3.668   1.867  16.659  0.0751  0.2318 -0.4812
  410TMC3    C8 6181   4.026   1.722  16.905  0.7408  0.3884  0.0875
  410TMC3    O1 6182   3.567   1.800  16.665 -0.0410  0.3104 -0.2387
  410TMC3    O2 6183   4.102   1.820  16.895 -0.1303  0.0318  0.3981
  411MPD2     C 6184   3.865   1.823  14.520  0.3353  0.1163 -0.0058
  411MPD2    C1 6185   3.773   1.873  14.425  0.2078  0.0208  0.3490
  411MPD2    C2 6186   3.732   1.793  14.320 -0.0794  0.4514 -0.2145
  411MPD2    C3 6187   3.758   1.654  14.322  0.0612 -0.3530 -0.1305
  411MPD2    C4 6188   3.854   1.605  14.405  0.1716 -0.5167 -0.4103
  411MPD2    C5 6189   3.900   1.687  14.510 -0.4939 -0.2895  0.2897
  411MPD2     H 6190   3.661   1.833  14.248 -1.8536  0.3774  1.4975
  411MPD2    H1 6191   3.879   1.500  14.410 -0.1926 -0.4753  2.7430
  411MPD2    H2 6192   3.900   1.890  14.598  0.6684  0.2123 -0.2384
  411MPD2    H3 6193   3.974   1.647  14.579  0.4783  2.0004  0.5744
  411MPD2     N 6194   3.712   1.567  14.218  0.0271  0.0373 -0.1444
  411MPD2    H5 6195   3.722   1.468  14.237  2.0386  0.0899 -0.9252
  411MPD2    N1 6196   3.726   2.004  14.444  0.4870  0.0181 -0.2373
  411MPD2    H7 6197   3.770   2.061  14.516  0.1632 -0.4514  0.3311
  412TMC3    C1 6198   3.561   1.512  14.047  0.2480  0.4832 -0.4466
  412TMC3    C2 6199   3.488   1.437  14.138 -0.3960  0.5131  0.8040
  412TMC3    C3 6200   3.378   1.375  14.086 -0.1956 -0.5861 -0.1736
  412TMC3    C4 6201   3.516   1.535  13.919  0.1430  0.9884  0.4887
  412TMC3    C5 6202   3.404   1.476  13.872  0.6419 -0.5085 -0.0523
  412TMC3    C6 6203   3.344   1.377  13.947 -0.3598 -0.1703 -0.1835
  412TMC3     C 6204   3.649   1.609  14.100  0.5232 -0.2144 -0.3017
  412TMC3     O 6205   3.645   1.723  14.057 -0.2867  0.5147 -0.0604
  412TMC3     H 6206   3.515   1.422  14.242  0.5587 -0.0053  0.4868
  412TMC3    H1 6207   3.581   1.583  13.846 -1.7575  0.0631 -1.8307
  412TMC3    H2 6208   3.251   1.332  13.914 -0.3149  1.2741 -2.2578
  412TMC3    C7 6209   3.304   1.561  13.817  0.5785 -0.2057 -0.6046
  412TMC3    C8 6210   3.263   1.385  14.171  0.3664  0.2483 -0.4917
  412TMC3    O1 6211   3.190   1.536  13.849  0.0001 -0.4386  0.6915
  412TMC3    O2 6212   3.262   1.359  14.295  0.2502 -0.1260 -0.3706
  413MPD2     C 6213   0.420   0.551  15.667  0.3882  0.4884 -0.2164
  413MPD2    C1 6214   0.365   0.548  15.543 -0.1979  0.3787  0.1606
  413MPD2    C2 6215   0.452   0.552  15.435 -0.2994 -0.2740 -0.2438
  413MPD2    C3 6216   0.582   0.555  15.453  0.2806  0.1751  0.3842
  413MPD2    C4 6217   0.638   0.565  15.581 -0.4380 -0.0658  1.2721
  413MPD2    C5 6218   0.553   0.558  15.693 -0.4696  0.9196  0.6350
  413MPD2     H 6219   0.403   0.548  15.338  3.5091  0.8576 -2.2304
  413MPD2    H1 6220   0.743   0.578  15.608 -1.0861  3.3688  2.0995
  413MPD2    H2 6221   0.362   0.555  15.759 -1.5440 -1.3067 -1.3665
  413MPD2    H3 6222   0.597   0.569  15.792 -3.5812  1.2022  1.9987
  413MPD2     N 6223   0.665   0.532  15.343  0.3540 -0.0739 -0.9229
  413MPD2    H5 6224   0.624   0.501  15.255 -0.5832 -0.2774 -0.4227
  413MPD2    N1 6225   0.224   0.542  15.538 -0.6303 -0.3416 -0.0534
  413MPD2    H7 6226   0.173   0.554  15.624  1.0670 -2.5204  1.2633
  414TMC3    C1 6227   0.853   0.455  15.233  0.3502 -0.3652  0.5010
  414TMC3    C2 6228   0.924   0.350  15.272  0.1381  0.1142  0.2381
  414TMC3    C3 6229   0.929   0.251  15.179 -0.1973  0.1906  0.5548
  414TMC3    C4 6230   0.787   0.471  15.110  0.0388  0.1540 -0.3173
  414TMC3    C5 6231   0.801   0.366  15.022  0.5498  0.1528 -0.0892
  414TMC3    C6 6232   0.870   0.256  15.054  0.0763  0.2081  0.6286
  414TMC3     C 6233   0.800   0.529  15.345 -0.8444  0.1675 -0.5344
  414TMC3     O 6234   0.880   0.572  15.428  0.2523  0.8395 -0.3500
  414TMC3     H 6235   0.955   0.338  15.375 -1.2160  0.1536  0.6471
  414TMC3    H1 6236   0.732   0.559  15.078 -1.5179 -0.5254  0.4700
  414TMC3    H2 6237   0.868   0.167  14.992  1.7434  0.7892 -0.2379
  414TMC3    C7 6238   0.706   0.372  14.913 -0.1488 -0.0756 -0.1346
  414TMC3    C8 6239   0.999   0.124  15.207  0.6592  0.2671  0.1704
  414TMC3    O1 6240   0.597   0.318  14.937 -0.6530  0.0687 -0.4425
  414TMC3    O2 6241   0.988   0.032  15.128 -0.4683 -0.4487  0.0847
  415TMC3    C1 6242   1.336   2.620  10.033 -0.5236 -0.6228 -1.0608
  415TMC3    C2 6243   1.380   2.729   9.962 -0.0390  0.2597  0.0081
  415TMC3    C3 6244   1.326   2.735   9.828  0.4643 -0.0215 -0.4557
  415TMC3    C4 6245   1.255   2.520   9.984  0.0599  0.2198 -0.1714
  415TMC3    C5 6246   1.216   2.531   9.854 -1.1131  0.4746 -0.4655
  415TMC3    C6 6247   1.256   2.636   9.770  0.2178 -0.3266 -0.2683
  415TMC3     C 6248   1.368   2.616  10.179 -0.7168 -0.3420 -0.8378
  415TMC3     O 6249   1.340   2.713  10.254  0.4810 -0.1814 -0.0493
  415TMC3     H 6250   1.434   2.810  10.010  2.0146 -0.6173 -0.8755
  415TMC3    H1 6251   1.235   2.432  10.043 -0.9957  0.4837 -0.1447
  415TMC3    H2 6252   1.208   2.641   9.674  1.2754  1.9660 -0.6762
  415TMC3    C7 6253   1.100   2.453   9.821  0.6426 -0.1111 -0.1500
  415TMC3    C8 6254   1.318   2.868   9.763 -0.6298 -0.4343 -0.0833
  415TMC3    O1 6255   1.071   2.428   9.704  0.5741 -0.2561  0.0221
  415TMC3    O2 6256   1.264   2.876   9.654 -0.8652  0.1544  0.5245
  416MPD2     C 6257   3.141   1.941  11.634  0.1367  0.6890 -0.7829
  416MPD2    C1 6258   3.016   1.886  11.622  0.6673  0.1177 -0.1480
  416MPD2    C2 6259   3.011   1.767  11.550  0.3814 -0.1846  0.1220
  416MPD2    C3 6260   3.122   1.695  11.507 -0.0091  0.6305  0.0463
  416MPD2    C4 6261   3.245   1.747  11.538  0.5914 -0.0679 -0.2679
  416MPD2    C5 6262   3.250   1.866  11.598 -0.1338  0.8131  0.0662
  416MPD2     H 6263   2.913   1.725  11.530  0.9560 -1.0539 -0.8772
  416MPD2    H1 6264   3.333   1.698  11.497  0.4115  0.4308 -1.2673
  416MPD2    H2 6265   3.149   2.043  11.671  0.4594  0.6355 -0.7047
  416MPD2    H3 6266   3.347   1.916  11.596  1.7655 -2.8716  0.3472
  416MPD2     N 6267   3.122   1.588  11.415 -0.6001 -0.0696  0.2539
  416MPD2    H5 6268   3.208   1.564  11.368 -0.6486  0.3500 -0.0512
  416MPD2    N1 6269   2.903   1.952  11.683  0.0982  0.0982 -0.3462
  416MPD2    H7 6270   2.911   2.040  11.733 -0.2440 -0.6492  1.0054
  417TMC3    C1 6271   2.669   1.972  11.751  0.6292 -0.4429  0.7914
  417TMC3    C2 6272   2.705   2.073  11.838  0.0541 -0.4315 -0.7621
  417TMC3    C3 6273   2.603   2.157  11.870 -0.7860 -0.6468  0.2387
  417TMC3    C4 6274   2.544   1.954  11.702  0.2800  0.4771  0.4076
  417TMC3    C5 6275   2.447   2.038  11.741  0.2423  0.0752  0.5502
  417TMC3    C6 6276   2.476   2.144  11.822  1.0232  0.0704  0.5994
  417TMC3     C 6277   2.775   1.896  11.688 -0.0571 -0.3902 -0.0260
  417TMC3     O 6278   2.738   1.782  11.667 -0.1930 -0.2920  0.0611
  417TMC3     H 6279   2.804   2.084  11.881  0.5481 -1.3253 -1.6604
  417TMC3    H1 6280   2.525   1.878  11.627 -1.6793  1.0634  0.3029
  417TMC3    H2 6281   2.406   2.222  11.850 -1.5772 -0.9542 -3.1596
  417TMC3    C7 6282   2.345   2.064  11.644  0.3272  0.5399  0.3595
  417TMC3    C8 6283   2.609   2.232  11.995 -0.7589 -0.2394  0.1159
  417TMC3    O1 6284   2.331   2.180  11.610 -0.4045  0.0984  0.0626
  417TMC3    O2 6285   2.509   2.227  12.069 -0.3184 -0.2158 -0.2009
  418TMC3    C1 6286   2.081   3.489   0.523  0.4645 -0.5406 -0.8469
  418TMC3    C2 6287   2.033   3.505   0.404 -0.5763  0.3855  0.2833
  418TMC3    C3 6288   1.907   3.457   0.382 -0.0150 -1.1825  0.2769
  418TMC3    C4 6289   2.016   3.423   0.624  0.0017 -0.3166  0.1359
  418TMC3    C5 6290   1.882   3.386   0.610 -0.6997 -0.5726  0.6486
  418TMC3    C6 6291   1.826   3.397   0.486  0.4011  0.1151 -0.0580
  418TMC3     C 6292   2.220   3.531   0.543 -0.2690 -0.2572 -0.4178
  418TMC3     O 6293   2.267   3.615   0.468 -0.4925 -1.1170 -0.2307
  418TMC3     H 6294   2.091   3.551   0.324 -0.0261  0.8465  0.9498
  418TMC3    H1 6295   2.061   3.401   0.720 -0.3410 -2.0614 -0.0967
  418TMC3    H2 6296   1.727   3.353   0.478  0.7088 -0.5647 -0.1464
  418TMC3    C7 6297   1.840   3.281   0.694  0.3513  1.1089  0.8007
  418TMC3    C8 6298   1.860   3.445   0.245  0.2723  0.4667 -0.2519
  418TMC3    O1 6299   1.921   3.229   0.772  0.5171 -0.6678  0.3704
  418TMC3    O2 6300   1.908   3.515   0.158  0.2855 -0.0068  0.0937
  419MPD2     C 6301   0.240   1.809  12.591 -0.6599  1.1129  1.1806
  419MPD2    C1 6302   0.144   1.912  12.580  0.2385  0.3313 -0.0326
  419MPD2    C2 6303   0.075   1.957  12.692 -0.5672 -0.2730 -0.2702
  419MPD2    C3 6304   0.120   1.916  12.820 -0.1085 -0.3099 -0.7223
  419MPD2    C4 6305   0.218   1.812  12.831  0.1794 -0.0770  0.4476
  419MPD2    C5 6306   0.283   1.768  12.717  0.2131 -0.6352  1.0267
  419MPD2     H 6307   4.726   2.026  12.687  0.7238  1.2033 -1.2105
  419MPD2    H1 6308   0.249   1.770  12.926  1.5291 -0.3490 -0.1090
  419MPD2    H2 6309   0.293   1.775  12.502 -3.9129 -0.6678 -0.0798
  419MPD2    H3 6310   0.372   1.706  12.726  1.2866  0.7678 -0.0207
  419MPD2     N 6311   0.050   1.964  12.937  0.3909 -0.2784 -0.8544
  419MPD2    H5 6312   4.708   2.031  12.932  0.8159  0.1575 -1.5089
  419MPD2    N1 6313   0.111   1.967  12.458  0.4932  0.2937  0.3296
  419MPD2    H7 6314   0.030   2.028  12.458 -0.6164 -1.1900 -1.3245
  420TMC3    C1 6315   0.004   1.972  13.169 -0.5655  0.0025 -0.0044
  420TMC3    C2 6316   4.674   2.086  13.142  0.1032 -0.2824 -0.0510
  420TMC3    C3 6317   4.649   2.171  13.237  0.0587  0.2090 -0.6874
  420TMC3    C4 6318   0.064   1.946  13.293 -0.0960  0.5172  0.2270
  420TMC3    C5 6319   0.041   2.038  13.388  0.5246  0.7280 -0.0550
  420TMC3    C6 6320   4.696   2.144  13.368 -0.6025 -0.4072  0.7052
  420TMC3     C 6321   0.063   1.897  13.058  0.4789 -0.4979  0.0787
  420TMC3     O 6322   0.122   1.802  13.110 -0.1425  0.1699 -0.1321
  420TMC3     H 6323   4.614   2.098  13.053  0.0070  0.9708  0.1846
  420TMC3    H1 6324   0.121   1.857  13.316 -3.1978 -0.5655  3.6405
  420TMC3    H2 6325   4.668   2.208  13.451  0.5307 -0.7431  1.3501
  420TMC3    C7 6326   0.115   2.022  13.512  0.2169 -0.0088  0.9370
  420TMC3    C8 6327   4.568   2.287  13.207 -0.3191 -0.7280 -0.2652
  420TMC3    O1 6328   0.130   1.905  13.536  0.1124  0.1952  0.1221
  420TMC3    O2 6329   4.522   2.296  13.096 -0.1542  0.2815  0.2436
  421TMC3    C1 6330   1.212   3.042  13.568  0.3233 -0.1626  0.3319
  421TMC3    C2 6331   1.174   3.158  13.625  0.1570 -0.1887  0.2268
  421TMC3    C3 6332   1.229   3.186  13.752 -0.6659 -0.3047 -0.2083
  421TMC3    C4 6333   1.293   2.953  13.633 -0.2466 -0.3398 -0.5428
  421TMC3    C5 6334   1.342   2.984  13.756 -0.1112  0.4345  0.4919
  421TMC3    C6 6335   1.312   3.105  13.814  0.0863 -0.3534  0.5504
  421TMC3     C 6336   1.180   3.007  13.438  0.2431 -0.3617 -0.4755
  421TMC3     O 6337   1.174   2.889  13.417  0.1122 -0.0930  0.5424
  421TMC3     H 6338   1.106   3.227  13.576  2.6799  0.4026 -2.4358
  421TMC3    H1 6339   1.337   2.867  13.584  0.6328 -0.9884  1.3692
  421TMC3    H2 6340   1.352   3.115  13.915  0.9087  1.9863 -0.0051
  421TMC3    C7 6341   1.478   2.944  13.790  0.2728  0.1126  0.4260
  421TMC3    C8 6342   1.268   3.324  13.771 -0.1960  0.2379 -0.0967
  421TMC3    O1 6343   1.545   3.033  13.838  0.5653 -0.8278  0.0959
  421TMC3    O2 6344   1.185   3.406  13.732 -0.2977 -0.3514 -0.0081
  422TMC3    C1 6345   3.653   0.271  12.435 -0.1404 -0.1702 -0.6614
  422TMC3    C2 6346   3.630   0.374  12.518 -0.6877  0.0384  0.0181
  422TMC3    C3 6347   3.545   0.358  12.623 -0.3867 -0.4074  0.0949
  422TMC3    C4 6348   3.602   0.147  12.451  0.0168  0.0343  0.0582
  422TMC3    C5 6349   3.524   0.131  12.563 -0.2980 -0.4099  0.6199
  422TMC3    C6 6350   3.505   0.230  12.653  0.0165 -0.0851  0.5901
  422TMC3     C 6351   3.762   0.292  12.337 -0.1863 -0.4355 -0.0265
  422TMC3     O 6352   3.817   0.402  12.341  0.0543 -0.5568 -0.0588
  422TMC3     H 6353   3.690   0.465  12.519 -0.3577 -0.1760 -0.5741
  422TMC3    H1 6354   3.632   0.056  12.399 -2.2952 -1.0257  0.5917
  422TMC3    H2 6355   3.448   0.207  12.742 -2.9851 -1.9749 -1.8231
  422TMC3    C7 6356   3.470   0.001  12.599 -0.1555 -0.1536  0.3925
  422TMC3    C8 6357   3.544   0.460  12.721 -0.4046  0.2383 -0.3193
  422TMC3    O1 6358   3.543   4.635  12.587 -0.0943  0.3937 -0.0473
  422TMC3    O2 6359   3.597   0.569  12.691 -0.3365  0.0533  0.1435
  423MPD2     C 6360   0.510   0.638   0.604 -0.4746 -0.4184 -0.2619
  423MPD2    C1 6361   0.466   0.504   0.629  0.1945 -0.8864 -0.0185
  423MPD2    C2 6362   0.476   0.415   0.523  0.1155  0.7044  0.7392
  423MPD2    C3 6363   0.511   0.459   0.394  0.8128 -0.6066 -0.0254
  423MPD2    C4 6364   0.541   0.595   0.375 -0.2899 -0.2133  0.6316
  423MPD2    C5 6365   0.542   0.688   0.479 -0.3633  0.0756 -0.5984
  423MPD2     H 6366   0.451   0.310   0.537 -1.1715  0.8385 -0.5712
  423MPD2    H1 6367   0.567   0.627   0.275  0.2685  2.6494  1.6709
  423MPD2    H2 6368   0.501   0.716   0.679 -0.1435  1.5012 -2.2002
  423MPD2    H3 6369   0.562   0.792   0.456  2.1057  0.0845  1.6287
  423MPD2     N 6370   0.506   0.379   0.284 -0.0984 -0.0835  0.1907
  423MPD2    H5 6371   0.542   0.416   0.196 -1.4016 -1.7628 -1.0584
  423MPD2    N1 6372   0.417   0.462   0.748  0.0365 -0.4980 -0.1751
  423MPD2    H7 6373   0.394   0.364   0.759  0.0720 -0.5111 -0.2153
  424TMC3    C1 6374   0.353   0.496   0.969  0.0290  0.6259  0.9881
  424TMC3    C2 6375   0.409   0.376   0.997  1.5957  0.2209 -0.4838
  424TMC3    C3 6376   0.375   0.313   1.115  1.1108  0.0792 -0.1554
  424TMC3    C4 6377   0.277   0.559   1.064 -0.0687  0.5047 -0.8321
  424TMC3    C5 6378   0.254   0.489   1.186  0.9322 -0.0130  0.6689
  424TMC3    C6 6379   0.304   0.373   1.218 -0.2462 -0.0790  0.1692
  424TMC3     C 6380   0.376   0.559   0.841 -0.1779 -0.2155  0.2464
  424TMC3     O 6381   0.343   0.677   0.831 -0.1418 -0.2713  0.1080
  424TMC3     H 6382   0.466   0.316   0.927  1.1022  1.0145 -1.5465
  424TMC3    H1 6383   0.232   0.656   1.049 -1.6428  0.1817  1.7663
  424TMC3    H2 6384   0.287   0.311   1.306  0.3912  1.7607  1.5874
  424TMC3    C7 6385   0.158   0.550   1.277  0.8703  0.6523 -0.7378
  424TMC3    C8 6386   0.449   0.193   1.142 -0.0495 -0.5368 -0.3262
  424TMC3    O1 6387   0.068   0.610   1.219 -0.0782  0.4529  0.0369
  424TMC3    O2 6388   0.402   0.127   1.231  0.7895  0.6147  0.4200
  425MPD2     C 6389   4.513   0.022  17.372 -0.0025  0.2028 -0.2653
  425MPD2    C1 6390   4.431   4.649  17.378  0.8136  0.0664  0.0045
  425MPD2    C2 6391   4.292   4.669  17.382  0.2532  0.1029  0.1106
  425MPD2    C3 6392   4.246   0.065  17.368  0.2574  0.1089 -0.5560
  425MPD2    C4 6393   4.330   0.170  17.360 -0.3454  0.1352  0.0880
  425MPD2    C5 6394   4.463   0.147  17.358 -0.4471 -0.1920  0.3476
  425MPD2     H 6395   4.226   4.583  17.386  0.5272 -0.1256 -0.3391
  425MPD2    H1 6396   4.302   0.274  17.348 -0.7217 -0.2402 -2.2323
  425MPD2    H2 6397   4.619   0.004  17.363 -0.4859 -2.2359 -1.1649
  425MPD2    H3 6398   4.539   0.224  17.347 -1.3507  1.0766  2.9919
  425MPD2     N 6399   4.106   0.085  17.353 -0.1732  0.1207 -0.2212
  425MPD2    H5 6400   4.043   0.009  17.331 -0.1045 -0.2831  0.9841
  425MPD2    N1 6401   4.490   4.519  17.385  0.4306  0.2417 -0.1712
  425MPD2    H7 6402   4.425   4.441  17.388  2.2982 -1.3051  0.2897
  426TMC3    C1 6403   4.602   4.324  17.363  0.2319 -0.4355  0.0103
  426TMC3    C2 6404   4.566   4.263  17.249  0.0770 -0.1758 -0.0068
  426TMC3    C3 6405   4.521   4.138  17.255 -0.1729  0.8749  0.3915
  426TMC3    C4 6406   4.568   4.277  17.488 -0.7751  0.0351  0.3990
  426TMC3    C5 6407   4.531   4.150  17.490 -0.1661 -0.5244  0.1053
  426TMC3    C6 6408   4.505   4.080  17.377  0.1758  0.0387  0.4772
  426TMC3     C 6409   4.614   4.469  17.362 -0.4233 -0.2841  0.6402
  426TMC3     O 6410   4.717   4.519  17.323 -0.6235 -0.0726  0.3274
  426TMC3     H 6411   4.572   4.308  17.150 -1.8143  1.2204  0.5084
  426TMC3    H1 6412   4.609   4.327  17.576 -0.1403 -0.3578  0.3257
  426TMC3    H2 6413   4.462   3.982  17.390 -0.1934  0.1555  0.1549
  426TMC3    C7 6414   4.495   4.089  17.618 -0.1919  0.0222  0.5441
  426TMC3    C8 6415   4.471   4.060  17.147 -0.6423 -0.0879  0.4305
  426TMC3    O1 6416   4.497   3.969  17.623  0.3246  0.6709 -0.0864
  426TMC3    O2 6417   4.463   3.940  17.161 -0.0862  0.7215  0.1275
  427MPD2     C 6418   2.788   2.019  14.533 -0.3620 -0.9424  0.4965
  427MPD2    C1 6419   2.785   2.034  14.665  0.1861 -0.2330  0.0038
  427MPD2    C2 6420   2.679   2.091  14.734  0.7719  0.5833 -0.1239
  427MPD2    C3 6421   2.583   2.156  14.659  1.2764  0.1198 -0.1945
  427MPD2    C4 6422   2.580   2.148  14.521  0.2016 -0.0245  0.4383
  427MPD2    C5 6423   2.687   2.085  14.459  0.4417 -0.3966  0.7167
  427MPD2     H 6424   2.677   2.095  14.843  1.3457  2.3420 -0.1932
  427MPD2    H1 6425   2.496   2.184  14.463 -0.4320 -0.1389  1.2794
  427MPD2    H2 6426   2.857   1.950  14.486  0.8982  0.9081 -0.3695
  427MPD2    H3 6427   2.690   2.059  14.354  0.3534  1.1955  0.3217
  427MPD2     N 6428   2.489   2.238  14.720 -0.4397  0.0032  0.6329
  427MPD2    H5 6429   2.415   2.257  14.653  0.3086 -0.2835 -0.2774
  427MPD2    N1 6430   2.882   1.978  14.744  0.2797 -0.8184 -0.1329
  427MPD2    H7 6431   2.872   1.984  14.845  3.3404 -0.2868  0.1379
  428TMC3    C1 6432   3.051   1.852  14.808 -0.1057 -0.5530 -0.3899
  428TMC3    C2 6433   2.967   1.753  14.860 -0.2989 -0.1235  0.6179
  428TMC3    C3 6434   3.017   1.671  14.947  0.2761 -0.4571  0.2580
  428TMC3    C4 6435   3.183   1.865  14.840  0.1758 -0.5032 -0.1339
  428TMC3    C5 6436   3.232   1.781  14.936  0.4074 -0.1646  0.5488
  428TMC3    C6 6437   3.156   1.676  14.980  0.7628  0.4486 -0.4861
  428TMC3     C 6438   3.005   1.943  14.704 -0.0949  0.2721  0.3203
  428TMC3     O 6439   3.073   1.969  14.604 -0.1309 -0.4529  0.1169
  428TMC3     H 6440   2.867   1.748  14.819 -0.0073 -2.4579  0.1714
  428TMC3    H1 6441   3.226   1.959  14.808  0.5341 -1.0779 -1.3448
  428TMC3    H2 6442   3.215   1.603  15.034 -0.9257  0.5385  1.5175
  428TMC3    C7 6443   3.311   1.835  15.040 -0.2056 -0.4457 -0.1220
  428TMC3    C8 6444   2.929   1.580  15.017 -0.0060 -0.2311  0.2560
  428TMC3    O1 6445   3.320   1.771  15.146  0.3156 -0.0303 -0.0190
  428TMC3    O2 6446   2.809   1.599  15.036 -0.7311  0.5433  0.3645
  429MPD2     C 6447   3.861   2.239  17.673 -0.2603  0.1861 -0.3813
  429MPD2    C1 6448   3.913   2.152  17.580  0.3761 -0.0107  0.3428
  429MPD2    C2 6449   3.964   2.204  17.464 -0.7220  0.1106  0.3528
  429MPD2    C3 6450   3.958   2.341  17.435  0.1209 -0.1640  0.6476
  429MPD2    C4 6451   3.908   2.431  17.529 -0.2403 -0.5554  0.2409
  429MPD2    C5 6452   3.853   2.372  17.644 -0.4125 -0.5655  0.7866
  429MPD2     H 6453   4.013   2.143  17.389 -0.0400  2.0315 -0.7709
  429MPD2    H1 6454   3.903   2.539  17.519  4.3702 -0.3527  0.1033
  429MPD2    H2 6455   3.839   2.210   0.039 -0.8947 -1.2240 -0.9123
  429MPD2    H3 6456   3.831   2.444  17.722 -0.0543 -1.7701  1.9924
  429MPD2     N 6457   4.012   2.377  17.310 -0.0754  0.3721  0.5585
  429MPD2    H5 6458   4.034   2.304  17.242 -0.4239 -0.7985  1.6879
  429MPD2    N1 6459   3.909   2.011  17.596 -0.4050  0.2023 -0.8102
  429MPD2    H7 6460   3.958   1.959  17.525 -0.5722  0.3224 -1.0132
  430TMC3    C1 6461   4.103   2.499  17.148 -0.1171 -1.1780 -0.0562
  430TMC3    C2 6462   4.092   2.606  17.067  0.0502  0.9360 -0.3710
  430TMC3    C3 6463   4.170   2.603  16.954  0.8616  0.2464  0.4621
  430TMC3    C4 6464   4.200   2.403  17.148  0.8273  0.7804  0.1221
  430TMC3    C5 6465   4.286   2.406  17.044  0.0173  0.5447 -0.1817
  430TMC3    C6 6466   4.271   2.508  16.949  0.1375 -0.1575 -0.3478
  430TMC3     C 6467   4.021   2.503  17.262 -0.6764 -0.5388  0.0476
  430TMC3     O 6468   3.973   2.610  17.305  0.0651  0.0100 -0.4852
  430TMC3     H 6469   4.000   2.664  17.069 -1.9286 -2.1883  0.6842
  430TMC3    H1 6470   4.216   2.324  17.220  0.1092  0.1680 -0.3943
  430TMC3    H2 6471   4.345   2.521  16.871  1.9022  1.2326  1.5556
  430TMC3    C7 6472   4.367   2.292  17.016  0.2408 -0.5188 -0.0686
  430TMC3    C8 6473   4.109   2.643  16.833 -0.2462  0.3504 -0.2741
  430TMC3    O1 6474   4.343   2.191  17.079  0.0607  0.2972  0.6078
  430TMC3    O2 6475   4.133   2.565  16.739 -0.1628 -0.6520  1.0710
  431MPD2     C 6476   4.369   2.400  12.732  0.0652 -0.4221  0.4212
  431MPD2    C1 6477   4.477   2.441  12.657  0.3783  0.4095  0.2637
  431MPD2    C2 6478   4.529   2.368  12.552  0.4123  0.0469 -0.2831
  431MPD2    C3 6479   4.474   2.246  12.521  0.2024 -0.5244 -1.0409
  431MPD2    C4 6480   4.372   2.190  12.599 -0.1451  0.5314 -0.0970
  431MPD2    C5 6481   4.318   2.271  12.700 -0.3509 -0.5964  0.4409
  431MPD2     H 6482   4.612   2.407  12.494 -1.1715  0.9676 -1.9349
  431MPD2    H1 6483   4.345   2.085  12.594 -0.3101  0.5819 -0.2695
  431MPD2    H2 6484   4.329   2.456  12.815 -0.9122 -0.2236 -0.1799
  431MPD2    H3 6485   4.236   2.235  12.762 -3.7985 -0.9224 -4.2745
  431MPD2     N 6486   4.521   2.169  12.418 -0.1117 -0.0650  0.5418
  431MPD2    H5 6487   4.484   2.075  12.414 -2.7737  0.9951 -0.0967
  431MPD2    N1 6488   4.520   2.575  12.676 -0.2517 -0.0021 -0.3041
  431MPD2    H7 6489   4.466   2.643  12.728 -2.1449 -1.9873  0.3267
  432TMC3    C1 6490   4.622   2.140  12.214 -0.9001 -0.0258  0.2565
  432TMC3    C2 6491   4.681   2.180  12.092  0.4461  0.2217 -0.1372
  432TMC3    C3 6492   0.054   2.119  12.038 -0.2025  0.1721  0.4089
  432TMC3    C4 6493   4.680   2.033  12.279 -0.3865 -0.3995 -0.1109
  432TMC3    C5 6494   0.070   1.993  12.231 -0.2716  0.0872 -0.1881
  432TMC3    C6 6495   0.126   2.038  12.115 -0.3022  0.1995 -0.2465
  432TMC3     C 6496   4.564   2.234  12.306 -0.3851  0.1961  0.1430
  432TMC3     O 6497   4.562   2.355  12.275 -0.3259 -0.4152  0.6599
  432TMC3     H 6498   4.623   2.247  12.031 -0.1315 -1.2479 -1.2154
  432TMC3    H1 6499   4.630   1.974  12.355  1.9624 -0.3256  1.5205
  432TMC3    H2 6500   0.228   2.017  12.084 -0.0107  1.4036 -0.1044
  432TMC3    C7 6501   0.164   1.946  12.337  0.3477  0.1149 -0.7387
  432TMC3    C8 6502   0.116   2.196  11.936 -0.4113 -0.5454  0.2763
  432TMC3    O1 6503   0.263   1.880  12.302  0.1711  0.1244  0.4946
  432TMC3    O2 6504   0.113   2.317  11.948 -0.6236  0.5384  0.1118
  433MPD2     C 6505   3.515   0.975  10.501 -0.4414 -0.5090  0.8365
  433MPD2    C1 6506   3.556   0.906  10.620  0.1538  0.6708  0.1643
  433MPD2    C2 6507   3.586   0.975  10.733  0.5563  0.3927 -0.3690
  433MPD2    C3 6508   3.598   1.111  10.732 -1.2845 -0.3714  0.3048
  433MPD2    C4 6509   3.550   1.181  10.626 -0.0181  0.2630  0.8026
  433MPD2    C5 6510   3.502   1.115  10.513  0.0281  0.5066  0.4543
  433MPD2     H 6511   3.621   0.924  10.821  1.0663 -1.0597 -1.4154
  433MPD2    H1 6512   3.563   1.288  10.620 -0.6071  0.2594 -0.7475
  433MPD2    H2 6513   3.471   0.923  10.417 -1.6253 -0.9152  1.7089
  433MPD2    H3 6514   3.469   1.174  10.428 -0.8324 -0.8350 -0.1428
  433MPD2     N 6515   3.665   1.164  10.844 -0.6783 -0.5980 -0.0584
  433MPD2    H5 6516   3.682   1.088  10.909  3.4694 -1.6813 -2.4608
  433MPD2    N1 6517   3.567   0.761  10.611 -0.1786  0.4473  0.3764
  433MPD2    H7 6518   3.557   0.730  10.514 -1.4021 -0.9238  0.9392
  434TMC3    C1 6519   3.676   0.562  10.658  0.6100  0.2319 -0.3943
  434TMC3    C2 6520   3.781   0.515  10.735 -0.2746  0.3136  0.5167
  434TMC3    C3 6521   3.807   0.383  10.748  0.5164  0.4120 -0.4740
  434TMC3    C4 6522   3.612   0.474  10.577 -0.0905 -0.7490  0.4158
  434TMC3    C5 6523   3.632   0.340  10.604  0.3004 -0.2353  0.5361
  434TMC3    C6 6524   3.728   0.291  10.690 -0.3825 -0.1685  0.0762
  434TMC3     C 6525   3.611   0.683  10.707  0.8707 -0.2126 -0.6569
  434TMC3     O 6526   3.622   0.703  10.828  0.1304 -0.0777 -0.1913
  434TMC3     H 6527   3.847   0.585  10.785  0.4220 -0.2260  0.3539
  434TMC3    H1 6528   3.541   0.521  10.511  1.4945  0.9320 -0.0713
  434TMC3    H2 6529   3.768   0.191  10.675 -0.5535  0.0375 -1.7541
  434TMC3    C7 6530   3.550   0.246  10.531 -0.4227 -0.5642  0.6940
  434TMC3    C8 6531   3.917   0.342  10.844  0.1056 -0.8205  0.1112
  434TMC3    O1 6532   3.482   0.304  10.444 -0.6409  0.0653 -0.8710
  434TMC3    O2 6533   3.991   0.437  10.875 -0.4180 -0.3324  0.0638
  435MPD2     C 6534   0.894   1.021  15.568  0.4692  0.2337  0.1604
  435MPD2    C1 6535   0.812   0.917  15.624  0.3556 -0.3641  0.4212
  435MPD2    C2 6536   0.871   0.828  15.707  0.0995 -0.7221  0.2199
  435MPD2    C3 6537   1.010   0.832  15.725  0.2535 -0.4855  0.2330
  435MPD2    C4 6538   1.092   0.926  15.662 -0.9191  0.4468  0.0719
  435MPD2    C5 6539   1.031   1.026  15.590  0.2822 -0.0627 -0.2245
  435MPD2     H 6540   0.805   0.759  15.758 -1.6350  1.9228  1.5444
  435MPD2    H1 6541   1.200   0.919  15.665 -0.9932 -1.4280 -2.0018
  435MPD2    H2 6542   0.851   1.104  15.514  0.8229 -0.5113 -1.2490
  435MPD2    H3 6543   1.086   1.102  15.535 -0.9345 -0.1457 -1.5415
  435MPD2     N 6544   1.067   0.733  15.806  0.8844  0.6138  0.4709
  435MPD2    H5 6545   1.005   0.691  15.875 -1.4607  1.6583 -1.0156
  435MPD2    N1 6546   0.670   0.922  15.626  0.3184 -0.5044 -0.0460
  435MPD2    H7 6547   0.624   0.853  15.685  3.8746 -2.6572  0.2095
  436TMC3    C1 6548   0.269   0.878  15.651 -0.1121 -0.7828  0.3989
  436TMC3    C2 6549   0.391   0.937  15.662 -0.1699  0.0565 -0.2236
  436TMC3    C3 6550   0.453   0.966  15.542 -0.0588  0.2174 -0.1745
  436TMC3    C4 6551   0.198   0.865  15.530 -0.1951  0.2325 -0.4018
  436TMC3    C5 6552   0.261   0.913  15.420  0.3902 -0.0592  0.9162
  436TMC3    C6 6553   0.392   0.956  15.423  0.0644 -0.2787  0.5004
  436TMC3     C 6554   0.203   0.825  15.768 -0.3632  0.1064 -0.1473
  436TMC3     O 6555   0.131   0.734  15.731  0.4673  0.0050  0.2321
  436TMC3     H 6556   0.445   0.946  15.755 -0.1027  5.1308 -0.7587
  436TMC3    H1 6557   0.090   0.855  15.528 -0.0125 -2.0760  2.1436
  436TMC3    H2 6558   0.428   0.997  15.330 -0.7710  1.0822  0.7832
  436TMC3    C7 6559   0.195   0.872  15.294  0.6179 -0.9745  0.3427
  436TMC3    C8 6560   0.591   0.999  15.541 -0.5845 -0.5020 -0.5033
  436TMC3    O1 6561   0.074   0.848  15.304  0.6592 -0.3671  0.9238
  436TMC3    O2 6562   0.625   1.067  15.449 -0.0045 -0.4743 -0.2007
  437TMC3    C1 6563   4.186   3.030  12.872  0.0086  0.7420 -0.0349
  437TMC3    C2 6564   4.098   3.044  12.981 -0.4392  0.7928  0.2506
  437TMC3    C3 6565   3.986   3.129  12.967  0.3156  0.9569  0.0527
  437TMC3    C4 6566   4.172   3.110  12.763  0.3917 -0.1534  0.5403
  437TMC3    C5 6567   4.073   3.211  12.766 -0.6694  0.0017 -0.2729
  437TMC3    C6 6568   3.973   3.219  12.861  0.0209 -0.4030 -0.0706
  437TMC3     C 6569   4.321   3.024  12.908 -0.0438 -0.1993  0.1002
  437TMC3     O 6570   4.377   3.129  12.876 -0.3512  0.0659 -0.4587
  437TMC3     H 6571   4.110   2.972  13.061  4.3717  0.9011 -0.3312
  437TMC3    H1 6572   4.252   3.109  12.690 -0.4133 -0.5094 -0.3392
  437TMC3    H2 6573   3.897   3.296  12.847 -0.5712 -0.9982 -0.1642
  437TMC3    C7 6574   4.119   3.342  12.717 -0.3517  0.1866 -0.8969
  437TMC3    C8 6575   3.890   3.136  13.082  0.1461  0.3887 -0.5231
  437TMC3    O1 6576   4.035   3.429  12.705  0.4321 -0.4777  0.0484
  437TMC3    O2 6577   3.885   3.041  13.163 -0.2460 -0.0563 -0.1752
  438MPD2     C 6578   2.039   3.407  16.832  0.1379  0.0598  0.1463
  438MPD2    C1 6579   2.118   3.292  16.827 -0.0421  0.5161  0.6924
  438MPD2    C2 6580   2.105   3.205  16.938  0.8403  0.5393  0.3880
  438MPD2    C3 6581   2.018   3.222  17.039 -0.6912  0.1181 -0.9075
  438MPD2    C4 6582   1.938   3.334  17.032 -0.1758 -0.5676 -0.3919
  438MPD2    C5 6583   1.946   3.431  16.932 -0.0318 -0.0955  0.6799
  438MPD2     H 6584   2.160   3.111  16.935  1.0402  0.6689 -0.0800
  438MPD2    H1 6585   1.875   3.358  17.116  1.6410 -0.8095  1.0573
  438MPD2    H2 6586   2.049   3.480  16.754 -2.2580  2.3327  1.9764
  438MPD2    H3 6587   1.892   3.524  16.951  1.9245  1.5346 -1.6726
  438MPD2     N 6588   2.015   3.140  17.154 -0.4104  0.2225  0.6507
  438MPD2    H5 6589   1.937   3.163  17.216 -0.4353  0.2116  0.6232
  438MPD2    N1 6590   2.210   3.267  16.727 -0.2863  0.2841  0.1958
  438MPD2    H7 6591   2.273   3.187  16.735  0.2433  0.6137 -0.8050
  439TMC3    C1 6592   2.316   3.275  16.509  0.6576  0.4101  0.1215
  439TMC3    C2 6593   2.274   3.267  16.380  0.3117 -0.7270 -0.2995
  439TMC3    C3 6594   2.322   3.170  16.312  0.5217 -1.0895  0.8634
  439TMC3    C4 6595   2.418   3.197  16.563 -0.2543  0.2093  0.3658
  439TMC3    C5 6596   2.472   3.101  16.483 -0.1359  0.3584 -0.1909
  439TMC3    C6 6597   2.420   3.084  16.353 -0.0662 -0.1841  0.4337
  439TMC3     C 6598   2.215   3.331  16.603 -0.6005  0.1230  0.1845
  439TMC3     O 6599   2.130   3.396  16.548 -0.6212  0.3217 -0.1626
  439TMC3     H 6600   2.185   3.322  16.352  0.5782 -0.3049 -0.3346
  439TMC3    H1 6601   2.440   3.196  16.669  4.1077  0.8065 -0.4956
  439TMC3    H2 6602   2.446   3.004  16.285  1.2963  0.2884  0.3948
  439TMC3    C7 6603   2.594   3.026  16.512  0.1631  0.3214  0.3985
  439TMC3    C8 6604   2.296   3.168  16.169 -0.2052  0.7014  0.6132
  439TMC3    O1 6605   2.654   2.975  16.418 -0.1286 -0.3931 -0.1945
  439TMC3    O2 6606   2.301   3.065  16.106 -0.2205  0.3161  0.1765
  440MPD2     C 6607   0.687   4.309  14.678  0.1757 -0.2867  0.5763
  440MPD2    C1 6608   0.613   4.317  14.797  0.2303  0.2832 -0.2038
  440MPD2    C2 6609   0.644   4.231  14.898 -0.5126 -0.0717 -0.4325
  440MPD2    C3 6610   0.749   4.150  14.890  0.4206 -0.1659 -0.5332
  440MPD2    C4 6611   0.822   4.141  14.775  0.1808 -0.3702 -0.6576
  440MPD2    C5 6612   0.800   4.230  14.670  0.2522 -0.0149 -0.0469
  440MPD2     H 6613   0.590   4.246  14.990 -2.8046 -0.8751 -1.6540
  440MPD2    H1 6614   0.897   4.063  14.763 -0.9462 -1.4874 -0.3866
  440MPD2    H2 6615   0.649   4.362  14.592  1.2671 -0.8224 -0.2235
  440MPD2    H3 6616   0.860   4.222  14.580  0.5780  3.6505 -0.1370
  440MPD2     N 6617   0.786   4.069  14.996  0.3444  0.0174  0.4621
  440MPD2    H5 6618   0.856   3.998  14.977 -0.6000 -0.5098 -1.0814
  440MPD2    N1 6619   0.505   4.410  14.812  0.2210  0.1829 -0.4290
  440MPD2    H7 6620   0.459   4.404  14.902  0.8082 -1.6098 -0.2598
  441TMC3    C1 6621   0.872   4.070  15.219 -0.3486 -0.6364  0.2468
  441TMC3    C2 6622   0.919   4.171  15.300 -0.3624  0.0219 -0.7748
  441TMC3    C3 6623   1.039   4.151  15.354 -0.1224 -0.8711  0.3249
  441TMC3    C4 6624   0.939   3.950  15.196 -0.5780  0.0248  0.9904
  441TMC3    C5 6625   1.061   3.936  15.255 -0.5189  0.0242 -0.3214
  441TMC3    C6 6626   1.107   4.034  15.341  0.0900 -0.2107  0.6580
  441TMC3     C 6627   0.769   4.110  15.128  0.1456 -0.0405  0.5278
  441TMC3     O 6628   0.685   4.182  15.181  0.3864  0.0304  0.2275
  441TMC3     H 6629   0.860   4.261  15.312 -0.2443 -0.0270  0.1702
  441TMC3    H1 6630   0.895   3.863  15.148 -1.1101 -0.6574  2.7154
  441TMC3    H2 6631   1.202   4.018  15.390 -0.6559 -0.6436  1.9589
  441TMC3    C7 6632   1.097   3.800  15.296 -0.4637 -0.2564 -0.7773
  441TMC3    C8 6633   1.122   4.259  15.394 -0.2630 -0.2242 -0.7892
  441TMC3    O1 6634   1.009   3.711  15.277 -0.3192 -0.5772  0.0085
  441TMC3    O2 6635   1.220   4.228  15.461  0.3563  0.0678  0.2486
  442MPD2     C 6636   4.051   4.390  16.620 -0.5369 -0.5415 -0.3498
  442MPD2    C1 6637   3.931   4.334  16.639  0.3706 -0.4503 -0.3824
  442MPD2    C2 6638   3.887   4.219  16.572  0.2936  0.0575 -0.1112
  442MPD2    C3 6639   3.975   4.159  16.484  0.1503  0.3939 -0.5271
  442MPD2    C4 6640   4.098   4.219  16.465  0.1631  0.5023 -0.2321
  442MPD2    C5 6641   4.135   4.330  16.534 -0.6908  0.4925  0.4953
  442MPD2     H 6642   3.789   4.178  16.593  0.5781 -0.3969  0.3077
  442MPD2    H1 6643   4.175   4.164  16.412  0.5003 -0.7566  1.5611
  442MPD2    H2 6644   4.087   4.481  16.668 -0.8859 -1.2943  1.3356
  442MPD2    H3 6645   4.233   4.372  16.513 -0.9153 -0.1689 -1.9530
  442MPD2     N 6646   3.936   4.050  16.399  0.0211 -0.2935  0.0645
  442MPD2    H5 6647   4.000   4.032  16.322  0.1038  0.2193  0.0159
  442MPD2    N1 6648   3.841   4.389  16.737 -0.1532 -0.0726  0.2403
  442MPD2    H7 6649   3.749   4.349  16.754  0.6790 -2.1163 -0.0676
  443TMC3    C1 6650   3.724   4.530  16.888  0.0672  0.3821  0.1257
  443TMC3    C2 6651   3.663   4.654  16.873 -0.3636 -0.0504 -0.2080
  443TMC3    C3 6652   3.540   4.663  16.929  1.0260 -0.5303 -0.2483
  443TMC3    C4 6653   3.666   4.424  16.946  0.0962 -0.0853  0.5578
  443TMC3    C5 6654   3.543   4.440  17.003  0.2209  0.4435 -0.4730
  443TMC3    C6 6655   3.485   4.562  17.004  0.1560 -0.1171  0.5770
  443TMC3     C 6656   3.851   4.504  16.814  0.5655  0.3066  0.4568
  443TMC3     O 6657   3.941   4.585  16.834  0.7192  0.3429  0.2430
  443TMC3     H 6658   3.717   4.721  16.807 -0.1783 -0.8996 -0.9243
  443TMC3    H1 6659   3.728   4.337  16.968 -0.5016 -0.1784  1.9013
  443TMC3    H2 6660   3.381   4.578  17.029  0.3228  2.2576 -0.3192
  443TMC3    C7 6661   3.514   4.339  17.105 -0.8414  0.0914  0.2355
  443TMC3    C8 6662   3.462   0.041  16.903 -0.9110 -0.1127  0.5596
  443TMC3    O1 6663   3.576   4.231  17.097 -0.1385  0.2850  0.2371
  443TMC3    O2 6664   3.454   0.103  17.005  0.1181  0.3805 -0.3056
  444MPD2     C 6665   3.953   3.840  16.757  0.1178  0.3487  0.4547
  444MPD2    C1 6666   3.924   3.743  16.850  0.5274  0.7332  0.3117
  444MPD2    C2 6667   3.950   3.608  16.820  0.3335 -0.5703 -0.2020
  444MPD2    C3 6668   3.999   3.570  16.694 -0.0096  0.7916  0.4671
  444MPD2    C4 6669   4.029   3.669  16.604  0.3049  0.3398 -0.4482
  444MPD2    C5 6670   4.008   3.802  16.637 -0.4723  0.1657  0.0577
  444MPD2     H 6671   3.938   3.530  16.894 -0.2894  0.5590  0.8719
  444MPD2    H1 6672   4.061   3.656  16.501  2.9693 -0.5347  0.5035
  444MPD2    H2 6673   3.947   3.947  16.775 -0.6748  0.3110  0.4053
  444MPD2    H3 6674   4.038   3.882  16.571 -0.8539 -0.4742 -0.8839
  444MPD2     N 6675   4.018   3.430  16.664 -0.1416  0.3020 -0.5341
  444MPD2    H5 6676   4.012   3.364  16.741 -1.3251 -0.8179 -1.5870
  444MPD2    N1 6677   3.871   3.773  16.975 -0.0441 -0.0441  0.2641
  444MPD2    H7 6678   3.860   3.689  17.031 -0.3290 -0.6118 -0.6483
  445TMC3    C1 6679   4.067   3.229  16.535  0.1564 -0.0463 -0.6586
  445TMC3    C2 6680   4.028   3.161  16.421 -0.8057  0.5491 -0.8140
  445TMC3    C3 6681   4.074   3.030  16.406 -0.4906  0.3530  0.4518
  445TMC3    C4 6682   4.142   3.172  16.637 -0.5242 -0.0058 -0.2693
  445TMC3    C5 6683   4.182   3.040  16.620  0.6254  0.0711 -0.2421
  445TMC3    C6 6684   4.141   2.971  16.509  0.1762  0.3310  0.5629
  445TMC3     C 6685   4.029   3.373  16.541  0.3094  0.0313 -0.1668
  445TMC3     O 6686   4.011   3.430  16.433 -0.5490 -0.1899  0.1359
  445TMC3     H 6687   3.986   3.214  16.336 -0.0085  0.6657 -1.1380
  445TMC3    H1 6688   4.177   3.234  16.719 -0.5644  0.4216 -0.5740
  445TMC3    H2 6689   4.176   2.870  16.494  1.0595  0.6326  0.5782
  445TMC3    C7 6690   4.306   2.988  16.676 -0.0751  0.6565 -0.3405
  445TMC3    C8 6691   4.055   2.955  16.287 -0.3965 -1.2504  0.6476
  445TMC3    O1 6692   4.308   2.876  16.725 -0.0960 -1.3479  0.1787
  445TMC3    O2 6693   4.130   2.857  16.284 -0.2297 -0.5504  0.3324
  446MPD2     C 6694   3.499   0.124  11.033 -0.5028  1.1796  0.3677
  446MPD2    C1 6695   3.472   0.229  10.953 -0.9403  0.5148 -0.7390
  446MPD2    C2 6696   3.538   0.344  10.970  0.1804  0.2381  0.3743
  446MPD2    C3 6697   3.641   0.362  11.065 -0.1960 -0.0158  0.3150
  446MPD2    C4 6698   3.671   0.250  11.144 -0.0975 -0.1402 -0.2215
  446MPD2    C5 6699   3.599   0.131  11.126  0.3097  0.3846 -0.2809
  446MPD2     H 6700   3.517   0.431  10.908  1.3663  0.2904  0.0441
  446MPD2    H1 6701   3.745   0.238  11.222  0.7725  1.3351 -0.8009
  446MPD2    H2 6702   3.456   0.026  11.018  0.4444  0.9469 -0.8838
  446MPD2    H3 6703   3.625   0.049  11.193  3.2017  1.5089 -0.0629
  446MPD2     N 6704   3.722   0.479  11.057  0.2106  0.1467  0.1215
  446MPD2    H5 6705   3.698   0.538  10.977 -2.6695 -1.0558  0.0993
  446MPD2    N1 6706   3.363   0.229  10.863  0.3440  0.3008 -0.4472
  446MPD2    H7 6707   3.334   0.318  10.824  2.9377 -0.2626 -3.6499
  447TMC3    C1 6708   3.920   0.605  11.109 -0.4459 -0.0104 -0.6746
  447TMC3    C2 6709   3.893   0.684  11.002 -0.4216  0.6086 -0.6368
  447TMC3    C3 6710   3.995   0.738  10.933  0.2161 -0.0433 -0.1134
  447TMC3    C4 6711   4.052   0.592  11.149  0.0196  0.8763 -0.0927
  447TMC3    C5 6712   4.145   0.644  11.064  0.2535  0.0005  0.3784
  447TMC3    C6 6713   4.121   0.717  10.958  0.1204  0.2406  0.1460
  447TMC3     C 6714   3.830   0.501  11.145  0.7743  0.1440  0.0978
  447TMC3     O 6715   3.843   0.451  11.254  0.0368 -0.2922 -0.3665
  447TMC3     H 6716   3.794   0.722  10.979 -1.1148 -0.3158  0.8062
  447TMC3    H1 6717   4.083   0.538  11.238 -2.9817 -1.4586 -0.4707
  447TMC3    H2 6718   4.203   0.747  10.894  0.0452 -1.0598 -0.5584
  447TMC3    C7 6719   4.281   0.611  11.101  1.2859  0.7913 -0.8117
  447TMC3    C8 6720   3.975   0.846  10.834  0.3473 -0.3795 -0.0215
  447TMC3    O1 6721   4.295   0.501  11.148 -0.7154  0.4505 -0.4789
  447TMC3    O2 6722   3.898   0.816  10.740 -0.0621  0.5591 -0.3348
  448TMC3    C1 6723   1.483   3.691   0.088 -0.0902  0.5585 -0.3088
  448TMC3    C2 6724   1.515   3.690  17.686 -0.1997 -0.0115  0.0318
  448TMC3    C3 6725   1.644   3.723  17.653 -0.1986 -0.3287  0.2373
  448TMC3    C4 6726   1.572   3.734   0.177 -0.1775  0.3256 -0.5599
  448TMC3    C5 6727   1.696   3.772   0.138  0.0979  0.6969 -0.5736
  448TMC3    C6 6728   1.744   3.754   0.005 -0.1482 -0.0077 -0.1516
  448TMC3     C 6729   1.339   3.686   0.128  0.0293  0.0938  0.7670
  448TMC3     O 6730   1.261   3.716   0.036 -0.0656  0.8789  0.3964
  448TMC3     H 6731   1.440   3.654  17.616  1.3838 -0.3457 -1.4974
  448TMC3    H1 6732   1.544   3.772   0.275 -2.9961  1.3414 -1.7854
  448TMC3    H2 6733   1.841   3.781  17.701 -1.2551 -0.4526 -3.1747
  448TMC3    C7 6734   1.785   3.837   0.232 -0.2468 -0.9405 -0.8716
  448TMC3    C8 6735   1.691   3.718  17.513 -0.4868 -0.2724  0.5221
  448TMC3    O1 6736   1.874   3.912   0.188  0.5441  0.3261 -0.1196
  448TMC3    O2 6737   1.811   3.728  17.502  0.5806 -0.1091 -0.5764
  449MPD2     C 6738   3.154   3.880  13.915 -1.0415 -0.3239  0.0398
  449MPD2    C1 6739   3.027   3.865  13.856 -0.6647 -0.2113  0.3851
  449MPD2    C2 6740   2.936   3.782  13.920  0.7537  0.2171 -0.0887
  449MPD2    C3 6741   2.963   3.735  14.045  0.4700 -0.1479  0.1706
  449MPD2    C4 6742   3.081   3.758  14.112 -0.4275 -0.3414  0.5071
  449MPD2    C5 6743   3.178   3.834  14.041 -0.0997 -0.5121 -0.0278
  449MPD2     H 6744   2.833   3.770  13.888  1.2265 -0.9825 -1.1515
  449MPD2    H1 6745   3.106   3.735  14.215  2.3827 -1.4810 -0.4166
  449MPD2    H2 6746   3.221   3.945  13.860 -0.7476 -0.3629  0.3501
  449MPD2    H3 6747   3.276   3.845  14.086 -0.0607  0.0118 -0.2448
  449MPD2     N 6748   2.858   3.656  14.095  0.4728  0.0041  0.0958
  449MPD2    H5 6749   2.779   3.648  14.032  0.4900  1.2076 -0.0934
  449MPD2    N1 6750   2.986   3.911  13.726 -0.4156 -0.6873 -0.6423
  449MPD2    H7 6751   2.891   3.888  13.700 -0.3651  0.5941 -1.9545
  450TMC3    C1 6752   2.991   4.017  13.520 -0.2172 -0.7524 -0.0489
  450TMC3    C2 6753   3.034   3.955  13.406 -0.3695  0.3516  0.6346
  450TMC3    C3 6754   2.937   3.893  13.327  0.1299 -0.3666  0.3639
  450TMC3    C4 6755   2.857   4.028  13.546  0.5594  0.0825 -0.6093
  450TMC3    C5 6756   2.768   3.975  13.461  0.6355  0.3746 -0.1728
  450TMC3    C6 6757   2.805   3.911  13.342 -0.2358  0.2154  0.5978
  450TMC3     C 6758   3.063   3.984  13.640 -0.4670  0.0668  0.5011
  450TMC3     O 6759   3.181   4.010  13.647 -0.0233  0.0343 -0.4364
  450TMC3     H 6760   3.141   3.941  13.397 -0.2717  1.9763 -0.7077
  450TMC3    H1 6761   2.830   4.059  13.646  1.3989  0.0496 -0.3813
  450TMC3    H2 6762   2.735   3.853  13.283 -0.2221  1.2219 -0.3932
  450TMC3    C7 6763   2.695   3.878  13.540  0.1742 -0.1647 -0.2816
  450TMC3    C8 6764   2.982   3.795  13.236 -0.2369  0.2045  0.3090
  450TMC3    O1 6765   2.748   3.840  13.645 -0.0080  0.2154  0.1274
  450TMC3    O2 6766   2.904   3.707  13.206 -0.1753 -0.2242  0.0156
  451MPD2     C 6767   0.211   1.368   1.334 -0.3098  0.0052 -0.0303
  451MPD2    C1 6768   0.261   1.459   1.245 -0.0601 -0.4560  0.0611
  451MPD2    C2 6769   0.355   1.415   1.149  0.3955  0.9357 -0.0133
  451MPD2    C3 6770   0.388   1.287   1.133  0.1131 -0.9862 -0.5817
  451MPD2    C4 6771   0.325   1.196   1.224  0.5665  0.0479 -0.1415
  451MPD2    C5 6772   0.244   1.237   1.321 -1.1098 -0.1180 -0.3049
  451MPD2     H 6773   0.382   1.494   1.079 -1.1516  1.3278 -0.1836
  451MPD2    H1 6774   0.323   1.088   1.210 -1.8605 -0.0821  1.2664
  451MPD2    H2 6775   0.145   1.399   1.415  0.6367  1.7152  0.0840
  451MPD2    H3 6776   0.184   1.168   1.380  0.0338 -1.2821 -0.5044
  451MPD2     N 6777   0.463   1.238   1.022  0.4287  0.4997 -0.6783
  451MPD2    H5 6778   0.484   1.139   1.029 -1.6813  0.1595  1.0540
  451MPD2    N1 6779   0.214   1.594   1.244  0.2925  0.3959 -0.1083
  451MPD2    H7 6780   0.140   1.612   1.311 -0.1553  2.0660 -1.0481
  452TMC3    C1 6781   0.596   1.231   0.830 -0.0324 -0.2942  0.2640
  452TMC3    C2 6782   0.505   1.142   0.777 -0.8675 -0.3355  0.1158
  452TMC3    C3 6783   0.505   1.121   0.638  0.3876 -1.1798 -0.1233
  452TMC3    C4 6784   0.677   1.308   0.753 -0.2157  0.4230 -0.4745
  452TMC3    C5 6785   0.673   1.283   0.620 -0.1643  0.3219  0.0672
  452TMC3    C6 6786   0.598   1.185   0.562  0.6802  0.2949  0.1964
  452TMC3     C 6787   0.540   1.313   0.938  0.3936  0.0098 -0.5971
  452TMC3     O 6788   0.545   1.433   0.941  0.6331 -0.5828 -0.0323
  452TMC3     H 6789   0.431   1.098   0.842 -1.3615  1.3795  0.7167
  452TMC3    H1 6790   0.747   1.378   0.796 -1.4518  0.3699  1.5792
  452TMC3    H2 6791   0.591   1.173   0.455 -0.0812  0.9146  0.1737
  452TMC3    C7 6792   0.715   1.386   0.524  1.2312  0.1772 -0.1589
  452TMC3    C8 6793   0.399   1.054   0.576 -0.5133 -0.2152 -0.0646
  452TMC3    O1 6794   0.737   1.348   0.412  0.5449  0.0281 -0.0361
  452TMC3    O2 6795   0.421   1.000   0.468  0.4477  0.3927 -0.1492
  453TMC3    C1 6796   1.317   4.536  12.212 -0.0576 -0.3770  0.4261
  453TMC3    C2 6797   1.212   4.487  12.282  0.1739 -0.3567  0.6640
  453TMC3    C3 6798   1.091   4.491  12.218  0.4909  0.8100 -0.1992
  453TMC3    C4 6799   1.311   4.604  12.094 -0.0360 -0.0117 -0.6663
  453TMC3    C5 6800   1.176   4.619  12.046 -0.1528 -0.0078 -0.1166
  453TMC3    C6 6801   1.071   4.562  12.109  0.2474 -0.1435  0.5850
  453TMC3     C 6802   1.454   4.531  12.272  0.7322  0.5897 -0.4454
  453TMC3     O 6803   1.533   4.615  12.244 -1.0445  0.3280  0.1446
  453TMC3     H 6804   1.213   4.438  12.379  0.8346 -1.6612  0.0052
  453TMC3    H1 6805   1.395   4.631  12.031 -0.7824 -0.1626 -1.7299
  453TMC3    H2 6806   0.975   4.596  12.069  0.4230 -2.0340 -1.4611
  453TMC3    C7 6807   1.151   4.649  11.900 -1.0343 -0.7090 -0.4776
  453TMC3    C8 6808   0.994   4.394  12.259  0.4318  0.7372 -0.4144
  453TMC3    O1 6809   1.056   4.585  11.860  0.4054 -0.5594  0.0458
  453TMC3    O2 6810   1.000   4.358  12.374  0.1962 -0.7108  0.2397
  454MPD2     C 6811   4.714   3.830  15.743  0.0652  0.1265 -0.2219
  454MPD2    C1 6812   4.577   3.795  15.758 -0.1333  1.0182 -0.3306
  454MPD2    C2 6813   4.520   3.772  15.884  0.1439 -0.6964  0.0093
  454MPD2    C3 6814   4.601   3.771  15.994  0.2922 -0.1796 -0.5713
  454MPD2    C4 6815   4.733   3.817  15.981 -0.1341 -0.2494  0.1751
  454MPD2    C5 6816   0.052   3.840  15.860 -0.5682  0.3834 -0.6476
  454MPD2     H 6817   4.415   3.743  15.887 -0.7918  2.5938 -1.0789
  454MPD2    H1 6818   0.066   3.841  16.063  0.0356 -0.4188  0.0845
  454MPD2    H2 6819   0.022   3.860  15.648 -0.6347 -0.5938 -0.7546
  454MPD2    H3 6820   0.155   3.871  15.845 -0.8237  1.5470 -0.0521
  454MPD2     N 6821   4.548   3.732  16.118 -0.2071  0.1378 -0.5858
  454MPD2    H5 6822   4.449   3.709  16.115  0.3316 -2.3695  0.2768
  454MPD2    N1 6823   4.494   3.784  15.647 -0.3900  0.0539  0.0334
  454MPD2    H7 6824   4.407   3.751  15.687 -0.0471  2.3742  2.6591
  455TMC3    C1 6825   4.524   3.672  16.350  0.2856  0.3461 -0.2445
  455TMC3    C2 6826   4.574   3.689  16.479 -0.1869  0.3974 -0.2827
  455TMC3    C3 6827   4.517   3.624  16.583 -0.1682  0.1605 -0.0216
  455TMC3    C4 6828   4.423   3.587  16.313 -0.2047  0.3988 -0.2041
  455TMC3    C5 6829   4.375   3.518  16.421  0.1593  0.4508  0.1261
  455TMC3    C6 6830   4.415   3.544  16.550 -0.4231  0.1020  0.3397
  455TMC3     C 6831   4.610   3.726  16.243 -0.2841 -0.5086  0.3238
  455TMC3     O 6832   4.726   3.753  16.275  0.1340  0.3083  0.2823
  455TMC3     H 6833   4.663   3.747  16.497  0.1431  0.1724 -1.1731
  455TMC3    H1 6834   4.414   3.552  16.211 -2.4098 -0.1512  0.1741
  455TMC3    H2 6835   4.379   3.476  16.626  1.7006  0.4283  1.6257
  455TMC3    C7 6836   4.329   3.382  16.392 -0.4111 -0.2905 -0.2797
  455TMC3    C8 6837   4.483   3.720  16.690  0.4448 -0.3281  0.0665
  455TMC3    O1 6838   4.371   3.294  16.462  0.4443  0.4577  0.3718
  455TMC3    O2 6839   4.452   3.683  16.803 -0.3832  0.1915  0.1366
  456MPD2     C 6840   2.418   3.714  16.169  0.7305  0.0268 -0.8106
  456MPD2    C1 6841   2.471   3.616  16.254  0.3276 -0.1744 -0.2955
  456MPD2    C2 6842   2.447   3.627  16.387 -0.0953 -1.3797 -0.6570
  456MPD2    C3 6843   2.348   3.719  16.437 -0.3682  0.2935  0.0505
  456MPD2    C4 6844   2.291   3.812  16.349  0.6101  0.5228  0.1533
  456MPD2    C5 6845   2.321   3.799  16.215  0.4692  0.3623  0.4513
  456MPD2     H 6846   2.490   3.556  16.457  3.0970  0.1196 -1.1293
  456MPD2    H1 6847   2.217   3.885  16.381  0.2389  1.1237 -2.0734
  456MPD2    H2 6848   2.438   3.716  16.062 -0.3234  4.4439 -0.9040
  456MPD2    H3 6849   2.284   3.871  16.143 -0.8075 -0.3296  0.4210
  456MPD2     N 6850   2.323   3.711  16.573 -0.4604 -0.2632  0.1865
  456MPD2    H5 6851   2.387   3.639  16.606 -0.0261  0.2446  0.4621
  456MPD2    N1 6852   2.553   3.511  16.208  0.7942 -0.6845  0.5409
  456MPD2    H7 6853   2.568   3.523  16.108 -1.6011 -0.1479  0.2389
  457TMC3    C1 6854   2.232   3.740  16.781 -1.2481 -0.0210  0.4004
  457TMC3    C2 6855   2.119   3.761  16.855 -0.8688  0.2016  0.1136
  457TMC3    C3 6856   2.117   3.730  16.989 -0.6892 -1.0184  0.5212
  457TMC3    C4 6857   2.353   3.698  16.834 -0.3243  1.0914 -0.3630
  457TMC3    C5 6858   2.352   3.689  16.974 -0.0341 -0.1070  0.2369
  457TMC3    C6 6859   2.231   3.688  17.047 -0.4909 -0.6293  0.2720
  457TMC3     C 6860   2.220   3.765  16.640 -0.9735 -0.9055 -0.1517
  457TMC3     O 6861   2.124   3.830  16.594  0.7324  0.1620  0.7324
  457TMC3     H 6862   2.036   3.822  16.822 -1.7166 -0.3818  1.1615
  457TMC3    H1 6863   2.451   3.699  16.787  1.4447  1.3655  3.2758
  457TMC3    H2 6864   2.234   3.662  17.152 -2.1757  1.5973  0.8801
  457TMC3    C7 6865   2.475   3.661  17.052 -0.7678  0.1763 -0.4149
  457TMC3    C8 6866   2.001   3.759  17.076 -1.3282  0.5138 -0.4820
  457TMC3    O1 6867   2.449   3.600  17.158 -1.1299 -0.4348 -0.0223
  457TMC3    O2 6868   2.035   3.768  17.193  0.0167 -0.3360 -0.2462
  458MPD2     C 6869   4.502   3.681  12.658 -0.3877  0.0624 -0.5811
  458MPD2    C1 6870   4.551   3.551  12.669  0.5258 -0.6472 -0.6752
  458MPD2    C2 6871   4.461   3.444  12.694  0.3571  1.0940  0.3756
  458MPD2    C3 6872   4.327   3.467  12.706  0.3996 -0.0050  0.7125
  458MPD2    C4 6873   4.277   3.592  12.695 -0.4898 -0.6875  0.1304
  458MPD2    C5 6874   4.365   3.695  12.671 -1.0282 -0.4177 -1.2080
  458MPD2     H 6875   4.499   3.344  12.709  0.6464  1.1941  0.3189
  458MPD2    H1 6876   4.170   3.612  12.705 -0.8458 -1.6633 -1.7161
  458MPD2    H2 6877   4.559   3.769  12.630  0.9092 -0.4912  0.3067
  458MPD2    H3 6878   4.326   3.796  12.668  0.2707  0.1148 -0.0513
  458MPD2     N 6879   4.253   3.355  12.737  0.3417 -0.2854 -0.8138
  458MPD2    H5 6880   4.299   3.268  12.763 -1.2593 -0.3302  1.8832
  458MPD2    N1 6881   4.684   3.528  12.659  0.4391 -0.1483  0.5233
  458MPD2    H7 6882   0.016   3.603  12.675 -0.4894  1.1051 -1.6118
  459TMC3    C1 6883   0.137   3.390  12.712  0.3176 -0.5331  0.0546
  459TMC3    C2 6884   0.217   3.501  12.704 -0.5965 -0.2561 -0.0747
  459TMC3    C3 6885   0.334   3.491  12.776  0.9251  0.1515 -0.4534
  459TMC3    C4 6886   0.150   3.295  12.810  0.5621 -0.9979 -0.4456
  459TMC3    C5 6887   0.266   3.299  12.887  1.0179 -0.4961  0.5109
  459TMC3    C6 6888   0.360   3.396  12.867  0.0847 -0.2200 -0.4163
  459TMC3     C 6889   0.003   3.398  12.672 -0.7445 -0.4856 -0.3678
  459TMC3     O 6890   4.695   3.294  12.633  0.8451 -0.4836 -0.2214
  459TMC3     H 6891   0.206   3.572  12.623  0.9667 -2.0111 -1.8129
  459TMC3    H1 6892   0.073   3.219  12.819  0.0900 -0.4644  0.0050
  459TMC3    H2 6893   0.444   3.396  12.935 -0.7061 -0.0452  0.5580
  459TMC3    C7 6894   0.298   3.201  12.991  0.0630  0.1700 -0.2289
  459TMC3    C8 6895   0.435   3.594  12.752  0.3685  0.5296  0.2068
  459TMC3    O1 6896   0.412   3.166  13.010  0.1494  0.1403  0.1747
  459TMC3    O2 6897   0.428   3.663  12.653  0.5925 -0.1294  0.0248
  460MPD2     C 6898   4.148   1.169  10.806 -0.0555  0.2267  0.7367
  460MPD2    C1 6899   4.053   1.071  10.771  0.0496 -0.4354 -0.4249
  460MPD2    C2 6900   3.975   1.090  10.655 -0.3631  0.0403 -0.4851
  460MPD2    C3 6901   3.983   1.202  10.581  0.4513  0.0175 -0.2423
  460MPD2    C4 6902   4.080   1.296  10.617 -0.5273  0.1623 -0.1585
  460MPD2    C5 6903   4.158   1.281  10.729 -0.0200  0.4303 -0.4069
  460MPD2     H 6904   3.895   1.021  10.632  1.3684 -1.9760 -0.5423
  460MPD2    H1 6905   4.094   1.387  10.560 -3.6429  0.5616 -0.2591
  460MPD2    H2 6906   4.212   1.153  10.892 -1.1169 -1.5888  1.1933
  460MPD2    H3 6907   4.214   1.371  10.749  0.1963 -0.1201  1.4415
  460MPD2     N 6908   3.890   1.220  10.476 -0.4247  0.0379 -0.0726
  460MPD2    H5 6909   3.846   1.130  10.458  1.2588 -0.7799 -0.1244
  460MPD2    N1 6910   4.056   0.957  10.858  0.0576  0.5088  0.0543
  460MPD2    H7 6911   4.124   0.951  10.933 -1.2816  2.4468  1.4064
  461TMC3    C1 6912   3.776   1.323  10.290  1.0388 -0.1763  0.5931
  461TMC3    C2 6913   3.713   1.197  10.262 -0.7637 -0.1979  0.1772
  461TMC3    C3 6914   3.626   1.189  10.156 -0.1988  0.0448 -0.0049
  461TMC3    C4 6915   3.747   1.435  10.223 -0.1138  0.6021 -0.1560
  461TMC3    C5 6916   3.649   1.424  10.117 -0.6649 -0.0070 -0.4065
  461TMC3    C6 6917   3.598   1.303  10.079 -0.6996 -0.1478  0.0375
  461TMC3     C 6918   3.877   1.332  10.398  0.0315  0.2841 -0.3214
  461TMC3     O 6919   3.926   1.439  10.434 -0.3135  0.0645  0.4318
  461TMC3     H 6920   3.736   1.102  10.309 -1.9188 -2.0759 -3.0872
  461TMC3    H1 6921   3.790   1.532  10.245  1.3621  0.2349 -1.4199
  461TMC3    H2 6922   3.540   1.303   9.988  2.8055  1.2338 -2.2218
  461TMC3    C7 6923   3.610   1.536  10.030  0.6081  0.0326  0.4135
  461TMC3    C8 6924   3.592   1.054  10.112 -0.4827  0.0321  0.6635
  461TMC3    O1 6925   3.518   1.524   9.947  0.0374 -0.1205 -0.2461
  461TMC3    O2 6926   3.673   0.967  10.137  0.2925  0.7734  0.5371
  462TMC3    C1 6927   3.953   1.514  17.409  0.2504 -0.0943  0.7048
  462TMC3    C2 6928   3.864   1.446  17.328 -0.4067  0.8958  0.3859
  462TMC3    C3 6929   3.875   1.309  17.319 -0.9731  0.0898  0.1136
  462TMC3    C4 6930   4.042   1.449  17.492  0.1254  0.5446 -0.7741
  462TMC3    C5 6931   4.042   1.313  17.483 -0.0722 -0.1485 -0.1397
  462TMC3    C6 6932   3.965   1.238  17.393  0.3393 -0.3671  0.0214
  462TMC3     C 6933   3.976   1.652  17.379  0.1081 -0.1359 -0.6577
  462TMC3     O 6934   4.086   1.700  17.402  0.1603 -0.2636 -0.4686
  462TMC3     H 6935   3.813   1.492  17.245 -0.4528 -0.8917 -0.5664
  462TMC3    H1 6936   4.103   1.510  17.558  0.0309  1.0923 -1.1898
  462TMC3    H2 6937   3.946   1.133  17.406  2.1326 -0.5156  1.4631
  462TMC3    C7 6938   4.116   1.233  17.580 -1.0634  0.4213  0.8490
  462TMC3    C8 6939   3.831   1.247  17.202  0.2118  0.6575 -0.2072
  462TMC3    O1 6940   4.109   1.112  17.571 -0.0333  0.5918  0.0310
  462TMC3    O2 6941   3.762   1.314  17.129 -0.2786 -0.5690 -0.3757
  463MPD2     C 6942   3.973   0.870   2.282 -0.0586  0.2529 -0.7391
  463MPD2    C1 6943   4.068   0.789   2.228  0.5550  0.3658  0.9959
  463MPD2    C2 6944   4.177   0.853   2.160 -0.3397  0.5323  1.1714
  463MPD2    C3 6945   4.177   0.991   2.148  0.0624  0.6862 -0.5934
  463MPD2    C4 6946   4.074   1.066   2.199 -0.2441 -0.0347  0.4952
  463MPD2    C5 6947   3.979   1.008   2.276  0.0482 -0.1055 -0.0571
  463MPD2     H 6948   4.246   0.783   2.114 -0.3865 -0.4819  2.6548
  463MPD2    H1 6949   4.083   1.173   2.186  1.5121 -0.6239 -2.8887
  463MPD2    H2 6950   3.894   0.833   2.347  0.8899  1.8425  1.3298
  463MPD2    H3 6951   3.899   1.056   2.330 -0.7488 -0.8061 -0.6000
  463MPD2     N 6952   4.281   1.062   2.085  0.1286 -0.5707  0.4106
  463MPD2    H5 6953   4.279   1.163   2.075 -0.1436 -0.5438  0.7602
  463MPD2    N1 6954   4.064   0.648   2.245 -0.6045 -0.4813  0.2008
  463MPD2    H7 6955   4.130   0.595   2.190 -0.0139 -1.0882  1.4883
  464TMC3    C1 6956   3.985   0.435   2.310  0.5405  0.2530  0.0920
  464TMC3    C2 6957   4.109   0.377   2.275  0.0363 -0.0851 -0.0601
  464TMC3    C3 6958   4.102   0.245   2.230  1.1217  1.1926  0.9417
  464TMC3    C4 6959   3.866   0.377   2.286 -0.3366 -0.3450 -0.1209
  464TMC3    C5 6960   3.867   0.252   2.224 -0.5443 -0.1526 -0.5704
  464TMC3    C6 6961   3.986   0.187   2.204 -0.6456 -0.7059 -0.2179
  464TMC3     C 6962   3.972   0.578   2.328 -0.0332 -0.0569  0.3522
  464TMC3     O 6963   3.867   0.617   2.380 -0.6504 -0.2424 -0.7739
  464TMC3     H 6964   4.203   0.431   2.277  0.2787 -0.5545  1.4597
  464TMC3    H1 6965   3.769   0.420   2.304 -0.4623 -1.0174  0.7786
  464TMC3    H2 6966   3.977   0.093   2.150 -0.3067  0.1261 -1.7301
  464TMC3    C7 6967   3.738   0.202   2.186  0.3678  0.2055  0.1483
  464TMC3    C8 6968   4.210   0.223   2.133  0.5047  0.1401 -0.2961
  464TMC3    O1 6969   3.646   0.230   2.253 -0.1238 -0.1051  0.1897
  464TMC3    O2 6970   4.250   0.324   2.079 -0.8358 -0.2291  0.2860
  465MPD2     C 6971   1.651   3.213  16.268 -0.4277 -0.6780 -0.2713
  465MPD2    C1 6972   1.640   3.261  16.399 -0.9257 -0.2410  0.4599
  465MPD2    C2 6973   1.524   3.333  16.435  0.3612  0.0318 -1.2352
  465MPD2    C3 6974   1.433   3.368  16.338 -0.7511  0.0623  1.4587
  465MPD2    C4 6975   1.447   3.322  16.213  0.1479 -0.8603 -0.0511
  465MPD2    C5 6976   1.552   3.242  16.175  0.1652  0.4084  0.0758
  465MPD2     H 6977   1.501   3.355  16.539  0.6745 -1.7710 -0.7750
  465MPD2    H1 6978   1.361   3.338  16.150  0.1034  0.5557  0.3689
  465MPD2    H2 6979   1.726   3.139  16.241  1.5854  0.8453  1.1841
  465MPD2    H3 6980   1.558   3.209  16.072 -1.2622 -0.2278  0.1990
  465MPD2     N 6981   1.326   3.448  16.383  0.0982 -0.7052  0.2646
  465MPD2    H5 6982   1.332   3.484  16.477  1.1289  2.7203 -1.1383
  465MPD2    N1 6983   1.729   3.217  16.505  0.7240  0.0974 -0.1949
  465MPD2    H7 6984   1.719   3.247  16.601  0.4899  0.9915 -0.5020
  466TMC3    C1 6985   1.037   3.651  16.571 -0.2265  0.8316 -0.7124
  466TMC3    C2 6986   0.993   3.770  16.517 -0.2036 -0.5598  0.7864
  466TMC3    C3 6987   1.042   3.808  16.394  0.1486 -0.4880  0.0909
  466TMC3    C4 6988   1.115   3.559  16.504 -0.1912 -0.2949  0.2830
  466TMC3    C5 6989   1.161   3.603  16.383  0.2432 -0.1805  0.0799
  466TMC3    C6 6990   1.130   3.729  16.332  0.3991  0.5106  0.0447
  466TMC3     C 6991   0.973   3.604  16.697  0.0380  0.1569  1.0312
  466TMC3     O 6992   1.025   3.524  16.776  0.0590  0.1343 -0.2055
  466TMC3     H 6993   0.944   3.849  16.573 -0.0472  0.5273 -0.5992
  466TMC3    H1 6994   1.131   3.466  16.557 -1.2148 -0.3375  0.5278
  466TMC3    H2 6995   1.161   3.735  16.228 -1.8098  1.5345 -0.5523
  466TMC3    C7 6996   1.233   3.511  16.301  0.7052 -0.3222 -0.1418
  466TMC3    C8 6997   1.066   3.948  16.366 -0.0286 -0.1622  0.0349
  466TMC3    O1 6998   1.226   3.525  16.180 -0.6297 -0.6902 -0.1088
  466TMC3    O2 6999   1.150   3.967  16.277  0.2585 -0.3707  0.1980
  467TMC3    C1 7000   2.357   2.404  13.722  0.5114  0.2507  0.6269
  467TMC3    C2 7001   2.269   2.475  13.644 -0.4001  0.3669  0.3147
  467TMC3    C3 7002   2.143   2.432  13.627 -0.4922 -0.1148  0.2408
  467TMC3    C4 7003   2.311   2.287  13.784  0.2377 -0.1232 -0.0217
  467TMC3    C5 7004   2.184   2.251  13.772 -0.2997  0.5397 -0.7171
  467TMC3    C6 7005   2.098   2.317  13.691  0.0566 -0.1068  0.3213
  467TMC3     C 7006   2.482   2.458  13.762 -0.0676 -0.3875  0.7500
  467TMC3     O 7007   2.571   2.398  13.818 -0.1871 -0.1230  0.2492
  467TMC3     H 7008   2.290   2.571  13.599 -0.6712  0.0722 -0.4416
  467TMC3    H1 7009   2.379   2.236  13.851  1.1563 -0.5590 -1.2839
  467TMC3    H2 7010   2.007   2.261  13.671 -0.5181  0.8689  0.2109
  467TMC3    C7 7011   2.134   2.170  13.878  0.2127 -0.2852  0.5671
  467TMC3    C8 7012   2.056   2.520  13.559 -0.3934  0.8313 -0.1425
  467TMC3    O1 7013   2.214   2.093  13.931  0.5513  0.0011 -0.2443
  467TMC3    O2 7014   2.102   2.621  13.502  0.3549 -0.0991 -0.3993
  468MPD2     C 7015   1.115   0.557  10.290  0.2404 -0.2109  0.1424
  468MPD2    C1 7016   1.164   0.547  10.418  0.3712  0.7788  0.0984
  468MPD2    C2 7017   1.130   0.430  10.485  1.2065 -0.5169 -0.1486
  468MPD2    C3 7018   1.070   0.323  10.418 -0.0041 -0.3115 -0.2707
  468MPD2    C4 7019   1.026   0.338  10.291  0.0446  0.4435 -0.2585
  468MPD2    C5 7020   1.047   0.454  10.232  0.4462 -0.3527 -0.3174
  468MPD2     H 7021   1.157   0.418  10.590  1.3412  0.5427 -0.0558
  468MPD2    H1 7022   0.969   0.255  10.249  1.6944 -0.7811 -0.0900
  468MPD2    H2 7023   1.123   0.646  10.228  0.7588  1.6671  2.9045
  468MPD2    H3 7024   1.010   0.473  10.132  1.6240  1.1152 -0.4796
  468MPD2     N 7025   1.045   0.198  10.479  0.0417 -0.0189  0.4473
  468MPD2    H5 7026   1.000   0.116  10.438  1.4753 -0.1521 -0.8449
  468MPD2    N1 7027   1.224   0.653  10.486  0.3646 -0.0371 -0.6063
  468MPD2    H7 7028   1.259   0.625  10.577 -0.1886  1.6633  0.1164
  469TMC3    C1 7029   1.333   0.864  10.517  0.0264  0.3861 -0.0226
  469TMC3    C2 7030   1.442   0.801  10.571  0.1950  0.8292 -0.5227
  469TMC3    C3 7031   1.507   0.860  10.677  0.1760  0.5855 -0.1045
  469TMC3    C4 7032   1.291   0.982  10.560 -0.6773  0.3409  0.7723
  469TMC3    C5 7033   1.357   1.041  10.659 -0.4037 -0.1771  0.7614
  469TMC3    C6 7034   1.462   0.978  10.720 -0.1755 -0.5003 -0.4382
  469TMC3     C 7035   1.238   0.785  10.442  0.1267  0.2172 -0.0089
  469TMC3     O 7036   1.179   0.835  10.344 -0.0534 -0.2862 -0.7241
  469TMC3     H 7037   1.470   0.707  10.524  0.6728 -0.1863  1.7895
  469TMC3    H1 7038   1.200   1.020  10.514 -0.9344 -0.9473  0.1815
  469TMC3    H2 7039   1.518   1.031  10.796  2.3706 -0.5736 -2.2650
  469TMC3    C7 7040   1.316   1.181  10.685  0.3530  0.2188 -0.1636
  469TMC3    C8 7041   1.608   0.783  10.752 -0.4480 -0.1498  0.3181
  469TMC3    O1 7042   1.271   1.247  10.598 -0.0734 -0.0032  0.5169
  469TMC3    O2 7043   1.652   0.685  10.702 -0.2216  0.0768 -0.0567
  470TMC3    C1 7044   3.409   0.674   0.010  0.5403 -0.4581 -0.3813
  470TMC3    C2 7045   3.446   0.795   0.063  0.3836  0.2110 -0.1773
  470TMC3    C3 7046   3.401   0.828   0.190 -0.0816 -0.1898  0.4891
  470TMC3    C4 7047   3.342   0.576   0.078 -0.7334  0.1673 -0.0486
  470TMC3    C5 7048   3.299   0.616   0.196 -0.0769  0.7300 -0.3105
  470TMC3    C6 7049   3.321   0.737   0.256  0.6690 -0.0237  0.4736
  470TMC3     C 7050   3.436   0.650  17.608  0.4464  0.6195 -0.1530
  470TMC3     O 7051   3.533   0.702  17.549 -0.0555 -0.0360  0.3313
  470TMC3     H 7052   3.523   0.848   0.007  0.8937  1.5530  1.7943
  470TMC3    H1 7053   3.310   0.476   0.051 -0.1303 -0.1527  0.4318
  470TMC3    H2 7054   3.276   0.767   0.350 -0.0818  0.3096  0.0076
  470TMC3    C7 7055   3.193   0.534   0.258  0.5233 -0.1935 -0.3821
  470TMC3    C8 7056   3.409   0.961   0.246  0.0273  0.7318 -0.4355
  470TMC3    O1 7057   3.203   0.412   0.258  0.2540 -0.0353  0.0338
  470TMC3    O2 7058   3.397   0.973   0.367 -0.0889 -0.0009 -0.0781
  471MPD2     C 7059   3.767   2.869  16.522 -0.4870 -0.4029  0.1171
  471MPD2    C1 7060   3.848   2.753  16.502 -0.4327  0.3469 -1.1894
  471MPD2    C2 7061   3.935   2.728  16.607  0.0928  0.0451 -1.0033
  471MPD2    C3 7062   3.940   2.800  16.729  0.0332 -0.1294  0.5962
  471MPD2    C4 7063   3.858   2.907  16.744 -0.6124 -0.4563 -0.3459
  471MPD2    C5 7064   3.771   2.938  16.643 -0.8072 -0.6760 -0.6641
  471MPD2     H 7065   4.003   2.646  16.587  2.3249  1.3239  1.3382
  471MPD2    H1 7066   3.854   2.969  16.834 -2.0517 -1.1168  0.0469
  471MPD2    H2 7067   3.692   2.906  16.453 -0.3867  0.2561  0.3591
  471MPD2    H3 7068   3.695   3.016  16.637 -0.5145 -0.1392  2.8764
  471MPD2     N 7069   4.032   2.763  16.830  0.9721 -0.3660  0.2612
  471MPD2    H5 7070   4.030   2.821  16.913 -2.1726  0.1790 -0.1862
  471MPD2    N1 7071   3.860   2.681  16.381  0.4481  0.2821 -0.1125
  471MPD2    H7 7072   3.941   2.621  16.366 -0.9177 -1.7607  0.6079
  472TMC3    C1 7073   3.796   2.599  16.169 -0.0142 -0.0097  0.0766
  472TMC3    C2 7074   3.729   2.615  16.047  0.6395 -0.4112 -0.2700
  472TMC3    C3 7075   3.721   2.508  15.963  0.3722 -0.1087  0.1153
  472TMC3    C4 7076   3.861   2.483  16.199 -0.4546 -0.5256  0.4567
  472TMC3    C5 7077   3.852   2.377  16.113 -0.3788 -0.6487 -0.0028
  472TMC3    C6 7078   3.781   2.389  15.998  0.0223  0.4501 -0.4781
  472TMC3     C 7079   3.776   2.697  16.276  0.0598  0.0106  0.3550
  472TMC3     O 7080   3.665   2.754  16.263 -1.0144 -0.1523 -0.0284
  472TMC3     H 7081   3.672   2.705  16.025  0.1609 -0.4320  0.8594
  472TMC3    H1 7082   3.918   2.467  16.290 -1.2945  0.6836  1.1905
  472TMC3    H2 7083   3.756   2.303  15.937 -1.0594 -0.3603  1.0851
  472TMC3    C7 7084   3.853   2.243  16.167 -0.3209  0.4527 -0.1603
  472TMC3    C8 7085   3.586   2.482  15.907 -1.0741  0.2635 -1.0556
  472TMC3    O1 7086   3.935   2.240  16.254  1.0334 -0.3147  0.1501
  472TMC3    O2 7087   3.573   2.476  15.785 -0.0681 -0.2980  0.8318
  473MPD2     C 7088   3.430   0.130  13.624  0.4061 -0.2285 -0.0003
  473MPD2    C1 7089   3.563   0.179  13.631  0.0337  0.6740  0.7287
  473MPD2    C2 7090   3.617   0.231  13.752  0.8709  0.2206 -0.0939
  473MPD2    C3 7091   3.534   0.242  13.858  0.4215  0.5942 -0.1219
  473MPD2    C4 7092   3.407   0.204  13.846  0.3088  0.0669  0.2898
  473MPD2    C5 7093   3.345   0.147  13.728  0.0610  0.9193 -0.4513
  473MPD2     H 7094   3.721   0.264  13.759  0.2410  1.4650  3.5374
  473MPD2    H1 7095   3.349   0.208  13.938  0.5013 -0.5933  0.4450
  473MPD2    H2 7096   3.386   0.101  13.530  1.3581 -2.9865  0.4065
  473MPD2    H3 7097   3.243   0.111  13.728  0.2685  0.3232 -0.9715
  473MPD2     N 7098   3.579   0.303  13.980  0.4778  0.0108 -0.3506
  473MPD2    H5 7099   3.511   0.346  14.043  0.6006 -1.0606  0.5065
  473MPD2    N1 7100   3.650   0.184  13.517 -0.2106 -0.2202  0.4547
  473MPD2    H7 7101   3.747   0.211  13.531 -0.0890  0.8745 -2.4449
  474TMC3    C1 7102   3.735   0.425  14.121 -0.0223 -0.3333  0.3277
  474TMC3    C2 7103   3.644   0.523  14.138  0.2959  0.6985  0.5038
  474TMC3    C3 7104   3.674   0.624  14.211  0.0292 -0.1150  0.8690
  474TMC3    C4 7105   3.855   0.420  14.185 -0.2205 -0.2297 -0.6079
  474TMC3    C5 7106   3.882   0.527  14.260 -0.3978  0.0018 -1.0138
  474TMC3    C6 7107   3.790   0.628  14.284  1.0146  0.3032  0.4086
  474TMC3     C 7108   3.713   0.329  14.014  0.3502 -0.5798 -0.4114
  474TMC3     O 7109   3.812   0.284  13.959 -0.7234  0.1353  0.0855
  474TMC3     H 7110   3.564   0.525  14.064 -0.3741 -3.5232  1.0920
  474TMC3    H1 7111   3.929   0.343  14.167 -0.7893 -0.6659 -1.0832
  474TMC3    H2 7112   3.823   0.707  14.351 -0.7097  0.9590  0.4867
  474TMC3    C7 7113   4.003   0.520  14.336 -0.4444  0.0608  0.3346
  474TMC3    C8 7114   3.630   0.746  14.144 -0.3895  0.3153  0.4575
  474TMC3    O1 7115   4.084   0.438  14.296 -0.0159  0.4349  0.3590
  474TMC3    O2 7116   3.514   0.743  14.106  0.6141  0.1823  0.8380
  475MPD2     C 7117   1.295   3.508  11.117  0.2191 -0.1921 -0.3945
  475MPD2    C1 7118   1.416   3.529  11.054  0.6950 -0.0802 -0.6093
  475MPD2    C2 7119   1.429   3.503  10.921  0.0376  0.4334  0.4767
  475MPD2    C3 7120   1.319   3.465  10.846 -0.1789 -0.4428  0.3939
  475MPD2    C4 7121   1.191   3.449  10.912 -0.2512  0.2348  0.1057
  475MPD2    C5 7122   1.181   3.472  11.049 -0.3713 -0.2960  0.1290
  475MPD2     H 7123   1.527   3.515  10.877 -0.1833  2.0873  0.4393
  475MPD2    H1 7124   1.102   3.417  10.858 -0.5603 -2.0972  2.0062
  475MPD2    H2 7125   1.282   3.517  11.224 -2.0807  1.3024 -0.7922
  475MPD2    H3 7126   1.089   3.450  11.104  0.0913 -0.3185  0.8967
  475MPD2     N 7127   1.335   3.456  10.700  0.0558 -0.4308 -0.0469
  475MPD2    H5 7128   1.425   3.491  10.668 -0.1673  0.0245 -0.1828
  475MPD2    N1 7129   1.525   3.587  11.123  0.0602 -1.0686  0.7605
  475MPD2    H7 7130   1.596   3.624  11.060 -1.4973  0.0149 -0.3582
  476TMC3    C1 7131   1.663   3.693  11.273 -0.6342  0.4602 -0.3977
  476TMC3    C2 7132   1.779   3.666  11.213  0.1393 -0.4581  0.6229
  476TMC3    C3 7133   1.887   3.749  11.233 -0.1492 -0.2169 -1.0565
  476TMC3    C4 7134   1.648   3.797  11.363  0.1285  0.3689  0.7401
  476TMC3    C5 7135   1.766   3.866  11.390  0.7874 -0.2266 -0.2753
  476TMC3    C6 7136   1.884   3.846  11.329 -0.1724 -1.2488  0.3263
  476TMC3     C 7137   1.537   3.619  11.255 -0.3721 -1.0472  0.0800
  476TMC3     O 7138   1.456   3.612  11.349 -0.2775 -0.5660 -0.2860
  476TMC3     H 7139   1.782   3.586  11.141  1.4324 -0.4142  0.6269
  476TMC3    H1 7140   1.551   3.835  11.391 -0.8377 -0.8253 -0.9648
  476TMC3    H2 7141   1.977   3.893  11.359 -1.6149  1.5203  0.3959
  476TMC3    C7 7142   1.748   3.988  11.462 -0.0895  0.1538 -0.2564
  476TMC3    C8 7143   1.982   3.781  11.125  0.0685 -0.0938  0.2400
  476TMC3    O1 7144   1.679   4.003  11.559  0.6499  0.2346  0.3129
  476TMC3    O2 7145   2.052   3.875  11.149  0.3515  0.6636 -0.0634
  477MPD2     C 7146   0.074   0.425  11.967 -0.0317  0.4560  0.4195
  477MPD2    C1 7147   4.728   0.336  11.900 -0.2202  0.2041  1.0604
  477MPD2    C2 7148   4.717   0.220  11.964 -0.1019 -0.0600  0.6592
  477MPD2    C3 7149   0.019   0.201  12.098 -0.8155  0.2409  0.1478
  477MPD2    C4 7150   0.092   0.302  12.163  1.1556  0.9782 -0.6439
  477MPD2    C5 7151   0.131   0.415  12.089 -0.1486  0.0197 -0.5591
  477MPD2     H 7152   4.659   0.145  11.911 -2.4498  4.5699 -3.3149
  477MPD2    H1 7153   0.123   0.292  12.266 -1.9855  0.7644  0.2982
  477MPD2    H2 7154   0.104   0.514  11.912 -2.9941  0.2915 -1.4753
  477MPD2    H3 7155   0.191   0.493  12.133 -2.5998  1.7991 -0.3962
  477MPD2     N 7156   4.711   0.080  12.169 -0.5211  0.5443  0.2561
  477MPD2    H5 7157   4.684   4.731  12.118 -0.4828 -0.0344  1.1833
  477MPD2    N1 7158   4.680   0.372  11.774  0.2595 -0.5885  0.2560
  477MPD2    H7 7159   4.699   0.468  11.745  2.8218 -0.8170  1.1540
  478TMC3    C1 7160   4.529   0.372  11.603 -0.1967  0.3826  0.5380
  478TMC3    C2 7161   4.495   0.508  11.615 -0.3510 -0.0391 -0.9256
  478TMC3    C3 7162   4.383   0.553  11.540  0.2953  0.0135 -0.2215
  478TMC3    C4 7163   4.450   0.293  11.520  0.1720 -0.0835  0.0869
  478TMC3    C5 7164   4.359   0.343  11.434  0.3194  0.0059 -0.6663
  478TMC3    C6 7165   4.318   0.476  11.454 -0.2941  0.1462 -0.4232
  478TMC3     C 7166   4.586   0.302  11.706  0.1522 -0.1459 -0.3440
  478TMC3     O 7167   4.552   0.185  11.722 -0.3241 -0.7560  0.2646
  478TMC3     H 7168   4.529   0.572  11.696  1.1015 -1.7989 -0.1504
  478TMC3    H1 7169   4.468   0.187  11.509 -1.8677 -0.4582  0.3635
  478TMC3    H2 7170   4.229   0.506  11.400 -1.7063  1.0208  2.3853
  478TMC3    C7 7171   4.272   0.240  11.381 -0.6897 -0.0276  0.3664
  478TMC3    C8 7172   4.310   0.671  11.585  0.0733  0.0923  0.0753
  478TMC3    O1 7173   4.251   0.149  11.460 -0.2022 -0.1222  0.5950
  478TMC3    O2 7174   4.342   0.722  11.696 -0.4397 -0.1694 -0.3363
  479MPD2     C 7175   3.540   2.132  15.032  0.3212  0.5916  0.1668
  479MPD2    C1 7176   3.468   2.027  15.083 -0.0506  0.0293  0.6205
  479MPD2    C2 7177   3.462   2.012  15.217  1.1580  0.3666  0.3912
  479MPD2    C3 7178   3.511   2.105  15.308  0.2923  0.5346 -0.7476
  479MPD2    C4 7179   3.592   2.205  15.257 -0.8700 -0.0969 -0.3478
  479MPD2    C5 7180   3.612   2.214  15.117 -0.0420 -0.3215  0.3530
  479MPD2     H 7181   3.415   1.921  15.254  1.2977 -0.1478 -0.6895
  479MPD2    H1 7182   3.633   2.279  15.325 -2.1566 -0.7672  1.1531
  479MPD2    H2 7183   3.542   2.161  14.928 -0.4796  0.3965  0.1010
  479MPD2    H3 7184   3.676   2.290  15.073 -0.0365 -0.2212  0.5373
  479MPD2     N 7185   3.481   2.108  15.452 -0.4230  0.7805 -0.0119
  479MPD2    H5 7186   3.537   2.166  15.513  1.4185 -0.7475 -0.2592
  479MPD2    N1 7187   3.379   1.950  14.996 -0.1254 -0.3338 -0.0488
  479MPD2    H7 7188   3.364   1.984  14.901 -1.0603  1.1365  0.6175
  480TMC3    C1 7189   3.104   1.809  15.481  0.8779 -0.1302  0.0421
  480TMC3    C2 7190   3.034   1.874  15.387  0.3548 -0.7579 -0.1878
  480TMC3    C3 7191   3.082   1.985  15.336 -0.0784  0.2731  0.6307
  480TMC3    C4 7192   3.234   1.846  15.515 -0.5883  0.1881  0.1933
  480TMC3    C5 7193   3.287   1.959  15.460  0.0625 -0.1059  0.2700
  480TMC3    C6 7194   3.215   2.022  15.356  0.1245 -0.4051 -0.0677
  480TMC3     C 7195   3.050   1.691  15.545 -0.2391  0.2968  0.0128
  480TMC3     O 7196   3.117   1.649  15.643  0.8032 -0.5572 -0.5922
  480TMC3     H 7197   2.934   1.843  15.357  1.4924 -2.9351 -1.7770
  480TMC3    H1 7198   3.288   1.792  15.593  0.9728  2.9273  1.0160
  480TMC3    H2 7199   3.246   2.120  15.324 -4.7066  1.6114  1.4123
  480TMC3    C7 7200   3.400   2.023  15.529  0.2375  0.0351  0.2690
  480TMC3    C8 7201   3.008   2.055  15.231  0.0923 -0.0059  0.1049
  480TMC3    O1 7202   3.413   1.993  15.645  0.2295  0.3440  0.3898
  480TMC3    O2 7203   2.888   2.052  15.220 -0.0602 -0.1811  0.3245
  481MPD2     C 7204   0.620   1.803  14.675  0.0832  0.4463 -0.5887
  481MPD2    C1 7205   0.498   1.734  14.678 -0.3609  0.3863 -0.5660
  481MPD2    C2 7206   0.450   1.692  14.795 -0.8469 -0.0082  0.4605
  481MPD2    C3 7207   0.519   1.709  14.917 -0.2470  0.5926  0.5207
  481MPD2    C4 7208   0.626   1.802  14.917  0.2926  0.3904 -0.4701
  481MPD2    C5 7209   0.681   1.832  14.794 -0.3190  0.6583 -0.0329
  481MPD2     H 7210   0.357   1.638  14.789  0.7778 -2.9224  1.5642
  481MPD2    H1 7211   0.679   1.835  15.005 -0.4937 -0.9670  0.5232
  481MPD2    H2 7212   0.658   1.848  14.584  0.0700 -0.4977 -1.0606
  481MPD2    H3 7213   0.771   1.894  14.787  0.7594 -0.8247  0.6768
  481MPD2     N 7214   0.466   1.676  15.043  0.3209  0.0643 -0.4842
  481MPD2    H5 7215   0.507   1.724  15.122 -1.5121 -2.6314  2.1184
  481MPD2    N1 7216   0.431   1.712  14.552  0.4690 -0.3097 -0.3503
  481MPD2    H7 7217   0.482   1.745  14.471  0.4853  0.5451  0.0113
  482TMC3    C1 7218   0.255   1.670  14.401  0.6532 -0.4497  0.2977
  482TMC3    C2 7219   0.148   1.590  14.366 -0.2781 -0.2677  0.0559
  482TMC3    C3 7220   0.058   1.635  14.267  0.0635 -0.0347  0.3951
  482TMC3    C4 7221   0.277   1.791  14.344 -0.1178 -1.2325 -0.5231
  482TMC3    C5 7222   0.198   1.828  14.236 -0.1032 -0.4158 -0.6241
  482TMC3    C6 7223   0.076   1.758  14.206  0.2916 -0.1484 -0.1473
  482TMC3     C 7224   0.308   1.651  14.535 -0.0754  0.6328 -0.6935
  482TMC3     O 7225   0.232   1.589  14.615 -0.1290 -0.3228 -0.1843
  482TMC3     H 7226   0.128   1.499  14.422 -0.4102 -0.7423 -0.7702
  482TMC3    H1 7227   0.362   1.854  14.364 -0.4565 -0.8526 -0.2729
  482TMC3    H2 7228   0.022   1.807  14.126 -1.2185  1.0810  1.6007
  482TMC3    C7 7229   0.240   1.950  14.162 -0.9019  0.1640  0.2265
  482TMC3    C8 7230   4.685   1.546  14.231 -0.1968  0.3787 -0.1186
  482TMC3    O1 7231   0.299   2.031  14.235  0.0049  0.6168 -0.1151
  482TMC3    O2 7232   4.713   1.428  14.249 -0.2987 -0.1831 -0.3776
  483TMC3    C1 7233   2.970   0.642   0.855  0.6064 -0.0295 -0.5228
  483TMC3    C2 7234   3.071   0.673   0.770 -0.4268 -0.5937  0.0558
  483TMC3    C3 7235   3.157   0.771   0.794  0.3727  0.4709 -0.0357
  483TMC3    C4 7236   2.948   0.721   0.965  0.0618 -0.0757  0.6462
  483TMC3    C5 7237   3.038   0.830   0.988  0.0768 -0.5360  1.0918
  483TMC3    C6 7238   3.141   0.853   0.902  0.3202 -0.7401  0.5072
  483TMC3     C 7239   2.903   0.519   0.846  0.6453  0.4260  0.2614
  483TMC3     O 7240   2.803   0.518   0.915  0.0400 -0.2521 -0.2848
  483TMC3     H 7241   3.103   0.601   0.695  0.0182 -1.5126  1.1172
  483TMC3    H1 7242   2.869   0.694   1.035 -0.5211 -0.5419 -0.1988
  483TMC3    H2 7243   3.215   0.930   0.923  1.5109 -1.4588 -1.1068
  483TMC3    C7 7244   3.091   0.822   1.124  0.0430 -0.0367  0.2466
  483TMC3    C8 7245   3.291   0.736   0.760  0.1728  0.1453 -0.5053
  483TMC3    O1 7246   3.045   0.732   1.193 -0.1231  0.3842 -0.0833
  483TMC3    O2 7247   3.322   0.734   0.641  0.3559  0.6327  0.1260
  484MPD2     C 7248   0.675   3.749  12.971  0.1319 -0.7033  0.1621
  484MPD2    C1 7249   0.624   3.706  12.846  0.4893  0.2743  1.0699
  484MPD2    C2 7250   0.690   3.740  12.731  0.5628 -0.5770 -0.4550
  484MPD2    C3 7251   0.808   3.810  12.736 -0.6046  0.0587 -0.6325
  484MPD2    C4 7252   0.854   3.850  12.859 -0.3288  0.0879  0.0345
  484MPD2    C5 7253   0.794   3.825  12.980 -0.1863  0.3456 -0.2969
  484MPD2     H 7254   0.661   3.710  12.631  0.7815 -1.3420 -0.2803
  484MPD2    H1 7255   0.946   3.908  12.864  1.3297 -2.8494  3.1348
  484MPD2    H2 7256   0.621   3.739  13.064 -0.7215 -3.2374 -0.5976
  484MPD2    H3 7257   0.839   3.865  13.071  0.3809  1.9416 -1.2832
  484MPD2     N 7258   0.894   3.836  12.629 -0.1393  0.5099  0.2990
  484MPD2    H5 7259   0.983   3.878  12.654  1.5705 -1.6054 -2.2157
  484MPD2    N1 7260   0.516   3.621  12.855 -0.3881 -0.1806 -0.3976
  484MPD2    H7 7261   0.486   3.588  12.946  0.5076  1.6791  0.5679
  485TMC3    C1 7262   0.958   3.877  12.418 -0.4946  0.1789  0.8893
  485TMC3    C2 7263   1.036   3.986  12.455 -1.0470  0.2679 -0.0271
  485TMC3    C3 7264   1.103   4.063  12.364  0.3898  0.2021 -0.1228
  485TMC3    C4 7265   0.956   3.849  12.285  0.3470 -0.3837 -0.4249
  485TMC3    C5 7266   1.016   3.930  12.191  0.7172 -1.1280  0.9318
  485TMC3    C6 7267   1.094   4.034  12.228  0.0399 -0.6067  0.0194
  485TMC3     C 7268   0.863   3.817  12.500 -0.2510  0.1476 -0.0229
  485TMC3     O 7269   0.767   3.771  12.443  0.1819  0.1876  0.6054
  485TMC3     H 7270   1.055   4.015  12.558 -1.8056  1.2751 -0.1802
  485TMC3    H1 7271   0.881   3.777  12.255 -0.1686  0.4048 -1.0195
  485TMC3    H2 7272   1.145   4.093  12.152  0.2488 -2.1503 -1.0415
  485TMC3    C7 7273   1.047   3.878  12.061  0.1967 -0.5617 -0.2949
  485TMC3    C8 7274   1.238   4.097  12.405 -0.1269 -0.1511  0.4108
  485TMC3    O1 7275   1.110   3.950  11.982  0.2505 -0.1916 -0.4110
  485TMC3    O2 7276   1.306   4.169  12.326 -0.1929 -0.0634  0.0788
  486MPD2     C 7277   3.317   2.377  13.146 -0.2563  0.3288  0.6013
  486MPD2    C1 7278   3.221   2.316  13.068 -0.1687  0.2786 -0.1376
  486MPD2    C2 7279   3.123   2.399  13.011 -0.2273 -0.4903 -0.4760
  486MPD2    C3 7280   3.105   2.532  13.053 -0.5942 -0.4733 -0.2534
  486MPD2    C4 7281   3.200   2.583  13.137  0.5989  0.2626  0.0898
  486MPD2    C5 7282   3.312   2.510  13.174 -0.1367  0.4324 -0.3633
  486MPD2     H 7283   3.046   2.353  12.949  0.3579 -1.0317 -0.8017
  486MPD2    H1 7284   3.193   2.684  13.176 -4.0462 -0.0574  0.0976
  486MPD2    H2 7285   3.407   2.320  13.165 -1.7193 -2.3468 -0.4805
  486MPD2    H3 7286   3.385   2.568  13.229 -0.5775  2.2232 -1.6380
  486MPD2     N 7287   2.986   2.593  13.011 -0.4984 -0.7885  0.3110
  486MPD2    H5 7288   2.929   2.540  12.946 -0.4290 -1.7912  1.0698
  486MPD2    N1 7289   3.250   2.187  13.033  0.1390  0.4103  0.1159
  486MPD2    H7 7290   3.321   2.141  13.088 -0.9047  0.1303  1.2432
  487TMC3    C1 7291   3.228   1.987  12.916  0.5083  0.1409  0.6299
  487TMC3    C2 7292   3.173   1.916  12.810  0.0777  0.4724  0.2617
  487TMC3    C3 7293   3.151   1.781  12.838 -0.1351 -0.1033 -0.1914
  487TMC3    C4 7294   3.272   1.922  13.030 -0.4873  0.0298 -0.2694
  487TMC3    C5 7295   3.265   1.785  13.046  0.2530  0.4231  0.3143
  487TMC3    C6 7296   3.211   1.714  12.943  1.1713 -0.5093 -0.0709
  487TMC3     C 7297   3.185   2.124  12.930 -0.4632  0.0857 -0.1436
  487TMC3     O 7298   3.147   2.182  12.828  0.2116  0.0441  0.0013
  487TMC3     H 7299   3.108   1.961  12.736  1.2271 -0.3304 -1.2204
  487TMC3    H1 7300   3.327   1.976  13.107  0.2873 -0.9099 -0.1550
  487TMC3    H2 7301   3.171   1.615  12.963  0.9514 -0.2499  0.7864
  487TMC3    C7 7302   3.210   1.749  13.170 -0.5318  0.5082  1.4787
  487TMC3    C8 7303   3.036   1.714  12.785  0.3624 -0.0459  0.1256
  487TMC3    O1 7304   3.161   1.850  13.219  0.3973 -0.1439  0.0547
  487TMC3    O2 7305   3.061   1.637  12.693 -0.0198  0.4572 -0.0525
  488MPD2     C 7306   3.217   3.690  16.475  0.1576 -0.9052  0.2094
  488MPD2    C1 7307   3.309   3.763  16.552  0.9124  0.6076  0.0582
  488MPD2    C2 7308   3.317   3.732  16.687 -0.0608 -0.0739  0.3680
  488MPD2    C3 7309   3.239   3.626  16.739  0.2713  0.5970  0.2750
  488MPD2    C4 7310   3.147   3.563  16.662 -0.2202  0.2634 -0.1214
  488MPD2    C5 7311   3.133   3.597  16.532  1.0426  1.0675  0.6237
  488MPD2     H 7312   3.378   3.783  16.761  0.4366 -0.0266 -0.0802
  488MPD2    H1 7313   3.094   3.478  16.702  0.1036  0.0120 -0.2319
  488MPD2    H2 7314   3.190   3.702  16.371 -1.7756 -1.2611  0.6858
  488MPD2    H3 7315   3.053   3.548  16.477  2.2238 -0.2179  0.0566
  488MPD2     N 7316   3.237   3.610  16.873  0.2577  0.1456  0.6199
  488MPD2    H5 7317   3.277   3.693  16.914 -0.3924  0.6924  0.1434
  488MPD2    N1 7318   3.385   3.870  16.506  0.3514 -0.3494  0.0594
  488MPD2    H7 7319   3.444   3.913  16.576  0.7126  1.4474 -1.3363
  489TMC3    C1 7320   3.206   3.561  17.099 -0.4135 -0.5228  0.1515
  489TMC3    C2 7321   3.283   3.672  17.128 -0.2549  0.0314  0.2636
  489TMC3    C3 7322   3.279   3.729  17.257  0.0510 -0.1715  1.0179
  489TMC3    C4 7323   3.126   3.516  17.202 -0.3861  0.0328 -0.6072
  489TMC3    C5 7324   3.129   3.568  17.326  0.4658 -0.5414  0.3428
  489TMC3    C6 7325   3.202   3.680  17.354  0.0349  0.4509 -0.0827
  489TMC3     C 7326   3.188   3.522  16.961 -0.7283 -0.0299  0.2673
  489TMC3     O 7327   3.134   3.417  16.936  0.5273 -0.2761 -0.0749
  489TMC3     H 7328   3.357   3.704  17.056  0.7187 -0.6597  0.9614
  489TMC3    H1 7329   3.064   3.431  17.176  2.1739 -2.0671  0.1181
  489TMC3    H2 7330   3.207   3.717  17.456  3.0998  0.8064 -0.3641
  489TMC3    C7 7331   3.071   3.513  17.449  0.1350 -0.6364  0.0833
  489TMC3    C8 7332   3.314   3.869  17.253  0.1846  0.1861  0.3820
  489TMC3    O1 7333   3.126   3.540  17.553  0.3046  0.0418  0.0180
  489TMC3    O2 7334   3.401   3.891  17.171  0.1844 -0.4235 -0.5097
  490MPD2     C 7335   3.883   3.337  17.270  0.1178  0.1664  0.6276
  490MPD2    C1 7336   3.819   3.257  17.364 -0.1438 -0.6220 -0.0938
  490MPD2    C2 7337   3.842   3.290  17.493 -0.5813 -0.8411 -0.5693
  490MPD2    C3 7338   3.933   3.392  17.539 -0.4088  0.0180  0.3077
  490MPD2    C4 7339   3.993   3.471  17.443 -0.0040  0.3685  0.4927
  490MPD2    C5 7340   3.971   3.440  17.306  0.2326  0.2812 -0.4768
  490MPD2     H 7341   3.788   3.233  17.567 -1.4882 -0.8960 -1.2756
  490MPD2    H1 7342   4.062   3.552  17.464  0.5831 -0.2560  0.9477
  490MPD2    H2 7343   3.865   3.317  17.165  2.3560  1.6579 -0.0470
  490MPD2    H3 7344   4.020   3.495  17.226 -0.2652  1.1544 -0.1784
  490MPD2     N 7345   3.969   3.415  17.669 -0.6681  0.1961  0.7089
  490MPD2    H5 7346   4.039   3.488  17.680 -1.5112  1.0478  0.4462
  490MPD2    N1 7347   3.720   3.169  17.319  0.1168  0.1706  0.1252
  490MPD2    H7 7348   3.655   3.129  17.386 -0.1600  0.6032  0.1135
  491TMC3    C1 7349   3.609   3.005  17.178 -0.3257 -0.5146 -0.1265
  491TMC3    C2 7350   3.530   2.965  17.285  0.0962  0.3773  0.0170
  491TMC3    C3 7351   3.426   2.872  17.263 -0.0037  0.1600  0.0462
  491TMC3    C4 7352   3.578   2.964  17.049 -0.2567 -0.0183  0.1004
  491TMC3    C5 7353   3.476   2.867  17.037  0.4201 -0.2406 -0.6439
  491TMC3    C6 7354   3.402   2.825  17.143  0.1334  0.0355 -0.4470
  491TMC3     C 7355   3.716   3.102  17.195 -0.4605  0.0123  0.5746
  491TMC3     O 7356   3.797   3.115  17.101  0.0962  0.1930  0.3923
  491TMC3     H 7357   3.565   2.993  17.384 -1.3154 -2.2123  1.2562
  491TMC3    H1 7358   3.632   3.002  16.963 -1.0816 -1.4536 -1.0441
  491TMC3    H2 7359   3.347   2.732  17.136  1.0391 -0.6416  1.7178
  491TMC3    C7 7360   3.427   2.823  16.910  0.4610  0.0703 -0.2163
  491TMC3    C8 7361   3.353   2.824  17.384 -0.1812  0.1222  0.7998
  491TMC3    O1 7362   3.352   2.728  16.901  0.2858  0.2004  0.6747
  491TMC3    O2 7363   3.415   2.837  17.491 -0.3563 -0.0251  0.2000
  492MPD2     C 7364   4.092   3.339  11.404 -0.7541  0.2655  0.4126
  492MPD2    C1 7365   3.987   3.256  11.376  0.1701 -0.8998 -0.5876
  492MPD2    C2 7366   3.910   3.210  11.479 -0.4506 -0.6821 -0.4081
  492MPD2    C3 7367   3.935   3.241  11.613 -0.1473  0.6186 -0.0011
  492MPD2    C4 7368   4.051   3.317  11.634  0.0660 -0.1597 -0.0807
  492MPD2    C5 7369   4.130   3.358  11.528 -0.2517 -0.1052 -0.0401
  492MPD2     H 7370   3.821   3.154  11.452 -1.7081  1.0928  0.0225
  492MPD2    H1 7371   4.090   3.331  11.734 -2.4682 -0.2063  0.9169
  492MPD2    H2 7372   4.168   3.359  11.330 -0.4837  1.5388  1.0364
  492MPD2    H3 7373   4.228   3.396  11.556 -2.0152  2.9142  2.1295
  492MPD2     N 7374   3.850   3.210  11.724 -0.1919  0.6370 -0.7679
  492MPD2    H5 7375   3.873   3.249  11.815  0.4274 -2.5797  0.4536
  492MPD2    N1 7376   3.964   3.228  11.239  0.3002 -0.2073 -0.0471
  492MPD2    H7 7377   4.040   3.247  11.174  1.6604  0.8701  1.8716
  493TMC3    C1 7378   3.867   3.135  11.036 -0.5238 -0.2026  0.5073
  493TMC3    C2 7379   3.912   3.235  10.950  0.2141  0.2584 -0.0471
  493TMC3    C3 7380   3.851   3.237  10.826  0.4672 -0.5902  0.3388
  493TMC3    C4 7381   3.797   3.027  11.004 -0.8040 -0.3086 -0.4943
  493TMC3    C5 7382   3.745   3.031  10.876 -0.1822 -0.1778 -0.0595
  493TMC3    C6 7383   3.764   3.132  10.789 -0.3546  0.3022  0.1610
  493TMC3     C 7384   3.861   3.152  11.183 -0.6378 -0.1385  0.1600
  493TMC3     O 7385   3.763   3.113  11.240 -1.0028 -0.5777  0.0630
  493TMC3     H 7386   3.951   3.331  10.984  0.6825 -0.3492  1.1306
  493TMC3    H1 7387   3.771   2.952  11.077 -0.8688 -0.7939 -1.0090
  493TMC3    H2 7388   3.724   3.123  10.689  1.1122  2.0616 -0.5865
  493TMC3    C7 7389   3.663   2.922  10.823  0.0273 -0.0373  0.0948
  493TMC3    C8 7390   3.850   3.357  10.744  0.5328 -0.4976 -0.0118
  493TMC3    O1 7391   3.620   2.936  10.711 -0.0337  0.1640 -0.5629
  493TMC3    O2 7392   3.946   3.433  10.744  0.5220  0.4851  0.2734
  494TMC3    C1 7393   0.004   4.665   0.530  0.1920  0.2858 -0.1837
  494TMC3    C2 7394   0.076   4.547   0.550  0.1051  0.4843  0.7869
  494TMC3    C3 7395   0.158   4.497   0.449 -0.5269  0.2389  0.0259
  494TMC3    C4 7396   0.016   4.725   0.407  0.7489  0.2029 -0.3672
  494TMC3    C5 7397   0.091   4.667   0.311 -0.0473  0.6495 -0.2273
  494TMC3    C6 7398   0.166   4.555   0.327 -0.1870 -0.5898  0.4179
  494TMC3     C 7399   4.731   0.020   0.647 -0.0313 -0.3142  0.4228
  494TMC3     O 7400   4.699   4.706   0.757  0.4868 -0.1986 -0.7662
  494TMC3     H 7401   0.079   4.498   0.646 -0.9582 -1.3023 -0.0823
  494TMC3    H1 7402   4.694   0.083   0.395  0.1203  0.0109  1.0732
  494TMC3    H2 7403   0.224   4.515   0.245  0.0793  0.0725  0.2855
  494TMC3    C7 7404   0.088   4.716   0.175 -0.4727 -0.4503 -0.2154
  494TMC3    C8 7405   0.217   4.368   0.473 -0.3449 -0.6375  0.5156
  494TMC3    O1 7406   0.145   4.656   0.085 -0.3990 -0.7233  0.2613
  494TMC3    O2 7407   0.170   4.285   0.550 -0.7110 -0.5388 -0.5297
  495TMC3    C1 7408   3.593   2.210  14.446 -0.2737 -0.2787  0.0072
  495TMC3    C2 7409   3.547   2.304  14.356 -0.0034 -0.0661 -0.3737
  495TMC3    C3 7410   3.435   2.379  14.383 -0.7529  0.7167 -0.4224
  495TMC3    C4 7411   3.532   2.193  14.568  0.1565 -0.8443 -0.1536
  495TMC3    C5 7412   3.416   2.272  14.587  0.1721 -0.5652 -0.4842
  495TMC3    C6 7413   3.372   2.363  14.495  0.7717  0.1824  0.1946
  495TMC3     C 7414   3.635   2.079  14.378 -0.3282  0.3565 -0.0754
  495TMC3     O 7415   3.589   2.058  14.266 -0.3472  0.6486  0.3198
  495TMC3     H 7416   3.609   2.327  14.270  0.8047 -1.7815 -0.2654
  495TMC3    H1 7417   3.547   2.102  14.625 -1.9797 -0.4279  1.0741
  495TMC3    H2 7418   3.286   2.428  14.509  1.1661  0.1633  2.7489
  495TMC3    C7 7419   3.330   2.232  14.699  0.1524 -0.0937  0.6655
  495TMC3    C8 7420   3.351   2.388  14.274  0.3601  0.3819 -0.2156
  495TMC3    O1 7421   3.362   2.128  14.755  0.3159  0.3195 -0.7765
  495TMC3    O2 7422   3.260   2.470  14.272 -0.0192  0.0365  0.0380
  496MPD2     C 7423   0.556   2.336  15.145 -0.1567  0.2406  0.0989
  496MPD2    C1 7424   0.644   2.366  15.247  0.0701 -0.0499  0.2188
  496MPD2    C2 7425   0.583   2.375  15.377 -0.2230  0.0117 -0.2105
  496MPD2    C3 7426   0.448   2.370  15.402  0.1684  0.1250 -0.2566
  496MPD2    C4 7427   0.369   2.340  15.293 -0.2908  0.1883  0.6079
  496MPD2    C5 7428   0.422   2.321  15.166  0.3114 -0.1772 -0.7008
  496MPD2     H 7429   0.651   2.394  15.459 -0.0439 -0.7411 -0.1807
  496MPD2    H1 7430   0.262   2.325  15.305  0.1640 -2.3655  1.6432
  496MPD2    H2 7431   0.602   2.326  15.048 -1.3330 -0.7054 -0.3620
  496MPD2    H3 7432   0.355   2.295  15.086 -1.1446  3.2308 -0.6082
  496MPD2     N 7433   0.398   2.355  15.534 -1.0683 -0.1411  0.4950
  496MPD2    H5 7434   0.297   2.354  15.546 -1.4100  0.3980 -2.3503
  496MPD2    N1 7435   0.782   2.344  15.230  0.4258  1.0060  0.1148
  496MPD2    H7 7436   0.813   2.288  15.151 -3.0560 -1.0842  0.2077
  497TMC3    C1 7437   0.399   2.390  15.767  0.3803  0.9400  0.4179
  497TMC3    C2 7438   0.277   2.461  15.758  0.4625  0.1955 -0.0274
  497TMC3    C3 7439   0.221   2.497  15.877 -1.1316  0.1154  1.0740
  497TMC3    C4 7440   0.456   2.357  15.885  0.4661 -0.2140  0.4592
  497TMC3    C5 7441   0.387   2.391  16.000 -0.0580  0.1532  0.4509
  497TMC3    C6 7442   0.273   2.463  15.999  0.3962  0.6021 -0.5054
  497TMC3     C 7443   0.476   2.342  15.650 -0.2595 -0.0058 -0.4383
  497TMC3     O 7444   0.595   2.327  15.662 -0.4790 -0.1711  0.1418
  497TMC3     H 7445   0.234   2.492  15.663  0.5343  1.0720  0.2215
  497TMC3    H1 7446   0.537   2.285  15.883 -0.4675 -1.3062  2.4985
  497TMC3    H2 7447   0.227   2.502  16.090  0.7550  0.0872 -0.1024
  497TMC3    C7 7448   0.428   2.329  16.125  0.8691 -0.5726 -0.4345
  497TMC3    C8 7449   0.080   2.543  15.882  0.0850  0.4375 -0.2706
  497TMC3    O1 7450   0.345   2.326  16.217 -0.4381 -0.2843 -0.2932
  497TMC3    O2 7451   0.023   2.563  15.988  0.3076  0.0917 -0.2280
  498MPD2     C 7452   1.390   3.369   9.739  0.0807 -0.2531  0.2518
  498MPD2    C1 7453   1.498   3.308   9.801  0.0199  0.6270 -0.0259
  498MPD2    C2 7454   1.495   3.171   9.833  0.0081  0.5745 -0.2252
  498MPD2    C3 7455   1.387   3.090   9.798  0.7530 -0.3570 -0.4342
  498MPD2    C4 7456   1.277   3.142   9.733  0.0922  0.0830 -0.1625
  498MPD2    C5 7457   1.279   3.282   9.711  0.2929  0.5064 -0.4907
  498MPD2     H 7458   1.582   3.123   9.876 -0.5956 -0.4828 -0.1797
  498MPD2    H1 7459   1.179   3.098   9.720  0.8793 -2.0821  1.2669
  498MPD2    H2 7460   1.375   3.474   9.720 -1.5386 -0.2594  1.4656
  498MPD2    H3 7461   1.190   3.333   9.675 -1.2210 -3.5093 -2.4586
  498MPD2     N 7462   1.390   2.957   9.828 -0.5526 -0.1469 -0.2873
  498MPD2    H5 7463   1.477   2.924   9.869 -0.3878  0.8939  0.1830
  498MPD2    N1 7464   1.600   3.396   9.843 -0.7874 -0.9669 -0.0805
  498MPD2    H7 7465   1.588   3.491   9.809 -0.1786 -1.6304 -2.1228
  499TMC3    C1 7466   1.799   3.480   9.931  0.0771  0.8018  0.2604
  499TMC3    C2 7467   1.930   3.457   9.975  0.2938  0.0141  0.6316
  499TMC3    C3 7468   2.012   3.565   9.996  0.0011 -0.5292 -0.0603
  499TMC3    C4 7469   1.759   3.610   9.896  0.8959 -0.2886  0.0071
  499TMC3    C5 7470   1.843   3.710   9.927  0.1651 -0.1573 -0.2797
  499TMC3    C6 7471   1.967   3.692   9.986 -0.1658 -0.5279  0.1466
  499TMC3     C 7472   1.713   3.366   9.911 -0.0715 -0.0628  0.2718
  499TMC3     O 7473   1.729   3.276   9.990  0.1432 -0.2759 -0.6908
  499TMC3     H 7474   1.968   3.360  10.002  1.1855  0.3408  0.5484
  499TMC3    H1 7475   1.663   3.634   9.851  0.5646  0.6730  1.2058
  499TMC3    H2 7476   2.039   3.773   9.997  0.6882 -1.4129  1.0704
  499TMC3    C7 7477   1.850   3.824   9.833 -0.6110 -0.2840 -0.3011
  499TMC3    C8 7478   2.157   3.529   9.975 -0.3857  0.1712 -0.0552
  499TMC3    O1 7479   1.959   3.876   9.817  0.1101 -0.0849  0.1230
  499TMC3    O2 7480   2.171   3.417   9.925 -0.0584  0.2874  0.2270
  500MPD2     C 7481   2.963   3.916  10.845 -0.1584 -0.3952 -0.2832
  500MPD2    C1 7482   3.018   3.997  10.748 -0.0456  0.2653 -0.4921
  500MPD2    C2 7483   2.944   4.007  10.631 -0.2945 -0.1131 -0.0916
  500MPD2    C3 7484   2.821   3.939  10.619 -0.0280  0.3914 -0.2030
  500MPD2    C4 7485   2.776   3.856  10.722  1.0114 -0.9888 -0.4643
  500MPD2    C5 7486   2.850   3.845  10.833  1.2268  0.0325  0.6322
  500MPD2     H 7487   2.984   4.065  10.548  1.3389 -0.2703  0.5876
  500MPD2    H1 7488   2.685   3.800  10.705  0.7567 -0.3406 -1.1957
  500MPD2    H2 7489   3.017   3.882  10.933  0.5459 -1.5154 -1.1564
  500MPD2    H3 7490   2.826   3.775  10.913  0.6071  1.4681  1.6937
  500MPD2     N 7491   2.730   3.962  10.516  0.5029 -0.0174 -0.1298
  500MPD2    H5 7492   2.636   3.926  10.529  2.2301 -4.2082  0.7911
  500MPD2    N1 7493   3.147   4.052  10.753 -0.0763 -0.0019 -0.4893
  500MPD2    H7 7494   3.186   4.101  10.672 -0.5275 -1.6676 -1.7091
  501TMC3    C1 7495   3.375   4.071  10.818 -0.6418  0.4319  0.0513
  501TMC3    C2 7496   3.392   4.132  10.695  0.0981  0.0918  0.5746
  501TMC3    C3 7497   3.517   4.176  10.665  0.1601  0.2237 -0.1619
  501TMC3    C4 7498   3.476   4.047  10.906  0.0899 -0.4526  0.0969
  501TMC3    C5 7499   3.602   4.077  10.862 -0.6138  0.2014 -0.0464
  501TMC3    C6 7500   3.621   4.142  10.743  0.0493  0.7731 -0.0755
  501TMC3     C 7501   3.238   4.031  10.857  0.8818 -0.3741  0.6386
  501TMC3     O 7502   3.215   3.980  10.968  0.3729 -0.6668 -0.1742
  501TMC3     H 7503   3.312   4.169  10.632  1.8198 -1.3467 -2.4612
  501TMC3    H1 7504   3.462   3.980  10.990 -1.3668 -0.7308 -0.3606
  501TMC3    H2 7505   3.723   4.165  10.713  0.6654  1.0293  2.2374
  501TMC3    C7 7506   3.720   4.068  10.950 -0.0897  0.1883  0.2032
  501TMC3    C8 7507   3.536   4.315  10.615  0.2869 -0.0589 -0.1991
  501TMC3    O1 7508   3.827   4.105  10.903 -0.7162  0.4823 -0.2064
  501TMC3    O2 7509   3.637   4.377  10.661  0.3587  0.3621  0.3479
  502TMC3    C1 7510   2.468   3.129  14.582  0.2201  0.0905 -0.9353
  502TMC3    C2 7511   2.506   3.259  14.578 -0.0538 -0.1774 -0.1802
  502TMC3    C3 7512   2.442   3.349  14.657 -0.5036  0.2890 -0.0352
  502TMC3    C4 7513   2.362   3.087  14.656 -0.8170  0.3888  0.1060
  502TMC3    C5 7514   2.295   3.177  14.734  0.3849  0.1862 -0.1563
  502TMC3    C6 7515   2.334   3.307  14.738 -0.6233 -0.1929  0.1711
  502TMC3     C 7516   2.576   3.037  14.604 -0.0865  0.4517 -0.1162
  502TMC3     O 7517   2.658   3.019  14.508  0.1757  0.2149 -0.0415
  502TMC3     H 7518   2.607   3.268  14.540 -0.9708  2.4977 -1.9607
  502TMC3    H1 7519   2.321   2.987  14.649  2.0798 -0.6688 -1.4334
  502TMC3    H2 7520   2.287   3.380  14.804  1.8703  2.3716 -0.8732
  502TMC3    C7 7521   2.231   3.121  14.852  0.5965  0.7751 -0.3482
  502TMC3    C8 7522   2.526   3.451  14.713 -0.4723  0.2768  0.1614
  502TMC3    O1 7523   2.253   3.003  14.865 -0.6824  0.7810 -0.8490
  502TMC3    O2 7524   2.473   3.542  14.776 -0.6439 -0.2866 -0.3400
  503MPD2     C 7525   0.142   3.611  16.722 -0.3490 -0.0858 -0.2652
  503MPD2    C1 7526   0.173   3.637  16.856 -0.2378  0.1574  0.3292
  503MPD2    C2 7527   0.222   3.534  16.938 -0.0556  0.4802  0.6401
  503MPD2    C3 7528   0.230   3.402  16.893  1.0529 -0.2779  0.0214
  503MPD2    C4 7529   0.188   3.375  16.762  0.0832 -0.2302 -0.4301
  503MPD2    C5 7530   0.162   3.481  16.681  0.1300 -0.0760 -0.6764
  503MPD2     H 7531   0.252   3.561  17.039  2.8422 -0.9026  0.1422
  503MPD2    H1 7532   0.170   3.275  16.723 -0.1674  0.0844 -1.1328
  503MPD2    H2 7533   0.110   3.690  16.655  2.3057  1.6600  0.5629
  503MPD2    H3 7534   0.139   3.457  16.578  1.1397 -1.0045 -0.6877
  503MPD2     N 7535   0.287   3.309  16.983 -0.7063 -0.0652 -0.1104
  503MPD2    H5 7536   0.307   3.342  17.077 -0.5769 -1.9016  0.5190
  503MPD2    N1 7537   0.159   3.775  16.900 -0.4750 -0.3193  0.5441
  503MPD2    H7 7538   0.168   3.787  17.001 -2.5939 -1.0519  0.8169
  504TMC3    C1 7539   0.389   3.093  17.038 -0.3705 -0.2214 -0.5716
  504TMC3    C2 7540   0.361   3.105  17.175  0.0961 -0.1263 -0.0619
  504TMC3    C3 7541   0.425   3.015  17.260  0.0218  0.5102 -0.0034
  504TMC3    C4 7542   0.476   3.002  16.990  0.1701 -0.0179  0.0282
  504TMC3    C5 7543   0.533   2.922  17.076  0.2664  0.1901 -0.2277
  504TMC3    C6 7544   0.511   2.923  17.210  0.1980 -0.3985  0.4846
  504TMC3     C 7545   0.329   3.187  16.935  0.3287  0.3332  0.0752
  504TMC3     O 7546   0.345   3.149  16.817 -0.0318 -0.2314  0.2609
  504TMC3     H 7547   0.291   3.179  17.211  0.7418  0.7473 -0.6089
  504TMC3    H1 7548   0.507   3.006  16.887  1.1464  0.7528  0.3573
  504TMC3    H2 7549   0.559   2.847  17.271  0.6250 -0.3010  0.2737
  504TMC3    C7 7550   0.665   2.877  17.034 -0.0673 -0.8805  0.6067
  504TMC3    C8 7551   0.388   3.014  17.395  0.4496  0.0471  0.9258
  504TMC3    O1 7552   0.716   2.956  16.957  0.1458  0.3618  0.1356
  504TMC3    O2 7553   0.287   3.080  17.416 -0.1128  0.2434 -0.5330
  505MPD2     C 7554   0.802   3.005  10.453  0.0254  0.3794 -0.5611
  505MPD2    C1 7555   0.767   2.907  10.545  1.2467 -0.1940 -0.1581
  505MPD2    C2 7556   0.848   2.884  10.654 -0.5191 -0.4888 -0.4539
  505MPD2    C3 7557   0.961   2.966  10.679  0.6371 -0.5437  0.1903
  505MPD2    C4 7558   0.992   3.070  10.593  0.2951 -0.3000  0.6188
  505MPD2    C5 7559   0.910   3.081  10.484 -0.1129 -0.3842  0.2105
  505MPD2     H 7560   0.831   2.793  10.710 -3.7672  0.2920 -0.2127
  505MPD2    H1 7561   1.084   3.127  10.600 -0.8128  1.6587 -0.6684
  505MPD2    H2 7562   0.735   3.023  10.370  1.3154 -0.7759 -1.8463
  505MPD2    H3 7563   0.928   3.161  10.414  1.9738 -0.0598  1.1071
  505MPD2     N 7564   1.060   2.941  10.777  0.2563 -0.8118  0.3147
  505MPD2    H5 7565   1.134   3.009  10.791 -0.0480 -0.5568  0.6790
  505MPD2    N1 7566   0.650   2.832  10.518 -0.6325  0.1530  0.2184
  505MPD2    H7 7567   0.603   2.855  10.431 -1.1657  0.4474  0.5833
  506TMC3    C1 7568   0.498   2.638  10.534  0.8182  0.4232 -0.3461
  506TMC3    C2 7569   0.533   2.585  10.411  0.2178  0.1988 -0.0859
  506TMC3    C3 7570   0.501   2.452  10.391  0.3806  0.4046  0.3455
  506TMC3    C4 7571   0.452   2.557  10.641 -0.4483 -0.2895 -0.3635
  506TMC3    C5 7572   0.421   2.426  10.609 -0.6345  0.2113  0.2900
  506TMC3    C6 7573   0.436   2.380  10.483 -0.3589  0.5258 -0.2226
  506TMC3     C 7574   0.597   2.731  10.594 -0.7812  0.0556 -0.2302
  506TMC3     O 7575   0.635   2.694  10.706 -0.0459 -0.2374 -0.5459
  506TMC3     H 7576   0.576   2.645  10.332  0.2089 -0.0969 -0.3151
  506TMC3    H1 7577   0.427   2.594  10.740  2.5270 -1.1580  0.6916
  506TMC3    H2 7578   0.402   2.283  10.447  1.3072  0.0988 -0.6138
  506TMC3    C7 7579   0.498   2.344  10.692 -0.3500  0.3464 -0.3660
  506TMC3    C8 7580   0.521   2.392  10.265 -0.2347 -0.2299 -0.9502
  506TMC3    O1 7581   0.465   2.231  10.684 -0.2595  0.6546 -0.2485
  506TMC3    O2 7582   0.461   2.292  10.229  0.6897  0.0752 -0.0654
  507TMC3    C1 7583   1.603   4.438  14.979  0.6958 -0.7187 -0.4645
  507TMC3    C2 7584   1.528   4.339  15.023 -0.4694  0.4914 -0.4936
  507TMC3    C3 7585   1.441   4.279  14.932 -0.0099  0.2246  0.0682
  507TMC3    C4 7586   1.594   4.487  14.848  0.1881  0.2285 -0.6670
  507TMC3    C5 7587   1.520   4.419  14.755 -0.2730 -0.0283 -1.3749
  507TMC3    C6 7588   1.438   4.316  14.799  0.2068 -0.1942  0.3514
  507TMC3     C 7589   1.691   4.508  15.072  0.4770 -0.0141 -0.5807
  507TMC3     O 7590   1.731   4.619  15.042 -0.6900 -0.7112  0.1661
  507TMC3     H 7591   1.517   4.320  15.129  0.0063  1.0628 -0.3440
  507TMC3    H1 7592   1.637   4.583  14.820 -0.3578  0.0767 -2.0408
  507TMC3    H2 7593   1.387   4.244  14.736 -0.1186 -0.6849  1.1921
  507TMC3    C7 7594   1.439   4.500  14.666  0.0227 -0.1331 -0.0320
  507TMC3    C8 7595   1.306   4.274  14.978 -0.0747  0.0260 -0.6258
  507TMC3    O1 7596   1.322   4.463  14.667  0.1774  0.3367  0.1945
  507TMC3    O2 7597   1.292   4.227  15.089  0.2242  0.3541  0.2822
  508MPD2     C 7598   1.641   0.927  15.707  0.2796  0.2750 -0.1943
  508MPD2    C1 7599   1.776   0.942  15.724 -0.4225 -0.3468  0.8792
  508MPD2    C2 7600   1.841   1.043  15.672 -0.0959 -0.7482 -0.2258
  508MPD2    C3 7601   1.791   1.127  15.573 -0.0654  0.1071  0.1444
  508MPD2    C4 7602   1.650   1.110  15.561  0.3329 -0.5929 -0.8522
  508MPD2    C5 7603   1.583   1.011  15.624  0.3613  0.4325 -0.5898
  508MPD2     H 7604   1.941   1.063  15.706 -1.3658  3.1283  1.3399
  508MPD2    H1 7605   1.591   1.177  15.500 -0.2041 -0.3468 -0.0697
  508MPD2    H2 7606   1.589   0.843  15.752  0.9909  0.9796  1.9259
  508MPD2    H3 7607   1.477   1.005  15.603  0.9769 -1.5403 -3.1846
  508MPD2     N 7608   1.859   1.235  15.519 -0.0287 -0.3644  0.5696
  508MPD2    H5 7609   1.959   1.245  15.533  0.2741 -1.2027 -1.0110
  508MPD2    N1 7610   1.839   0.854  15.813 -0.4309  0.1916 -0.1528
  508MPD2    H7 7611   1.786   0.777  15.853  0.3594 -0.8487 -1.1027
  509TMC3    C1 7612   1.907   1.654  15.323 -0.6926 -1.1201 -0.3637
  509TMC3    C2 7613   2.013   1.674  15.405  0.4664  0.0589 -0.6746
  509TMC3    C3 7614   2.067   1.569  15.471 -0.7643 -0.3610 -0.0076
  509TMC3    C4 7615   1.853   1.528  15.304 -0.3212  0.2784 -0.1282
  509TMC3    C5 7616   1.907   1.426  15.382 -0.7980 -0.1329 -0.3667
  509TMC3    C6 7617   2.025   1.443  15.460  0.3074  0.7604 -0.6106
  509TMC3     C 7618   1.824   1.771  15.291 -0.5109 -0.1177 -0.5035
  509TMC3     O 7619   1.708   1.748  15.263  0.5632 -0.0392  0.3179
  509TMC3     H 7620   2.055   1.769  15.434 -1.3777  0.2476  1.3898
  509TMC3    H1 7621   1.772   1.515  15.233 -0.1513  0.6260 -0.3834
  509TMC3    H2 7622   2.078   1.363  15.510  0.3861  1.6550  0.7516
  509TMC3    C7 7623   1.809   1.327  15.427  0.2626 -0.2146 -0.0235
  509TMC3    C8 7624   2.198   1.582  15.524  0.0776  0.5542 -0.6058
  509TMC3    O1 7625   1.699   1.336  15.368  0.0712  0.0793  0.1897
  509TMC3    O2 7626   2.227   1.492  15.602 -0.3085  0.6037  0.4116
  510MPD2     C 7627   4.589   3.267  14.327 -0.4349 -1.1757 -0.0718
  510MPD2    C1 7628   4.686   3.168  14.355 -0.0017 -0.9807 -0.2694
  510MPD2    C2 7629   0.068   3.170  14.276 -0.6440  0.5065 -0.1043
  510MPD2    C3 7630   0.079   3.256  14.166  0.2476 -0.2150 -0.1369
  510MPD2    C4 7631   4.719   3.345  14.138 -0.6564  0.2822 -0.3014
  510MPD2    C5 7632   4.608   3.344  14.217 -0.4453 -0.0109  0.3589
  510MPD2     H 7633   0.147   3.099  14.296  1.3803  1.6131 -4.1837
  510MPD2    H1 7634   4.725   3.421  14.061  0.5128 -1.0533 -1.5414
  510MPD2    H2 7635   4.493   3.272  14.379 -0.1303 -1.7275  0.5410
  510MPD2    H3 7636   4.536   3.423  14.198  1.2867  2.1178  2.7511
  510MPD2     N 7637   0.200   3.267  14.099  0.2754  0.4670 -0.1209
  510MPD2    H5 7638   0.276   3.214  14.139  0.6836  2.5197  1.8572
  510MPD2    N1 7639   4.673   3.077  14.461  0.3208 -0.5226  0.4577
  510MPD2    H7 7640   4.576   3.076  14.493 -0.4309  0.7353 -1.7941
  511TMC3    C1 7641   4.698   2.894  14.595 -0.2238  0.0258 -0.5005
  511TMC3    C2 7642   4.628   2.948  14.700  0.6055  0.1685 -0.7037
  511TMC3    C3 7643   4.587   2.860  14.797  0.3999  0.7249 -0.3348
  511TMC3    C4 7644   4.725   2.762  14.589  0.3274  0.9225 -0.8542
  511TMC3    C5 7645   4.682   2.678  14.687  0.1672  0.0235  0.3921
  511TMC3    C6 7646   4.607   2.723  14.790 -0.0684 -0.6081  0.3357
  511TMC3     C 7647   0.029   2.980  14.498 -0.0991  0.6809  0.7685
  511TMC3     O 7648   0.131   2.936  14.445  0.3900  0.1315 -0.0739
  511TMC3     H 7649   4.612   3.055  14.705 -3.0842 -0.2976 -2.3412
  511TMC3    H1 7650   0.045   2.723  14.503 -1.1498 -0.2938 -1.2435
  511TMC3    H2 7651   4.585   2.651  14.868  0.0404 -2.5932 -1.4887
  511TMC3    C7 7652   4.658   2.540  14.638  0.0810 -0.1805  0.2564
  511TMC3    C8 7653   4.495   2.911  14.900 -0.4056  0.4007  0.4561
  511TMC3    O1 7654   4.642   2.536  14.516  0.1945  0.1625  0.3977
  511TMC3    O2 7655   4.493   3.030  14.932  0.1321 -0.5856 -0.1546
  512TMC3    C1 7656   3.468   2.273  13.524 -0.6639  0.1759  0.1409
  512TMC3    C2 7657   3.581   2.268  13.605  0.4819  0.8153  0.3749
  512TMC3    C3 7658   3.697   2.209  13.559 -0.1500  0.6122  0.5313
  512TMC3    C4 7659   3.459   2.197  13.408  0.4033  0.8868  0.4693
  512TMC3    C5 7660   3.575   2.128  13.369  0.0818  0.3764  0.3133
  512TMC3    C6 7661   3.685   2.126  13.454 -0.0476  0.2127 -0.1968
  512TMC3     C 7662   3.343   2.326  13.580 -0.4335 -0.3044  0.4707
  512TMC3     O 7663   3.337   2.371  13.693  0.1366  0.1435  0.6527
  512TMC3     H 7664   3.582   2.326  13.697 -0.2932 -0.3199  1.1130
  512TMC3    H1 7665   3.371   2.167  13.353 -0.1386  0.9254  1.3211
  512TMC3    H2 7666   3.778   2.083  13.419  0.0480 -0.7657  1.2772
  512TMC3    C7 7667   3.582   2.055  13.251  0.0333 -0.0297  0.3432
  512TMC3    C8 7668   3.815   2.194  13.645  0.0972  0.5300  0.9922
  512TMC3    O1 7669   3.492   2.088  13.172  0.3282  0.2299  0.2219
  512TMC3    O2 7670   3.884   2.098  13.638  0.1087  0.0127 -0.0995
  513MPD2     C 7671   0.437   1.663  13.444 -0.4404  0.4326 -0.1680
  513MPD2    C1 7672   0.452   1.787  13.405 -0.7626  0.3519  0.1242
  513MPD2    C2 7673   0.474   1.887  13.501  0.2822  0.6369  0.4210
  513MPD2    C3 7674   0.500   1.851  13.629 -0.0223  0.1106  0.1119
  513MPD2    C4 7675   0.493   1.723  13.674 -0.2861  0.1678  0.6187
  513MPD2    C5 7676   0.453   1.630  13.576 -0.7231  0.5699 -1.4331
  513MPD2     H 7677   0.499   1.989  13.476 -0.8387  0.8483  0.1763
  513MPD2    H1 7678   0.525   1.690  13.772 -0.2148  1.1383  0.9234
  513MPD2    H2 7679   0.404   1.588  13.373  1.1490  1.0625 -1.5407
  513MPD2    H3 7680   0.445   1.524  13.599  0.6480  0.6036 -0.7815
  513MPD2     N 7681   0.528   1.965  13.709  0.4541  0.0107 -0.2034
  513MPD2    H5 7682   0.542   2.056  13.666 -1.4235 -1.0650 -3.0512
  513MPD2    N1 7683   0.435   1.806  13.267  0.0379  0.2636  0.3936
  513MPD2    H7 7684   0.419   1.725  13.208 -2.1505  0.9731  0.0394
  514TMC3    C1 7685   0.426   1.933  13.063 -0.2327  0.4950  0.8194
  514TMC3    C2 7686   0.382   2.047  12.994 -0.1164  0.0572  0.5883
  514TMC3    C3 7687   0.445   2.072  12.871 -0.4489 -0.2510 -0.5436
  514TMC3    C4 7688   0.541   1.873  13.026  0.3135 -0.0845 -0.3769
  514TMC3    C5 7689   0.613   1.917  12.921  0.6837  0.3742  0.0982
  514TMC3    C6 7690   0.553   1.998  12.833 -0.1598  0.0160 -0.3114
  514TMC3     C 7691   0.409   1.932  13.210  0.6704  0.0689 -0.2456
  514TMC3     O 7692   0.396   2.036  13.270 -0.7839 -0.2390  0.0965
  514TMC3     H 7693   0.288   2.093  13.021 -1.0579 -1.0912 -0.6891
  514TMC3    H1 7694   0.590   1.794  13.082 -0.5827 -0.3496  0.0207
  514TMC3    H2 7695   0.619   2.035  12.755 -0.5576 -1.5533 -1.4151
  514TMC3    C7 7696   0.748   1.965  12.962  0.3637  0.1490 -0.2647
  514TMC3    C8 7697   0.355   2.138  12.780 -0.3291 -0.7411 -0.5232
  514TMC3    O1 7698   0.827   1.982  12.867 -0.4023  0.1442  0.5473
  514TMC3    O2 7699   0.266   2.201  12.833 -0.1280 -0.4360 -0.4675
  515MPD2     C 7700   3.374   4.233  14.841  0.1764 -0.4541  0.0421
  515MPD2    C1 7701   3.424   4.108  14.803  0.0831 -0.0452 -0.1719
  515MPD2    C2 7702   3.552   4.070  14.849  1.0016 -0.0005 -0.0728
  515MPD2    C3 7703   3.619   4.152  14.942  0.1369 -0.2344  0.5246
  515MPD2    C4 7704   3.560   4.266  14.986  0.8478  1.1587  0.1707
  515MPD2    C5 7705   3.442   4.310  14.934 -0.3198  0.8338  0.0503
  515MPD2     H 7706   3.593   3.980  14.803 -1.1865 -0.5966 -0.8962
  515MPD2    H1 7707   3.607   4.334  15.056  1.3580  1.3129 -0.3192
  515MPD2    H2 7708   3.283   4.282  14.809 -0.5379 -0.4028  2.1149
  515MPD2    H3 7709   3.400   4.407  14.957  2.2919  1.7399  1.0521
  515MPD2     N 7710   3.753   4.135  14.986 -0.3436 -0.0637 -0.1482
  515MPD2    H5 7711   3.793   4.208  15.044  0.7883 -0.6921 -0.1323
  515MPD2    N1 7712   3.340   4.020  14.730  0.8913  0.3826 -0.2797
  515MPD2    H7 7713   3.378   3.929  14.705 -1.9196 -0.9322  0.2172
  516TMC3    C1 7714   3.158   3.944  14.599 -0.6424  0.0290 -0.1867
  516TMC3    C2 7715   3.062   3.982  14.511 -0.2984 -0.8513 -0.4380
  516TMC3    C3 7716   2.968   3.889  14.470 -0.6226 -0.6131  0.2430
  516TMC3    C4 7717   3.149   3.816  14.653  0.5374 -0.1877 -0.3850
  516TMC3    C5 7718   3.060   3.726  14.602  0.3069  0.0192  0.8683
  516TMC3    C6 7719   2.961   3.764  14.514  0.4287  1.3426 -0.1350
  516TMC3     C 7720   3.224   4.053  14.666  0.0946  0.3151  0.0488
  516TMC3     O 7721   3.184   4.169  14.651 -0.4486 -0.1660 -0.1817
  516TMC3     H 7722   3.058   4.083  14.472 -0.5649 -0.2822  1.0349
  516TMC3    H1 7723   3.225   3.783  14.724  0.4697  2.9261  1.1258
  516TMC3    H2 7724   2.888   3.694  14.475 -0.2670  1.1463  1.5331
  516TMC3    C7 7725   3.084   3.590  14.634  0.5187  0.2988 -0.0027
  516TMC3    C8 7726   2.879   3.930  14.360 -0.8653 -0.3508  0.8538
  516TMC3    O1 7727   3.185   3.572  14.702  0.4078  0.1312  0.5775
  516TMC3    O2 7728   2.771   3.875  14.355  0.2679 -0.3326 -0.4717
  517MPD2     C 7729   3.564   0.305   0.044  0.2560 -1.2904  0.2798
  517MPD2    C1 7730   3.660   0.375  17.714 -0.1131 -0.4697 -0.0197
  517MPD2    C2 7731   3.737   0.463   0.048  0.3221 -0.4141  0.2342
  517MPD2    C3 7732   3.731   0.475   0.186  0.3712  0.0303  0.1507
  517MPD2    C4 7733   3.635   0.403   0.251 -0.0969  0.1417 -0.5098
  517MPD2    C5 7734   3.547   0.324   0.179  0.5724  0.3452  0.1792
  517MPD2     H 7735   3.807   0.526  17.730  0.9102 -1.0359  0.2623
  517MPD2    H1 7736   3.623   0.407   0.359 -1.0366  1.3130 -0.6674
  517MPD2    H2 7737   3.485   0.249  17.730  0.1494 -0.6120 -0.2970
  517MPD2    H3 7738   3.468   0.272   0.232 -0.8568 -1.0750 -3.4192
  517MPD2     N 7739   3.809   0.563   0.260 -0.2303  0.2582  0.2444
  517MPD2    H5 7740   3.796   0.550   0.360  0.2824 -1.0402  0.1312
  517MPD2    N1 7741   3.684   0.366  17.576  0.5354 -0.0872 -1.1992
  517MPD2    H7 7742   3.744   0.440  17.542 -0.2704 -0.0678 -2.5918
  518TMC3    C1 7743   3.692   0.275  17.365  0.2778 -0.1326  0.1855
  518TMC3    C2 7744   3.646   0.174  17.294  0.0837 -0.1019  0.3853
  518TMC3    C3 7745   3.734   0.087  17.235 -0.0698 -0.2702 -0.3187
  518TMC3    C4 7746   3.831   0.307  17.369  0.8317 -0.1036 -0.2750
  518TMC3    C5 7747   3.915   0.222  17.303 -0.4422  0.3371 -0.2172
  518TMC3    C6 7748   3.867   0.112  17.239 -0.1894  0.3146  0.4834
  518TMC3     C 7749   3.627   0.277  17.495  0.2200 -0.6132 -0.0345
  518TMC3     O 7750   3.548   0.191  17.525 -0.7335 -0.2728 -0.0882
  518TMC3     H 7751   3.539   0.163  17.293 -0.0911  1.6705 -0.3732
  518TMC3    H1 7752   3.874   0.399  17.406 -0.4059 -0.4451  1.9863
  518TMC3    H2 7753   3.935   0.045  17.187  1.4548  0.6949  2.1333
  518TMC3    C7 7754   4.048   0.210  17.355 -0.4512 -0.3961  0.1438
  518TMC3    C8 7755   3.716   4.684  17.263 -0.7286 -0.3089  0.1040
  518TMC3    O1 7756   4.085   0.309  17.415 -0.2686 -0.0161  0.4247
  518TMC3    O2 7757   3.805   4.606  17.237 -0.4271  0.0502 -0.2171
  519MPD2     C 7758   0.309   3.757  14.434 -0.6555  0.1858 -0.1385
  519MPD2    C1 7759   0.310   3.838  14.326  0.0661  0.1685 -0.0018
  519MPD2    C2 7760   0.421   3.833  14.239 -0.3174 -0.0274  0.1249
  519MPD2    C3 7761   0.518   3.736  14.261 -0.1135 -0.1397  0.4965
  519MPD2    C4 7762   0.518   3.655  14.369  1.1443  0.1118  0.3824
  519MPD2    C5 7763   0.416   3.669  14.456  0.5678  0.0386  0.1509
  519MPD2     H 7764   0.422   3.893  14.149 -0.1832  1.1420  0.8979
  519MPD2    H1 7765   0.592   3.576  14.371 -0.2026 -1.1599  0.6113
  519MPD2    H2 7766   0.223   3.758  14.500  0.4975 -1.0366  1.3623
  519MPD2    H3 7767   0.405   3.607  14.544 -0.5085  2.2238  1.5460
  519MPD2     N 7768   0.608   3.703  14.161 -0.2630  0.1714 -0.2258
  519MPD2    H5 7769   0.663   3.621  14.186 -0.6807  0.2963  1.1055
  519MPD2    N1 7770   0.200   3.922  14.300 -0.2695  0.3771 -0.2817
  519MPD2    H7 7771   0.126   3.904  14.367 -0.9213  2.5960 -0.4032
  520TMC3    C1 7772   0.670   3.654  13.948  0.2920  0.9703 -0.0902
  520TMC3    C2 7773   0.611   3.645  13.826  0.1878 -0.1544 -0.0918
  520TMC3    C3 7774   0.673   3.559  13.738 -0.2793  0.1946  0.0663
  520TMC3    C4 7775   0.778   3.584  13.995 -0.1322  0.2573  0.0018
  520TMC3    C5 7776   0.843   3.511  13.899 -0.3449  0.4568  0.1876
  520TMC3    C6 7777   0.792   3.490  13.775 -0.1116  0.2285  0.8288
  520TMC3     C 7778   0.605   3.748  14.033  0.5400 -0.5461 -0.1859
  520TMC3     O 7779   0.573   3.857  13.990 -0.0145  0.4356  0.0488
  520TMC3     H 7780   0.523   3.706  13.811  0.4924 -0.2843 -2.4436
  520TMC3    H1 7781   0.830   3.608  14.087  1.6414 -0.2481 -0.8816
  520TMC3    H2 7782   0.827   3.418  13.702 -1.6447 -0.4254  0.7393
  520TMC3    C7 7783   0.922   3.406  13.954 -0.3941  0.5261 -0.0079
  520TMC3    C8 7784   0.591   3.494  13.631  0.5800  0.7879  0.6093
  520TMC3    O1 7785   0.973   3.420  14.060  0.4929 -0.0562 -0.1027
  520TMC3    O2 7786   0.645   3.409  13.563 -0.3954  0.5289  0.2741
  521MPD2     C 7787   0.827   0.907  17.375  0.0911  0.2406 -0.0942
  521MPD2    C1 7788   0.820   0.985  17.262  0.0388  0.3846  0.4058
  521MPD2    C2 7789   0.935   0.998  17.185  0.1129  0.0684 -0.5302
  521MPD2    C3 7790   1.052   0.943  17.232 -0.5647  0.0611 -0.2009
  521MPD2    C4 7791   1.055   0.863  17.344 -0.2256 -0.2516  0.1184
  521MPD2    C5 7792   0.938   0.839  17.408  0.6222 -0.1234 -0.1326
  521MPD2     H 7793   0.944   1.055  17.093  2.1020  1.2797  0.4143
  521MPD2    H1 7794   1.145   0.816  17.382 -0.3377  0.2499  1.0162
  521MPD2    H2 7795   0.738   0.898  17.435  1.4237  2.3389  2.2020
  521MPD2    H3 7796   0.939   0.777  17.498 -0.1201 -2.0191 -1.4348
  521MPD2     N 7797   1.159   0.944  17.136 -0.0938 -0.6872 -0.1118
  521MPD2    H5 7798   1.143   1.004  17.055  0.3504 -1.0664 -0.4812
  521MPD2    N1 7799   0.695   1.039  17.230  0.4704 -0.2676 -0.0406
  521MPD2    H7 7800   0.615   1.000  17.279  0.8626  0.2397  1.0146
  522TMC3    C1 7801   1.360   0.899  17.016 -0.2755  0.4134 -0.0399
  522TMC3    C2 7802   1.450   0.799  16.987  0.1259 -0.3150 -0.7078
  522TMC3    C3 7803   1.518   0.811  16.870 -0.5888 -0.4446  0.0616
  522TMC3    C4 7804   1.333   1.000  16.929 -0.0914 -0.0895  0.7671
  522TMC3    C5 7805   1.416   1.008  16.811 -0.3697  0.4244  0.2238
  522TMC3    C6 7806   1.503   0.911  16.775  0.1015 -0.3444  0.1028
  522TMC3     C 7807   1.283   0.883  17.139  0.5454 -0.3451  0.3937
  522TMC3     O 7808   1.332   0.815  17.231  0.1694  0.2306  0.1954
  522TMC3     H 7809   1.470   0.719  17.058  1.4686 -0.1246 -0.8720
  522TMC3    H1 7810   1.270   1.086  16.948 -0.3343 -0.0746 -0.0896
  522TMC3    H2 7811   1.579   0.926  16.699 -0.2641  2.2563  0.2789
  522TMC3    C7 7812   1.456   1.141  16.763  0.3419 -0.3119 -0.6004
  522TMC3    C8 7813   1.600   0.690  16.834  0.9906 -0.2323 -0.2425
  522TMC3    O1 7814   1.577   1.150  16.740 -1.0360 -0.1513 -0.7239
  522TMC3    O2 7815   1.601   0.603  16.918 -0.3385  0.2751  0.5937
  523MPD2     C 7816   3.757   1.871  10.041  0.1254  0.5618  0.6858
  523MPD2    C1 7817   3.668   1.776  10.000  0.2410  0.1668  0.1957
  523MPD2    C2 7818   3.548   1.810   9.944 -0.7180 -0.3008  0.2568
  523MPD2    C3 7819   3.531   1.943   9.908  0.5432 -0.1104  0.3724
  523MPD2    C4 7820   3.627   2.036   9.932 -0.3826 -0.4728 -0.3308
  523MPD2    C5 7821   3.734   2.001  10.002  0.4173 -0.1122 -0.1265
  523MPD2     H 7822   3.464   1.742   9.939 -1.7286  0.7740  2.6753
  523MPD2    H1 7823   3.614   2.142   9.916  3.1999 -0.3736 -2.3015
  523MPD2    H2 7824   3.854   1.850  10.085  1.5592  0.4537 -2.5504
  523MPD2    H3 7825   3.804   2.078  10.032  0.4662 -0.1946 -0.0273
  523MPD2     N 7826   3.419   1.980   9.835  0.3495 -0.1696 -0.3869
  523MPD2    H5 7827   3.417   2.080   9.818  0.9474 -0.1836 -0.5447
  523MPD2    N1 7828   3.690   1.648  10.051  0.0362  0.0352 -0.2612
  523MPD2    H7 7829   3.780   1.638  10.098 -0.6593 -1.3819  0.7427
  524TMC3    C1 7830   3.198   1.980   9.750  0.9508 -0.2949 -0.5545
  524TMC3    C2 7831   3.140   1.934   9.633 -0.5436  0.1745 -1.0633
  524TMC3    C3 7832   3.027   2.000   9.600 -0.5719 -0.7613  0.1662
  524TMC3    C4 7833   3.157   2.078   9.832  0.8058  0.2887  0.5070
  524TMC3    C5 7834   3.041   2.137   9.794 -0.0784 -0.1039  0.6649
  524TMC3    C6 7835   2.979   2.106   9.676  0.1758  1.4908  0.4831
  524TMC3     C 7836   3.311   1.898   9.797  0.0410  0.5898  0.1921
  524TMC3     O 7837   3.300   1.778   9.786  0.1219 -0.1959 -0.1788
  524TMC3     H 7838   3.175   1.844   9.585 -0.8993  0.0480 -1.0870
  524TMC3    H1 7839   3.211   2.103   9.923  1.4761  2.8512 -0.6016
  524TMC3    H2 7840   2.898   2.164   9.632  0.7158  1.4684 -0.5280
  524TMC3    C7 7841   2.957   2.210   9.895 -0.1237 -0.0187  0.0248
  524TMC3    C8 7842   2.936   1.935   9.506 -0.3025 -0.4876  0.5552
  524TMC3    O1 7843   3.018   2.231   9.997  0.4930  0.3485  0.0115
  524TMC3    O2 7844   2.817   1.973   9.516 -0.6874  0.0578  0.5520
  525MPD2     C 7845   1.503   3.358  14.521 -0.0171 -0.0965 -0.5463
  525MPD2    C1 7846   1.636   3.343  14.522 -0.4529  0.7625 -0.5667
  525MPD2    C2 7847   1.708   3.454  14.486  0.1822 -1.4109 -0.4855
  525MPD2    C3 7848   1.652   3.581  14.456  1.0487 -0.4995 -0.0055
  525MPD2    C4 7849   1.515   3.586  14.459  0.0131  0.0297  0.0624
  525MPD2    C5 7850   1.440   3.479  14.495  0.1761 -0.1031 -0.1477
  525MPD2     H 7851   1.816   3.446  14.479  0.2131 -1.1221 -0.3208
  525MPD2    H1 7852   1.467   3.682  14.441 -1.5071 -0.4829  1.4335
  525MPD2    H2 7853   1.437   3.281  14.561  1.8901 -1.8883 -0.8877
  525MPD2    H3 7854   1.332   3.478  14.505  0.2332 -1.1372  0.4102
  525MPD2     N 7855   1.725   3.693  14.416 -0.1660 -0.2013 -0.1423
  525MPD2    H5 7856   1.669   3.768  14.378  1.6050 -1.0853 -4.4785
  525MPD2    N1 7857   1.689   3.215  14.548  0.2719  0.4752 -0.2819
  525MPD2    H7 7858   1.624   3.147  14.585  1.4688  0.5400  1.9507
  526TMC3    C1 7859   1.854   3.050  14.593  0.8736  0.0305  0.3335
  526TMC3    C2 7860   1.802   3.043  14.725 -0.1108  0.0395 -0.1487
  526TMC3    C3 7861   1.878   2.954  14.804 -0.1037  0.3897 -0.5336
  526TMC3    C4 7862   1.952   2.975  14.533 -0.2102 -0.0612 -0.9176
  526TMC3    C5 7863   2.017   2.890  14.618  0.1516  0.3641  0.4799
  526TMC3    C6 7864   1.976   2.873  14.746 -0.0069  0.0228 -0.5474
  526TMC3     C 7865   1.818   3.171  14.520 -0.4894  0.4539 -0.5151
  526TMC3     O 7866   1.902   3.219  14.442  0.3102 -0.2861  0.0287
  526TMC3     H 7867   1.724   3.099  14.774  1.6025  1.1683  1.2648
  526TMC3    H1 7868   1.974   2.983  14.427 -0.5833  2.3520 -0.8243
  526TMC3    H2 7869   2.013   2.787  14.801  2.0369  1.1632 -0.1340
  526TMC3    C7 7870   2.129   2.806  14.570 -0.4629  0.4771  0.3378
  526TMC3    C8 7871   1.832   2.908  14.926 -0.0856 -0.7208  0.5469
  526TMC3    O1 7872   2.149   2.811  14.448 -0.8948 -0.4428  0.0007
  526TMC3    O2 7873   1.877   2.802  14.966  0.3692  0.1239 -0.0006
  527MPD2     C 7874   4.705   0.636   1.758  0.0692 -0.0326  0.4984
  527MPD2    C1 7875   4.655   0.687   1.634  0.4210  0.0009 -0.1498
  527MPD2    C2 7876   0.004   0.663   1.520 -1.0940  0.3604 -0.5941
  527MPD2    C3 7877   0.112   0.584   1.522  0.0229  0.8322  0.4009
  527MPD2    C4 7878   0.158   0.533   1.644 -0.2967 -0.5647  0.8526
  527MPD2    C5 7879   0.082   0.561   1.756 -0.0651 -0.3791 -0.5350
  527MPD2     H 7880   4.715   0.708   1.424 -1.3906  0.4622 -0.4753
  527MPD2    H1 7881   0.252   0.483   1.663  0.5258  0.2737 -0.9771
  527MPD2    H2 7882   4.663   0.661   1.855 -1.7812  1.1059 -0.5819
  527MPD2    H3 7883   0.130   0.525   1.846 -0.1867 -1.3917 -0.8616
  527MPD2     N 7884   0.193   0.543   1.412 -0.0342 -0.5407 -0.0485
  527MPD2    H5 7885   0.263   0.471   1.428  1.9567  1.3150 -0.4134
  527MPD2    N1 7886   4.540   0.772   1.620  0.1877 -0.6426 -0.0004
  527MPD2    H7 7887   4.521   0.804   1.526  0.1644 -0.4498  0.0704
  528TMC3    C1 7888   4.328   0.851   1.675 -0.3116  0.1798 -0.5950
  528TMC3    C2 7889   4.328   0.910   1.545  0.6779  0.2218 -0.1008
  528TMC3    C3 7890   4.219   0.994   1.519  0.1947 -0.1034 -0.2540
  528TMC3    C4 7891   4.216   0.862   1.760  0.4397 -0.2906 -0.2759
  528TMC3    C5 7892   4.121   0.953   1.723  0.0890 -0.1734  0.8000
  528TMC3    C6 7893   4.133   1.027   1.607 -0.2001 -0.5894  0.0649
  528TMC3     C 7894   4.443   0.781   1.713  0.1296 -0.1203 -0.5779
  528TMC3     O 7895   4.433   0.724   1.818  0.0884 -0.0091  0.3043
  528TMC3     H 7896   4.396   0.885   1.464 -2.2398 -3.3339 -1.5070
  528TMC3    H1 7897   4.228   0.826   1.862  0.1796 -2.0931 -0.8863
  528TMC3    H2 7898   4.067   1.111   1.589 -0.8817 -0.8144  1.5199
  528TMC3    C7 7899   3.983   0.912   1.744 -0.0240  0.2308 -0.1732
  528TMC3    C8 7900   4.197   1.030   1.376  0.1503  0.4795 -0.0504
  528TMC3    O1 7901   3.900   0.981   1.687 -0.4926  0.6440 -0.1861
  528TMC3    O2 7902   4.287   1.052   1.297  0.5655 -0.4769 -0.8120
  529MPD2     C 7903   2.195   4.060   1.800 -0.1840 -0.0732  0.5201
  529MPD2    C1 7904   2.249   3.946   1.739  0.6372 -0.9688 -1.0705
  529MPD2    C2 7905   2.184   3.880   1.639  0.4901 -0.0710 -0.1130
  529MPD2    C3 7906   2.070   3.931   1.587  0.3582  0.7299 -0.0085
  529MPD2    C4 7907   2.022   4.051   1.641  0.1497  0.1296  0.0419
  529MPD2    C5 7908   2.075   4.102   1.754 -0.4145 -0.5024  0.0134
  529MPD2     H 7909   2.221   3.783   1.609  0.8670  0.2594 -0.7098
  529MPD2    H1 7910   1.933   4.106   1.612  0.6410 -0.2539 -2.1927
  529MPD2    H2 7911   2.224   4.116   1.889 -0.5735  1.5894 -0.3967
  529MPD2    H3 7912   2.026   4.188   1.799  0.5487  0.6815 -1.1991
  529MPD2     N 7913   1.999   3.871   1.479 -0.6452 -0.2808  0.0353
  529MPD2    H5 7914   1.908   3.913   1.463  0.1241  1.2757 -0.1939
  529MPD2    N1 7915   2.365   3.890   1.790  0.7592  0.3219 -0.0178
  529MPD2    H7 7916   2.398   3.812   1.735 -2.2108 -0.3452 -0.8416
  530TMC3    C1 7917   2.523   3.834   1.941 -1.3506  0.1160 -0.2422
  530TMC3    C2 7918   2.640   3.876   1.992 -0.3006  0.3447 -0.1442
  530TMC3    C3 7919   2.750   3.796   1.994 -0.3096  0.5626  1.0890
  530TMC3    C4 7920   2.518   3.712   1.884  0.3103 -0.0910  0.4375
  530TMC3    C5 7921   2.629   3.632   1.893 -0.0305  0.5151  0.0353
  530TMC3    C6 7922   2.747   3.673   1.944  0.5470  0.3699 -0.0367
  530TMC3     C 7923   2.432   3.935   1.901 -0.4197  0.2361 -0.9993
  530TMC3     O 7924   2.419   4.036   1.967 -0.1480  0.4839  1.0195
  530TMC3     H 7925   2.646   3.974   2.039  2.5461 -0.0952  0.4600
  530TMC3    H1 7926   2.428   3.654   1.862 -0.4079  1.7911 -1.5568
  530TMC3    H2 7927   2.824   3.597   1.945  0.3220  0.1389 -0.1738
  530TMC3    C7 7928   2.612   3.492   1.860 -0.1490  0.4716  0.7713
  530TMC3    C8 7929   2.878   3.858   2.039 -0.1913  0.8001  0.2729
  530TMC3    O1 7930   2.673   3.414   1.930  0.2674  0.1812 -0.3007
  530TMC3    O2 7931   2.870   3.944   2.125  0.6455  0.3197 -0.1092
  531MPD2     C 7932   1.038   2.148  13.353 -0.0502  0.3858  0.0566
  531MPD2    C1 7933   0.901   2.151  13.391 -0.1219  1.5572  0.2228
  531MPD2    C2 7934   0.819   2.089  13.304 -0.2540  0.2996  0.2691
  531MPD2    C3 7935   0.853   2.046  13.178  0.6840 -0.4150  0.5266
  531MPD2    C4 7936   0.984   2.044  13.134 -0.2085 -0.6071  0.1126
  531MPD2    C5 7937   1.070   2.105  13.230  0.2024  0.3716 -0.2816
  531MPD2     H 7938   0.717   2.063  13.330 -0.1703 -1.1648 -0.8795
  531MPD2    H1 7939   1.006   2.016  13.032 -2.4284 -4.1985  0.6116
  531MPD2    H2 7940   1.125   2.192  13.401 -0.1225 -0.2265  0.7361
  531MPD2    H3 7941   1.175   2.100  13.202 -0.1681 -1.9346 -1.2855
  531MPD2     N 7942   0.742   1.998  13.099  0.0154 -0.3930  0.3419
  531MPD2    H5 7943   0.660   1.977  13.154  1.1946  1.5656  2.8790
  531MPD2    N1 7944   0.869   2.182  13.526 -0.3059 -0.6621  0.5768
  531MPD2    H7 7945   0.952   2.200  13.582 -2.0243  1.2730  2.5188
  532TMC3    C1 7946   0.741   2.205  13.728 -0.4375 -0.5143  0.0990
  532TMC3    C2 7947   0.616   2.167  13.774 -0.6088  0.2166 -0.2013
  532TMC3    C3 7948   0.597   2.083  13.882 -0.0132 -0.4785  0.1711
  532TMC3    C4 7949   0.855   2.183  13.804 -0.5676 -0.9580 -0.0668
  532TMC3    C5 7950   0.829   2.109  13.917  0.6628 -0.0291 -0.1394
  532TMC3    C6 7951   0.710   2.054  13.952  0.2582 -0.9499  0.1151
  532TMC3     C 7952   0.746   2.192  13.581 -0.7131 -0.1149  0.6452
  532TMC3     O 7953   0.639   2.170  13.521  0.1113 -0.5090  0.8318
  532TMC3     H 7954   0.534   2.205  13.714 -1.5244  1.7723  2.0398
  532TMC3    H1 7955   0.944   2.235  13.771 -0.6288  1.4033  3.4666
  532TMC3    H2 7956   0.698   1.984  14.034  0.9465  0.3153  1.2711
  532TMC3    C7 7957   0.931   2.089  14.002 -0.4184  0.0320  0.3987
  532TMC3    C8 7958   0.530   1.962  13.842  0.5047 -0.7249 -0.4760
  532TMC3    O1 7959   0.901   2.046  14.112 -0.1615  0.0792 -0.4092
  532TMC3    O2 7960   0.534   1.867  13.916  0.8108 -0.4258  0.4917
  533TMC3    C1 7961   1.926   3.831  14.377 -0.1790  0.1764  0.2581
  533TMC3    C2 7962   2.060   3.837  14.376  0.8262  1.1561  0.1620
  533TMC3    C3 7963   2.121   3.957  14.385  0.0224  0.5182  0.0732
  533TMC3    C4 7964   1.848   3.945  14.399  0.3440 -0.0718 -0.4865
  533TMC3    C5 7965   1.912   4.059  14.414  0.3681  0.1477 -1.2798
  533TMC3    C6 7966   2.048   4.070  14.401 -0.2055  0.5434 -0.3706
  533TMC3     C 7967   1.857   3.713  14.441  0.0309  0.5600 -0.4577
  533TMC3     O 7968   1.940   3.640  14.499 -0.3186  0.1469  0.2442
  533TMC3     H 7969   2.116   3.746  14.360  0.3753  0.8509  0.3360
  533TMC3    H1 7970   1.741   3.946  14.379  0.2881 -1.8632 -0.2718
  533TMC3    H2 7971   2.094   4.161  14.438  0.9711 -0.2157  0.0157
  533TMC3    C7 7972   1.852   4.144  14.512  0.0206 -0.8888 -0.0097
  533TMC3    C8 7973   2.260   3.963  14.426 -0.1897 -0.5978 -0.0987
  533TMC3    O1 7974   1.913   4.250  14.538  0.9417 -0.3389 -0.1842
  533TMC3    O2 7975   2.298   3.880  14.504 -0.4192 -0.1641  0.6122
  534MPD2     C 7976   3.507   0.109   2.022 -0.1497  0.5603  0.8416
  534MPD2    C1 7977   3.639   0.086   1.991 -0.2770  0.2724  0.3074
  534MPD2    C2 7978   3.671   0.019   1.874  0.1041  0.5065  0.0649
  534MPD2    C3 7979   3.573   4.696   1.801 -0.1263 -0.1249 -0.1193
  534MPD2    C4 7980   3.440   4.725   1.834  0.2504 -0.1526  0.6185
  534MPD2    C5 7981   3.405   0.065   1.943  0.5298 -0.2134  0.2547
  534MPD2     H 7982   3.777   4.729   1.863 -0.1976 -0.7869 -0.0397
  534MPD2    H1 7983   3.364   4.690   1.765  0.3929  1.4816 -0.3663
  534MPD2    H2 7984   3.485   0.167   2.112 -0.0877  0.7942  0.7069
  534MPD2    H3 7985   3.300   0.063   1.971  1.4173 -3.0393  3.3073
  534MPD2     N 7986   3.598   4.612   1.692  0.3847 -0.0318 -0.0359
  534MPD2    H5 7987   3.520   4.558   1.658  0.2055 -0.7751  1.5486
  534MPD2    N1 7988   3.748   0.132   2.071  0.2660 -0.4852  0.2909
  534MPD2    H7 7989   3.840   0.132   2.027 -0.1108 -1.4247 -0.4911
  535TMC3    C1 7990   3.719   4.515   1.504 -0.4144  0.4187 -0.9768
  535TMC3    C2 7991   3.632   4.406   1.506 -0.2881  0.0173  0.1584
  535TMC3    C3 7992   3.641   4.314   1.399  0.4541 -0.5167 -0.0456
  535TMC3    C4 7993   3.801   4.546   1.399  0.0116  0.4619 -0.0428
  535TMC3    C5 7994   3.796   4.456   1.291  0.1445 -0.3260  0.1420
  535TMC3    C6 7995   3.721   4.339   1.296  0.1769  0.9083  0.8866
  535TMC3     C 7996   3.713   4.612   1.618 -0.2630  0.5889 -0.0509
  535TMC3     O 7997   3.811   4.681   1.638 -0.1362 -0.3401 -0.2844
  535TMC3     H 7998   3.565   4.382   1.587  1.3990  0.5098  1.6794
  535TMC3    H1 7999   3.870   4.630   1.405  0.2138  0.2765  0.1872
  535TMC3    H2 8000   3.722   4.271   1.211  0.6838  2.8935 -0.7069
  535TMC3    C7 8001   3.893   4.461   1.178 -0.1393  0.0702  0.2522
  535TMC3    C8 8002   3.539   4.212   1.375 -0.1580 -0.0211  0.4459
  535TMC3    O1 8003   3.903   4.356   1.114 -0.6870  0.4576 -0.1657
  535TMC3    O2 8004   3.519   4.168   1.263 -0.1711  0.1058 -0.3896
  536MPD2     C 8005   3.235   2.662  15.798 -0.8344  0.2399 -0.6394
  536MPD2    C1 8006   3.112   2.637  15.854 -0.2627 -0.2271  0.8741
  536MPD2    C2 8007   2.994   2.656  15.777 -0.5614 -0.4099 -0.2715
  536MPD2    C3 8008   3.003   2.705  15.644 -0.1386 -0.3077 -0.0571
  536MPD2    C4 8009   3.128   2.734  15.596 -0.2347  0.8332 -0.5500
  536MPD2    C5 8010   3.246   2.719  15.668 -0.1600  0.5464  0.5678
  536MPD2     H 8011   2.897   2.641  15.822 -0.3529 -1.4947 -0.1774
  536MPD2    H1 8012   3.148   2.767  15.494 -0.7380 -0.7552 -1.1641
  536MPD2    H2 8013   3.325   2.641  15.855 -0.2632  2.2706 -0.7933
  536MPD2    H3 8014   3.343   2.750  15.630  0.8191 -1.3701  1.5088
  536MPD2     N 8015   2.889   2.730  15.562  0.1404  0.0080 -0.3827
  536MPD2    H5 8016   2.913   2.786  15.481 -0.9761  0.1292 -0.6280
  536MPD2    N1 8017   3.107   2.598  15.989 -0.4394  0.7518  0.6906
  536MPD2    H7 8018   3.193   2.603  16.044 -0.4775 -0.4046  0.8470
  537TMC3    C1 8019   3.015   2.491  16.176  0.3374 -0.2083 -0.3501
  537TMC3    C2 8020   3.125   2.520  16.252 -0.5770  0.3138 -0.9706
  537TMC3    C3 8021   3.126   2.472  16.382  0.4123  0.0495 -0.4084
  537TMC3    C4 8022   2.906   2.440  16.237  0.4745  0.1288 -0.1175
  537TMC3    C5 8023   2.908   2.385  16.365 -0.3403  0.7015  0.2246
  537TMC3    C6 8024   3.026   2.401  16.441  0.3263 -0.3843  0.0953
  537TMC3     C 8025   3.004   2.528  16.039  0.7544 -0.4740 -0.4479
  537TMC3     O 8026   2.906   2.489  15.977 -0.3155 -0.1888 -0.2820
  537TMC3     H 8027   3.208   2.574  16.209 -1.4047  0.5089 -2.3173
  537TMC3    H1 8028   2.816   2.424  16.179  0.4836 -1.7034  0.3680
  537TMC3    H2 8029   3.031   2.380  16.547  0.3200 -0.7227  0.0288
  537TMC3    C7 8030   2.829   2.262  16.387  0.3819  0.0684  0.3078
  537TMC3    C8 8031   3.201   2.549  16.485  0.0544  0.0460  0.3945
  537TMC3    O1 8032   2.735   2.247  16.309 -0.0211  0.7292 -0.1412
  537TMC3    O2 8033   3.223   2.506  16.597  0.1172  0.1275  0.7399
  538TMC3    C1 8034   4.396   1.323  11.106 -0.0855  0.2728 -0.8180
  538TMC3    C2 8035   4.490   1.291  11.011 -0.0166  0.0046 -0.4835
  538TMC3    C3 8036   4.500   1.382  10.911  0.0404 -0.5399 -0.0715
  538TMC3    C4 8037   4.309   1.423  11.092  0.2000  0.5722 -0.0511
  538TMC3    C5 8038   4.316   1.508  10.987  0.1933 -0.6731  0.0978
  538TMC3    C6 8039   4.412   1.490  10.890 -0.1875 -0.0350 -0.0886
  538TMC3     C 8040   4.397   1.254  11.232  0.4786  0.1371 -1.0894
  538TMC3     O 8041   4.289   1.229  11.284  0.5287  0.2964  0.6347
  538TMC3     H 8042   4.551   1.202  11.021 -0.5591 -0.1276  1.6271
  538TMC3    H1 8043   4.240   1.439  11.175  2.1019 -0.2343  1.6908
  538TMC3    H2 8044   4.420   1.545  10.797  1.4621  0.8113  0.5495
  538TMC3    C7 8045   4.191   1.572  10.948 -0.1816  0.4095 -0.1000
  538TMC3    C8 8046   4.617   1.361  10.824  0.2071  0.4833  0.3319
  538TMC3    O1 8047   4.090   1.533  11.008 -0.2058  0.3759 -0.1439
  538TMC3    O2 8048   4.647   1.246  10.795  0.0023  0.1322  0.4135
  539MPD2     C 8049   4.083   0.848  11.649 -0.6450 -0.2262  0.4694
  539MPD2    C1 8050   4.131   0.828  11.522 -0.0816  0.0417  0.2381
  539MPD2    C2 8051   4.094   0.907  11.413  0.2187 -0.3948  0.1486
  539MPD2    C3 8052   4.001   1.012  11.430 -1.0932  0.4627  0.1301
  539MPD2    C4 8053   3.951   1.034  11.561  0.4236  0.1411  0.8724
  539MPD2    C5 8054   3.985   0.947  11.657  0.2917  0.3768 -1.0235
  539MPD2     H 8055   4.143   0.896  11.317  0.9268  0.7122  0.3874
  539MPD2    H1 8056   3.872   1.106  11.580  0.2267  0.7959 -2.3952
  539MPD2    H2 8057   4.104   0.787  11.736  1.4237 -0.1173  0.0550
  539MPD2    H3 8058   3.954   0.972  11.758 -0.1487  2.1752 -1.6099
  539MPD2     N 8059   3.963   1.101  11.330  0.0134 -0.2783  0.3099
  539MPD2    H5 8060   3.925   1.190  11.362 -1.7675 -1.0485  0.3629
  539MPD2    N1 8061   4.224   0.729  11.499 -0.0274 -0.3720 -0.4928
  539MPD2    H7 8062   4.253   0.705  11.404  2.3299 -1.6136  0.5436
  540TMC3    C1 8063   3.946   1.202  11.130 -0.6988 -0.0416 -0.0376
  540TMC3    C2 8064   3.865   1.189  11.019  0.2853  0.0076  0.5709
  540TMC3    C3 8065   3.801   1.305  10.983 -0.0453  0.0524  1.0141
  540TMC3    C4 8066   3.948   1.319  11.202  0.7068  0.4583  0.0357
  540TMC3    C5 8067   3.870   1.424  11.164 -0.0950  0.3552 -0.2377
  540TMC3    C6 8068   3.799   1.424  11.048  0.0985 -0.5964 -1.0353
  540TMC3     C 8069   3.990   1.087  11.200  0.3746 -0.0911  0.5288
  540TMC3     O 8070   4.021   0.989  11.136  0.8372 -0.5998 -0.6044
  540TMC3     H 8071   3.859   1.092  10.970  0.6555  1.2780 -1.9899
  540TMC3    H1 8072   4.021   1.333  11.281  1.0188  0.5689 -0.2729
  540TMC3    H2 8073   3.718   1.494  11.032  1.5651  1.2678 -0.2015
  540TMC3    C7 8074   3.844   1.519  11.275  0.5657 -0.5558  0.7132
  540TMC3    C8 8075   3.710   1.291  10.868  0.1793  0.2254 -0.4243
  540TMC3    O1 8076   3.885   1.487  11.392  0.4381  0.3906 -0.3489
  540TMC3    O2 8077   3.682   1.396  10.813  1.1246 -0.0632  0.1752
  541MPD2     C 8078   2.094   2.098  13.286 -0.0503  0.5628  0.0434
  541MPD2    C1 8079   2.190   2.040  13.209  0.2517  0.1639  1.2165
  541MPD2    C2 8080   2.247   2.122  13.108 -0.1629 -0.1882  0.1497
  541MPD2    C3 8081   2.206   2.253  13.080 -0.5879  0.7037  0.1855
  541MPD2    C4 8082   2.097   2.302  13.143  0.1917 -0.0536  0.7362
  541MPD2    C5 8083   2.048   2.218  13.248 -0.1100 -0.0755  0.2629
  541MPD2     H 8084   2.320   2.071  13.047  1.3606  0.1698  1.6819
  541MPD2    H1 8085   2.056   2.400  13.118  2.6791  1.4191  2.4265
  541MPD2    H2 8086   2.047   2.050  13.371 -1.0837  0.0592 -0.8078
  541MPD2    H3 8087   1.958   2.255  13.296 -0.9511 -0.2389 -1.1811
  541MPD2     N 8088   2.252   2.330  12.970  0.2879  0.8700  0.0802
  541MPD2    H5 8089   2.193   2.406  12.937 -0.8180 -0.9875 -2.1866
  541MPD2    N1 8090   2.250   1.918  13.243  0.2541  0.5477 -0.2465
  541MPD2    H7 8091   2.317   1.880  13.177 -2.5216 -1.5605 -1.8606
  542TMC3    C1 8092   2.384   2.404  12.788  0.0489 -0.5291 -0.2963
  542TMC3    C2 8093   2.463   2.373  12.687 -0.7254 -0.4475 -0.2871
  542TMC3    C3 8094   2.500   2.469  12.598 -0.3467  0.6591  0.0680
  542TMC3    C4 8095   2.338   2.532  12.802 -0.3150  0.1629  0.5776
  542TMC3    C5 8096   2.377   2.622  12.710 -0.2040  0.7225  0.4384
  542TMC3    C6 8097   2.465   2.598  12.613  0.7594  0.5146  0.4694
  542TMC3     C 8098   2.361   2.308  12.897 -0.1661  0.3349 -0.3069
  542TMC3     O 8099   2.445   2.219  12.911 -0.3640  0.3364 -0.8826
  542TMC3     H 8100   2.494   2.269  12.678 -1.8299 -0.8328  0.2361
  542TMC3    H1 8101   2.283   2.570  12.887 -0.3072 -0.6655  0.9539
  542TMC3    H2 8102   2.487   2.673  12.537  1.6186  0.5109  0.7145
  542TMC3    C7 8103   2.310   2.756  12.708 -0.0763 -0.1164 -0.0348
  542TMC3    C8 8104   2.578   2.426  12.484  0.5388  0.5045  0.2714
  542TMC3    O1 8105   2.361   2.846  12.644 -0.3548 -0.2362  0.5349
  542TMC3    O2 8106   2.539   2.322  12.435 -0.3517  0.2094  0.3841
  543TMC3    C1 8107   2.056   2.937  17.289 -0.4008  0.3938 -0.1300
  543TMC3    C2 8108   2.121   2.813  17.293 -0.5219 -0.2267  0.3940
  543TMC3    C3 8109   2.105   2.734  17.402  0.0054  0.1389  0.0763
  543TMC3    C4 8110   1.980   2.980  17.396 -0.0008 -0.1433 -0.4853
  543TMC3    C5 8111   1.959   2.888  17.499  0.3847  0.1078 -0.4024
  543TMC3    C6 8112   2.020   2.766  17.507 -0.4339 -0.2204  0.3972
  543TMC3     C 8113   2.094   3.028  17.179  0.0788  0.5390  0.4853
  543TMC3     O 8114   2.192   2.995  17.117 -0.2396 -0.6308 -0.9171
  543TMC3     H 8115   2.199   2.801  17.218 -0.3612 -1.4012  0.7543
  543TMC3    H1 8116   1.933   3.077  17.407 -0.0083 -0.2660  0.5905
  543TMC3    H2 8117   2.002   2.704  17.594 -1.0707 -2.2687 -1.2205
  543TMC3    C7 8118   1.957   2.959  17.620 -0.5538  0.0178 -0.0317
  543TMC3    C8 8119   2.222   2.652  17.431 -0.3255  0.0036  0.5382
  543TMC3    O1 8120   2.007   3.072  17.617 -0.2814  0.2439 -0.1611
  543TMC3    O2 8121   2.275   2.600  17.336  0.2061  0.3245 -0.0875
  544MPD2     C 8122   2.611   2.511  17.724  0.7827 -0.2219 -0.2150
  544MPD2    C1 8123   2.584   2.492  17.592 -0.5294  0.4771  0.2155
  544MPD2    C2 8124   2.460   2.527  17.535 -0.9782 -0.0954 -0.0318
  544MPD2    C3 8125   2.366   2.590  17.618 -0.2634 -0.6160 -0.3389
  544MPD2    C4 8126   2.398   2.621   0.012  0.6828  0.1333  0.3214
  544MPD2    C5 8127   2.519   2.578   0.062 -0.0284 -0.2966 -1.0562
  544MPD2     H 8128   2.439   2.503  17.432 -0.9283  0.7344 -0.2364
  544MPD2    H1 8129   2.333   2.689   0.066 -1.6815 -0.9049 -1.1653
  544MPD2    H2 8130   2.704   2.491   0.040  1.5464 -0.2938 -1.6220
  544MPD2    H3 8131   2.544   2.620   0.158  0.7222 -3.0276 -0.0707
  544MPD2     N 8132   2.248   2.642  17.567 -0.0433 -0.1118  1.1893
  544MPD2    H5 8133   2.187   2.680  17.638 -0.5134 -0.0671  0.7636
  544MPD2    N1 8134   2.683   2.426  17.517 -0.1725 -0.0139  0.5820
  544MPD2    H7 8135   2.748   2.376  17.578 -0.6432 -1.3989 -0.0707
  545TMC3    C1 8136   2.759   2.310  17.340  0.0249 -0.1678 -0.1077
  545TMC3    C2 8137   2.859   2.273  17.424 -0.3077  0.5925 -0.5686
  545TMC3    C3 8138   2.918   2.153  17.393 -0.2079  0.3414  0.2972
  545TMC3    C4 8139   2.705   2.246  17.233 -0.8367  0.6253  0.4252
  545TMC3    C5 8140   2.772   2.135  17.201 -0.3526 -0.5591 -0.0019
  545TMC3    C6 8141   2.872   2.084  17.281  0.3251  0.1887  0.2609
  545TMC3     C 8142   2.684   2.422  17.386 -0.4067 -0.3693  0.0371
  545TMC3     O 8143   2.625   2.478  17.297  0.3110  0.0685  0.0001
  545TMC3     H 8144   2.893   2.335  17.506 -1.7016  0.7708 -0.1315
  545TMC3    H1 8145   2.631   2.288  17.166 -1.5274 -1.5782 -0.1799
  545TMC3    H2 8146   2.928   2.003  17.236 -3.3874 -1.1670 -1.9069
  545TMC3    C7 8147   2.698   2.044  17.111  0.0226  0.7419 -0.2164
  545TMC3    C8 8148   3.057   2.129  17.434  0.3565  0.1846  0.2041
  545TMC3    O1 8149   2.600   2.079  17.047 -0.1760 -0.0253 -0.1571
  545TMC3    O2 8150   3.092   2.010  17.446 -0.1053  0.0853 -0.7888
  546MPD2     C 8151   3.439   3.282  17.720  0.2465 -0.1801  0.3626
  546MPD2    C1 8152   3.398   3.300  17.591  0.1632 -0.2217 -0.1483
  546MPD2    C2 8153   3.460   3.395  17.512 -0.5977 -0.2372 -0.5432
  546MPD2    C3 8154   3.550   3.481  17.564 -0.4407  0.1552 -0.2877
  546MPD2    C4 8155   3.583   3.466  17.694  0.1188 -0.4723  0.8813
  546MPD2    C5 8156   3.529   3.368   0.036  0.0266  0.7670 -0.1958
  546MPD2     H 8157   3.440   3.400  17.406  1.8689 -0.5926 -1.0482
  546MPD2    H1 8158   3.654   3.531   0.006  0.7052 -1.4177  1.2803
  546MPD2    H2 8159   3.396   3.202   0.044 -2.6313  0.8930 -0.2789
  546MPD2    H3 8160   3.559   3.350   0.138  3.0708 -1.0161 -1.4212
  546MPD2     N 8161   3.616   3.586  17.494  0.7707  0.2940 -0.1301
  546MPD2    H5 8162   3.668   3.654  17.548  0.3591 -0.6210  1.4378
  546MPD2    N1 8163   3.296   3.212  17.542  0.7520 -0.0920 -0.1954
  546MPD2    H7 8164   3.263   3.146  17.611  0.1171  1.7701  1.2870
  547TMC3    C1 8165   3.130   3.115  17.401 -0.3903 -0.2484 -0.5589
  547TMC3    C2 8166   3.089   3.092  17.273  0.3797 -0.3229  0.0749
  547TMC3    C3 8167   2.970   3.028  17.258  0.9006 -0.5931  0.1253
  547TMC3    C4 8168   3.056   3.077  17.510  0.0747  0.1737  0.0403
  547TMC3    C5 8169   2.924   3.031  17.490 -0.1049  0.7588  0.6473
  547TMC3    C6 8170   2.887   3.001  17.366 -0.1312  0.3130  0.5836
  547TMC3     C 8171   3.250   3.202  17.413 -0.3278  0.6767  0.0406
  547TMC3     O 8172   3.302   3.251  17.315  0.5509 -0.2136  0.0779
  547TMC3     H 8173   3.149   3.130  17.191  1.5829 -3.2924 -0.3998
  547TMC3    H1 8174   3.094   3.102  17.609 -0.4085 -1.7472  0.7017
  547TMC3    H2 8175   2.803   2.933  17.351  0.7403 -0.7796  0.6290
  547TMC3    C7 8176   2.844   2.995  17.603  0.6168  0.4294 -0.1475
  547TMC3    C8 8177   2.891   3.050  17.132  0.4388 -0.3504  0.5010
  547TMC3    O1 8178   2.876   3.006  17.718  0.0005 -0.1354  0.0011
  547TMC3    O2 8179   2.772   3.078  17.140  0.2716  0.2278 -0.2017
  548MPD2     C 8180   3.358   3.888  12.801  0.8916 -0.9392  0.5147
  548MPD2    C1 8181   3.270   3.803  12.741 -0.1334  0.2208  0.0334
  548MPD2    C2 8182   3.308   3.700  12.657  0.0923 -0.3088 -0.4404
  548MPD2    C3 8183   3.446   3.695  12.628 -0.7908 -0.5744 -0.4014
  548MPD2    C4 8184   3.538   3.776  12.689 -0.1479 -0.5307 -0.2927
  548MPD2    C5 8185   3.489   3.854  12.788  0.7607 -0.3413 -0.2113
  548MPD2     H 8186   3.239   3.640  12.598  0.9523 -0.6160 -1.1358
  548MPD2    H1 8187   3.644   3.779  12.670  0.2416 -1.4295  1.7519
  548MPD2    H2 8188   3.326   3.964  12.872  0.2261  0.1818 -0.9793
  548MPD2    H3 8189   3.564   3.912  12.841 -1.0667  1.5899  0.2788
  548MPD2     N 8190   3.482   3.621  12.514 -0.8214  0.1159  0.3184
  548MPD2    H5 8191   3.415   3.550  12.487  1.3461 -1.3691 -1.1574
  548MPD2    N1 8192   3.134   3.822  12.776 -0.4484 -0.3537 -0.8118
  548MPD2    H7 8193   3.111   3.893  12.845  2.5674 -0.1863  0.0062
  549TMC3    C1 8194   2.904   3.793  12.772  0.7257 -0.8252  0.5657
  549TMC3    C2 8195   2.873   3.921  12.745  0.0108 -0.0710  0.0669
  549TMC3    C3 8196   2.768   3.981  12.810 -0.5402  0.2567 -0.2953
  549TMC3    C4 8197   2.821   3.714  12.848 -0.1179  0.3884  0.5491
  549TMC3    C5 8198   2.718   3.776  12.912 -0.3383 -0.5169 -0.7683
  549TMC3    C6 8199   2.688   3.910  12.900  0.0632 -0.7038 -0.3591
  549TMC3     C 8200   3.029   3.743  12.727  0.9018  0.2959 -0.0719
  549TMC3     O 8201   3.023   3.635  12.669 -0.1774 -0.0670  0.0300
  549TMC3     H 8202   2.941   3.972  12.678 -1.4637  1.6584 -0.1123
  549TMC3    H1 8203   2.847   3.611  12.870 -0.2900  0.2847  0.2610
  549TMC3    H2 8204   2.600   3.956  12.944  1.9382  2.7223 -0.2371
  549TMC3    C7 8205   2.647   3.707  13.026  0.7243  0.2298  0.1212
  549TMC3    C8 8206   2.716   4.113  12.764 -0.2397  0.5896  0.0122
  549TMC3    O1 8207   2.572   3.774  13.105 -0.3852  0.5905  0.1012
  549TMC3    O2 8208   2.598   4.128  12.779 -0.1846  0.1761 -0.3070
  550TMC3    C1 8209   1.265   1.944  12.670 -0.5781 -0.4373 -0.2359
  550TMC3    C2 8210   1.236   2.064  12.734  0.4155 -0.4641  0.1385
  550TMC3    C3 8211   1.293   2.179  12.689 -0.1288  0.1416 -0.1572
  550TMC3    C4 8212   1.342   1.942  12.557  1.2073 -0.2222 -0.4603
  550TMC3    C5 8213   1.388   2.061  12.510 -0.3636  0.0711  0.5648
  550TMC3    C6 8214   1.374   2.181  12.578  0.1095  0.2577 -0.0651
  550TMC3     C 8215   1.139   1.873  12.653 -0.2616  0.4460 -0.4949
  550TMC3     O 8216   1.094   1.820  12.757 -0.2195 -0.2583  0.5795
  550TMC3     H 8217   1.172   2.061  12.821 -0.9951  0.2044 -0.8805
  550TMC3    H1 8218   1.348   1.849  12.501  0.8196  0.6484 -1.9315
  550TMC3    H2 8219   1.412   2.277  12.544 -0.8341  1.2514  1.6555
  550TMC3    C7 8220   1.334   2.088  12.379  0.5188  0.0004  0.6639
  550TMC3    C8 8221   1.208   2.295  12.685  0.9022  0.3105 -0.1406
  550TMC3    O1 8222   1.237   2.021  12.345  0.5191  0.0582  0.0491
  550TMC3    O2 8223   1.254   2.404  12.716 -0.2338 -0.3586  0.4414
  551TMC3    C1 8224   4.263   4.607  13.350 -0.1992  0.0695  0.1372
  551TMC3    C2 8225   4.317   4.698  13.267 -0.5619 -0.0330  0.3206
  551TMC3    C3 8226   4.386   0.061  13.334  0.4434  0.2303 -0.0693
  551TMC3    C4 8227   4.263   4.611  13.484 -0.6994 -0.5196 -0.2560
  551TMC3    C5 8228   4.330   4.710  13.544  0.3627 -0.0667 -0.6971
  551TMC3    C6 8229   4.393   0.073  13.469  0.3234 -0.2716 -0.0554
  551TMC3     C 8230   4.188   4.497  13.294 -0.4219 -0.6432  0.3415
  551TMC3     O 8231   4.231   4.447  13.189  0.2767 -0.0210 -0.8456
  551TMC3     H 8232   4.309   4.685  13.160 -1.0680 -1.0565  0.4762
  551TMC3    H1 8233   4.210   4.540  13.547 -1.6477  0.1493 -0.2965
  551TMC3    H2 8234   4.465   0.145  13.506 -0.3262  1.1632 -1.5501
  551TMC3    C7 8235   4.268   0.019  13.666  0.1791 -0.1619  0.1876
  551TMC3    C8 8236   4.424   0.180  13.264  0.5454  0.0426  0.0277
  551TMC3    O1 8237   4.221   4.671  13.740  0.0576  0.6004  0.2214
  551TMC3    O2 8238   4.429   0.276  13.337 -0.1567 -0.4976  0.5489
  552MPD2     C 8239   1.199   2.073  14.543 -0.7442 -0.2223  0.2123
  552MPD2    C1 8240   1.233   1.935  14.523 -0.1681 -0.0750 -0.1965
  552MPD2    C2 8241   1.362   1.894  14.556  0.4837 -0.1991  0.0841
  552MPD2    C3 8242   1.455   1.983  14.604 -0.3952 -0.0937 -0.0742
  552MPD2    C4 8243   1.424   2.114  14.629 -0.4433 -0.1128 -0.0044
  552MPD2    C5 8244   1.297   2.158  14.595 -0.0390  0.0369  0.0865
  552MPD2     H 8245   1.389   1.790  14.548  3.4169  0.4831  1.1400
  552MPD2    H1 8246   1.497   2.178  14.676 -0.9198  1.5358 -1.4734
  552MPD2    H2 8247   1.109   2.124  14.513  0.1645  0.3448 -1.5536
  552MPD2    H3 8248   1.269   2.262  14.608 -0.7079 -0.1370 -0.0113
  552MPD2     N 8249   1.581   1.943  14.648 -0.2052 -0.2945  0.2770
  552MPD2    H5 8250   1.647   2.018  14.669  0.4299 -1.1097  1.1883
  552MPD2    N1 8251   1.152   1.835  14.467 -0.0353 -0.0944  0.1382
  552MPD2    H7 8252   1.203   1.749  14.449 -0.4485 -0.0236 -1.3438
  553TMC3    C1 8253   0.969   1.705  14.401 -0.1579 -0.0617 -0.5595
  553TMC3    C2 8254   0.948   1.710  14.264  0.0475  0.8732  0.1072
  553TMC3    C3 8255   1.001   1.606  14.182 -0.1208  0.2183 -0.5549
  553TMC3    C4 8256   1.032   1.598  14.455  0.0132  0.2376 -0.1027
  553TMC3    C5 8257   1.096   1.508  14.382 -0.3285  0.4570  0.0196
  553TMC3    C6 8258   1.076   1.508  14.246  0.2025 -0.2276 -0.0287
  553TMC3     C 8259   1.014   1.834  14.450  0.5395 -0.3580 -0.1034
  553TMC3     O 8260   0.936   1.931  14.455 -0.1998  0.4352 -0.5350
  553TMC3     H 8261   0.905   1.803  14.230 -1.4536  0.1619  0.0355
  553TMC3    H1 8262   1.051   1.597  14.562 -3.0742 -1.0302  0.4609
  553TMC3    H2 8263   1.129   1.432  14.190  3.7382  1.2924  1.2638
  553TMC3    C7 8264   1.242   1.534  14.398 -0.8456  0.1305  0.6328
  553TMC3    C8 8265   1.049   1.630  14.046  0.0485 -0.5514 -0.1889
  553TMC3    O1 8266   1.279   1.545  14.515 -0.0020  0.1302 -0.0846
  553TMC3    O2 8267   1.154   1.577  14.010 -0.4295  0.1666  0.4130
  554TMC3    C1 8268   3.638   0.707  11.408  0.1713 -0.2176 -1.0716
  554TMC3    C2 8269   3.534   0.641  11.347 -0.5653  0.3924  0.3518
  554TMC3    C3 8270   3.513   0.668  11.216  0.2846 -0.1024  0.3619
  554TMC3    C4 8271   3.712   0.801  11.342 -0.8196 -0.0531  0.2625
  554TMC3    C5 8272   3.668   0.847  11.222  0.4174  0.3762  0.4268
  554TMC3    C6 8273   3.573   0.775  11.156 -0.3780 -0.1471  0.7076
  554TMC3     C 8274   3.693   0.651  11.534 -0.3972 -0.7395  0.0847
  554TMC3     O 8275   3.806   0.681  11.558  0.6049  0.3785 -0.3989
  554TMC3     H 8276   3.475   0.564  11.394 -2.0602  3.1520  2.9891
  554TMC3    H1 8277   3.794   0.852  11.393  0.6967 -0.1743 -2.0618
  554TMC3    H2 8278   3.536   0.815  11.062  0.1355  0.0463  0.5865
  554TMC3    C7 8279   3.652   0.992  11.203 -0.1526  0.4229  0.0982
  554TMC3    C8 8280   3.397   0.634  11.142  0.2356 -0.1449  0.7759
  554TMC3    O1 8281   3.628   1.020  11.087  0.4692  0.4563  0.1430
  554TMC3    O2 8282   3.409   0.635  11.018 -0.0420  0.2838 -0.0576
  555TMC3    C1 8283   2.253   0.067  14.766  0.2733  0.0104  0.2037
  555TMC3    C2 8284   2.180   0.164  14.832 -0.3322  0.2553  0.1641
  555TMC3    C3 8285   2.153   0.141  14.964  0.3453 -0.3153  0.5689
  555TMC3    C4 8286   2.284   4.680  14.814 -0.2469 -0.5193  0.6636
  555TMC3    C5 8287   2.241   4.655  14.942  0.0581 -0.0992 -0.1231
  555TMC3    C6 8288   2.171   0.018  15.016 -0.3015  0.6498 -0.8047
  555TMC3     C 8289   2.325   0.110  14.650  0.2645 -0.2998 -0.6432
  555TMC3     O 8290   2.427   0.048  14.623  0.1907 -0.4018 -0.0617
  555TMC3     H 8291   2.158   0.265  14.797  1.6871 -0.3130 -2.7326
  555TMC3    H1 8292   2.353   4.620  14.756  1.1290  0.6593  1.1063
  555TMC3    H2 8293   2.141   0.002  15.119  0.6171  1.5299 -0.4049
  555TMC3    C7 8294   2.240   4.517  14.985 -0.6604  0.7243  0.0822
  555TMC3    C8 8295   2.181   0.249  15.050 -0.2913 -0.8356 -0.7225
  555TMC3    O1 8296   2.215   4.495  15.103  0.1649 -0.7427 -0.0786
  555TMC3    O2 8297   2.114   0.349  15.032 -0.3526 -0.0607  0.0348
  556MPD2     C 8298   0.118   2.636  11.029 -0.4199  0.9775  0.1577
  556MPD2    C1 8299   0.117   2.506  11.066  1.0808 -0.3359  1.0410
  556MPD2    C2 8300   0.123   2.407  10.966  0.4735  0.2304 -1.0153
  556MPD2    C3 8301   0.110   2.451  10.837 -0.2221 -0.2050  0.5235
  556MPD2    C4 8302   0.124   2.587  10.803  0.4756  0.0591 -0.4396
  556MPD2    C5 8303   0.139   2.679  10.905 -0.2627 -0.1006 -0.4310
  556MPD2     H 8304   0.118   2.302  10.991  1.0860 -0.1676 -2.5078
  556MPD2    H1 8305   0.133   2.622  10.701 -1.0265 -0.1568 -0.6360
  556MPD2    H2 8306   0.123   2.709  11.109 -1.3008  1.1803  0.0211
  556MPD2    H3 8307   0.152   2.785  10.886 -0.1923  0.5190  3.1775
  556MPD2     N 8308   0.105   2.347  10.740  0.3120  0.2739  0.0357
  556MPD2    H5 8309   0.114   2.249  10.766  1.7326  0.2951 -0.3326
  556MPD2    N1 8310   0.108   2.458  11.199  0.2630 -0.2025 -0.2360
  556MPD2    H7 8311   0.124   2.359  11.212 -0.1291 -0.0511  1.3788
  557TMC3    C1 8312   0.091   2.237  10.540 -0.0644 -0.0102  0.3079
  557TMC3    C2 8313   0.041   2.240  10.412 -0.1999 -0.2420 -0.2770
  557TMC3    C3 8314   0.037   2.122  10.342 -0.4944 -0.1862 -0.0225
  557TMC3    C4 8315   0.161   2.126  10.590  0.1922  0.9449 -1.3277
  557TMC3    C5 8316   0.149   2.017  10.514  1.0821 -0.1830 -0.4147
  557TMC3    C6 8317   0.084   2.007  10.396 -0.0245 -0.3194 -0.0614
  557TMC3     C 8318   0.104   2.366  10.609  0.4929 -0.2942 -0.8505
  557TMC3     O 8319   0.086   2.465  10.539 -0.0471 -0.6175  0.4906
  557TMC3     H 8320   4.727   2.328  10.371  2.1234  1.0260 -0.2829
  557TMC3    H1 8321   0.225   2.132  10.677 -2.0403 -1.3820  0.4735
  557TMC3    H2 8322   0.081   1.913  10.342  0.5217 -0.1208 -0.4459
  557TMC3    C7 8323   0.140   1.895  10.594 -0.3324 -0.0855  0.8745
  557TMC3    C8 8324   4.703   2.132  10.212 -0.3998 -0.1699  0.1442
  557TMC3    O1 8325   0.089   1.913  10.705 -0.2866  0.3821 -0.7566
  557TMC3    O2 8326   4.636   2.234  10.195  0.8265  0.0446  0.0375
  558TMC3    C1 8327   2.646   4.054  10.314 -0.3592  0.3048 -0.1221
  558TMC3    C2 8328   2.518   4.081  10.353  0.0530 -0.0094  0.3901
  558TMC3    C3 8329   2.425   4.127  10.261  0.2065  0.2255 -0.0643
  558TMC3    C4 8330   2.676   4.055  10.180 -0.3061 -0.4524  0.6734
  558TMC3    C5 8331   2.576   4.072  10.089  0.5081  0.3661 -0.0281
  558TMC3    C6 8332   2.453   4.111  10.125  0.2063 -0.0322 -0.6463
  558TMC3     C 8333   2.759   4.033  10.403 -0.2177  0.4835 -0.0629
  558TMC3     O 8334   2.865   4.074  10.356  0.1455  0.3654  0.0028
  558TMC3     H 8335   2.497   4.107  10.457  0.9598 -2.0863  1.0931
  558TMC3    H1 8336   2.780   4.042  10.150  0.2104  0.0236  2.2206
  558TMC3    H2 8337   2.375   4.119  10.051  0.7821  0.3543 -1.2058
  558TMC3    C7 8338   2.623   4.086   9.948 -0.5587 -0.2720 -0.0213
  558TMC3    C8 8339   2.292   4.166  10.299  0.0135  1.4501  0.2869
  558TMC3    O1 8340   2.742   4.046   9.929  0.4268 -0.1613 -0.3236
  558TMC3    O2 8341   2.197   4.151  10.221 -0.1247 -0.0217 -0.5820
  559MPD2     C 8342   2.578   4.445  10.290 -0.0433  0.1076  0.1245
  559MPD2    C1 8343   2.526   4.559  10.339 -0.3283  0.2782 -0.1432
  559MPD2    C2 8344   2.611   4.633  10.413  0.2085  0.2324  0.1181
  559MPD2    C3 8345   2.743   4.602  10.432  0.0770 -0.7671 -0.4065
  559MPD2    C4 8346   2.799   4.495  10.371 -0.0282  0.5683  0.6285
  559MPD2    C5 8347   2.709   4.411  10.303  0.2163  0.1187  0.5169
  559MPD2     H 8348   2.572   4.713  10.475 -1.0857  1.4951 -2.3394
  559MPD2    H1 8349   2.905   4.473  10.363  0.1968  1.1396  2.0091
  559MPD2    H2 8350   2.516   4.378  10.232  2.4129 -1.6872 -0.4342
  559MPD2    H3 8351   2.737   4.328  10.239  0.2739  1.2923 -0.9789
  559MPD2     N 8352   2.818   4.699  10.503  0.1049  0.0301 -0.3167
  559MPD2    H5 8353   2.772   0.054  10.517 -2.0322 -1.0660 -0.4242
  559MPD2    N1 8354   2.385   4.584  10.325 -0.3248 -0.6219 -0.1341
  559MPD2    H7 8355   2.324   4.512  10.288 -0.4809 -1.2711  1.3685
  560TMC3    C1 8356   2.996   0.054  10.631 -0.1582 -0.2579 -0.2322
  560TMC3    C2 8357   2.913   0.159  10.670 -0.4458 -0.7105  0.1715
  560TMC3    C3 8358   2.958   0.248  10.764 -0.5245 -0.0722 -0.2515
  560TMC3    C4 8359   3.123   0.045  10.673 -0.1748  0.0802 -0.3755
  560TMC3    C5 8360   3.167   0.141  10.765  0.9305 -0.2459  0.6950
  560TMC3    C6 8361   3.083   0.241  10.810 -0.1401 -0.9074 -0.0004
  560TMC3     C 8362   2.941   4.671  10.561  0.8847  0.3987  0.0587
  560TMC3     O 8363   3.002   4.566  10.568  0.7330  0.2611 -0.2279
  560TMC3     H 8364   2.813   0.167  10.629 -0.1711  2.4122  0.1842
  560TMC3    H1 8365   3.189   4.699  10.643 -0.5135 -0.6626  0.9097
  560TMC3    H2 8366   3.121   0.298  10.894  0.6859 -1.7301  0.1768
  560TMC3    C7 8367   3.298   0.114  10.821 -0.0333 -0.2256  0.0394
  560TMC3    C8 8368   2.853   0.273  10.861 -0.4801  0.0219  0.3358
  560TMC3    O1 8369   3.315   4.730  10.843  0.2611 -0.6080 -0.0801
  560TMC3    O2 8370   2.739   0.300  10.813  0.4043 -0.0599 -0.5873
  561TMC3    C1 8371   0.550   3.953  11.444  0.0106  0.4384  0.3815
  561TMC3    C2 8372   0.485   3.935  11.564  0.1469 -0.3623  1.1031
  561TMC3    C3 8373   0.449   4.040  11.637  0.4291  0.6401 -0.1818
  561TMC3    C4 8374   0.573   4.083  11.395  0.1133 -0.3044  0.4950
  561TMC3    C5 8375   0.544   4.191  11.481 -0.5176  0.2295  0.3024
  561TMC3    C6 8376   0.489   4.166  11.603  0.8412 -0.0360 -0.2235
  561TMC3     C 8377   0.573   3.827  11.376  0.7873  0.3350 -0.0018
  561TMC3     O 8378   0.489   3.740  11.400  0.1853  0.0385  0.0789
  561TMC3     H 8379   0.453   3.837  11.597  0.6105 -0.6433  0.7265
  561TMC3    H1 8380   0.614   4.108  11.298 -2.0812 -1.3237 -0.6922
  561TMC3    H2 8381   0.462   4.245  11.672 -0.4703 -0.0369 -0.7379
  561TMC3    C7 8382   0.594   4.334  11.463 -0.3475 -0.1281 -0.2567
  561TMC3    C8 8383   0.406   4.014  11.774 -0.4949 -0.1756  0.9426
  561TMC3    O1 8384   0.583   4.403  11.565 -0.6499 -0.1948  0.0521
  561TMC3    O2 8385   0.408   3.899  11.818 -0.4676  0.1246  0.4248
  562TMC3    C1 8386   1.718   0.150  16.222 -0.2073 -0.1471  0.7266
  562TMC3    C2 8387   1.735   0.238  16.120 -0.3494 -0.3881 -0.0039
  562TMC3    C3 8388   1.793   0.195  16.003  0.3440 -0.1159 -0.7461
  562TMC3    C4 8389   1.754   0.020  16.208  0.3060  0.3514 -0.2218
  562TMC3    C5 8390   1.826   4.720  16.093  0.1449  0.4630  0.2553
  562TMC3    C6 8391   1.855   0.074  15.990 -0.2835  1.0144 -0.2086
  562TMC3     C 8392   1.658   0.205  16.345  0.4113 -0.0856 -0.1757
  562TMC3     O 8393   1.613   0.324  16.345  0.4898  0.0083 -0.0915
  562TMC3     H 8394   1.703   0.341  16.130 -1.4873 -0.7910  0.4370
  562TMC3    H1 8395   1.733   4.678  16.282 -1.3737 -1.0008 -2.0983
  562TMC3    H2 8396   1.888   0.040  15.893 -0.8779  1.1067 -0.4480
  562TMC3    C7 8397   1.856   4.585  16.065 -0.5462  0.4899 -0.3878
  562TMC3    C8 8398   1.832   0.295  15.916  0.4241 -0.1690 -0.3110
  562TMC3    O1 8399   1.787   4.499  16.115 -0.0282 -0.0405  0.1014
  562TMC3    O2 8400   1.763   0.397  15.913 -0.2219 -0.2682 -0.0525
  563MPD2     C 8401   4.140   2.008  15.583 -0.3157 -0.8300 -0.7916
  563MPD2    C1 8402   4.141   2.001  15.722 -0.6017 -0.5720 -0.4991
  563MPD2    C2 8403   4.257   2.051  15.792 -0.0820  0.1849 -0.5015
  563MPD2    C3 8404   4.364   2.108  15.723  0.5223  0.0133 -0.8998
  563MPD2    C4 8405   4.341   2.137  15.593  0.2202  0.5072 -0.4980
  563MPD2    C5 8406   4.237   2.083  15.525 -0.4234  0.1524 -0.0848
  563MPD2     H 8407   4.276   2.035  15.897 -0.0843 -0.7031 -0.6346
  563MPD2    H1 8408   4.418   2.191  15.539  0.3325  1.1455  0.3060
  563MPD2    H2 8409   4.048   1.986  15.530 -0.8640 -1.8507  0.5721
  563MPD2    H3 8410   4.238   2.093  15.417  1.0549 -0.0244 -0.0840
  563MPD2     N 8411   4.474   2.160  15.802 -0.1595 -0.2614 -0.4945
  563MPD2    H5 8412   4.471   2.133  15.900  0.3271 -0.3301 -0.4985
  563MPD2    N1 8413   4.041   1.927  15.785  0.0746 -0.6301  0.3685
  563MPD2    H7 8414   3.983   1.860  15.734  0.8300 -0.0112 -1.2969
  564TMC3    C1 8415   3.892   1.860  15.957 -0.0662 -0.2932 -0.8672
  564TMC3    C2 8416   3.801   1.815  15.860  0.2219  0.6694  0.1070
  564TMC3    C3 8417   3.713   1.719  15.908  0.0708 -0.6374 -0.3095
  564TMC3    C4 8418   3.878   1.827  16.089  0.1622 -1.0559 -0.0167
  564TMC3    C5 8419   3.795   1.727  16.131 -0.6002 -0.5422 -0.4531
  564TMC3    C6 8420   3.715   1.677  16.038  0.0741  0.2084 -0.1319
  564TMC3     C 8421   4.007   1.931  15.915 -0.3904 -0.0612  0.5393
  564TMC3     O 8422   4.064   1.992  16.003  0.5680 -0.7586 -0.6895
  564TMC3     H 8423   3.804   1.851  15.757 -2.1982 -0.2911 -0.3068
  564TMC3    H1 8424   3.951   1.876  16.152 -0.2641 -0.9046  0.3512
  564TMC3    H2 8425   3.646   1.600  16.070 -2.9674  2.8559 -0.2942
  564TMC3    C7 8426   3.874   1.629  16.198 -0.2579 -0.4282 -0.2098
  564TMC3    C8 8427   3.649   1.629  15.817 -0.5642  0.1696 -0.0158
  564TMC3    O1 8428   3.970   1.678  16.254  0.2138  0.0004 -0.7392
  564TMC3    O2 8429   3.541   1.575  15.850 -0.0737  0.3550  0.1448
  565TMC3    C1 8430   4.702   3.636  10.543 -0.0791  0.3807 -0.0356
  565TMC3    C2 8431   4.733   3.535  10.628  0.1758 -0.5494 -0.3086
  565TMC3    C3 8432   4.666   3.420  10.605  0.8636 -0.7842 -0.0513
  565TMC3    C4 8433   4.603   3.634  10.449  0.0612 -0.1474  0.2083
  565TMC3    C5 8434   4.535   3.514  10.434 -0.1121  0.4182  0.0219
  565TMC3    C6 8435   4.567   3.406  10.511  0.9557  0.3125 -0.7902
  565TMC3     C 8436   0.063   3.745  10.514  0.3146  1.0611 -0.5220
  565TMC3     O 8437   0.055   3.798  10.404  0.1827 -0.2468  0.4563
  565TMC3     H 8438   0.069   3.541  10.710 -1.0194 -3.9507  0.9427
  565TMC3    H1 8439   4.584   3.717  10.383  0.5136 -0.3826 -0.2173
  565TMC3    H2 8440   4.487   3.336  10.530  2.3036 -0.4766  1.8792
  565TMC3    C7 8441   4.431   3.498  10.334  0.0514 -0.3256 -0.4908
  565TMC3    C8 8442   4.679   3.310  10.703 -0.7236  0.6970 -0.0607
  565TMC3    O1 8443   4.383   3.598  10.286  0.4053 -0.1428  0.2612
  565TMC3    O2 8444   0.002   3.337  10.802 -0.0159  0.7235  0.3532
  566MPD2     C 8445   1.636   0.371  14.076  0.6612 -0.0684  1.0479
  566MPD2    C1 8446   1.746   0.383  13.997 -0.8940  0.0647 -0.0822
  566MPD2    C2 8447   1.732   0.431  13.864 -0.0931  0.0336 -0.1303
  566MPD2    C3 8448   1.608   0.471  13.822 -0.0195  0.6360 -0.6021
  566MPD2    C4 8449   1.501   0.462  13.911 -0.2862 -0.6067 -0.5292
  566MPD2    C5 8450   1.515   0.408  14.031  0.2659  0.0713 -0.0411
  566MPD2     H 8451   1.808   0.430  13.787  0.8587 -1.1703  0.8344
  566MPD2    H1 8452   1.406   0.506  13.881 -0.4659 -0.1558  0.7326
  566MPD2    H2 8453   1.661   0.327  14.172 -1.6178 -0.9595  1.2378
  566MPD2    H3 8454   1.428   0.398  14.096 -0.2208  1.0116 -0.5448
  566MPD2     N 8455   1.579   0.513  13.694 -0.4825  0.0564 -0.3803
  566MPD2    H5 8456   1.481   0.516  13.667 -0.4811  0.6029 -0.3126
  566MPD2    N1 8457   1.857   0.311  14.045  0.1379  0.9891  0.0001
  566MPD2    H7 8458   1.847   0.254  14.128 -1.1132  1.8621  0.4396
  567TMC3    C1 8459   2.074   0.230  14.047  0.7242 -0.4593 -0.2125
  567TMC3    C2 8460   2.198   0.226  13.985  0.7860  0.0090 -0.6391
  567TMC3    C3 8461   2.284   0.123  14.025  0.0789 -0.3251 -0.3698
  567TMC3    C4 8462   2.050   0.159  14.157  0.2055 -0.8752 -0.0937
  567TMC3    C5 8463   2.148   0.073  14.205 -0.5710 -0.7521  0.1979
  567TMC3    C6 8464   2.268   0.047  14.133  0.0477 -0.0255  0.0588
  567TMC3     C 8465   1.976   0.313  13.985 -0.0762  0.1516 -0.1864
  567TMC3     O 8466   2.024   0.387  13.901 -0.0976 -0.1924 -0.1010
  567TMC3     H 8467   2.210   0.279  13.891  4.1899  0.7964  0.2332
  567TMC3    H1 8468   1.952   0.156  14.203 -0.3458 -0.3633 -1.2464
  567TMC3    H2 8469   2.328   4.698  14.169 -0.6998 -0.5231  0.1587
  567TMC3    C7 8470   2.133   4.723  14.328  0.3994 -0.5441 -0.6736
  567TMC3    C8 8471   2.415   0.123  13.962 -0.6880  0.2326 -0.4186
  567TMC3    O1 8472   2.212   4.626  14.344 -0.3386  0.1759 -0.4220
  567TMC3    O2 8473   2.495   0.052  14.017  0.0185  0.1636  0.1173
  568MPD2     C 8474   3.674   0.156  16.288 -0.8521  0.4618  0.2891
  568MPD2    C1 8475   3.748   0.244  16.362 -0.1114 -0.7096  0.2564
  568MPD2    C2 8476   3.736   0.383  16.330 -0.3839 -0.6154 -0.0208
  568MPD2    C3 8477   3.656   0.432  16.228  0.0329 -0.1903  0.3407
  568MPD2    C4 8478   3.595   0.340  16.152 -0.2182 -0.1141 -0.7342
  568MPD2    C5 8479   3.609   0.208  16.179  0.6394  0.9366 -0.3902
  568MPD2     H 8480   3.797   0.453  16.386  0.7188  0.1756 -2.1826
  568MPD2    H1 8481   3.541   0.366  16.061  0.2868 -1.9662 -1.5477
  568MPD2    H2 8482   3.674   0.048  16.301 -2.9474  0.3391 -0.7834
  568MPD2    H3 8483   3.560   0.142  16.108  1.7766  0.8219 -1.0683
  568MPD2     N 8484   3.662   0.571  16.200 -0.1332 -0.0725 -0.0429
  568MPD2    H5 8485   3.613   0.602  16.116  0.2673 -1.8084 -0.9282
  568MPD2    N1 8486   3.836   0.190  16.456 -0.6927 -0.3527  0.0900
  568MPD2    H7 8487   3.830   0.092  16.485  0.1341 -1.1676 -2.4857
  569TMC3    C1 8488   3.693   0.800  16.225 -0.0759 -0.4910 -0.4973
  569TMC3    C2 8489   3.637   0.888  16.313  0.8817 -1.1628 -0.6103
  569TMC3    C3 8490   3.590   1.006  16.258 -0.0557  0.1585 -0.2154
  569TMC3    C4 8491   3.710   0.825  16.089 -0.0648  0.2402 -0.0672
  569TMC3    C5 8492   3.661   0.944  16.042  0.8327  0.4935  0.5675
  569TMC3    C6 8493   3.593   1.030  16.126 -0.4058 -0.1795 -0.0124
  569TMC3     C 8494   3.714   0.673  16.280  0.0010 -0.7838 -0.3015
  569TMC3     O 8495   3.761   0.679  16.392 -0.5593  0.8130  0.3248
  569TMC3     H 8496   3.627   0.867  16.419 -1.0142  2.0341 -0.1646
  569TMC3    H1 8497   3.771   0.756  16.032 -0.2490  0.0274 -0.0083
  569TMC3    H2 8498   3.540   1.117  16.088  0.6649 -0.6937 -2.6641
  569TMC3    C7 8499   3.721   0.998  15.927  0.3137 -0.1214  0.2908
  569TMC3    C8 8500   3.581   1.129  16.338 -0.1932 -0.1925 -0.2177
  569TMC3    O1 8501   3.798   0.922  15.872 -0.0959  0.2938 -0.2674
  569TMC3    O2 8502   3.484   1.204  16.310  0.2258 -0.1237 -0.1925
  570TMC3    C1 8503   3.455   4.044  16.366  0.5908 -0.4452  0.2340
  570TMC3    C2 8504   3.518   4.065  16.247 -0.3548 -0.7395 -0.0115
  570TMC3    C3 8505   3.604   4.179  16.245  0.3282  0.6884 -0.3981
  570TMC3    C4 8506   3.464   4.121  16.478  0.5017 -0.3926 -0.9074
  570TMC3    C5 8507   3.556   4.219  16.472  0.3853 -0.5238  0.7537
  570TMC3    C6 8508   3.620   4.249  16.355 -0.4091 -0.7344  0.2730
  570TMC3     C 8509   3.384   3.920  16.378 -0.1963 -1.0288 -0.6569
  570TMC3     O 8510   3.336   3.865  16.280 -0.3730  0.1002 -0.0243
  570TMC3     H 8511   3.517   3.984  16.174 -1.0052  0.8136 -1.7134
  570TMC3    H1 8512   3.422   4.099  16.576  3.0877  1.3325  0.5745
  570TMC3    H2 8513   3.700   4.323  16.356 -0.0720 -1.1145  1.8695
  570TMC3    C7 8514   3.518   4.329  16.554  0.0270 -0.1214  1.2590
  570TMC3    C8 8515   3.706   4.190  16.140  0.5994  0.3293  0.0258
  570TMC3    O1 8516   3.537   4.320  16.676 -0.4086 -0.2421  0.5412
  570TMC3    O2 8517   3.815   4.239  16.167  0.3386 -0.0320 -0.5664
  571MPD2     C 8518   1.041   0.914   0.391 -0.3494  0.1126 -0.5900
  571MPD2    C1 8519   0.995   0.979   0.505  0.4119 -0.0089 -0.6916
  571MPD2    C2 8520   1.010   1.118   0.515  0.6003  0.1408 -0.4216
  571MPD2    C3 8521   1.083   1.190   0.423  0.0337 -0.1987  0.0061
  571MPD2    C4 8522   1.134   1.121   0.312 -0.6018 -0.6261 -0.5255
  571MPD2    C5 8523   1.118   0.984   0.300 -0.0849  0.6864  0.0965
  571MPD2     H 8524   0.984   1.174   0.605 -0.2601 -0.2181 -0.4460
  571MPD2    H1 8525   1.185   1.179   0.236 -1.3590 -0.5500 -0.9726
  571MPD2    H2 8526   1.031   0.807   0.379 -3.1360  0.2909  0.2096
  571MPD2    H3 8527   1.155   0.931   0.213 -0.3404  1.1756 -0.3195
  571MPD2     N 8528   1.109   1.328   0.421  0.6920 -0.0021  0.6267
  571MPD2    H5 8529   1.168   1.363   0.346  2.0545 -1.4316  1.0270
  571MPD2    N1 8530   0.934   0.894   0.603  0.3516  0.1667  0.1843
  571MPD2    H7 8531   0.918   0.798   0.574  0.6919  0.6814 -1.7011
  572TMC3    C1 8532   1.108   1.559   0.490  0.1615  0.2473 -0.0645
  572TMC3    C2 8533   1.106   1.646   0.588 -0.2269  0.0429 -0.1273
  572TMC3    C3 8534   1.112   1.780   0.560 -0.2519 -0.4819 -0.4706
  572TMC3    C4 8535   1.092   1.595   0.361  0.3385 -0.7102  0.2523
  572TMC3    C5 8536   1.112   1.727   0.325 -0.1085 -0.1757 -0.3747
  572TMC3    C6 8537   1.116   1.822   0.427 -0.2198  0.2792  0.9773
  572TMC3     C 8538   1.085   1.417   0.525  0.1609 -0.4422 -0.7042
  572TMC3     O 8539   1.027   1.400   0.634 -0.1248  0.0471  0.0312
  572TMC3     H 8540   1.145   1.602   0.679  1.4805 -0.2989 -1.0150
  572TMC3    H1 8541   1.079   1.522   0.283 -1.0481 -0.6150  0.3897
  572TMC3    H2 8542   1.119   1.923   0.389 -5.0012  0.4105  0.9213
  572TMC3    C7 8543   1.136   1.764   0.190 -0.6323  0.1685  0.1152
  572TMC3    C8 8544   1.138   1.878   0.669 -0.2708 -0.4419 -0.0008
  572TMC3    O1 8545   1.088   1.864   0.141 -0.7035  0.1518  0.0320
  572TMC3    O2 8546   1.186   1.985   0.631 -0.1682 -0.5302  0.0206
  573MPD2     C 8547   2.542   0.991   0.266  0.0179 -0.7131 -0.5583
  573MPD2    C1 8548   2.498   1.090   0.185 -0.0760  0.2012 -0.6944
  573MPD2    C2 8549   2.562   1.105   0.062 -0.3966 -0.5613  0.5917
  573MPD2    C3 8550   2.663   1.012   0.014  0.0151 -0.4439 -0.1812
  573MPD2    C4 8551   2.693   0.914   0.086  0.1458 -0.6720  0.0696
  573MPD2    C5 8552   2.649   0.911   0.214  0.0136 -0.4119  0.1816
  573MPD2     H 8553   2.520   1.187   0.004  2.4539  1.9137  2.0541
  573MPD2    H1 8554   2.774   0.843   0.073 -2.6739 -3.6061 -1.7673
  573MPD2    H2 8555   2.504   0.965   0.364 -2.0530 -3.7461 -2.1667
  573MPD2    H3 8556   2.681   0.843   0.292  0.4427  0.1727  0.5214
  573MPD2     N 8557   2.701   1.012  17.609  0.5392 -0.1046  0.4712
  573MPD2    H5 8558   2.749   0.934  17.566  0.5890 -0.7725  1.7412
  573MPD2    N1 8559   2.380   1.156   0.219  0.3759 -0.1811 -0.3207
  573MPD2    H7 8560   2.333   1.136   0.307  1.1208 -0.7692 -0.0550
  574TMC3    C1 8561   2.729   1.113  17.396 -0.2609 -0.2948  0.7171
  574TMC3    C2 8562   2.760   1.232  17.327 -0.1661  0.5178 -0.0474
  574TMC3    C3 8563   2.797   1.214  17.195 -0.0095 -0.0733  0.2975
  574TMC3    C4 8564   2.733   0.986  17.339  0.3135 -0.5084 -1.1419
  574TMC3    C5 8565   2.783   0.973  17.213  0.6353 -0.0119  0.1848
  574TMC3    C6 8566   2.813   1.088  17.139 -0.5876  0.8543 -0.2994
  574TMC3     C 8567   2.693   1.124  17.535  0.1014  0.3272  0.1360
  574TMC3     O 8568   2.660   1.236  17.572 -0.0607 -0.1964 -0.5195
  574TMC3     H 8569   2.745   1.332  17.365  0.3413  0.6240 -0.1203
  574TMC3    H1 8570   2.699   0.905  17.403 -1.0492 -0.0092 -1.2370
  574TMC3    H2 8571   2.860   1.085  17.041 -0.3380 -1.3014 -0.1085
  574TMC3    C7 8572   2.752   0.846  17.147  0.1005  0.6833 -0.3809
  574TMC3    C8 8573   2.765   1.314  17.099 -0.7040  0.2708  0.0238
  574TMC3    O1 8574   2.705   0.763  17.224  0.4453 -0.3038 -0.5976
  574TMC3    O2 8575   2.716   1.276  16.996 -0.3134 -0.0015 -0.2502
  575TMC3    C1 8576   4.723   3.015  11.542  0.0120 -0.3848 -0.7582
  575TMC3    C2 8577   4.637   2.917  11.574 -0.1476  0.3126 -0.0464
  575TMC3    C3 8578   4.558   2.859  11.485 -0.5127  0.0690 -0.7579
  575TMC3    C4 8579   4.708   3.069  11.411 -1.0077 -0.3291  0.0681
  575TMC3    C5 8580   4.630   3.001  11.321  0.6064  0.3089  0.7463
  575TMC3    C6 8581   4.556   2.894  11.358 -0.1234 -0.1607 -0.4100
  575TMC3     C 8582   0.056   3.099  11.647  0.5205  1.3613  0.5193
  575TMC3     O 8583   0.044   3.064  11.764 -0.1789 -0.1576 -0.0468
  575TMC3     H 8584   4.630   2.876  11.675 -0.8610  2.5655  0.8024
  575TMC3    H1 8585   0.005   3.170  11.387  1.9049 -1.3070 -0.2437
  575TMC3    H2 8586   4.477   2.858  11.293  0.9313 -0.7128 -1.3840
  575TMC3    C7 8587   4.643   3.035  11.182 -0.5872 -0.0160 -0.3793
  575TMC3    C8 8588   4.482   2.742  11.526  0.6535  0.9702  0.2236
  575TMC3    O1 8589   4.711   3.131  11.157  0.4728  0.2232 -0.1600
  575TMC3    O2 8590   4.441   2.737  11.643 -0.2118  0.0480 -0.2634
  576MPD2     C 8591   4.226   4.560  12.789  1.1281  0.1750  0.3597
  576MPD2    C1 8592   4.294   4.671  12.736  0.1011  1.2370 -0.4196
  576MPD2    C2 8593   4.260   0.062  12.777  0.0697  0.4544 -0.7045
  576MPD2    C3 8594   4.167   0.080  12.882 -0.1717 -0.4710  0.2995
  576MPD2    C4 8595   4.102   4.705  12.937 -0.9798 -0.6625 -0.5736
  576MPD2    C5 8596   4.131   4.581  12.882 -0.4028  0.7977  0.2736
  576MPD2     H 8597   4.310   0.147  12.733  1.9767 -0.7267 -0.8184
  576MPD2    H1 8598   4.028   4.714  13.016  0.9707 -1.0718  1.3033
  576MPD2    H2 8599   4.244   4.458  12.756 -0.3941  0.2491 -0.6800
  576MPD2    H3 8600   4.079   4.492  12.915  0.5407  0.3749  0.6304
  576MPD2     N 8601   4.151   0.213  12.931 -0.2277  0.4134 -0.1070
  576MPD2    H5 8602   4.199   0.281  12.873 -1.7336  1.5188 -0.0677
  576MPD2    N1 8603   4.397   4.659  12.647 -0.2707 -0.2567 -0.6695
  576MPD2    H7 8604   4.424   0.011  12.601  1.7284 -0.6893 -0.3003
  577TMC3    C1 8605   4.549   4.557  12.500  0.8628 -0.4682 -0.3787
  577TMC3    C2 8606   4.604   4.442  12.460 -0.1315 -0.3461 -0.5371
  577TMC3    C3 8607   4.697   4.447  12.353  0.4670  0.3388 -0.8022
  577TMC3    C4 8608   4.593   4.676  12.455  0.3928 -0.0342 -1.2627
  577TMC3    C5 8609   4.676   4.677  12.350  0.2533 -0.4046 -0.4314
  577TMC3    C6 8610   4.734   4.561  12.298 -0.0841 -0.4088  0.1764
  577TMC3     C 8611   4.451   4.541  12.604  0.5774 -0.7972 -0.1524
  577TMC3     O 8612   4.437   4.429  12.651 -0.0415 -0.3064 -0.4781
  577TMC3     H 8613   4.575   4.346  12.502  0.5561 -0.4905 -0.4038
  577TMC3    H1 8614   4.567   0.034  12.505 -1.0456 -1.8153  1.3139
  577TMC3    H2 8615   0.071   4.565  12.216  0.0413  2.6089  0.4394
  577TMC3    C7 8616   4.711   0.068  12.302 -0.4319  0.2289  0.2624
  577TMC3    C8 8617   0.023   4.323  12.319  0.6482 -0.4524 -0.2426
  577TMC3    O1 8618   4.722   0.157  12.388 -0.3354  0.1822 -0.0457
  577TMC3    O2 8619   4.731   4.227  12.389  0.2326 -0.3014 -0.0966
  578MPD2     C 8620   3.506   3.873   0.530 -0.8566  0.3398 -0.9538
  578MPD2    C1 8621   3.434   3.925   0.633  0.1041 -0.0580 -0.4857
  578MPD2    C2 8622   3.401   3.844   0.746 -0.2976  0.5223  0.3984
  578MPD2    C3 8623   3.439   3.714   0.747 -0.6145  0.4069  0.1020
  578MPD2    C4 8624   3.487   3.660   0.632  0.0601  0.4757  0.0282
  578MPD2    C5 8625   3.533   3.737   0.531  0.2241 -0.1138 -0.5075
  578MPD2     H 8626   3.348   3.883   0.833  0.4453 -1.0624  1.5580
  578MPD2    H1 8627   3.499   3.552   0.629 -1.1182  0.4308 -2.7955
  578MPD2    H2 8628   3.536   3.923   0.439  1.3073  0.0189 -0.4216
  578MPD2    H3 8629   3.568   3.688   0.441 -0.2594 -2.9800  0.8843
  578MPD2     N 8630   3.401   3.648   0.864 -0.3839 -0.0619  0.5437
  578MPD2    H5 8631   3.348   3.702   0.931  0.5489 -0.6686  1.7910
  578MPD2    N1 8632   3.403   4.065   0.631  0.0390  0.2281 -0.1912
  578MPD2    H7 8633   3.442   4.113   0.550  2.3460  1.1316  1.4410
  579TMC3    C1 8634   3.396   3.479   1.034  0.6378  0.3030  0.3685
  579TMC3    C2 8635   3.334   3.570   1.113  0.6875 -0.8041 -0.3996
  579TMC3    C3 8636   3.296   3.530   1.238  0.1342 -0.4462  0.7033
  579TMC3    C4 8637   3.433   3.355   1.080  1.1336 -1.1805  0.1148
  579TMC3    C5 8638   3.387   3.312   1.204  0.3087  0.6347 -0.9913
  579TMC3    C6 8639   3.311   3.399   1.283 -0.2322 -0.8543 -0.2615
  579TMC3     C 8640   3.438   3.517   0.900 -0.5570  0.2552  0.0675
  579TMC3     O 8641   3.503   3.431   0.832 -0.4527 -0.1404  0.2301
  579TMC3     H 8642   3.305   3.669   1.081 -0.2761 -1.7909 -2.5849
  579TMC3    H1 8643   3.497   3.296   1.015 -1.8429 -2.6348 -1.4785
  579TMC3    H2 8644   3.277   3.369   1.381  1.7486  1.0917  1.0136
  579TMC3    C7 8645   3.391   3.172   1.241 -0.3886 -0.6563 -0.0505
  579TMC3    C8 8646   3.257   3.624   1.340 -0.0132 -0.0515 -0.1889
  579TMC3    O1 8647   3.388   3.088   1.153 -0.1496  0.0582 -0.3658
  579TMC3    O2 8648   3.190   3.585   1.436 -0.3212  0.3896 -0.4482
  580TMC3    C1 8649   2.583   3.825  12.557 -0.1052 -0.2374 -0.1711
  580TMC3    C2 8650   2.683   3.868  12.475 -0.1398  0.0905 -0.3667
  580TMC3    C3 8651   2.782   3.783  12.428 -0.0645 -0.4849 -0.0153
  580TMC3    C4 8652   2.581   3.692  12.598  0.1065  0.8132 -0.1166
  580TMC3    C5 8653   2.678   3.617  12.546  0.0334 -0.3193 -0.6229
  580TMC3    C6 8654   2.782   3.655  12.460 -0.4678 -0.1788  0.1609
  580TMC3     C 8655   2.459   3.885  12.521  0.0676 -0.7492  1.0169
  580TMC3     O 8656   2.460   3.991  12.455  0.4995 -0.6020 -0.2067
  580TMC3     H 8657   2.691   3.976  12.465  0.2661  0.1692  0.8096
  580TMC3    H1 8658   2.501   3.651  12.659  1.1555 -1.6736 -0.4020
  580TMC3    H2 8659   2.852   3.591  12.408  0.3520 -0.4401  1.5945
  580TMC3    C7 8660   2.664   3.475  12.576  0.1240  0.2333 -0.0475
  580TMC3    C8 8661   2.877   3.845  12.335 -0.9060 -0.0173 -0.8885
  580TMC3    O1 8662   2.628   3.434  12.687 -0.0025 -0.2439 -0.7438
  580TMC3    O2 8663   2.902   3.963  12.352 -0.2345  0.0651 -0.3346
  581MPD2     C 8664   0.577   3.312  14.687 -0.2366  0.1106 -0.1395
  581MPD2    C1 8665   0.529   3.334  14.815 -1.1868  0.0302 -0.0457
  581MPD2    C2 8666   0.397   3.367  14.835  0.7783  0.0770 -0.3957
  581MPD2    C3 8667   0.310   3.382  14.729 -0.5855 -0.9254 -0.2620
  581MPD2    C4 8668   0.357   3.340  14.603  0.0340  0.5107 -0.0779
  581MPD2    C5 8669   0.485   3.313  14.582  0.3249 -0.1085  0.7005
  581MPD2     H 8670   0.363   3.380  14.937 -1.2510 -1.0562 -0.9319
  581MPD2    H1 8671   0.290   3.336  14.517 -0.4919  0.2651  0.3475
  581MPD2    H2 8672   0.677   3.273  14.667  0.4097  1.2448  0.9047
  581MPD2    H3 8673   0.524   3.275  14.488  0.4428 -3.5560  2.1259
  581MPD2     N 8674   0.172   3.408  14.759 -0.0757 -0.8643  0.4425
  581MPD2    H5 8675   0.140   3.406  14.856 -1.5664  1.1760  0.0002
  581MPD2    N1 8676   0.619   3.294  14.916 -0.3511  0.1434  0.1074
  581MPD2    H7 8677   0.715   3.268  14.895 -0.4559 -1.2597  1.3710
  582TMC3    C1 8678   0.678   3.210  15.129 -0.4687 -0.2211  0.0860
  582TMC3    C2 8679   0.651   3.204  15.264 -0.1650  0.0995  0.1394
  582TMC3    C3 8680   0.687   3.094  15.331 -0.3723  0.0446 -0.4893
  582TMC3    C4 8681   0.725   3.099  15.061  0.5750  0.0060  0.6856
  582TMC3    C5 8682   0.735   2.986  15.133 -0.0465  0.2930  0.0033
  582TMC3    C6 8683   0.726   2.982  15.269 -0.0316 -0.2644 -0.5600
  582TMC3     C 8684   0.591   3.303  15.050  0.2023 -0.1430 -0.1453
  582TMC3     O 8685   0.505   3.360  15.116  0.5070 -0.0879 -0.2412
  582TMC3     H 8686   0.621   3.299  15.307  1.1605 -0.0043  1.2873
  582TMC3    H1 8687   0.759   3.102  14.958 -0.6396  1.2703  0.3250
  582TMC3    H2 8688   0.726   2.886  15.320  0.7297 -0.0039 -0.0542
  582TMC3    C7 8689   0.762   2.862  15.064 -0.2104 -0.2754 -0.3741
  582TMC3    C8 8690   0.672   3.090  15.477 -0.6291 -0.0910 -0.6479
  582TMC3    O1 8691   0.832   2.789  15.133 -0.3207 -0.2860 -0.1345
  582TMC3    O2 8692   0.591   3.169  15.523 -0.8032  0.1956 -0.4415
  583MPD2     C 8693   0.518   4.237  16.697  0.5110  0.4061 -0.3029
  583MPD2    C1 8694   0.516   4.356  16.634  0.2383 -0.4943  0.0725
  583MPD2    C2 8695   0.455   4.460  16.693 -0.6596  0.2767 -0.5338
  583MPD2    C3 8696   0.393   4.449  16.817 -0.0978 -0.0571 -0.2962
  583MPD2    C4 8697   0.394   4.319  16.875  0.0862 -0.1142  0.1855
  583MPD2    C5 8698   0.462   4.216  16.815  0.7314 -0.0267  0.1163
  583MPD2     H 8699   0.457   4.557  16.644  0.3058 -0.8587 -2.7231
  583MPD2    H1 8700   0.356   4.303  16.975 -3.5268 -2.1467 -1.5134
  583MPD2    H2 8701   0.558   4.149  16.648 -0.7850 -0.3458 -0.0163
  583MPD2    H3 8702   0.449   4.118  16.859  0.7248 -0.1853 -0.2460
  583MPD2     N 8703   0.339   4.563  16.875 -0.1281  0.2550 -0.1250
  583MPD2    H5 8704   0.343   4.641  16.809 -4.0050 -0.3860 -1.1087
  583MPD2    N1 8705   0.576   4.375  16.513  0.1231  0.0163 -0.0276
  583MPD2    H7 8706   0.575   4.468  16.471  0.6268 -0.1455 -0.3989
  584TMC3    C1 8707   0.257   4.710  17.045  0.2823 -0.6784  0.6803
  584TMC3    C2 8708   0.205   0.064  16.960  0.3789 -0.5407 -0.4467
  584TMC3    C3 8709   0.163   0.187  17.008  0.0634 -0.5193  0.6801
  584TMC3    C4 8710   0.253   4.728  17.180  0.9679  0.4527  0.2867
  584TMC3    C5 8711   0.192   0.106  17.229  0.4432 -0.0165  0.0408
  584TMC3    C6 8712   0.151   0.211  17.146 -0.2002 -0.4782  0.0014
  584TMC3     C 8713   0.289   4.573  17.003 -0.0398  0.1137 -0.2596
  584TMC3     O 8714   0.280   4.493  17.091 -0.2955  0.2513  0.1962
  584TMC3     H 8715   0.199   0.049  16.853  4.0252 -0.8544 -0.5943
  584TMC3    H1 8716   0.294   4.657  17.252 -0.9194  0.7752  1.6874
  584TMC3    H2 8717   0.119   0.304  17.193  2.4190 -0.2965  1.4215
  584TMC3    C7 8718   0.167   0.109  17.365 -0.0009  0.5893 -0.2673
  584TMC3    C8 8719   0.115   0.292  16.921  0.4554 -0.2422 -0.7097
  584TMC3    O1 8720   0.192   0.005  17.425  0.1303  1.2660 -0.6516
  584TMC3    O2 8721   0.081   0.257  16.808  0.2057  0.3918 -0.1412
  585MPD2     C 8722   3.969   3.888   0.706 -1.4069 -0.2700 -0.2332
  585MPD2    C1 8723   4.099   3.858   0.669 -0.1797 -0.9254 -0.5025
  585MPD2    C2 8724   4.128   3.741   0.601 -0.0516  0.0739  0.5108
  585MPD2    C3 8725   4.024   3.652   0.564 -0.4245  1.0418  0.1422
  585MPD2    C4 8726   3.901   3.682   0.602  0.3474 -0.5524 -0.5759
  585MPD2    C5 8727   3.875   3.799   0.672  0.8514 -0.3193 -0.0874
  585MPD2     H 8728   4.228   3.725   0.562 -0.4995  0.8272 -0.9394
  585MPD2    H1 8729   3.817   3.615   0.585  0.9619 -0.6931 -3.0412
  585MPD2    H2 8730   3.936   3.982   0.747 -1.4533 -0.4169  0.0669
  585MPD2    H3 8731   3.772   3.824   0.693  1.2474 -0.3088  1.8742
  585MPD2     N 8732   4.042   3.531   0.485  0.6134 -0.3149  0.5802
  585MPD2    H5 8733   3.961   3.481   0.449  1.5357 -1.8721  0.6635
  585MPD2    N1 8734   4.188   3.963   0.697  0.1481  0.1172  0.3945
  585MPD2    H7 8735   4.150   4.052   0.726  0.7442  0.8784 -1.2007
  586TMC3    C1 8736   4.163   3.403   0.330 -0.4922 -0.6321 -0.4068
  586TMC3    C2 8737   4.289   3.409   0.258  0.1805  0.2352 -0.4383
  586TMC3    C3 8738   4.296   3.358   0.130  0.2579 -0.4576  0.4428
  586TMC3    C4 8739   4.047   3.375   0.264 -0.3710 -0.5198  0.0079
  586TMC3    C5 8740   4.059   3.328   0.134  0.5284  0.6521  0.7656
  586TMC3    C6 8741   4.184   3.327   0.062  0.1210 -0.6622 -1.2093
  586TMC3     C 8742   4.162   3.479   0.453  0.1363 -0.0198 -0.6858
  586TMC3     O 8743   4.269   3.516   0.499 -0.3422  0.4093 -0.3423
  586TMC3     H 8744   4.380   3.434   0.311 -0.5384 -1.1007  1.4303
  586TMC3    H1 8745   3.947   3.373   0.307 -0.9808 -0.0793 -1.3701
  586TMC3    H2 8746   4.180   3.289  17.697  1.1827  1.1523 -1.9252
  586TMC3    C7 8747   3.947   3.334   0.039  0.4357  0.6015 -0.5930
  586TMC3    C8 8748   4.411   3.396   0.050 -0.1731  0.0217 -0.2142
  586TMC3    O1 8749   3.843   3.275   0.071  0.4855 -0.9090  0.3254
  586TMC3    O2 8750   4.466   3.504   0.070 -0.7036  0.3966  0.4063
  587TMC3    C1 8751   2.362   2.318  16.482 -0.3676 -0.0171 -0.0396
  587TMC3    C2 8752   2.298   2.420  16.412 -0.5310 -0.5228 -0.4352
  587TMC3    C3 8753   2.353   2.544  16.420 -0.3846 -0.3886  0.5702
  587TMC3    C4 8754   2.476   2.342  16.555  0.2258  0.0117 -0.2448
  587TMC3    C5 8755   2.530   2.466  16.552  0.3763  0.2344 -0.3855
  587TMC3    C6 8756   2.461   2.571  16.497  0.2555 -0.0388  0.2625
  587TMC3     C 8757   2.287   2.194  16.498 -0.1903 -0.4845 -0.2120
  587TMC3     O 8758   2.352   2.089  16.509  0.3684 -0.0275 -0.5593
  587TMC3     H 8759   2.213   2.406  16.346 -0.4592 -0.5352 -0.5253
  587TMC3    H1 8760   2.533   2.258  16.592  1.7320 -0.0263 -2.6931
  587TMC3    H2 8761   2.500   2.672  16.504 -1.8914  0.8477 -0.4468
  587TMC3    C7 8762   2.663   2.493  16.604 -0.5103 -0.8241  0.4934
  587TMC3    C8 8763   2.270   2.650  16.379  0.4808 -0.3004  0.4017
  587TMC3    O1 8764   2.723   2.584  16.545 -0.4434 -0.5290  0.0825
  587TMC3    O2 8765   2.331   2.712  16.293 -0.6528 -0.3419  0.5192
  588TMC3    C1 8766   4.035   0.532  10.049 -0.5453  0.0036 -0.2615
  588TMC3    C2 8767   3.985   0.405  10.021 -1.1986  0.6709  0.6736
  588TMC3    C3 8768   4.063   0.300  10.052 -0.4809  0.4104  0.6313
  588TMC3    C4 8769   4.156   0.541  10.105  0.6044 -0.3688 -0.4201
  588TMC3    C5 8770   4.218   0.432  10.154  0.2047 -0.1571  1.2591
  588TMC3    C6 8771   4.175   0.307  10.124  0.1350 -0.0133  0.0742
  588TMC3     C 8772   3.965   0.654   9.994  0.1070 -0.7448 -0.5563
  588TMC3     O 8773   3.864   0.643   9.922  0.4943  0.0832  0.1492
  588TMC3     H 8774   3.884   0.399   9.981 -0.5280 -0.0323 -0.9189
  588TMC3    H1 8775   4.208   0.636  10.106 -1.0020  0.5372 -3.4180
  588TMC3    H2 8776   4.245   0.228  10.150 -0.7254  0.1305  2.8419
  588TMC3    C7 8777   4.351   0.458  10.209 -0.5492 -0.4250  0.3516
  588TMC3    C8 8778   4.009   0.172  10.012  0.3273  0.6216 -0.2488
  588TMC3    O1 8779   4.448   0.388  10.173  0.5182  0.2402  0.1796
  588TMC3    O2 8780   3.919   0.185   9.928  0.1767 -0.0871  0.0497
  589TMC3    C1 8781   3.700   1.692   0.691  0.1530  0.2104  0.1786
  589TMC3    C2 8782   3.817   1.647   0.752  0.4323  0.0751  0.3526
  589TMC3    C3 8783   3.839   1.510   0.761 -0.0058 -0.3939  0.7725
  589TMC3    C4 8784   3.615   1.607   0.627  0.2060 -0.0863  0.1603
  589TMC3    C5 8785   3.646   1.473   0.629 -0.8604 -0.0343 -0.2078
  589TMC3    C6 8786   3.752   1.427   0.704 -0.6687  0.5954  0.3127
  589TMC3     C 8787   3.654   1.829   0.718  0.6939  0.4513 -0.6701
  589TMC3     O 8788   3.743   1.912   0.727 -0.5223  0.3219  0.1351
  589TMC3     H 8789   3.878   1.717   0.808  0.7099  0.5954 -0.5919
  589TMC3    H1 8790   3.525   1.635   0.574  0.3175  0.3416  0.1917
  589TMC3    H2 8791   3.767   1.320   0.715 -1.7702  0.2471 -1.5491
  589TMC3    C7 8792   3.598   1.386   0.529 -0.5087  0.1681 -0.3703
  589TMC3    C8 8793   3.912   1.474   0.878  0.1271 -0.1528  0.4973
  589TMC3    O1 8794   3.640   1.271   0.530  0.5227 -0.2418  0.4370
  589TMC3    O2 8795   3.857   1.394   0.954 -0.2497 -0.1846 -0.1936
  590MPD2     C 8796   2.582   0.467  16.308 -0.8385 -0.6224 -0.1401
  590MPD2    C1 8797   2.531   0.542  16.200  0.1260  0.4800 -0.8481
  590MPD2    C2 8798   2.625   0.617  16.127  0.5608  0.2327 -0.2975
  590MPD2    C3 8799   2.759   0.622  16.151  0.4356 -0.0910  0.4153
  590MPD2    C4 8800   2.806   0.540  16.251 -0.0703  0.2644  0.6250
  590MPD2    C5 8801   2.718   0.465  16.330  0.6228 -0.1932 -0.8924
  590MPD2     H 8802   2.585   0.681  16.049 -0.0586 -0.0194 -0.1900
  590MPD2    H1 8803   2.912   0.544  16.273 -0.1346 -0.9885  1.1485
  590MPD2    H2 8804   2.512   0.429  16.382  0.6695  2.3155  2.7845
  590MPD2    H3 8805   2.762   0.419  16.418 -3.2667  2.7660  2.5613
  590MPD2     N 8806   2.831   0.720  16.078  0.2745 -0.5773  0.3589
  590MPD2    H5 8807   2.791   0.786  16.013  0.5483 -1.9757 -1.2304
  590MPD2    N1 8808   2.391   0.550  16.174 -0.4483 -0.4986  0.0066
  590MPD2    H7 8809   2.334   0.515  16.251 -1.9160  1.7228 -0.0649
  591TMC3    C1 8810   3.006   0.848  16.000  0.1518 -0.0351 -0.3245
  591TMC3    C2 8811   3.140   0.854  15.965  0.7963  0.0234 -0.6126
  591TMC3    C3 8812   3.181   0.941  15.873  0.6438 -0.4456 -0.5546
  591TMC3    C4 8813   2.915   0.937  15.945  0.4775  0.1122 -0.1666
  591TMC3    C5 8814   2.964   1.030  15.853 -0.9208 -0.6708 -0.3571
  591TMC3    C6 8815   3.094   1.028  15.809 -0.3022  0.1814  0.1469
  591TMC3     C 8816   2.964   0.739  16.085  0.5371 -0.8822 -0.4843
  591TMC3     O 8817   3.055   0.680  16.142 -0.0686  0.9303 -0.0670
  591TMC3     H 8818   3.207   0.774  15.996 -0.8771 -0.5546  1.5346
  591TMC3    H1 8819   2.808   0.932  15.962  0.5508 -0.6824  0.0421
  591TMC3    H2 8820   3.117   1.103  15.734 -1.6968  1.5275  1.0485
  591TMC3    C7 8821   2.862   1.104  15.769  0.0764 -0.6211  0.9214
  591TMC3    C8 8822   3.311   0.917  15.810  0.0579 -0.4069  0.4028
  591TMC3    O1 8823   2.752   1.056  15.756 -0.1415 -0.1769 -0.1756
  591TMC3    O2 8824   3.407   0.872  15.873 -0.3345  0.2228 -0.3782
  592MPD2     C 8825   3.376   3.232  11.329  0.7280 -0.0782 -0.5121
  592MPD2    C1 8826   3.381   3.254  11.465 -0.2897 -0.3475 -0.7666
  592MPD2    C2 8827   3.292   3.191  11.543  0.0194  0.8377 -0.5713
  592MPD2    C3 8828   3.180   3.131  11.491 -0.1080 -0.7445 -0.6600
  592MPD2    C4 8829   3.170   3.123  11.354 -0.1606 -0.5957  0.0653
  592MPD2    C5 8830   3.268   3.168  11.273 -0.7266  0.0378 -0.1326
  592MPD2     H 8831   3.307   3.193  11.650  1.7452 -0.2381 -0.7924
  592MPD2    H1 8832   3.083   3.078  11.308  0.6064 -2.1936  0.1755
  592MPD2    H2 8833   3.449   3.276  11.263 -0.5343  1.0133 -1.1925
  592MPD2    H3 8834   3.247   3.173  11.167  0.4300  3.7673 -0.1797
  592MPD2     N 8835   3.085   3.070  11.578  0.0769 -0.3650  0.3510
  592MPD2    H5 8836   3.114   3.070  11.676  1.5328  3.0204 -0.0549
  592MPD2    N1 8837   3.493   3.332  11.515 -0.0044  0.0042  0.3772
  592MPD2    H7 8838   3.553   3.370  11.443 -0.4418 -0.5400 -0.2742
  593TMC3    C1 8839   3.597   3.495  11.657 -0.1546 -0.4188 -0.5992
  593TMC3    C2 8840   3.579   3.576  11.763 -0.0373  0.0847  0.4800
  593TMC3    C3 8841   3.671   3.679  11.776  0.5369  0.3090 -0.1821
  593TMC3    C4 8842   3.701   3.511  11.571  0.0985  0.8454 -0.6709
  593TMC3    C5 8843   3.786   3.617  11.590  0.3590 -0.1742 -0.2268
  593TMC3    C6 8844   3.773   3.707  11.688  0.1829  0.0648 -0.5514
  593TMC3     C 8845   3.499   3.389  11.642  0.2823 -0.1582 -0.7453
  593TMC3     O 8846   3.415   3.389  11.728  0.8415 -0.7596 -0.4503
  593TMC3     H 8847   3.493   3.558  11.826 -0.5438  2.2887  0.4256
  593TMC3    H1 8848   3.714   3.438  11.491  2.2976  0.2237  0.2616
  593TMC3    H2 8849   3.845   3.787  11.694 -0.3922  0.4149  1.6493
  593TMC3    C7 8850   3.902   3.618  11.509  0.2837  0.3428 -0.2948
  593TMC3    C8 8851   3.659   3.761  11.890  0.1050  1.1643 -0.7238
  593TMC3    O1 8852   4.003   3.667  11.555  0.0817  0.6325  0.0513
  593TMC3    O2 8853   3.547   3.750  11.941 -0.3044  0.2618 -0.7581
  594MPD2     C 8854   2.388   1.694  14.439  0.0369  0.2289  0.0613
  594MPD2    C1 8855   2.294   1.792  14.433  0.2221 -0.1048 -0.3977
  594MPD2    C2 8856   2.304   1.894  14.338 -0.9312  0.2524  0.1523
  594MPD2    C3 8857   2.422   1.910  14.273 -0.3544  0.0823 -0.5571
  594MPD2    C4 8858   2.523   1.823  14.299  0.1773 -0.8000 -0.9095
  594MPD2    C5 8859   2.502   1.711  14.372 -0.1321 -0.1501  0.0286
  594MPD2     H 8860   2.212   1.949  14.327 -0.9002  0.3406  0.3374
  594MPD2    H1 8861   2.622   1.832  14.255  0.5774 -0.0122  0.1656
  594MPD2    H2 8862   2.383   1.612  14.511 -2.0389  0.0210 -0.3376
  594MPD2    H3 8863   2.581   1.641  14.397 -0.0648  0.5355  1.7847
  594MPD2     N 8864   2.434   2.023  14.196  0.0715 -0.7591 -0.2188
  594MPD2    H5 8865   2.366   2.098  14.200 -0.7474 -1.4845 -0.5741
  594MPD2    N1 8866   2.197   1.785  14.539 -0.8503  0.2309 -0.2741
  594MPD2    H7 8867   2.201   1.706  14.603 -1.4745  0.0061 -0.5097
  595TMC3    C1 8868   2.763   2.330  14.103  0.3638 -0.6846  0.4806
  595TMC3    C2 8869   2.707   2.215  14.056 -0.7046 -0.5119 -0.2273
  595TMC3    C3 8870   2.570   2.193  14.088  0.4147 -0.1537 -0.0884
  595TMC3    C4 8871   2.704   2.413  14.189  0.1009 -0.8545 -0.0458
  595TMC3    C5 8872   2.578   2.379  14.237  0.2058 -0.0325  0.1743
  595TMC3    C6 8873   2.509   2.282  14.174  0.3215  0.0001  0.9227
  595TMC3     C 8874   2.895   2.365  14.054  0.2036 -0.2061  0.2270
  595TMC3     O 8875   2.940   2.464  14.102 -0.3829 -0.3723  0.9500
  595TMC3     H 8876   2.768   2.148  13.996  2.0083  0.4002  1.5322
  595TMC3    H1 8877   2.756   2.502  14.224  3.6081 -3.4863  1.4609
  595TMC3    H2 8878   2.401   2.278  14.182  0.1121  1.8845 -0.9636
  595TMC3    C7 8879   2.496   2.467  14.318  0.6662 -0.5266  0.4249
  595TMC3    C8 8880   2.545   2.054  14.112  0.2831 -0.8104 -0.3787
  595TMC3    O1 8881   2.384   2.489  14.274  0.2938 -0.4713  0.0886
  595TMC3    O2 8882   2.645   1.983  14.092 -0.5546  0.5562 -0.2030
  596MPD2     C 8883   1.308   4.570  16.670 -0.4709 -0.2007 -0.5178
  596MPD2    C1 8884   1.272   4.684  16.599 -0.0018  0.4497  0.3498
  596MPD2    C2 8885   1.308   4.690  16.468 -0.1356  0.0660 -0.8026
  596MPD2    C3 8886   1.365   4.586  16.399  0.4324  0.2032 -0.7273
  596MPD2    C4 8887   1.402   4.476  16.472 -0.3307 -0.2850  0.1573
  596MPD2    C5 8888   1.369   4.464  16.607  0.4656  0.6665  0.2151
  596MPD2     H 8889   1.278   0.050  16.422 -1.0357 -0.0414 -0.4447
  596MPD2    H1 8890   1.439   4.387  16.422  0.3106  1.6208 -2.7834
  596MPD2    H2 8891   1.278   4.562  16.773  0.9501  0.5235 -0.0402
  596MPD2    H3 8892   1.386   4.369  16.658  0.4833  0.5744  0.0377
  596MPD2     N 8893   1.379   4.586  16.258 -0.0378 -0.0728 -0.3837
  596MPD2    H5 8894   1.395   4.497  16.211  0.7502 -0.9128  1.4707
  596MPD2    N1 8895   1.229   0.064  16.662  0.9376  0.0446 -0.8765
  596MPD2    H7 8896   1.264   0.151  16.622  1.1592 -0.0598 -0.9078
  597TMC3    C1 8897   1.105   0.197  16.821  0.1515  0.1000 -1.3486
  597TMC3    C2 8898   1.126   0.314  16.743 -0.4114  0.0020  0.1487
  597TMC3    C3 8899   1.067   0.428  16.791  0.1261 -0.0697 -0.0705
  597TMC3    C4 8900   1.016   0.200  16.928  0.3160  0.3336 -0.0768
  597TMC3    C5 8901   0.959   0.313  16.967 -0.0641  0.2772 -0.5202
  597TMC3    C6 8902   0.988   0.431  16.901 -0.0072 -0.1325 -0.0393
  597TMC3     C 8903   1.143   0.068  16.768  0.3034  0.1962  0.6549
  597TMC3     O 8904   1.080   4.707  16.816 -0.2431 -0.3424  0.4795
  597TMC3     H 8905   1.194   0.309  16.659  0.4370 -0.6530  0.8639
  597TMC3    H1 8906   0.992   0.107  16.978  0.2347  0.7927  0.7303
  597TMC3    H2 8907   0.925   0.517  16.920 -0.3663  0.0350 -1.9596
  597TMC3    C7 8908   0.872   0.313  17.081  0.3558  0.3180  0.0050
  597TMC3    C8 8909   1.101   0.557  16.734  0.1290 -0.2645 -0.2211
  597TMC3    O1 8910   0.823   0.205  17.108 -0.1018 -0.0374  0.2109
  597TMC3    O2 8911   1.039   0.655  16.771  0.8177 -0.1101 -0.7885
  598TMC3    C1 8912   4.437   1.864  15.361  0.0079 -0.1216 -0.1130
  598TMC3    C2 8913   4.320   1.793  15.388  0.2647 -0.2886  0.8169
  598TMC3    C3 8914   4.229   1.806  15.284  0.0467 -0.1172  0.4248
  598TMC3    C4 8915   4.464   1.926  15.244  0.4031 -0.4491  0.2415
  598TMC3    C5 8916   4.376   1.926  15.140 -0.1903 -0.2307  0.3911
  598TMC3    C6 8917   4.256   1.862  15.157 -0.1918  0.2393  0.2623
  598TMC3     C 8918   4.537   1.861  15.468  0.4964  0.3994  0.2338
  598TMC3     O 8919   4.650   1.902  15.443 -0.2512 -0.0832  0.0286
  598TMC3     H 8920   4.295   1.728  15.471  1.1392  0.9011  2.0126
  598TMC3    H1 8921   4.563   1.969  15.234 -0.2338  0.8701 -0.4666
  598TMC3    H2 8922   4.173   1.874  15.089 -1.9686 -1.6015  2.1092
  598TMC3    C7 8923   4.399   1.975  15.004 -0.8080  0.1339 -0.0803
  598TMC3    C8 8924   4.118   1.711  15.288  0.0028  0.7457 -0.9046
  598TMC3    O1 8925   4.324   1.917  14.926  0.2285 -0.0853  0.6068
  598TMC3    O2 8926   4.089   1.669  15.396  0.0021 -0.0267 -0.1625
  599MPD2     C 8927   3.716   3.582  15.534 -1.1523  0.5263  0.2461
  599MPD2    C1 8928   3.839   3.630  15.579 -1.0995  0.0314 -0.1012
  599MPD2    C2 8929   3.844   3.686  15.706  0.3910  0.6029  0.2020
  599MPD2    C3 8930   3.718   3.694  15.778 -0.2728  0.0797  0.1417
  599MPD2    C4 8931   3.598   3.644  15.732  0.4252  0.2474 -0.3261
  599MPD2    C5 8932   3.607   3.590  15.606  0.3709  0.0285 -0.3196
  599MPD2     H 8933   3.937   3.707  15.757 -0.4324  1.2121  1.4669
  599MPD2    H1 8934   3.505   3.628  15.786  1.2938  0.5942  1.2720
  599MPD2    H2 8935   3.702   3.524  15.444 -0.9293  1.5922 -0.4822
  599MPD2    H3 8936   3.518   3.536  15.578  0.4946 -0.1533 -0.3604
  599MPD2     N 8937   3.709   3.744  15.914  0.1104  0.3568  0.4239
  599MPD2    H5 8938   3.616   3.750  15.954  0.2459  0.9768  0.6516
  599MPD2    N1 8939   3.949   3.617  15.500 -0.3849 -0.3307  0.6532
  599MPD2    H7 8940   3.948   3.562  15.415 -3.0660  2.0994 -0.8910
  600TMC3    C1 8941   3.769   3.785  16.134  0.2497  0.0838 -0.4332
  600TMC3    C2 8942   3.677   3.696  16.181 -0.0966 -0.1138  0.0170
  600TMC3    C3 8943   3.661   3.687  16.314 -0.7143  0.6219  0.3200
  600TMC3    C4 8944   3.844   3.869  16.207 -0.9269 -0.3323  0.0471
  600TMC3    C5 8945   3.827   3.850  16.340 -0.2902 -0.2604  0.3808
  600TMC3    C6 8946   3.734   3.763  16.396  0.5983 -0.4490  0.1514
  600TMC3     C 8947   3.810   3.782  15.998 -0.7650 -0.4125 -0.0648
  600TMC3     O 8948   3.922   3.830  15.969  0.5100  0.4486  0.0282
  600TMC3     H 8949   3.616   3.634  16.117 -0.6548 -0.4984  0.9129
  600TMC3    H1 8950   3.896   3.951  16.160  1.7916 -2.6729 -1.0271
  600TMC3    H2 8951   3.720   3.752  16.503  1.8437  0.8660  0.4444
  600TMC3    C7 8952   3.827   3.976  16.415  0.2216  0.1578  0.1074
  600TMC3    C8 8953   3.594   3.572  16.379 -0.7273  0.4607 -0.3225
  600TMC3    O1 8954   3.748   3.972  16.505  1.2129 -0.8744 -0.1958
  600TMC3    O2 8955   3.642   3.546  16.489 -0.2298 -0.3791  0.0611
  601MPD2     C 8956   1.312   1.612  17.455  0.2442 -0.2363  0.9757
  601MPD2    C1 8957   1.217   1.701  17.486  0.1496  0.4112 -0.1943
  601MPD2    C2 8958   1.190   1.722  17.622 -0.8981  0.4260 -0.1759
  601MPD2    C3 8959   1.252   1.651  17.728 -0.4240 -0.2232 -0.5492
  601MPD2    C4 8960   1.346   1.554  17.684  0.1499 -0.3225 -0.1809
  601MPD2    C5 8961   1.370   1.531  17.552 -0.7150 -0.0375 -0.2063
  601MPD2     H 8962   1.121   1.801  17.648 -1.8098 -0.7794  1.0677
  601MPD2    H1 8963   1.403   1.505   0.027 -1.7783 -1.3463  0.5843
  601MPD2    H2 8964   1.347   1.593  17.354  1.5575 -0.8995  1.5512
  601MPD2    H3 8965   1.443   1.458  17.518 -1.2357 -0.7500  0.2276
  601MPD2     N 8966   1.224   1.666   0.133  0.2244  0.0979  1.2601
  601MPD2    H5 8967   1.278   1.610   0.198 -0.0957  1.1415  2.4160
  601MPD2    N1 8968   1.169   1.778  17.382  0.1502  0.3202 -0.1528
  601MPD2    H7 8969   1.222   1.771  17.296 -2.1483 -2.4117 -1.3564
  602TMC3    C1 8970   1.058   1.969  17.291 -0.0437  0.5391  0.3297
  602TMC3    C2 8971   1.167   2.016  17.232 -0.0359 -0.0486  0.0913
  602TMC3    C3 8972   1.159   2.139  17.175 -0.5665  0.8797  0.1761
  602TMC3    C4 8973   0.939   2.034  17.281  0.4396 -0.2986  0.9822
  602TMC3    C5 8974   0.935   2.159  17.212  0.4019  0.3233  0.2883
  602TMC3    C6 8975   1.048   2.221  17.170 -0.0376  0.2521 -0.2115
  602TMC3     C 8976   1.060   1.860  17.386  0.2697 -0.2528 -0.1156
  602TMC3     O 8977   0.976   1.856  17.476  0.2554 -0.0337 -0.3273
  602TMC3     H 8978   1.258   1.958  17.229  1.4477  2.2216  1.6746
  602TMC3    H1 8979   0.843   1.999  17.318 -0.3593  1.2185  0.3516
  602TMC3    H2 8980   1.047   2.322  17.131 -1.6039 -0.6373 -2.5424
  602TMC3    C7 8981   0.806   2.201  17.154  0.0794 -0.5384 -0.4645
  602TMC3    C8 8982   1.275   2.176  17.093 -0.7330  0.2047  0.3167
  602TMC3    O1 8983   0.704   2.182  17.221  0.5963 -0.6773  0.5604
  602TMC3    O2 8984   1.381   2.112  17.103 -0.0448 -0.5303 -0.3622
  603TMC3    C1 8985   3.986   2.867  11.478  0.2137 -0.0891 -0.2568
  603TMC3    C2 8986   3.985   2.878  11.613  0.0577 -0.9475  0.5425
  603TMC3    C3 8987   4.103   2.920  11.662 -0.5126  0.2826 -0.2887
  603TMC3    C4 8988   4.091   2.891  11.395 -0.7415 -0.4821  0.1893
  603TMC3    C5 8989   4.212   2.933  11.452  0.0339 -0.6861 -0.4674
  603TMC3    C6 8990   4.215   2.954  11.589 -0.1469 -0.0637  0.3566
  603TMC3     C 8991   3.879   2.801  11.413  0.1309 -0.0167 -0.2028
  603TMC3     O 8992   3.910   2.724  11.320 -0.1276  0.3838  0.0516
  603TMC3     H 8993   3.898   2.851  11.672 -0.5645 -0.1174  0.0142
  603TMC3    H1 8994   4.077   2.873  11.289 -2.2687  1.9876 -0.0350
  603TMC3    H2 8995   4.298   3.007  11.635  1.0351 -0.5276 -1.2434
  603TMC3    C7 8996   4.275   3.034  11.365 -0.9806 -0.7203 -0.4725
  603TMC3    C8 8997   4.117   2.881  11.806 -0.7400  0.1793  0.2981
  603TMC3    O1 8998   4.325   3.131  11.419  0.1579  0.3784  0.4099
  603TMC3    O2 8999   4.037   2.803  11.848  0.1625 -0.4999  0.6156
  604MPD2     C 9000   4.715   0.855  16.218  0.7845  0.5945 -0.2991
  604MPD2    C1 9001   0.032   0.981  16.193 -0.4568 -0.6122  0.2516
  604MPD2    C2 9002   0.112   0.991  16.077 -0.4395  0.5679 -0.6211
  604MPD2    C3 9003   0.130   0.883  15.992 -0.0464  0.4864 -0.3313
  604MPD2    C4 9004   0.074   0.762  16.024  0.7071  0.1298  0.9235
  604MPD2    C5 9005   0.001   0.742  16.140  0.2648  0.8419 -0.1186
  604MPD2     H 9006   0.159   1.083  16.047 -0.4555  0.8831  0.3073
  604MPD2    H1 9007   0.078   0.680  15.953 -2.6561  0.2321  0.6128
  604MPD2    H2 9008   4.645   0.851  16.300  2.4365 -1.9344  0.9851
  604MPD2    H3 9009   4.681   0.651  16.161  0.9995  0.3573 -0.3420
  604MPD2     N 9010   0.201   0.909  15.876 -0.0543 -1.0543 -0.1774
  604MPD2    H5 9011   0.253   0.996  15.876 -3.6442  1.0935 -1.1861
  604MPD2    N1 9012   4.729   1.094  16.269  0.4886  0.2950  0.5189
  604MPD2    H7 9013   4.658   1.081  16.340  1.2379  0.4723  1.3018
  605TMC3    C1 9014   4.700   1.326  16.316 -0.0221  0.2149  0.6647
  605TMC3    C2 9015   0.033   1.450  16.340 -0.0075 -0.0435 -0.0456
  605TMC3    C3 9016   4.683   1.556  16.357 -0.6468  0.4281 -0.8120
  605TMC3    C4 9017   4.562   1.317  16.309 -0.4204 -0.0067  0.4690
  605TMC3    C5 9018   4.490   1.436  16.326  0.2937 -0.5907  0.3383
  605TMC3    C6 9019   4.548   1.558  16.353 -0.3582  0.1234 -0.4523
  605TMC3     C 9020   0.052   1.220  16.271  0.2111 -0.3908 -0.1404
  605TMC3     O 9021   0.160   1.250  16.224  0.7652 -0.4551  0.2385
  605TMC3     H 9022   0.140   1.459  16.345  0.1204 -1.8480  0.4183
  605TMC3    H1 9023   4.512   1.222  16.294  0.1027 -0.5011  1.8773
  605TMC3    H2 9024   4.496   1.651  16.373 -0.7536 -0.0541 -0.6323
  605TMC3    C7 9025   4.346   1.444  16.298 -0.5406 -0.0037 -0.1329
  605TMC3    C8 9026   0.009   1.688  16.358  0.6662  0.1330  0.7654
  605TMC3    O1 9027   4.289   1.552  16.318  0.1166  0.0718  0.4834
  605TMC3    O2 9028   4.672   1.777  16.313 -0.0580 -0.2769 -0.3585
  606TMC3    C1 9029   0.845   3.602   0.802  0.1919 -0.0974 -0.6772
  606TMC3    C2 9030   0.929   3.632   0.908  0.4369  0.2479  0.0271
  606TMC3    C3 9031   1.031   3.546   0.944 -0.5730  0.1328  0.4602
  606TMC3    C4 9032   0.883   3.504   0.714 -0.7106  0.3564 -0.1072
  606TMC3    C5 9033   0.995   3.426   0.745 -0.6153  0.5196  1.2036
  606TMC3    C6 9034   1.075   3.449   0.853 -0.3092  0.5564 -0.2924
  606TMC3     C 9035   0.750   3.691   0.746  0.6286 -0.1726 -0.5780
  606TMC3     O 9036   0.673   3.640   0.667  0.2389  0.3486  0.5137
  606TMC3     H 9037   0.893   3.710   0.975  1.2578 -0.9763  1.9086
  606TMC3    H1 9038   0.823   3.489   0.625 -1.6723 -0.5053  0.6870
  606TMC3    H2 9039   1.159   3.386   0.879 -0.0657  0.4198 -1.4218
  606TMC3    C7 9040   1.082   3.377   0.633  0.4398 -0.0201  0.2049
  606TMC3    C8 9041   1.129   3.578   1.045  0.1991  0.0607  0.2428
  606TMC3    O1 9042   1.197   3.337   0.654 -0.1528  0.9948  0.8031
  606TMC3    O2 9043   1.214   3.497   1.081  0.3017  0.6062  0.0331
  607MPD2     C 9044   3.321   2.573  12.049  0.0788  0.3947 -0.2589
  607MPD2    C1 9045   3.373   2.676  12.127  0.0117 -0.0814  0.2260
  607MPD2    C2 9046   3.323   2.702  12.252  0.5057  0.1631  0.2706
  607MPD2    C3 9047   3.247   2.609  12.316  0.3818 -0.2116 -0.1409
  607MPD2    C4 9048   3.214   2.500  12.243 -0.6972  0.4502 -0.6297
  607MPD2    C5 9049   3.246   2.483  12.110  0.0039  0.2069 -0.0199
  607MPD2     H 9050   3.367   2.783  12.309 -0.5113  0.4601  0.6304
  607MPD2    H1 9051   3.155   2.421  12.288 -1.0964  0.8161 -0.5164
  607MPD2    H2 9052   3.356   2.553  11.948 -0.8497  0.3404 -0.5731
  607MPD2    H3 9053   3.230   2.388  12.061 -0.8940 -0.8960  2.4141
  607MPD2     N 9054   3.202   2.634  12.450 -0.9816  0.0547  0.2663
  607MPD2    H5 9055   3.241   2.722  12.483  1.3078 -0.0343 -2.1477
  607MPD2    N1 9056   3.457   2.768  12.067  0.1072  0.2931 -0.2333
  607MPD2    H7 9057   3.467   2.851  12.125 -1.2607  0.5144 -0.3090
  608TMC3    C1 9058   3.617   2.891  11.950  0.0997 -0.6582  0.1009
  608TMC3    C2 9059   3.689   2.915  12.064  0.1076 -0.9710 -0.3140
  608TMC3    C3 9060   3.764   3.029  12.068 -0.2977 -0.1809 -0.3994
  608TMC3    C4 9061   3.638   2.955  11.835 -0.1493 -0.1555 -0.7270
  608TMC3    C5 9062   3.714   3.065  11.843 -0.1756 -0.2276  0.4861
  608TMC3    C6 9063   3.768   3.105  11.958  0.9677  0.2079  0.0756
  608TMC3     C 9064   3.531   2.777  11.949 -1.1036 -0.4014  0.0065
  608TMC3     O 9065   3.510   2.721  11.844 -0.2110  0.4341  0.3114
  608TMC3     H 9066   3.677   2.841  12.143 -0.5251  0.1920  0.6880
  608TMC3    H1 9067   3.582   2.926  11.747  0.2055  0.1173 -1.0422
  608TMC3    H2 9068   3.813   3.204  11.955 -1.3085  1.3306  3.3387
  608TMC3    C7 9069   3.749   3.115  11.713 -0.1063 -0.0151  0.6870
  608TMC3    C8 9070   3.778   3.101  12.198  0.0311 -0.1723  0.1098
  608TMC3    O1 9071   3.727   3.034  11.625 -1.0737  0.3791  0.1959
  608TMC3    O2 9072   3.838   3.205  12.205  0.6206  0.3731  0.3950
  609TMC3    C1 9073   1.561   1.789   9.706  0.4517  0.5488 -0.0861
  609TMC3    C2 9074   1.485   1.775   9.596 -0.6200 -1.0486  0.1462
  609TMC3    C3 9075   1.551   1.759   9.474  0.3261 -0.4045 -0.6699
  609TMC3    C4 9076   1.696   1.782   9.705 -0.1469  0.2236  0.2333
  609TMC3    C5 9077   1.761   1.763   9.581 -0.1249  0.4490 -0.1155
  609TMC3    C6 9078   1.683   1.749   9.467 -0.7643  0.4201 -0.1671
  609TMC3     C 9079   1.505   1.852   9.828  0.2290  0.2262  0.3527
  609TMC3     O 9080   1.541   1.814   9.940 -0.2422  0.1922 -0.2308
  609TMC3     H 9081   1.378   1.762   9.607 -0.5677 -2.4470 -1.0900
  609TMC3    H1 9082   1.748   1.808   9.797  1.3308  1.7542 -1.0512
  609TMC3    H2 9083   1.723   1.737   9.367 -0.0678  2.3491 -0.1207
  609TMC3    C7 9084   1.900   1.748   9.578  0.2704  0.2024 -0.2230
  609TMC3    C8 9085   1.478   1.703   9.366  0.2743  0.5321  0.3034
  609TMC3    O1 9086   1.962   1.765   9.678  0.5061 -0.0460 -0.3738
  609TMC3    O2 9087   1.536   1.648   9.278 -0.0729 -0.1097  0.3990
  610TMC3    C1 9088   3.722   2.789  13.102 -0.0404 -0.2134  0.2855
  610TMC3    C2 9089   3.748   2.805  12.968 -0.0029  0.3730 -0.2432
  610TMC3    C3 9090   3.878   2.777  12.917  0.0862 -0.2715  0.3440
  610TMC3    C4 9091   3.825   2.751  13.185 -0.1707  0.2703 -0.9913
  610TMC3    C5 9092   3.951   2.730  13.129  0.6757  0.0604 -0.6431
  610TMC3    C6 9093   3.981   2.741  12.996 -0.4594 -0.4256 -0.0071
  610TMC3     C 9094   3.598   2.818  13.155  0.6033  0.1556  0.4022
  610TMC3     O 9095   3.522   2.874  13.086  0.2400 -0.1402  0.0494
  610TMC3     H 9096   3.663   2.829  12.905 -0.4180  0.9659  0.5391
  610TMC3    H1 9097   3.815   2.756  13.293 -1.4804  1.1742 -1.1602
  610TMC3    H2 9098   4.082   2.737  12.957  0.2347  0.4142  1.7002
  610TMC3    C7 9099   4.064   2.722  13.219 -0.8333 -0.3150  0.0798
  610TMC3    C8 9100   3.896   2.765  12.775 -0.1539 -0.3321 -0.5164
  610TMC3    O1 9101   4.068   2.796  13.319  0.1597 -0.1325  0.7715
  610TMC3    O2 9102   4.005   2.792  12.730  0.6265 -0.2499 -0.6255
  611MPD2     C 9103   3.691   2.459  10.697  0.1292  0.1936 -0.3128
  611MPD2    C1 9104   3.636   2.526  10.585 -0.2819 -0.2844  0.2274
  611MPD2    C2 9105   3.696   2.645  10.549  0.2615  0.7563 -0.5182
  611MPD2    C3 9106   3.814   2.691  10.601  0.3487 -0.4257 -0.4821
  611MPD2    C4 9107   3.874   2.611  10.703 -0.0665 -0.3333 -0.1216
  611MPD2    C5 9108   3.815   2.491  10.742 -0.2275  0.1436 -0.3630
  611MPD2     H 9109   3.635   2.698  10.477 -0.0463  0.4834 -0.4572
  611MPD2    H1 9110   3.969   2.639  10.746 -0.6436  0.0312  0.9363
  611MPD2    H2 9111   3.639   2.374  10.740 -1.4375  1.3861  0.1956
  611MPD2    H3 9112   3.852   2.433  10.826  1.1507 -0.3923 -1.3382
  611MPD2     N 9113   3.881   2.816  10.581  0.0039  0.4617 -0.0547
  611MPD2    H5 9114   3.965   2.838  10.632  0.4633  1.0992 -1.0711
  611MPD2    N1 9115   3.512   2.484  10.538 -0.0874 -0.8783  0.3254
  611MPD2    H7 9116   3.480   2.402  10.588 -2.6479  1.1413  2.0175
  612TMC3    C1 9117   3.920   3.037  10.488  0.1565  0.1379 -0.3042
  612TMC3    C2 9118   4.034   3.040  10.567 -0.8485  0.3268  0.1576
  612TMC3    C3 9119   4.107   3.159  10.555 -0.6503 -0.1256  0.0426
  612TMC3    C4 9120   3.867   3.152  10.430 -0.0007 -0.1173  0.4241
  612TMC3    C5 9121   3.940   3.266  10.418 -0.2504 -0.1448  0.2545
  612TMC3    C6 9122   4.063   3.265  10.480 -0.3551 -0.7244  0.0533
  612TMC3     C 9123   3.838   2.913  10.493 -0.3018 -0.0894 -0.3238
  612TMC3     O 9124   3.739   2.911  10.416 -0.1341 -0.1106 -0.2702
  612TMC3     H 9125   4.064   2.960  10.634  1.3399 -0.7466 -2.1238
  612TMC3    H1 9126   3.768   3.140  10.388 -1.4466  2.4411  3.1325
  612TMC3    H2 9127   4.125   3.353  10.477 -0.5997 -0.5632 -0.3065
  612TMC3    C7 9128   3.881   3.382  10.357 -0.3525 -0.3493 -0.2553
  612TMC3    C8 9129   4.210   3.195  10.654  0.7114 -0.3658 -0.1690
  612TMC3    O1 9130   3.770   3.372  10.310  0.2195 -0.4105 -0.3451
  612TMC3    O2 9131   4.285   3.285  10.623 -0.0786  0.0732  0.3316
  613MPD2     C 9132   3.263   0.038  15.944 -0.7728  0.6350 -0.3047
  613MPD2    C1 9133   3.157   0.055  15.856  0.2835 -0.2262  0.1030
  613MPD2    C2 9134   3.044   4.716  15.877  0.5567 -0.3016  0.1491
  613MPD2    C3 9135   3.039   4.617  15.975 -0.1690 -0.7467 -0.5726
  613MPD2    C4 9136   3.141   4.608  16.063  0.4121  0.5521 -0.4461
  613MPD2    C5 9137   3.249   4.687  16.051  1.2760  0.8012 -0.7089
  613MPD2     H 9138   2.963   0.011  15.811  0.5363  0.0534  0.3281
  613MPD2    H1 9139   3.125   4.536  16.141 -0.9969 -0.2604 -1.4975
  613MPD2    H2 9140   3.353   0.097  15.926 -0.9413  0.6766 -1.0229
  613MPD2    H3 9141   3.330   4.680  16.123  1.3910 -0.8729 -1.0060
  613MPD2     N 9142   2.938   4.517  15.981  0.7618  0.1133  0.1235
  613MPD2    H5 9143   2.953   4.446  16.053 -1.8792 -1.8215 -1.2372
  613MPD2    N1 9144   3.169   0.157  15.759 -0.8367 -0.0513 -0.1889
  613MPD2    H7 9145   3.261   0.189  15.730  0.0094 -0.7123  1.7861
  614TMC3    C1 9146   3.092   0.274  15.569 -0.2130 -0.7885 -0.3394
  614TMC3    C2 9147   3.123   0.179  15.481  0.2443  0.2439  0.1106
  614TMC3    C3 9148   3.045   0.145  15.377  0.3670 -0.5281 -0.5827
  614TMC3    C4 9149   2.985   0.344  15.528 -0.2748 -0.0166 -0.3888
  614TMC3    C5 9150   2.901   0.315  15.421  0.4722  1.0798 -0.2715
  614TMC3    C6 9151   2.930   0.210  15.339  0.0109 -0.0251  0.2641
  614TMC3     C 9152   3.068   0.223  15.696 -0.6669 -0.1962  0.2259
  614TMC3     O 9153   2.959   0.246  15.753  0.3877  0.1095 -0.1958
  614TMC3     H 9154   3.196   0.104  15.509  1.4951  0.8459 -1.5393
  614TMC3    H1 9155   2.963   0.427  15.595  1.8955 -0.8276  1.3134
  614TMC3    H2 9156   2.864   0.182  15.258  2.0806 -1.8872 -0.7483
  614TMC3    C7 9157   2.782   0.390  15.413 -0.2807 -0.2859  0.3081
  614TMC3    C8 9158   3.031   4.726  15.373  0.4102  0.2116  0.6849
  614TMC3    O1 9159   2.781   0.502  15.466 -0.7102 -0.5830 -0.0173
  614TMC3    O2 9160   3.035   4.687  15.485  0.0192  0.3303 -0.1126
  615MPD2     C 9161   1.848   0.970  16.147  0.5378 -0.2916  0.6560
  615MPD2    C1 9162   1.933   1.072  16.122 -0.3873  0.2667  0.7896
  615MPD2    C2 9163   1.893   1.173  16.033  0.5509 -0.6196 -0.1124
  615MPD2    C3 9164   1.766   1.180  15.982 -0.6648  0.7381  0.0986
  615MPD2    C4 9165   1.672   1.082  16.022 -0.5137  0.2921 -0.0887
  615MPD2    C5 9166   1.718   0.983  16.101 -0.0526 -0.0851 -0.3861
  615MPD2     H 9167   1.969   1.247  16.010 -0.9368  0.4715 -1.5308
  615MPD2    H1 9168   1.567   1.082  15.996 -0.8978 -0.1370  1.4396
  615MPD2    H2 9169   1.875   0.877  16.196 -0.5605 -1.2831 -0.6169
  615MPD2    H3 9170   1.648   0.904  16.129 -0.1470  0.8083  1.9647
  615MPD2     N 9171   1.714   1.299  15.925  0.2941 -0.1255  0.1194
  615MPD2    H5 9172   1.620   1.298  15.886  0.1358 -0.4260  0.5092
  615MPD2    N1 9173   2.065   1.086  16.167 -0.0260  0.4278 -0.2836
  615MPD2    H7 9174   2.109   1.176  16.148  1.3762 -0.1998  0.0456
  616TMC3    C1 9175   2.256   1.036  16.274 -0.0982  0.2351 -0.1059
  616TMC3    C2 9176   2.314   1.130  16.191 -0.1172  0.1219 -0.4407
  616TMC3    C3 9177   2.400   1.221  16.247 -0.5518  0.1928 -0.5633
  616TMC3    C4 9178   2.291   1.020  16.399 -0.0759  0.1502 -0.0882
  616TMC3    C5 9179   2.374   1.117  16.451 -0.6537 -0.6462 -0.5159
  616TMC3    C6 9180   2.422   1.225  16.383 -0.0387  0.3008 -0.0817
  616TMC3     C 9181   2.129   0.985  16.240  0.2205  1.3289  0.0034
  616TMC3     O 9182   2.091   0.883  16.288  0.8199 -0.5297  0.3772
  616TMC3     H 9183   2.302   1.124  16.083  2.2287 -0.4729 -0.6634
  616TMC3    H1 9184   2.240   0.952  16.466  1.0337  0.4279  1.0331
  616TMC3    H2 9185   2.493   1.296  16.424  1.1496 -1.3787  0.7341
  616TMC3    C7 9186   2.409   1.108  16.595  0.0471 -0.4212  0.5742
  616TMC3    C8 9187   2.400   1.345  16.175 -0.3647  0.3585 -1.3017
  616TMC3    O1 9188   2.443   1.218  16.639  0.2656 -0.1042 -0.0679
  616TMC3    O2 9189   2.315   1.362  16.091 -0.5715  0.1806 -0.0220
  617MPD2     C 9190   0.052   0.007  13.874  0.7616  0.5152 -0.2297
  617MPD2    C1 9191   0.056   4.603  13.898 -0.1269  0.3986  0.1107
  617MPD2    C2 9192   4.680   4.536  13.938  0.1002  0.0317 -0.1587
  617MPD2    C3 9193   4.562   4.607  13.954 -0.4560 -0.3886  0.6713
  617MPD2    C4 9194   4.556   0.006  13.915 -0.0732  0.4948 -0.2602
  617MPD2    C5 9195   4.669   0.075  13.885 -0.1577  0.2829  0.2167
  617MPD2     H 9196   4.689   4.429  13.953  0.3745 -0.0824 -1.1634
  617MPD2    H1 9197   4.459   0.054  13.917 -0.1666  0.2082  1.3136
  617MPD2    H2 9198   0.145   0.060  13.854  0.0761  1.2741 -1.4142
  617MPD2    H3 9199   4.670   0.182  13.871 -0.9175  0.0398 -1.6590
  617MPD2     N 9200   4.449   4.541  14.012 -0.2433 -0.2906 -0.5559
  617MPD2    H5 9201   4.370   4.603  14.023 -0.6161 -0.9828  0.6634
  617MPD2    N1 9202   0.183   4.550  13.880  0.5804  0.0364  0.2486
  617MPD2    H7 9203   0.259   4.612  13.855 -1.9254  2.9725 -0.1247
  618TMC3    C1 9204   0.356   4.395  13.893  0.3226  0.3467 -0.5545
  618TMC3    C2 9205   0.403   4.280  13.829 -0.4129  0.4911  0.1135
  618TMC3    C3 9206   0.538   4.270  13.822  0.2768 -0.2426  0.7457
  618TMC3    C4 9207   0.441   4.489  13.942  0.1054 -0.4083 -0.2022
  618TMC3    C5 9208   0.572   4.474  13.927 -1.0291 -0.1195 -0.7026
  618TMC3    C6 9209   0.624   4.363  13.865  1.1719  0.1507 -0.1298
  618TMC3     C 9210   0.218   4.420  13.910 -0.3437  0.0110 -0.3508
  618TMC3     O 9211   0.144   4.320  13.902 -0.4406 -0.9368 -0.5307
  618TMC3     H 9212   0.339   4.201  13.791 -0.4777  1.3188 -1.4728
  618TMC3    H1 9213   0.399   4.570  14.001  2.0773  0.5865 -0.1709
  618TMC3    H2 9214   0.731   4.353  13.850  0.2936 -3.1241 -3.9635
  618TMC3    C7 9215   0.675   4.553  13.993 -0.5976 -0.3766  0.3456
  618TMC3    C8 9216   0.584   4.194  13.713 -0.7812  0.3947  0.8073
  618TMC3    O1 9217   0.782   4.504  14.021 -0.0061 -0.1807  0.0936
  618TMC3    O2 9218   0.558   4.076  13.718  0.0895 -0.0641  0.0308
  619MPD2     C 9219   1.649   1.488  13.949 -0.2843  0.1558  0.1675
  619MPD2    C1 9220   1.593   1.510  13.818 -0.6581 -0.4143 -0.1593
  619MPD2    C2 9221   1.478   1.448  13.773 -0.5043  0.0971  0.0972
  619MPD2    C3 9222   1.420   1.360  13.869 -0.4122  0.0583 -0.0690
  619MPD2    C4 9223   1.475   1.335  13.993  0.5491 -0.2377  0.1456
  619MPD2    C5 9224   1.591   1.401  14.032  0.7883  0.4285  0.2042
  619MPD2     H 9225   1.434   1.460  13.674  1.1756  0.3877 -0.6199
  619MPD2    H1 9226   1.422   1.271  14.063 -1.3216  1.6414  0.4357
  619MPD2    H2 9227   1.741   1.540  13.974 -0.6339  0.4804  0.7838
  619MPD2    H3 9228   1.631   1.382  14.132 -0.6650  1.4142  0.9708
  619MPD2     N 9229   1.290   1.314  13.849  0.0290  0.3837 -0.1605
  619MPD2    H5 9230   1.237   1.276  13.926  0.3298  1.4445  0.5709
  619MPD2    N1 9231   1.640   1.605  13.723 -0.1547 -0.1504  0.4877
  619MPD2    H7 9232   1.591   1.610  13.634  2.5993  0.8272 -1.0041
  620TMC3    C1 9233   1.649   1.842  13.703 -0.0446 -0.3291  0.1364
  620TMC3    C2 9234   1.546   1.831  13.616  0.4485 -0.1588 -0.1314
  620TMC3    C3 9235   1.492   1.942  13.559 -0.5053  0.3251 -0.9011
  620TMC3    C4 9236   1.699   1.964  13.753  0.1191  0.0572 -0.0040
  620TMC3    C5 9237   1.625   2.075  13.705  0.4754  0.6815  0.3518
  620TMC3    C6 9238   1.535   2.062  13.601 -0.8121  0.2217 -0.2056
  620TMC3     C 9239   1.695   1.725  13.772 -0.1681 -0.3754  0.1872
  620TMC3     O 9240   1.770   1.738  13.868  0.2460 -0.0959 -0.2587
  620TMC3     H 9241   1.502   1.738  13.582 -1.4685  0.4650  0.6445
  620TMC3    H1 9242   1.769   1.975  13.834 -0.2334  2.0446  0.0307
  620TMC3    H2 9243   1.486   2.151  13.563 -0.0957 -0.3994 -2.5790
  620TMC3    C7 9244   1.553   2.153  13.809 -0.3703  0.4287  0.1214
  620TMC3    C8 9245   1.354   1.933  13.561 -0.2752  0.1183 -0.4458
  620TMC3    O1 9246   1.493   2.250  13.768 -0.0919  0.4293  0.0149
  620TMC3    O2 9247   1.302   2.011  13.486  0.3531  0.3550  0.5964
  621MPD2     C 9248   2.278   0.557   9.836  0.3978  0.5852  0.5548
  621MPD2    C1 9249   2.315   0.553   9.970  0.1343 -0.3851  0.2171
  621MPD2    C2 9250   2.344   0.670  10.032  0.7058  0.4160 -0.2019
  621MPD2    C3 9251   2.332   0.793   9.968  0.8856 -0.0145 -0.1596
  621MPD2    C4 9252   2.304   0.792   9.835 -0.2944 -0.1754  0.2940
  621MPD2    C5 9253   2.281   0.679   9.775 -0.1608  0.1508  0.0988
  621MPD2     H 9254   2.346   0.667  10.140 -1.7151  0.6654 -0.1359
  621MPD2    H1 9255   2.315   0.879   9.771  3.4406  0.5132  1.8344
  621MPD2    H2 9256   2.263   0.462   9.785  0.5806 -0.3688  2.2715
  621MPD2    H3 9257   2.260   0.676   9.669  1.7333 -2.0135 -0.2092
  621MPD2     N 9258   2.345   0.905  10.044  0.0418  0.3212  0.3111
  621MPD2    H5 9259   2.371   0.877  10.138 -2.1377 -0.8603  0.5384
  621MPD2    N1 9260   2.311   0.429  10.049 -0.2488  0.0805 -0.6391
  621MPD2    H7 9261   2.344   0.429  10.145  0.6651  0.5333 -0.9559
  622TMC3    C1 9262   2.196   0.238  10.125  0.6330 -0.4740 -0.8615
  622TMC3    C2 9263   2.213   0.306  10.247 -0.6897  0.1387  0.8255
  622TMC3    C3 9264   2.103   0.332  10.331  0.1440  0.5611  0.5317
  622TMC3    C4 9265   2.070   0.183  10.105 -0.1686 -0.2725 -0.2928
  622TMC3    C5 9266   1.964   0.211  10.185 -0.3592 -0.3231  0.6205
  622TMC3    C6 9267   1.972   0.293  10.298  0.0039  0.2025  0.2184
  622TMC3     C 9268   2.229   0.325  10.011  0.5803 -0.5550 -0.4128
  622TMC3     O 9269   2.171   0.303   9.905  0.3513 -0.7606 -0.0655
  622TMC3     H 9270   2.309   0.349  10.271 -0.3811  0.9344 -1.8090
  622TMC3    H1 9271   2.052   0.116  10.021  2.9764 -1.2071 -0.2284
  622TMC3    H2 9272   1.885   0.334  10.347 -0.0114  0.9258 -0.4214
  622TMC3    C7 9273   1.838   0.153  10.165 -0.1976  0.3104 -0.1969
  622TMC3    C8 9274   2.127   0.420  10.443 -0.0626 -0.8519  0.0512
  622TMC3    O1 9275   1.755   0.126  10.251  0.0258 -0.3760 -0.1574
  622TMC3    O2 9276   2.216   0.382  10.515 -0.0340  0.2839  0.2813
  623MPD2     C 9277   0.578   1.987  15.881  0.3482 -0.2245  0.1493
  623MPD2    C1 9278   0.498   2.000  16.001 -0.5307 -0.2837  0.3509
  623MPD2    C2 9279   0.554   1.973  16.121 -0.1120  0.3297 -0.5752
  623MPD2    C3 9280   0.691   1.949  16.130  0.2227  0.8313  0.1526
  623MPD2    C4 9281   0.769   1.944  16.020 -0.0429  0.3360  0.1816
  623MPD2    C5 9282   0.709   1.955  15.896  0.4887  0.1203 -0.2917
  623MPD2     H 9283   0.488   1.973  16.207  0.7418  3.6326  0.0832
  623MPD2    H1 9284   0.875   1.923  16.031 -0.4218 -1.0552  1.1415
  623MPD2    H2 9285   0.531   1.989  15.783  2.2557  1.6376 -0.7181
  623MPD2    H3 9286   0.775   1.941  15.811  0.1597  0.4899 -0.6054
  623MPD2     N 9287   0.746   1.930  16.261 -1.0749  0.4052 -0.0384
  623MPD2    H5 9288   0.676   1.935  16.334 -0.7777  1.5228  0.1685
  623MPD2    N1 9289   0.361   2.039  16.003 -0.2417  0.3932 -0.1513
  623MPD2    H7 9290   0.318   2.039  16.095 -1.1955  0.5368 -0.5969
  624TMC3    C1 9291   0.935   1.714  16.601  0.7593 -0.1617 -0.3870
  624TMC3    C2 9292   0.818   1.734  16.664 -0.3385  0.0864 -0.6020
  624TMC3    C3 9293   0.745   1.846  16.632  0.7812  0.5180  0.0972
  624TMC3    C4 9294   0.962   1.778  16.484 -0.2215 -0.1053  0.1665
  624TMC3    C5 9295   0.884   1.882  16.452 -0.4318  0.2090 -0.3018
  624TMC3    C6 9296   0.783   1.927  16.530  0.6514  0.2849  0.0514
  624TMC3     C 9297   1.034   1.627  16.670 -0.4052  0.0219 -0.1264
  624TMC3     O 9298   0.992   1.542  16.749 -0.2041  0.0064  0.2491
  624TMC3     H 9299   0.794   1.663  16.742  1.3862  0.8627  0.6357
  624TMC3    H1 9300   1.051   1.750  16.429 -0.5740 -0.2147 -0.3505
  624TMC3    H2 9301   0.733   2.017  16.497 -0.7776 -0.2949  0.6320
  624TMC3    C7 9302   0.873   1.904  16.306  1.0135  0.1728 -0.0968
  624TMC3    C8 9303   0.604   1.808  16.623  0.1549  0.4883 -0.8758
  624TMC3    O1 9304   0.973   1.885  16.236  0.5106  0.1072 -0.1485
  624TMC3    O2 9305   0.576   1.689  16.632  0.0780  0.3051 -0.5271
  625MPD2     C 9306   1.446   2.450   0.266 -0.4995 -0.1072  0.0005
  625MPD2    C1 9307   1.406   2.526   0.373  0.6251 -0.6158  0.1562
  625MPD2    C2 9308   1.490   2.525   0.487  0.4460  0.0399 -0.0631
  625MPD2    C3 9309   1.601   2.446   0.485  0.0219 -0.5398 -0.6648
  625MPD2    C4 9310   1.642   2.382   0.373  0.1335 -0.1593  0.7857
  625MPD2    C5 9311   1.561   2.381   0.265  0.4213 -0.0780 -0.3220
  625MPD2     H 9312   1.462   2.590   0.569  0.5349  0.8628 -0.6879
  625MPD2    H1 9313   1.725   2.313   0.379 -0.0415 -0.5516 -1.4919
  625MPD2    H2 9314   1.402   2.439   0.168  0.0384 -0.0923 -0.2462
  625MPD2    H3 9315   1.583   2.313   0.183  0.1214  0.2694 -0.6966
  625MPD2     N 9316   1.675   2.443   0.605  0.9776  0.0783  0.5978
  625MPD2    H5 9317   1.638   2.500   0.681 -0.1290 -3.4183  2.6532
  625MPD2    N1 9318   1.283   2.589   0.382  0.4486 -0.4073  0.1072
  625MPD2    H7 9319   1.261   2.625   0.475 -0.5808  0.2592 -0.4015
  626TMC3    C1 9320   1.076   2.671   0.312  0.0204 -0.2646  0.0216
  626TMC3    C2 9321   1.000   2.737   0.216 -0.3393 -0.3225  0.0890
  626TMC3    C3 9322   0.887   2.797   0.251 -0.4440  0.6181 -0.3941
  626TMC3    C4 9323   1.025   2.647   0.436 -0.1410  0.1944 -0.3338
  626TMC3    C5 9324   0.905   2.708   0.465  0.0926 -0.2623 -1.0073
  626TMC3    C6 9325   0.838   2.785   0.379  0.2081 -1.2149  0.1461
  626TMC3     C 9326   1.201   2.611   0.273  0.0616  0.5830 -0.0808
  626TMC3     O 9327   1.215   2.582   0.157  0.3774  0.3105  0.1998
  626TMC3     H 9328   1.032   2.760   0.115 -0.9227 -0.1599 -0.0591
  626TMC3    H1 9329   1.075   2.575   0.499  0.4120  0.4568 -0.4772
  626TMC3    H2 9330   0.767   2.861   0.410  0.8969  0.0665 -1.4302
  626TMC3    C7 9331   0.874   2.713   0.607  0.2609 -0.0113  0.5282
  626TMC3    C8 9332   0.799   2.858   0.151  0.2036 -0.9149 -0.0705
  626TMC3    O1 9333   0.964   2.682   0.683 -0.1969 -0.2937  0.0438
  626TMC3    O2 9334   0.850   2.902   0.048 -0.4710  0.0287  0.4539
  627MPD2     C 9335   4.162   3.360  14.378  0.1498  0.6205 -0.3039
  627MPD2    C1 9336   4.171   3.309  14.499  0.4330 -0.0714  0.1499
  627MPD2    C2 9337   4.105   3.190  14.535 -0.5935  0.3583 -0.7496
  627MPD2    C3 9338   4.033   3.109  14.442  0.1355  0.3172 -0.5766
  627MPD2    C4 9339   4.026   3.169  14.314 -0.5788  0.3294 -0.4257
  627MPD2    C5 9340   4.085   3.293  14.288  0.0592  0.5437 -0.1656
  627MPD2     H 9341   4.128   3.152  14.634  0.9238 -1.4775 -1.8167
  627MPD2    H1 9342   3.970   3.130  14.230 -0.3816  2.2481 -1.4481
  627MPD2    H2 9343   4.205   3.455  14.346 -1.8989  0.9672 -2.0806
  627MPD2    H3 9344   4.080   3.340  14.190  0.5879 -0.1593 -0.5292
  627MPD2     N 9345   3.966   2.988  14.475  0.1903  0.4081  0.8229
  627MPD2    H5 9346   3.964   2.956  14.572  0.7635  1.8236  1.2990
  627MPD2    N1 9347   4.263   3.352  14.600 -0.1177  0.1802 -0.2550
  627MPD2    H7 9348   4.260   3.311  14.693  2.8218 -0.5680 -0.4996
  628TMC3    C1 9349   4.447   3.460  14.690 -0.5152 -0.6796  0.4941
  628TMC3    C2 9350   4.571   3.398  14.656 -0.0660 -0.1576  0.1452
  628TMC3    C3 9351   4.676   3.436  14.736  0.4011  0.3930 -0.1441
  628TMC3    C4 9352   4.437   3.581  14.750 -0.2256 -0.5217 -0.4300
  628TMC3    C5 9353   4.550   3.625  14.806 -0.2287  0.1661  0.6885
  628TMC3    C6 9354   4.667   3.558  14.799  0.0140  0.2811  0.0848
  628TMC3     C 9355   4.347   3.457  14.585 -0.2599 -0.3425  0.9651
  628TMC3     O 9356   4.359   3.535  14.494 -0.3734  0.4822 -0.2526
  628TMC3     H 9357   4.573   3.302  14.607  2.7133  0.2418 -0.5507
  628TMC3    H1 9358   4.342   3.628  14.769  0.2118  0.7323 -1.3518
  628TMC3    H2 9359   0.022   3.614  14.825 -0.6156 -0.4924  3.8913
  628TMC3    C7 9360   4.543   3.761  14.854  0.1256  0.7175 -0.7197
  628TMC3    C8 9361   0.068   3.426  14.669 -0.3903  0.4316 -0.3204
  628TMC3    O1 9362   4.640   3.811  14.908 -0.1007 -0.2879 -0.1806
  628TMC3    O2 9363   0.076   3.417  14.549 -0.1225 -0.1471  0.0219
  629MPD2     C 9364   2.661   1.787  16.103  0.0129  0.1628  0.1416
  629MPD2    C1 9365   2.730   1.712  16.196 -0.4991  0.0685 -0.7653
  629MPD2    C2 9366   2.674   1.582  16.227  0.1855  0.1751  1.1335
  629MPD2    C3 9367   2.563   1.531  16.164  0.0785  0.0667  0.2960
  629MPD2    C4 9368   2.484   1.618  16.091 -0.8101 -0.3903 -0.2059
  629MPD2    C5 9369   2.542   1.738  16.057 -0.4926 -0.0287  0.0200
  629MPD2     H 9370   2.735   1.511  16.282  1.4807 -0.9485 -1.7805
  629MPD2    H1 9371   2.386   1.587  16.056 -1.7869  3.2261 -0.6296
  629MPD2    H2 9372   2.709   1.878  16.068 -1.3133  1.1036  0.7627
  629MPD2    H3 9373   2.491   1.794  15.979 -3.8802 -1.0801  1.4848
  629MPD2     N 9374   2.522   1.409  16.202  0.2202 -0.5675  0.3019
  629MPD2    H5 9375   2.582   1.354  16.263  2.9184  2.7033  0.5601
  629MPD2    N1 9376   2.856   1.757  16.252 -0.2256  0.4892 -0.3365
  629MPD2    H7 9377   2.882   1.851  16.224 -0.0347  0.3391 -0.6546
  630TMC3    C1 9378   3.035   1.785  16.403 -0.5442 -0.6866  0.5678
  630TMC3    C2 9379   3.074   1.892  16.324 -0.1460 -0.2409 -0.2726
  630TMC3    C3 9380   3.181   1.970  16.362  0.3483  0.4030 -0.2156
  630TMC3    C4 9381   3.101   1.752  16.518 -0.3981 -0.2291 -0.0209
  630TMC3    C5 9382   3.194   1.844  16.556 -0.2644  0.0825  0.2350
  630TMC3    C6 9383   3.240   1.953  16.484 -0.2357  0.2164 -0.0211
  630TMC3     C 9384   2.923   1.696  16.357 -1.0834 -0.2262 -0.2041
  630TMC3     O 9385   2.898   1.593  16.418  0.4782  0.2136  0.7542
  630TMC3     H 9386   3.039   1.910  16.223  0.0457 -0.9189 -0.4576
  630TMC3    H1 9387   3.066   1.689  16.600  0.2389 -0.0169  0.4182
  630TMC3    H2 9388   3.337   1.997  16.506  0.4597 -1.3318  0.0166
  630TMC3    C7 9389   3.256   1.833  16.683  0.9482 -0.5435  0.5819
  630TMC3    C8 9390   3.209   2.099  16.293  0.7417 -0.2825 -0.4528
  630TMC3    O1 9391   3.260   1.716  16.729 -0.1721  0.1201  0.0643
  630TMC3    O2 9392   3.277   2.172  16.365  0.1705 -0.0105 -0.4398
  631MPD2     C 9393   1.036   1.718  15.349 -0.0434 -0.5119 -0.0498
  631MPD2    C1 9394   1.132   1.815  15.362 -0.0117 -0.3055  1.0949
  631MPD2    C2 9395   1.257   1.771  15.411 -0.5769  0.5655 -0.6458
  631MPD2    C3 9396   1.273   1.640  15.458  0.3864  0.0979  0.3267
  631MPD2    C4 9397   1.172   1.545  15.447 -0.1363 -0.3144 -0.1359
  631MPD2    C5 9398   1.055   1.586  15.392 -0.9121  0.1443  0.1584
  631MPD2     H 9399   1.344   1.835  15.419 -0.9370  1.0749 -0.8076
  631MPD2    H1 9400   1.190   1.442  15.475 -0.8267 -0.2810  0.4296
  631MPD2    H2 9401   0.936   1.741  15.313 -0.0776 -1.4481 -0.5648
  631MPD2    H3 9402   0.981   1.511  15.366  1.7073 -2.8346  1.1754
  631MPD2     N 9403   1.401   1.624  15.505 -0.3080  0.0836  0.3844
  631MPD2    H5 9404   1.464   1.702  15.489  0.4363 -0.3264  1.2889
  631MPD2    N1 9405   1.104   1.944  15.304 -0.1134  0.1195  0.1054
  631MPD2    H7 9406   1.008   1.971  15.289 -0.1076  1.7842  3.1042
  632TMC3    C1 9407   1.161   2.171  15.312  0.1227 -0.2357 -0.4698
  632TMC3    C2 9408   1.025   2.205  15.293 -0.1310 -1.1759  0.3714
  632TMC3    C3 9409   1.002   2.341  15.295 -0.0689  0.8514  0.4611
  632TMC3    C4 9410   1.252   2.261  15.341  0.0409  0.1474  0.5951
  632TMC3    C5 9411   1.219   2.393  15.355 -0.2581  0.1258 -0.9386
  632TMC3    C6 9412   1.093   2.433  15.327  0.1071 -0.0789 -0.3286
  632TMC3     C 9413   1.204   2.041  15.306 -0.9407  0.7880  0.3182
  632TMC3     O 9414   1.326   2.023  15.301  0.4912 -0.3036 -0.0246
  632TMC3     H 9415   0.938   2.141  15.285 -0.5364 -0.5070 -0.6969
  632TMC3    H1 9416   1.355   2.228  15.352 -0.0730 -0.1465  0.7686
  632TMC3    H2 9417   1.078   2.539  15.313  2.5496  0.2184 -0.6945
  632TMC3    C7 9418   1.324   2.477  15.310  0.5105  0.6389  0.7519
  632TMC3    C8 9419   0.871   2.390  15.322  0.8847 -0.9864  0.0538
  632TMC3    O1 9420   1.425   2.468  15.373 -0.0601  0.4438 -0.2805
  632TMC3    O2 9421   0.866   2.459  15.423 -0.2326  0.6672 -0.1650
  633MPD2     C 9422   0.714   4.400  17.487  0.5794 -0.0004 -0.2942
  633MPD2    C1 9423   0.719   4.326  17.376  0.1436 -0.1411 -0.1932
  633MPD2    C2 9424   0.749   4.193  17.387  0.4174  0.3441  0.8184
  633MPD2    C3 9425   0.786   4.134  17.509 -0.5459  0.3561  0.2602
  633MPD2    C4 9426   0.797   4.214  17.617  0.1272 -0.1339  1.1667
  633MPD2    C5 9427   0.759   4.349  17.604  0.0003  0.0235 -0.9137
  633MPD2     H 9428   0.758   4.141  17.292 -3.0777  0.0577  0.6533
  633MPD2    H1 9429   0.842   4.178  17.708  0.9236 -0.9956  0.4345
  633MPD2    H2 9430   0.665   4.496  17.481 -0.9061 -0.7013  0.5016
  633MPD2    H3 9431   0.771   4.418  17.686  0.5368 -1.3389  0.1597
  633MPD2     N 9432   0.828   3.998  17.493 -0.5225  0.1537  0.3205
  633MPD2    H5 9433   0.825   3.953  17.402 -2.1149  1.5419 -0.3254
  633MPD2    N1 9434   0.690   4.375  17.249  0.0386 -0.7072  0.3118
  633MPD2    H7 9435   0.686   4.296  17.184  0.9907 -1.4566  1.1673
  634TMC3    C1 9436   0.662   4.521  17.071  0.2273  0.4533  0.6677
  634TMC3    C2 9437   0.750   4.439  17.003 -0.0844 -0.3629 -0.3202
  634TMC3    C3 9438   0.803   4.486  16.888  0.1738  0.1785  0.6479
  634TMC3    C4 9439   0.620   4.640  17.024 -0.2763  0.0632 -0.4604
  634TMC3    C5 9440   0.677   4.688  16.908  0.2550 -0.0795  0.1689
  634TMC3    C6 9441   0.761   4.606  16.838  0.0312 -1.0441  0.0560
  634TMC3     C 9442   0.643   4.496  17.210  0.0783 -0.2570 -0.1912
  634TMC3     O 9443   0.609   4.589  17.281  0.6392  0.0579 -0.3701
  634TMC3     H 9444   0.783   4.343  17.041 -1.1570  0.8294  3.6735
  634TMC3    H1 9445   0.564   4.700  17.095  0.2971 -1.0880  0.9657
  634TMC3    H2 9446   0.793   4.645  16.742 -1.0286  3.8211  1.6605
  634TMC3    C7 9447   0.628   0.073  16.842  0.3971  1.3908  0.4450
  634TMC3    C8 9448   0.886   4.394  16.818  0.1393  0.8260 -0.1277
  634TMC3    O1 9449   0.635   0.079  16.718 -0.0234  0.2927  0.5612
  634TMC3    O2 9450   0.910   4.282  16.862 -0.0958 -0.4359  0.1555
  635TMC3    C1 9451   0.829   0.832   0.802 -0.5149  0.5603  0.2364
  635TMC3    C2 9452   0.851   0.697   0.777  0.5341  0.2262  0.5101
  635TMC3    C3 9453   0.771   0.606   0.848  0.4279 -0.1538  0.3144
  635TMC3    C4 9454   0.725   0.874   0.882  0.2274  0.4610  0.4018
  635TMC3    C5 9455   0.656   0.777   0.946 -0.0606  0.3273 -0.0497
  635TMC3    C6 9456   0.686   0.646   0.941  0.1032  0.1080  0.0922
  635TMC3     C 9457   0.893   0.936   0.726  0.3741  0.4130 -0.6070
  635TMC3     O 9458   0.889   1.051   0.761 -0.0519  0.2742  0.5555
  635TMC3     H 9459   0.932   0.671   0.711 -0.6548  1.9253 -1.6263
  635TMC3    H1 9460   0.719   0.976   0.917  1.4806  1.1283 -1.3101
  635TMC3    H2 9461   0.633   0.569   0.995  0.8142  0.1335  0.8259
  635TMC3    C7 9462   0.560   0.812   1.056  0.5419 -0.3681 -0.0218
  635TMC3    C8 9463   0.776   0.463   0.819  0.0172  0.2904 -0.5356
  635TMC3    O1 9464   0.502   0.917   1.054  0.6026 -0.4470 -0.0001
  635TMC3    O2 9465   0.748   0.389   0.910  0.0065  0.3281 -0.2593
  636MPD2     C 9466   1.979   4.323  15.974  0.2398  0.2166  0.1841
  636MPD2    C1 9467   2.037   4.450  15.956  0.0442 -0.3775  0.1449
  636MPD2    C2 9468   2.167   4.456  15.905  0.7554  0.0040  0.5185
  636MPD2    C3 9469   2.236   4.344  15.866  0.7750  0.0078  0.8424
  636MPD2    C4 9470   2.172   4.221  15.885 -0.3116  0.1790  0.4244
  636MPD2    C5 9471   2.038   4.214  15.928  0.0984  0.0951 -0.5416
  636MPD2     H 9472   2.207   4.556  15.895  1.4745 -0.2312  1.0202
  636MPD2    H1 9473   2.217   4.124  15.866  3.1894  1.8502  0.1896
  636MPD2    H2 9474   1.879   4.314  16.014 -0.1996  2.9520 -0.3381
  636MPD2    H3 9475   1.995   4.116  15.939 -1.2737  0.5046 -2.3673
  636MPD2     N 9476   2.372   4.347  15.823 -0.1494 -0.3900 -0.2600
  636MPD2    H5 9477   2.412   4.440  15.817  0.5645 -0.6539  0.5466
  636MPD2    N1 9478   1.975   4.573  16.001  0.2393 -0.4847  0.0212
  636MPD2    H7 9479   2.023   4.662  15.993 -0.0187 -0.5264 -2.0624
  637TMC3    C1 9480   2.593   4.289  15.761  0.3226  0.0751 -0.1172
  637TMC3    C2 9481   2.641   4.380  15.855  0.5096 -0.4860 -0.4658
  637TMC3    C3 9482   2.774   4.376  15.883 -0.9880 -0.5460  0.4791
  637TMC3    C4 9483   2.673   4.198  15.687  0.6141 -0.3355 -0.3628
  637TMC3    C5 9484   2.806   4.220  15.711  0.2146 -0.2062  0.1901
  637TMC3    C6 9485   2.858   4.302  15.811 -0.1926 -0.4514  0.2237
  637TMC3     C 9486   2.454   4.249  15.778 -0.0508 -0.6513 -0.6313
  637TMC3     O 9487   2.436   4.125  15.768 -0.2643 -0.7384 -0.4128
  637TMC3     H 9488   2.574   4.427  15.927 -0.6368 -0.3509 -1.6122
  637TMC3    H1 9489   2.632   4.129  15.614 -1.4461  1.5688 -0.9881
  637TMC3    H2 9490   2.965   4.305  15.825 -0.1789  3.0950 -0.4437
  637TMC3    C7 9491   2.870   4.252  15.588  0.4309 -0.3456  0.2952
  637TMC3    C8 9492   2.826   4.510  15.900 -0.1099 -0.4274 -0.5356
  637TMC3    O1 9493   2.980   4.303  15.601  0.2921  0.5290  0.2789
  637TMC3    O2 9494   2.787   4.592  15.812 -0.0112 -0.1052  0.3378
  638MPD2     C 9495   1.811   4.178  14.805  0.0250 -0.0761  0.3295
  638MPD2    C1 9496   1.754   4.080  14.733  0.0860  0.1667 -1.3654
  638MPD2    C2 9497   1.686   3.980  14.800  0.0370 -0.2283 -0.6963
  638MPD2    C3 9498   1.687   3.962  14.937 -0.0821 -0.5784 -0.6544
  638MPD2    C4 9499   1.746   4.065  15.007 -0.4955 -0.0320 -0.4922
  638MPD2    C5 9500   1.804   4.168  14.940  0.3508  0.5514  1.0184
  638MPD2     H 9501   1.641   3.902  14.740  0.9709 -0.5633 -0.9698
  638MPD2    H1 9502   1.745   4.060  15.115  0.1711 -0.4454 -0.5049
  638MPD2    H2 9503   1.869   4.254  14.753 -1.5363 -0.8242 -2.5160
  638MPD2    H3 9504   1.853   4.239  15.005  1.3680  2.3746 -1.7022
  638MPD2     N 9505   1.632   3.841  14.986 -0.2555 -0.4419 -0.0493
  638MPD2    H5 9506   1.588   3.775  14.923 -1.1889 -0.4938  0.6532
  638MPD2    N1 9507   1.777   4.067  14.595 -0.0101  0.1716  0.4715
  638MPD2    H7 9508   1.735   3.981  14.559  0.7787 -1.1757  2.7584
  639TMC3    C1 9509   1.585   3.670  15.132 -0.2842 -0.0066 -0.3970
  639TMC3    C2 9510   1.488   3.618  15.052 -0.4276  0.3467  0.4053
  639TMC3    C3 9511   1.443   3.490  15.084  0.2889  0.0251 -0.1392
  639TMC3    C4 9512   1.632   3.588  15.238  0.1838 -0.1008  0.3303
  639TMC3    C5 9513   1.593   3.461  15.256  0.2266  0.4871 -0.3013
  639TMC3    C6 9514   1.506   3.412  15.173  0.3892  0.2839 -0.2971
  639TMC3     C 9515   1.636   3.803  15.118 -0.0456  0.4592  0.2857
  639TMC3     O 9516   1.680   3.853  15.221  0.4693 -0.2420 -0.0425
  639TMC3     H 9517   1.429   3.667  14.976  0.4973  1.1516  0.1988
  639TMC3    H1 9518   1.700   3.625  15.314  3.0853 -1.8960 -1.4182
  639TMC3    H2 9519   1.492   3.305  15.181 -2.0726  0.5386 -1.1029
  639TMC3    C7 9520   1.689   3.362  15.278  0.5723  0.0573  0.7624
  639TMC3    C8 9521   1.372   3.412  14.984 -1.1602  0.9742  0.1685
  639TMC3    O1 9522   1.663   3.278  15.366  0.3338  0.5284 -0.2404
  639TMC3    O2 9523   1.410   3.424  14.867 -0.3507  0.2649 -0.1653
  640MPD2     C 9524   2.280   2.659  10.055  0.1496  0.1308 -0.4826
  640MPD2    C1 9525   2.161   2.663  10.129  0.0093  0.1798  0.3047
  640MPD2    C2 9526   2.105   2.783  10.161 -0.2491  0.6250  0.1008
  640MPD2    C3 9527   2.173   2.900  10.130  0.5281  0.8442  0.2674
  640MPD2    C4 9528   2.295   2.891  10.068 -0.2770 -0.1046  0.2276
  640MPD2    C5 9529   2.343   2.775  10.029 -0.0150 -0.3233  0.6041
  640MPD2     H 9530   2.008   2.785  10.209  1.1153  2.6275  2.7497
  640MPD2    H1 9531   2.345   2.984  10.044  1.8307 -2.0264 -2.9293
  640MPD2    H2 9532   2.322   2.568  10.015 -1.9890 -1.4541  0.8556
  640MPD2    H3 9533   2.438   2.761   9.978 -0.6532  0.3725 -0.7730
  640MPD2     N 9534   2.123   3.025  10.174 -0.1275 -0.1411  0.2648
  640MPD2    H5 9535   2.040   3.011  10.230 -0.3863 -0.9870 -0.3167
  640MPD2    N1 9536   2.107   2.541  10.167  0.3755 -0.2585  0.3117
  640MPD2    H7 9537   2.159   2.460  10.134  0.2503  0.5447 -1.9041
  641TMC3    C1 9538   1.940   2.385  10.222  0.5158 -0.5230  0.2883
  641TMC3    C2 9539   2.036   2.285  10.220  0.0974  0.1097  0.0848
  641TMC3    C3 9540   2.006   2.164  10.161 -0.5744 -0.8024 -0.6862
  641TMC3    C4 9541   1.827   2.369  10.148 -0.2473 -0.7648  0.2565
  641TMC3    C5 9542   1.803   2.254  10.082 -0.2026 -0.4950 -0.2790
  641TMC3    C6 9543   1.894   2.154  10.077  0.1068 -0.3842  0.4645
  641TMC3     C 9544   1.982   2.523  10.225  0.3515 -0.1592 -0.2432
  641TMC3     O 9545   1.899   2.602  10.259 -0.1931  0.6150  0.3731
  641TMC3     H 9546   2.128   2.305  10.274 -0.4036 -1.0107  1.3415
  641TMC3    H1 9547   1.749   2.445  10.150 -1.2299 -1.7781  0.0525
  641TMC3    H2 9548   1.875   2.060  10.027 -2.2103  0.8176 -0.9012
  641TMC3    C7 9549   1.693   2.257   9.992  0.5199  0.1593 -0.4943
  641TMC3    C8 9550   2.123   2.075  10.139 -0.0763 -0.5650  0.2706
  641TMC3    O1 9551   1.591   2.321  10.021 -0.0729  0.1428 -0.1113
  641TMC3    O2 9552   2.121   1.996  10.044 -0.3833 -0.4701 -0.2555
  642TMC3    C1 9553   3.612   3.533  12.334 -1.1106 -0.0193 -0.0874
  642TMC3    C2 9554   3.697   3.575  12.233  0.7008 -0.4962 -0.5726
  642TMC3    C3 9555   3.699   3.492  12.127  0.5484 -0.5971 -0.9432
  642TMC3    C4 9556   3.538   3.422  12.341  0.1519  0.8991  0.1703
  642TMC3    C5 9557   3.532   3.347  12.224 -0.5506  0.4366 -0.5661
  642TMC3    C6 9558   3.611   3.380  12.117 -0.4866 -0.4380  0.0276
  642TMC3     C 9559   3.602   3.628  12.440 -0.2378 -0.2888 -0.4861
  642TMC3     O 9560   3.695   3.703  12.463 -0.2292  0.0815 -0.1803
  642TMC3     H 9561   3.741   3.674  12.235  0.9922 -0.6251 -0.5541
  642TMC3    H1 9562   3.472   3.397  12.423  0.3799 -0.0728  0.0612
  642TMC3    H2 9563   3.614   3.311  12.033 -1.6220 -1.0408  0.4888
  642TMC3    C7 9564   3.440   3.232  12.201 -0.7251  0.2245  0.2959
  642TMC3    C8 9565   3.815   3.494  12.039 -0.0168 -0.1038  0.6208
  642TMC3    O1 9566   3.442   3.182  12.089 -0.1681  0.1537 -0.1714
  642TMC3    O2 9567   3.822   3.430  11.933 -0.2026  0.2914  0.4025
  643TMC3    C1 9568   2.659   3.020   0.616  0.1269 -0.5321 -0.6706
  643TMC3    C2 9569   2.528   3.063   0.632  0.3989  0.6484 -0.4226
  643TMC3    C3 9570   2.422   2.991   0.587  0.6490 -0.0559  1.1698
  643TMC3    C4 9571   2.685   2.904   0.544 -0.3956  0.5739 -0.7173
  643TMC3    C5 9572   2.572   2.833   0.485 -0.3832  0.3699 -0.3111
  643TMC3    C6 9573   2.445   2.867   0.526 -0.5219  0.5380 -0.0967
  643TMC3     C 9574   2.770   3.107   0.636  0.4133 -0.0367  0.3604
  643TMC3     O 9575   2.749   3.226   0.614 -0.1118  0.3687  0.1822
  643TMC3     H 9576   2.513   3.151   0.693  1.3274  0.8508 -0.4931
  643TMC3    H1 9577   2.788   2.871   0.530 -0.5461  0.0142 -0.5293
  643TMC3    H2 9578   2.363   2.801   0.502  0.9661 -1.3651  0.0069
  643TMC3    C7 9579   2.590   2.841   0.346 -0.6315 -0.3208 -0.1785
  643TMC3    C8 9580   2.334   3.075   0.514  0.2370  0.7925 -0.5509
  643TMC3    O1 9581   2.711   2.826   0.328  0.0734  0.1025 -0.9166
  643TMC3    O2 9582   2.242   3.014   0.460 -0.1106  0.0227 -0.1331
  644MPD2     C 9583   2.029   2.912   9.789 -0.2981 -0.3463  0.0537
  644MPD2    C1 9584   1.944   2.819   9.729  0.0087 -0.6117 -0.3131
  644MPD2    C2 9585   1.832   2.873   9.665 -1.0708 -0.1537 -0.6145
  644MPD2    C3 9586   1.807   3.010   9.664 -0.6187 -0.4129 -0.6859
  644MPD2    C4 9587   1.886   3.093   9.732  0.1984  0.7537 -0.4733
  644MPD2    C5 9588   1.998   3.045   9.793 -0.4317 -0.2915 -0.6488
  644MPD2     H 9589   1.746   2.817   9.630 -0.1048 -1.1163 -1.4329
  644MPD2    H1 9590   1.865   3.199   9.732  1.6239  1.0453 -3.3798
  644MPD2    H2 9591   2.114   2.880   9.848  2.0591 -0.5941 -3.4315
  644MPD2    H3 9592   2.069   3.119   9.831 -1.3467 -0.5669  1.5925
  644MPD2     N 9593   1.703   3.062   9.579 -0.3191  0.0075  0.2095
  644MPD2    H5 9594   1.647   2.990   9.535 -1.6461 -0.0342  1.9783
  644MPD2    N1 9595   1.964   2.679   9.753 -0.1019  0.2859 -0.7448
  644MPD2    H7 9596   2.056   2.662   9.794 -0.4236 -1.1877 -0.6081
  645TMC3    C1 9597   1.559   3.226   9.484 -0.1791 -0.2764 -0.9829
  645TMC3    C2 9598   1.541   3.359   9.444  0.3124 -0.3546  0.2956
  645TMC3    C3 9599   1.425   3.384   9.378  0.4130 -0.8230 -0.0614
  645TMC3    C4 9600   1.467   3.125   9.468 -0.2843  0.0526 -0.4647
  645TMC3    C5 9601   1.349   3.165   9.406  0.0819 -0.6182 -0.0829
  645TMC3    C6 9602   1.337   3.286   9.347  0.6516  0.8994  0.6631
  645TMC3     C 9603   1.680   3.200   9.558  0.3711  0.1471  0.2745
  645TMC3     O 9604   1.756   3.295   9.570 -0.4485 -0.3339  0.1913
  645TMC3     H 9605   1.609   3.439   9.473 -2.5528  1.8350  1.0407
  645TMC3    H1 9606   1.477   3.021   9.496 -1.3461 -0.0393 -0.4443
  645TMC3    H2 9607   1.250   3.310   9.287 -0.0215 -1.8728  0.4980
  645TMC3    C7 9608   1.277   3.062   9.333  0.2438  0.2335  0.0291
  645TMC3    C8 9609   1.397   3.520   9.329  1.2256 -0.2974 -0.1966
  645TMC3    O1 9610   1.242   3.096   9.221 -0.1487 -0.0315 -0.2709
  645TMC3    O2 9611   1.281   3.556   9.313 -0.2086 -0.0980  0.1913
  646MPD2     C 9612   2.076   2.478  14.355 -0.0287  0.1649 -0.7161
  646MPD2    C1 9613   2.003   2.491  14.472  0.0747 -0.3244  0.3480
  646MPD2    C2 9614   1.899   2.577  14.483 -0.1450  0.0534 -0.0379
  646MPD2    C3 9615   1.848   2.642  14.365  0.0744  0.0892 -0.4216
  646MPD2    C4 9616   1.922   2.627  14.249 -0.0999 -0.1916  0.5032
  646MPD2    C5 9617   2.035   2.546  14.245 -0.1674  0.3916 -0.1370
  646MPD2     H 9618   1.849   2.588  14.578 -2.8640  0.6620 -1.5406
  646MPD2    H1 9619   1.888   2.671  14.157  1.1542  0.4413  0.3344
  646MPD2    H2 9620   2.157   2.408  14.341 -0.3044 -0.1304 -0.8182
  646MPD2    H3 9621   2.085   2.528  14.151  0.3919 -1.2811  0.4872
  646MPD2     N 9622   1.732   2.729  14.371 -0.0405 -0.2928 -0.0484
  646MPD2    H5 9623   1.680   2.735  14.458 -1.7350 -2.4092 -0.9232
  646MPD2    N1 9624   2.068   2.437  14.590  0.1320  0.1818  0.0706
  646MPD2    H7 9625   2.155   2.385  14.579  0.6663  0.9033  0.8789
  647TMC3    C1 9626   2.131   2.390  14.814  0.5407  0.3267  0.1416
  647TMC3    C2 9627   2.090   2.373  14.940  0.8008 -0.6146 -0.1837
  647TMC3    C3 9628   2.189   2.367  15.034 -0.2524 -0.1879  0.7997
  647TMC3    C4 9629   2.263   2.378  14.777  0.0193 -0.1644 -0.2349
  647TMC3    C5 9630   2.363   2.358  14.877  0.6765  0.4024  0.7343
  647TMC3    C6 9631   2.323   2.365  15.006 -0.0675  0.1045 -0.3102
  647TMC3     C 9632   2.032   2.448  14.720  0.0078  0.0292 -0.4125
  647TMC3     O 9633   1.946   2.516  14.771  0.4192  0.8953 -0.5872
  647TMC3     H 9634   1.983   2.383  14.953  1.0870  2.7963 -0.4589
  647TMC3    H1 9635   2.288   2.400  14.674  1.8423  0.3121  0.3090
  647TMC3    H2 9636   2.395   2.353  15.087 -0.0099  2.3324 -0.0232
  647TMC3    C7 9637   2.486   2.287  14.852  0.6937  0.0471  0.3532
  647TMC3    C8 9638   2.153   2.306  15.158 -0.3176  0.3298 -0.1099
  647TMC3    O1 9639   2.574   2.281  14.937 -0.1166 -0.1640 -0.1511
  647TMC3    O2 9640   2.235   2.226  15.202 -0.0620 -0.0399 -0.4826
  648TMC3    C1 9641   1.326   4.643  16.033  0.6528  0.5578 -0.1781
  648TMC3    C2 9642   1.412   4.564  15.964  0.1491  0.1926 -0.7937
  648TMC3    C3 9643   1.371   4.512  15.844  0.1287 -0.5539  0.3680
  648TMC3    C4 9644   1.200   4.669  15.986 -0.5333 -0.5136  0.3101
  648TMC3    C5 9645   1.162   4.619  15.861 -0.0494  0.1046  0.2379
  648TMC3    C6 9646   1.248   4.546  15.786  0.0709  0.2210  0.4745
  648TMC3     C 9647   1.343   4.684  16.171  0.5750 -0.0511  0.0374
  648TMC3     O 9648   1.283   0.055  16.197  0.5813  0.1132  0.4243
  648TMC3     H 9649   1.510   4.539  16.003  1.1857  1.6223 -2.4688
  648TMC3    H1 9650   1.136   4.719  16.059 -2.8652 -2.4183 -0.4156
  648TMC3    H2 9651   1.208   4.496  15.699  1.2084 -0.8795  0.5841
  648TMC3    C7 9652   1.055   4.696  15.799 -0.1008 -0.8496  1.2030
  648TMC3    C8 9653   1.448   4.402  15.791 -0.0220 -0.2805  0.0754
  648TMC3    O1 9654   1.032   4.680  15.681  0.3981  0.3575 -0.5819
  648TMC3    O2 9655   1.457   4.387  15.673 -0.7499 -0.1196 -0.1495
  649TMC3    C1 9656   0.342   1.186  13.223  0.1664 -0.4435 -0.4047
  649TMC3    C2 9657   0.450   1.258  13.267 -0.3846 -0.3833 -0.9140
  649TMC3    C3 9658   0.481   1.237  13.397  0.4111 -0.0453 -0.0471
  649TMC3    C4 9659   0.287   1.089  13.299 -0.0860  0.3742 -0.2802
  649TMC3    C5 9660   0.342   1.057  13.418 -0.1790  0.2967 -0.0031
  649TMC3    C6 9661   0.435   1.142  13.482 -0.2516  0.2417  0.4481
  649TMC3     C 9662   0.262   1.235  13.111 -0.7814 -0.0579 -0.3513
  649TMC3     O 9663   0.140   1.229  13.124  0.2336 -0.0047  0.0570
  649TMC3     H 9664   0.491   1.344  13.216 -0.1811 -0.3354 -0.6639
  649TMC3    H1 9665   0.214   1.030  13.245  0.3679  0.2071 -0.7121
  649TMC3    H2 9666   0.475   1.129  13.582  2.3756  1.5433 -0.4507
  649TMC3    C7 9667   0.248   0.995  13.509  0.2667 -0.3498 -0.0289
  649TMC3    C8 9668   0.589   1.320  13.451 -0.1432 -0.3872 -0.4707
  649TMC3    O1 9669   0.246   1.046  13.620  0.0857 -0.4849  0.5784
  649TMC3    O2 9670   0.575   1.332  13.571 -0.4028  0.3622  0.1799
  650TMC3    C1 9671   2.833   2.761  12.992  0.7155 -0.2997  0.2294
  650TMC3    C2 9672   2.767   2.855  13.069 -0.0943 -0.3692  0.3725
  650TMC3    C3 9673   2.660   2.917  13.015 -0.2196  0.0402  0.6071
  650TMC3    C4 9674   2.803   2.727  12.862  0.2342  0.1687  0.6606
  650TMC3    C5 9675   2.692   2.793  12.815  0.3596  0.2403  0.5658
  650TMC3    C6 9676   2.614   2.877  12.890 -0.1063 -0.1783 -0.1301
  650TMC3     C 9677   2.958   2.722  13.045 -0.5386 -0.3959  1.0254
  650TMC3     O 9678   3.006   2.796  13.126 -0.1832  0.0682  0.4855
  650TMC3     H 9679   2.791   2.873  13.173 -2.9781  0.6532  0.8428
  650TMC3    H1 9680   2.879   2.679  12.801 -0.4375  0.9183 -0.7412
  650TMC3    H2 9681   2.537   2.942  12.850  1.2896  0.6875 -1.4096
  650TMC3    C7 9682   2.699   2.830  12.680 -1.2807  0.4480 -0.0917
  650TMC3    C8 9683   2.678   3.065  13.018 -0.3117  0.4994 -0.3112
  650TMC3    O1 9684   2.723   2.743  12.596  0.1125  0.9646 -0.2825
  650TMC3    O2 9685   2.700   3.112  12.904 -0.3518 -1.1301  0.0803
  651MPD2     C 9686   1.403   4.348  10.360  0.3327 -0.3663  0.2188
  651MPD2    C1 9687   1.406   4.466  10.423 -0.4178 -0.0395 -0.5650
  651MPD2    C2 9688   1.520   4.547  10.417  0.1013 -0.2252 -0.9856
  651MPD2    C3 9689   1.635   4.500  10.358  0.0705  0.3199 -0.2492
  651MPD2    C4 9690   1.635   4.375  10.297 -0.6171 -0.6266  0.0741
  651MPD2    C5 9691   1.514   4.305  10.298  0.0404 -0.1694 -0.9570
  651MPD2     H 9692   1.518   4.637  10.478  2.7634 -0.5588 -0.4053
  651MPD2    H1 9693   1.721   4.331  10.248  0.2271  2.6519 -1.4179
  651MPD2    H2 9694   1.316   4.285  10.344  0.1333 -0.2277  0.7385
  651MPD2    H3 9695   1.520   4.206  10.255 -0.7896 -0.5722 -0.1328
  651MPD2     N 9696   1.749   4.583  10.373  0.0310 -0.2883 -0.2434
  651MPD2    H5 9697   1.740   4.671  10.423  1.6233 -0.4963  0.4044
  651MPD2    N1 9698   1.299   4.515  10.500 -0.1039 -0.5844  0.1035
  651MPD2    H7 9699   1.312   4.610  10.534 -2.7545  0.6261 -2.2242
  652TMC3    C1 9700   2.197   4.706  10.403 -0.3252  0.0537 -0.7352
  652TMC3    C2 9701   2.100   4.648  10.327  0.6795  0.0068 -0.2574
  652TMC3    C3 9702   1.970   4.650  10.373 -0.8865  0.3439  0.9218
  652TMC3    C4 9703   2.177   0.035  10.519 -0.3185 -0.0640 -0.0214
  652TMC3    C5 9704   2.049   0.045  10.559  0.4524 -0.4150 -0.0301
  652TMC3    C6 9705   1.948   4.717  10.495  0.9576 -0.6496  0.5100
  652TMC3     C 9706   2.336   4.705  10.350  0.5828  0.6281  0.7252
  652TMC3     O 9707   2.391   0.079  10.370  0.2407  0.2108 -0.4267
  652TMC3     H 9708   2.118   4.623  10.223  0.6800  2.0167 -0.7283
  652TMC3    H1 9709   2.264   0.079  10.567  0.9296 -0.8209 -1.6037
  652TMC3    H2 9710   1.849   4.712  10.540  0.2675  1.6133 -0.7797
  652TMC3    C7 9711   2.023   0.120  10.681  0.6634  0.1414  0.0353
  652TMC3    C8 9712   1.871   4.560  10.314 -0.3622  0.2559  0.1232
  652TMC3    O1 9713   1.917   0.092  10.734 -0.4701 -0.2282 -0.0548
  652TMC3    O2 9714   1.914   4.473  10.241  0.0906  0.0921  0.2660
  653MPD2     C 9715   0.415   4.354  17.651  0.0568 -0.4816  0.5250
  653MPD2    C1 9716   0.369   4.454  17.565  0.1907  0.3195 -0.7302
  653MPD2    C2 9717   0.311   4.421  17.443  0.9144 -0.5418  0.0914
  653MPD2    C3 9718   0.306   4.285  17.413 -0.1373  1.2683 -0.3921
  653MPD2    C4 9719   0.348   4.187  17.498  0.1950 -0.2201 -0.4362
  653MPD2    C5 9720   0.408   4.218  17.619  0.0461 -0.3148 -0.4532
  653MPD2     H 9721   0.278   4.493  17.369  2.9973  0.5489  0.2240
  653MPD2    H1 9722   0.343   4.081  17.475 -1.1952 -0.3521  0.4511
  653MPD2    H2 9723   0.453   4.386   0.011  1.5428  1.0064 -0.5606
  653MPD2    H3 9724   0.456   4.141  17.678 -1.1928  1.4481  2.8977
  653MPD2     N 9725   0.236   4.252  17.292 -0.4512  0.4050 -0.4808
  653MPD2    H5 9726   0.214   4.329  17.230 -1.0666 -0.0873 -0.8661
  653MPD2    N1 9727   0.378   4.588  17.601 -0.1858  0.3761  0.2099
  653MPD2    H7 9728   0.338   4.654  17.534  1.6342  1.6708  0.4060
  654TMC3    C1 9729   0.162   4.123  17.110 -0.2204 -0.1260  0.0148
  654TMC3    C2 9730   0.122   4.238  17.049  0.2493  0.0022  0.0305
  654TMC3    C3 9731   0.076   4.233  16.921  0.1997  0.0882 -0.4528
  654TMC3    C4 9732   0.164   4.005  17.037  0.1350  0.0895  0.2845
  654TMC3    C5 9733   0.133   4.008  16.903 -0.0509 -0.3648  0.2331
  654TMC3    C6 9734   0.072   4.119  16.847 -0.2939 -0.6705  0.4424
  654TMC3     C 9735   0.224   4.122  17.237  0.7325 -0.2557  0.3887
  654TMC3     O 9736   0.264   4.015  17.270 -0.1748  0.0155 -0.5210
  654TMC3     H 9737   0.099   4.327  17.107 -0.3987 -1.4430  2.0286
  654TMC3    H1 9738   0.234   3.928  17.070  1.8149  0.9144 -1.3180
  654TMC3    H2 9739   0.028   4.121  16.748 -1.9401 -0.9625  1.1617
  654TMC3    C7 9740   0.145   3.886  16.822  0.5161  0.2975  0.4955
  654TMC3    C8 9741   0.015   4.348  16.871  1.2218  0.2281  0.1157
  654TMC3    O1 9742   0.144   3.903  16.702 -0.2648 -0.3002  0.4909
  654TMC3    O2 9743   4.690   4.422  16.951 -0.3694  0.4356  0.3419
  655MPD2     C 9744   1.596   0.067  15.706  0.1741 -1.1159  0.1077
  655MPD2    C1 9745   1.546   0.183  15.648 -1.0063  0.2494 -0.1542
  655MPD2    C2 9746   1.537   0.205  15.511  0.0281 -0.3275 -0.4455
  655MPD2    C3 9747   1.587   0.110  15.423 -0.6789 -0.0069 -0.3693
  655MPD2    C4 9748   1.643   4.733  15.477  0.4019  0.8577 -0.3550
  655MPD2    C5 9749   1.647   4.711  15.615 -0.4550  1.0152  1.0484
  655MPD2     H 9750   1.483   0.289  15.468  1.8217  1.5169  0.9153
  655MPD2    H1 9751   1.664   4.649  15.410 -2.5937 -1.2633  1.3758
  655MPD2    H2 9752   1.601   0.047  15.812 -0.5319 -1.0333  0.1568
  655MPD2    H3 9753   1.695   4.624  15.658 -0.0611  0.6954 -0.0328
  655MPD2     N 9754   1.572   0.113  15.279 -0.6086  0.4625  0.2703
  655MPD2    H5 9755   1.603   0.034  15.224 -0.1829  0.3155  0.7191
  655MPD2    N1 9756   1.483   0.290  15.718  0.1600  0.5531 -0.2350
  655MPD2    H7 9757   1.465   0.376  15.666 -0.0306 -1.7541 -4.0087
  656TMC3    C1 9758   1.354   0.381  15.896  1.0137 -0.2979 -0.3985
  656TMC3    C2 9759   1.307   0.372  16.029 -0.6151 -0.4050  0.4307
  656TMC3    C3 9760   1.221   0.462  16.071 -0.4803  0.4555  0.2616
  656TMC3    C4 9761   1.312   0.474  15.806 -0.2098  0.2217 -0.9099
  656TMC3    C5 9762   1.220   0.563  15.855  0.4628 -0.0045 -0.0533
  656TMC3    C6 9763   1.183   0.571  15.985  0.1141 -0.3760 -0.6466
  656TMC3     C 9764   1.451   0.277  15.856 -0.7423 -0.0687  0.2268
  656TMC3     O 9765   1.465   0.177  15.929  0.0933  0.1893 -0.6678
  656TMC3     H 9766   1.362   0.319  16.106  1.0752 -2.3532 -2.0743
  656TMC3    H1 9767   1.326   0.473  15.698  1.4321 -0.8572 -0.6889
  656TMC3    H2 9768   1.125   0.654  16.026  0.7795 -0.6137  0.7837
  656TMC3    C7 9769   1.189   0.677  15.775  0.5790  0.0043 -0.2561
  656TMC3    C8 9770   1.148   0.449  16.195 -0.4813  1.1463  0.9455
  656TMC3    O1 9771   1.249   0.692  15.665  0.0501  0.0935 -0.1290
  656TMC3    O2 9772   1.096   0.548  16.245 -0.2912  1.0130  0.0411
  657TMC3    C1 9773   0.371   4.595  14.781  0.4016 -0.1269 -0.0728
  657TMC3    C2 9774   0.403   4.631  14.910 -0.1943  0.2085 -0.3122
  657TMC3    C3 9775   0.323   4.731  14.962  0.0643 -0.3622  0.2836
  657TMC3    C4 9776   0.281   4.652  14.706 -0.3324  0.1088 -0.1844
  657TMC3    C5 9777   0.226   0.032  14.756 -0.5139 -0.4283  0.3754
  657TMC3    C6 9778   0.237   0.068  14.886  0.9944 -0.3808  0.8298
  657TMC3     C 9779   0.462   4.503  14.722 -0.2761  0.4601  0.5437
  657TMC3     O 9780   0.500   4.524  14.610  0.8228 -0.2135 -0.7170
  657TMC3     H 9781   0.480   4.581  14.968 -0.5741 -1.1244 -0.9666
  657TMC3    H1 9782   0.277   4.627  14.600 -0.0963 -1.7040  0.2329
  657TMC3    H2 9783   0.186   0.157  14.920 -1.6282 -0.9528 -1.5976
  657TMC3    C7 9784   0.117   0.102  14.684  0.1331 -0.5230 -0.4957
  657TMC3    C8 9785   0.337   0.048  15.100  0.0607 -0.2632 -0.0393
  657TMC3    O1 9786   0.082   0.208  14.729 -0.2106  0.1903  0.4196
  657TMC3    O2 9787   0.268   0.137  15.136  0.5594  0.2080  0.3628
  658MPD2     C 9788   1.918   4.616  14.775  0.8150  0.1878 -0.2933
  658MPD2    C1 9789   1.864   4.731  14.731 -0.1928  0.3846 -0.3149
  658MPD2    C2 9790   1.901   0.038  14.603  0.2074 -0.1795  0.2599
  658MPD2    C3 9791   1.990   4.696  14.527 -0.7773  0.6299 -0.1147
  658MPD2    C4 9792   2.037   4.573  14.573  0.4194  0.6589  0.3608
  658MPD2    C5 9793   2.001   4.539  14.698 -0.0470  0.2623 -0.1794
  658MPD2     H 9794   1.879   0.140  14.573  0.5222 -0.0301  0.5361
  658MPD2    H1 9795   2.094   4.506  14.509 -0.3084  0.3647  0.0189
  658MPD2    H2 9796   1.890   4.573  14.871 -1.9862 -0.6868 -1.5109
  658MPD2    H3 9797   2.039   4.446  14.741  0.2003  0.5691  0.2675
  658MPD2     N 9798   2.019   0.020  14.399 -0.6972  0.2558  0.3392
  658MPD2    H5 9799   1.972   0.106  14.373 -1.2261  0.4950  2.0843
  658MPD2    N1 9800   1.777   0.063  14.822  0.4392  0.2816  0.8090
  658MPD2    H7 9801   1.750   0.019  14.909  0.5130  1.3988  1.3860
  659TMC3    C1 9802   1.587   0.194  14.863 -0.0776  0.2798  0.1592
  659TMC3    C2 9803   1.598   0.160  14.998  0.2924 -0.2256 -0.5407
  659TMC3    C3 9804   1.485   0.185  15.070 -0.0745  0.5606  0.2985
  659TMC3    C4 9805   1.476   0.245  14.805 -0.1195 -0.3814  0.3454
  659TMC3    C5 9806   1.372   0.285  14.885  0.1288 -0.3349  0.3196
  659TMC3    C6 9807   1.382   0.264  15.019 -0.1768 -0.3508  0.0150
  659TMC3     C 9808   1.698   0.162  14.774  0.7372  0.4416  0.0653
  659TMC3     O 9809   1.687   0.215  14.667 -0.3676 -0.0027  0.1047
  659TMC3     H 9810   1.684   0.120  15.051  2.1911  0.9690 -2.7243
  659TMC3    H1 9811   1.461   0.268  14.700  0.2913 -1.0130  0.1503
  659TMC3    H2 9812   1.300   0.298  15.081 -0.8429 -1.9845  0.0362
  659TMC3    C7 9813   1.241   0.309  14.842 -0.2611 -0.2741 -0.4396
  659TMC3    C8 9814   1.516   0.221  15.207  0.3348 -0.2929  0.7670
  659TMC3    O1 9815   1.158   0.234  14.891  0.2403 -0.4649  0.2487
  659TMC3    O2 9816   1.463   0.323  15.245 -0.4374 -0.0597 -0.4677
  660MPD2     C 9817   4.550   3.985  12.877 -0.5978 -0.0064  0.0714
  660MPD2    C1 9818   4.432   4.007  12.810  0.0281 -0.1612  0.3871
  660MPD2    C2 9819   4.320   3.961  12.869  0.0957  0.0596  0.7064
  660MPD2    C3 9820   4.322   3.910  12.999 -0.4257 -0.3339  0.4359
  660MPD2    C4 9821   4.440   3.893  13.066 -0.4546 -0.2036 -0.0633
  660MPD2    C5 9822   4.558   3.929  13.004 -0.1724  0.0747 -0.2906
  660MPD2     H 9823   4.221   3.961  12.825  1.2990  2.5705 -1.9920
  660MPD2    H1 9824   4.450   3.854  13.166  4.0312  2.9698  0.7182
  660MPD2    H2 9825   4.646   4.012  12.834 -0.9804  0.3218 -0.5610
  660MPD2    H3 9826   4.655   3.921  13.051  0.3807 -0.0127 -1.4513
  660MPD2     N 9827   4.205   3.870  13.067 -0.4854  0.8965 -0.3803
  660MPD2    H5 9828   4.214   3.813  13.151  1.8294 -0.9635 -1.9180
  660MPD2    N1 9829   4.438   4.073  12.680  0.0474  0.0973 -0.5492
  660MPD2    H7 9830   4.530   4.083  12.639  0.0427 -0.1552 -0.6212
  661TMC3    C1 9831   4.341   4.174  12.487 -0.7616 -0.9115  0.2221
  661TMC3    C2 9832   4.423   4.111  12.399  0.0167  0.8584 -0.0785
  661TMC3    C3 9833   4.401   4.127  12.264  0.6028 -0.3867 -0.1137
  661TMC3    C4 9834   4.225   4.232  12.448 -0.0392 -0.1238 -0.4366
  661TMC3    C5 9835   4.191   4.236  12.322  0.4520 -0.1799 -0.3083
  661TMC3    C6 9836   4.282   4.185  12.226 -0.0655 -0.1807 -0.0210
  661TMC3     C 9837   4.326   4.120  12.618  0.3819  0.6942 -0.8786
  661TMC3     O 9838   4.213   4.123  12.661  0.4912 -0.0617 -0.2722
  661TMC3     H 9839   4.523   4.083  12.429 -0.6621 -1.8457 -0.3198
  661TMC3    H1 9840   4.163   4.285  12.520  0.1274  0.5767 -0.8126
  661TMC3    H2 9841   4.266   4.204  12.121  1.7452  1.9819  0.0983
  661TMC3    C7 9842   4.043   4.226  12.294 -0.6423 -0.1551 -0.4323
  661TMC3    C8 9843   4.496   4.098  12.160 -0.3488 -0.1366 -0.1559
  661TMC3    O1 9844   3.966   4.271  12.380  0.3152  0.1151  0.0027
  661TMC3    O2 9845   4.502   4.163  12.057  0.4734 -0.0823  0.9064
  662MPD2     C 9846   4.659   3.349  17.341  0.2820  0.3896 -1.3171
  662MPD2    C1 9847   4.614   3.223  17.379 -0.1688 -0.8997 -0.1655
  662MPD2    C2 9848   4.539   3.207  17.489  0.5739 -0.0280  0.7286
  662MPD2    C3 9849   4.506   3.319  17.566 -0.5024  0.3043 -0.0502
  662MPD2    C4 9850   4.542   3.446  17.522 -1.0366 -0.2178  0.9913
  662MPD2    C5 9851   4.631   3.459  17.415 -0.3131 -0.2839  0.3964
  662MPD2     H 9852   4.516   3.104  17.513 -0.5468  0.4827  1.8942
  662MPD2    H1 9853   4.507   3.536  17.571 -2.4717 -0.5645  0.5973
  662MPD2    H2 9854   4.717   3.364  17.251 -0.8161 -1.1134 -2.2631
  662MPD2    H3 9855   4.674   3.554  17.388 -0.1893 -0.1551  1.0506
  662MPD2     N 9856   4.429   3.299  17.681 -0.2506 -0.1986  0.0959
  662MPD2    H5 9857   4.392   3.206  17.697  0.0229 -0.5408 -1.3562
  662MPD2    N1 9858   4.657   3.109  17.305 -0.8176 -0.7894  0.4670
  662MPD2    H7 9859   4.619   3.023  17.342  0.5897 -1.5037  0.2289
  663TMC3    C1 9860   0.056   2.967  17.190 -0.0347  0.0826  0.4651
  663TMC3    C2 9861   0.062   2.886  17.299  0.3411 -0.4153  0.1776
  663TMC3    C3 9862   0.141   2.779  17.305 -0.2561 -0.0814  0.7723
  663TMC3    C4 9863   0.118   2.933  17.076  0.2522 -0.2665 -0.2775
  663TMC3    C5 9864   0.194   2.822  17.074  0.2724  0.3044  0.3642
  663TMC3    C6 9865   0.216   2.758  17.189  0.2320 -0.5955 -0.0486
  663TMC3     C 9866   0.003   3.103  17.196 -0.0672 -0.0528  0.3813
  663TMC3     O 9867   0.057   3.185  17.121  0.0419  0.3162 -0.6812
  663TMC3     H 9868   0.028   2.921  17.396 -1.3640 -2.4504  0.3183
  663TMC3    H1 9869   0.120   2.993  16.985  0.5648 -3.1554 -2.1868
  663TMC3    H2 9870   0.263   2.661  17.191  3.2407  0.8787  0.7479
  663TMC3    C7 9871   0.206   2.748  16.956 -0.7150 -0.3968 -0.6621
  663TMC3    C8 9872   0.077   2.651  17.340 -0.2646 -0.7063  0.1184
  663TMC3    O1 9873   0.248   2.794  16.851  0.1098  0.1629  0.6503
  663TMC3    O2 9874   0.100   2.557  17.271 -0.1693  0.3424 -0.3604
  664MPD2     C 9875   3.084   1.091  16.729 -0.1119  0.2311  0.4218
  664MPD2    C1 9876   3.079   1.115  16.862  0.2714 -0.5208  0.1816
  664MPD2    C2 9877   3.093   1.001  16.951 -0.2631  0.3300  0.1544
  664MPD2    C3 9878   3.102   0.877  16.897 -0.4491 -0.2590  0.5163
  664MPD2    C4 9879   3.091   0.857  16.760  0.5593  0.5452 -0.1048
  664MPD2    C5 9880   3.086   0.963  16.676 -0.3135 -0.1409 -0.1435
  664MPD2     H 9881   3.100   1.013  17.059  1.1566  0.2419  0.0725
  664MPD2    H1 9882   3.090   0.761  16.709  0.5481  0.6516 -0.3072
  664MPD2    H2 9883   3.086   1.171  16.657  0.1560 -0.7044 -0.6084
  664MPD2    H3 9884   3.077   0.956  16.568  0.1051 -1.5500 -0.0858
  664MPD2     N 9885   3.102   0.778  16.992  0.0985  0.0138  0.1694
  664MPD2    H5 9886   3.116   0.819  17.084  0.6606  1.0160 -0.3646
  664MPD2    N1 9887   3.075   1.244  16.909 -0.1611  0.2126 -0.7016
  664MPD2    H7 9888   3.088   1.253  17.009  0.0178  0.4866 -0.7474
  665TMC3    C1 9889   3.105   0.573  17.091 -0.3510  0.1490  0.3031
  665TMC3    C2 9890   3.000   0.488  17.102 -0.5396  0.4620  0.3496
  665TMC3    C3 9891   2.928   0.497  17.223  0.0939 -0.4504  0.1379
  665TMC3    C4 9892   3.151   0.651  17.192 -0.6634 -0.0896  0.2520
  665TMC3    C5 9893   3.078   0.662  17.304 -0.0294  0.5567  0.0594
  665TMC3    C6 9894   2.961   0.589  17.318  0.2140 -0.6637  0.1683
  665TMC3     C 9895   3.093   0.645  16.964 -0.1616 -0.5212  0.4365
  665TMC3     O 9896   3.062   0.585  16.863 -0.2370  0.2445 -0.0752
  665TMC3     H 9897   2.950   0.444  17.016  0.0362  0.7235 -0.1218
  665TMC3    H1 9898   3.246   0.702  17.189 -1.1658  0.9417  1.9490
  665TMC3    H2 9899   2.890   0.609  17.398 -0.9003  1.1347 -1.2880
  665TMC3    C7 9900   3.082   0.793  17.342  0.6355 -0.0713  0.6622
  665TMC3    C8 9901   2.800   0.426  17.229 -0.0338 -0.0233 -0.2045
  665TMC3    O1 9902   3.101   0.867  17.251 -0.2857  0.1405 -0.2317
  665TMC3    O2 9903   2.798   0.306  17.198  0.5822  0.6229 -0.0953
  666TMC3    C1 9904   2.379   1.127  10.105  0.6000  0.2987 -0.0738
  666TMC3    C2 9905   2.462   1.071  10.206  0.7090 -0.2480 -0.4472
  666TMC3    C3 9906   2.506   1.165  10.296  0.0996 -0.1829 -0.1956
  666TMC3    C4 9907   2.335   1.253  10.104 -0.0991 -0.1052  0.7661
  666TMC3    C5 9908   2.375   1.341  10.196  0.8781 -0.3626  0.1173
  666TMC3    C6 9909   2.470   1.300  10.296  0.1577 -0.0611  0.1569
  666TMC3     C 9910   2.342   1.035   9.998  0.7142 -0.3481  0.1508
  666TMC3     O 9911   2.321   1.073   9.883  0.3009 -0.2045 -0.5178
  666TMC3     H 9912   2.514   0.976  10.198  1.2475 -0.1409  1.6735
  666TMC3    H1 9913   2.278   1.286  10.018  0.6243  0.1035  0.3612
  666TMC3    H2 9914   2.499   1.367  10.376 -1.2521 -0.7253  1.2083
  666TMC3    C7 9915   2.297   1.464  10.228  0.5806 -0.7142  0.4475
  666TMC3    C8 9916   2.594   1.122  10.399 -0.5734 -0.3677 -0.3910
  666TMC3    O1 9917   2.314   1.513  10.338  0.7408  0.3366 -0.4560
  666TMC3    O2 9918   2.587   1.006  10.430 -0.5588 -0.0143  0.1027
  667MPD2     C 9919   3.508   1.752  14.604  0.1297  0.4602 -0.0746
  667MPD2    C1 9920   3.485   1.678  14.714 -0.5634 -0.6560  0.7778
  667MPD2    C2 9921   3.394   1.570  14.712  0.2105  0.9509 -0.0821
  667MPD2    C3 9922   3.344   1.527  14.590  0.0403 -0.9406  0.0988
  667MPD2    C4 9923   3.366   1.600  14.471  0.1701 -0.2729  0.1966
  667MPD2    C5 9924   3.448   1.716  14.485 -0.3449 -0.0503 -0.5284
  667MPD2     H 9925   3.369   1.518  14.804 -0.9659  0.0121 -0.9455
  667MPD2    H1 9926   3.311   1.585  14.379 -1.0070  1.5381  0.6084
  667MPD2    H2 9927   3.566   1.844  14.601  1.1761 -0.1833  0.3895
  667MPD2    H3 9928   3.466   1.776  14.397 -0.1733  0.7999  0.0890
  667MPD2     N 9929   3.254   1.421  14.580 -0.2484 -0.4868 -0.3937
  667MPD2    H5 9930   3.245   1.372  14.492  0.4737  0.6030 -1.0723
  667MPD2    N1 9931   3.554   1.698  14.836  0.0156 -0.7040 -0.1816
  667MPD2    H7 9932   3.539   1.635  14.915  3.2652  0.4369  1.3427
  668TMC3    C1 9933   3.703   1.784  14.998 -0.1251 -0.9161 -0.3976
  668TMC3    C2 9934   3.800   1.877  15.027  0.2652 -0.4747 -0.2097
  668TMC3    C3 9935   3.830   1.910  15.157  0.2440  0.0534  0.0392
  668TMC3    C4 9936   3.634   1.726  15.102 -0.2870 -0.5080 -0.3799
  668TMC3    C5 9937   3.661   1.772  15.231 -0.1353  0.2158 -0.8150
  668TMC3    C6 9938   3.758   1.862  15.262 -0.0685 -0.1843 -0.4424
  668TMC3     C 9939   3.643   1.796  14.865 -0.3342 -0.1776 -0.3706
  668TMC3     O 9940   3.668   1.899  14.804 -0.4545 -0.4897 -0.6351
  668TMC3     H 9941   3.853   1.934  14.951 -1.6394  0.1011 -1.1035
  668TMC3    H1 9942   3.571   1.640  15.085 -2.2330  0.7544  0.4101
  668TMC3    H2 9943   3.788   1.897  15.360  0.7257 -1.5570 -0.1889
  668TMC3    C7 9944   3.627   1.675  15.342 -0.2776 -0.1164 -0.2399
  668TMC3    C8 9945   3.937   2.002  15.188  0.2778 -0.5865  0.6975
  668TMC3    O1 9946   3.710   1.666  15.429 -0.1978 -0.2564  0.2765
  668TMC3    O2 9947   3.962   2.033  15.302  0.1163 -0.0337 -0.6990
  669TMC3    C1 9948   1.925   1.679  14.827  0.0802  0.1832 -0.0768
  669TMC3    C2 9949   1.793   1.713  14.798 -0.9242  0.1605  0.1581
  669TMC3    C3 9950   1.762   1.805  14.705 -0.0099 -0.6803  0.2705
  669TMC3    C4 9951   2.026   1.723  14.743  0.1737  0.5394  0.8983
  669TMC3    C5 9952   1.991   1.823  14.650 -0.0950 -0.2286 -0.5868
  669TMC3    C6 9953   1.863   1.867  14.641  0.2666 -0.1960  0.1709
  669TMC3     C 9954   1.952   1.568  14.920  0.6240  0.1084  0.5716
  669TMC3     O 9955   1.859   1.486  14.934  0.0775  0.1893 -0.4473
  669TMC3     H 9956   1.713   1.648  14.832  0.4191 -1.2731  0.6158
  669TMC3    H1 9957   2.124   1.682  14.763 -0.1967 -1.1475 -0.7248
  669TMC3    H2 9958   1.839   1.944  14.569  0.9302  0.0603  0.2263
  669TMC3    C7 9959   2.088   1.862  14.550  0.0024 -0.4262  0.7825
  669TMC3    C8 9960   1.622   1.816  14.664  0.3024  0.5083 -0.2994
  669TMC3    O1 9961   2.067   1.970  14.500 -0.2529 -0.0542 -0.0205
  669TMC3    O2 9962   1.559   1.717  14.684 -0.4085  0.3498 -0.0764
  670MPD2     C 9963   4.538   4.363  13.428  0.3519  0.4514  1.2239
  670MPD2    C1 9964   4.646   4.409  13.505 -0.6335 -0.0497  0.4845
  670MPD2    C2 9965   4.680   4.351  13.622 -0.4267  0.1727 -0.0102
  670MPD2    C3 9966   4.599   4.257  13.680  0.0487  0.3590 -0.2915
  670MPD2    C4 9967   4.480   4.220  13.614 -0.4103  1.2144 -0.1486
  670MPD2    C5 9968   4.450   4.274  13.489 -0.2757 -1.0430 -0.2525
  670MPD2     H 9969   0.038   4.375  13.674 -0.7262  2.0284 -0.3335
  670MPD2    H1 9970   4.414   4.139  13.641  0.4086  0.6621  0.2091
  670MPD2    H2 9971   4.530   4.380  13.322 -1.0448  1.3244  1.4710
  670MPD2    H3 9972   4.360   4.238  13.440 -1.6615 -1.0699  2.2979
  670MPD2     N 9973   4.638   4.196  13.801  0.0648  0.8929  0.5004
  670MPD2    H5 9974   4.722   4.226  13.850  2.1672 -0.2692 -2.4355
  670MPD2    N1 9975   0.006   4.495  13.455  0.0795  0.2449  0.2745
  670MPD2    H7 9976   0.092   4.501  13.508  0.1850  0.3792  0.0865
  671TMC3    C1 9977   4.603   4.073  13.997 -0.3353 -0.0403  0.1918
  671TMC3    C2 9978   4.730   4.082  14.047  0.1382 -0.1486  0.2016
  671TMC3    C3 9979   0.034   3.999  14.152 -0.5457  0.1740  0.6052
  671TMC3    C4 9980   4.516   3.984  14.058 -0.3194  0.4117 -0.2671
  671TMC3    C5 9981   4.551   3.910  14.166  0.4294 -0.0689  0.1394
  671TMC3    C6 9982   4.679   3.912  14.209  0.6305 -0.8656  0.2549
  671TMC3     C 9983   4.568   4.088  13.855  0.4471 -0.5710  0.1018
  671TMC3     O 9984   4.498   4.002  13.806 -0.0844  0.1684 -0.1371
  671TMC3     H 9985   0.057   4.171  14.034 -1.8293  1.0155 -1.0285
  671TMC3    H1 9986   4.417   3.973  14.016 -0.0900 -1.3182 -0.3910
  671TMC3    H2 9987   4.707   3.841  14.286  0.9608  0.3226  1.2242
  671TMC3    C7 9988   4.499   3.780  14.171  0.0316 -1.1566 -0.0884
  671TMC3    C8 9989   0.179   3.999  14.191  0.1343  0.3548  0.7852
  671TMC3    O1 9990   4.576   3.683  14.154  0.1423 -0.5111 -0.2439
  671TMC3    O2 9991   0.265   4.054  14.124 -0.5120 -0.2128 -0.2323
  672MPD2     C 9992   0.119   3.543   0.844  0.1201 -0.1948  0.1387
  672MPD2    C1 9993   0.168   3.650   0.770  0.9284 -1.0565 -0.5046
  672MPD2    C2 9994   0.190   3.779   0.831 -0.1413  0.2260 -0.2024
  672MPD2    C3 9995   0.162   3.790   0.967  0.2567  0.3409 -0.3229
  672MPD2    C4 9996   0.114   3.684   1.039 -0.2647 -0.3902  0.5355
  672MPD2    C5 9997   0.087   3.563   0.974  0.0174  0.0610  0.1898
  672MPD2     H 9998   0.229   3.859   0.768  0.8534  0.7058  1.0183
  672MPD2    H1 9999   0.093   3.689   1.145 -0.3454 -2.2339  0.6022
  672MPD2    H210000   0.092   3.448   0.800 -0.0686 -0.0226 -0.1187
  672MPD2    H310001   0.039   3.477   1.019 -0.5821  0.2341 -0.1197
  672MPD2     N10002   0.208   3.903   1.043  0.1724 -0.0713 -0.6374
  672MPD2    H510003   0.186   3.918   1.141  3.6982 -0.3038  0.1935
  672MPD2    N110004   0.200   3.630   0.634  0.2236  0.1187 -0.1095
  672MPD2    H710005   0.230   3.709   0.578  2.6259  1.8557  3.6310
  673TMC3    C110006   0.271   3.522   0.434 -0.1657  0.0329  0.4631
  673TMC3    C210007   0.322   3.413   0.369  0.6565  0.1823 -0.1130
  673TMC3    C310008   0.387   3.420   0.250  0.9210  0.5034  0.0471
  673TMC3    C410009   0.278   3.645   0.380 -0.0322  0.1161 -0.1011
  673TMC3    C510010   0.343   3.651   0.259 -0.0949  1.2672 -0.3760
  673TMC3    C610011   0.397   3.544   0.198  0.6297 -0.1337 -0.3518
  673TMC3     C10012   0.224   3.507   0.565  0.7717  0.2553  0.1328
  673TMC3     O10013   0.215   3.392   0.601 -0.3680  0.1150  0.0893
  673TMC3     H10014   0.305   3.313   0.407 -0.8551  0.2430 -0.6453
  673TMC3    H110015   0.238   3.734   0.427  1.1027  0.7047 -0.2345
  673TMC3    H210016   0.438   3.556   0.099  1.7781  1.3662  0.3082
  673TMC3    C710017   0.403   3.781   0.219  0.6656 -0.5046 -0.4762
  673TMC3    C810018   0.504   3.337   0.237 -0.2350  0.9946 -0.4832
  673TMC3    O110019   0.482   3.764   0.128 -0.6191 -0.1377 -0.4225
  673TMC3    O210020   0.560   3.347   0.132 -0.0930  0.1806  0.0494
  674MPD2     C10021   0.094   4.052  17.729  0.7856  0.3326  0.4186
  674MPD2    C110022   0.042   3.943   0.059  0.5836 -0.0498 -0.0976
  674MPD2    C210023   4.709   3.982   0.165 -0.4058 -0.2537 -0.0435
  674MPD2    C310024   4.698   4.108   0.220 -0.3860  0.5835  0.3193
  674MPD2    C410025   0.038   4.205   0.164 -0.5319 -0.3667 -0.2699
  674MPD2    C510026   0.085   4.180   0.047  0.0472  0.0337 -0.3759
  674MPD2     H10027   4.660   3.905   0.223  0.9040 -1.8394 -1.0374
  674MPD2    H110028   0.040   4.307   0.202  1.1061 -0.0100 -1.3282
  674MPD2    H210029   0.156   4.033  17.642  0.5579  1.7628 -0.0609
  674MPD2    H310030   0.146   4.255  17.735  0.9624 -1.0146 -0.8563
  674MPD2     N10031   4.628   4.127   0.344  0.2274 -0.3693 -0.2958
  674MPD2    H510032   4.591   4.042   0.385  0.7411 -0.4691 -0.0418
  674MPD2    N110033   0.058   3.807   0.014  0.3248 -0.4257  0.1533
  674MPD2    H710034   0.088   3.803  17.653  2.1867 -2.9694  0.8233
  675TMC3    C110035   0.062   3.570   0.026 -0.1174 -0.9199  0.3066
  675TMC3    C210036   0.023   3.457   0.087 -0.2709 -0.0303 -0.0619
  675TMC3    C310037   0.067   3.344   0.037  0.0018 -0.0920  0.1929
  675TMC3    C410038   0.154   3.573  17.654  0.0247  0.0187  0.0997
  675TMC3    C510039   0.208   3.457  17.622  0.1915  0.1845  0.0456
  675TMC3    C610040   0.163   3.337  17.671 -0.5230 -0.3718  0.3818
  675TMC3     C10041   0.024   3.694   0.083 -0.4001 -1.0237  0.1548
  675TMC3     O10042   4.716   3.687   0.200  0.4034 -0.2885 -0.1439
  675TMC3     H10043   4.686   3.460   0.169 -1.3365 -1.0400 -0.9577
  675TMC3    H110044   0.199   3.661  17.608  0.8497  0.2167  1.2961
  675TMC3    H210045   0.194   3.237  17.641 -3.6841 -0.9856 -0.8324
  675TMC3    C710046   0.311   3.453  17.523 -0.0873  0.9113  0.3515
  675TMC3    C810047   0.016   3.214   0.085  0.0236 -0.3670  0.3962
  675TMC3    O110048   0.294   3.521  17.423 -0.4097 -0.7368  0.2032
  675TMC3    O210049   0.029   3.118   0.007  0.6093 -0.5423 -0.1171
  676MPD2     C10050   2.973   2.473  11.200 -0.4206 -0.3528  0.4419
  676MPD2    C110051   2.849   2.418  11.241 -0.1560  0.7466 -0.2195
  676MPD2    C210052   2.845   2.275  11.264 -1.4776 -0.7420 -0.0910
  676MPD2    C310053   2.948   2.183  11.235  0.0854 -1.0143 -0.7780
  676MPD2    C410054   3.060   2.246  11.191 -0.1679  0.5054 -0.0212
  676MPD2    C510055   3.078   2.386  11.171 -0.7196 -0.0709  0.1394
  676MPD2     H10056   2.752   2.231  11.298 -1.8808  0.9223  0.9538
  676MPD2    H110057   3.149   2.185  11.177  0.7846  1.7580  0.5959
  676MPD2    H210058   2.988   2.578  11.180 -2.2022 -0.7690 -3.1085
  676MPD2    H310059   3.170   2.427  11.129 -1.1299  1.6550  0.8960
  676MPD2     N10060   2.940   2.042  11.236 -0.1293  0.6966 -0.0438
  676MPD2    H510061   3.014   1.993  11.187  1.2231  2.0047  0.7122
  676MPD2    N110062   2.732   2.488  11.266 -0.1379 -0.0066  0.0077
  676MPD2    H710063   2.653   2.429  11.288 -0.2925  0.8785  1.7732
  677TMC3    C110064   2.578   2.659  11.273 -0.5186  0.2859 -0.5919
  677TMC3    C210065   2.484   2.565  11.291  0.1615  0.1926 -0.5487
  677TMC3    C310066   2.362   2.592  11.353 -0.1287  1.0471 -0.4756
  677TMC3    C410067   2.555   2.777  11.331  0.3655 -0.1768  0.1553
  677TMC3    C510068   2.435   2.807  11.391 -0.0064 -0.0356  0.8315
  677TMC3    C610069   2.338   2.717  11.408  0.4367  0.0789 -0.1255
  677TMC3     C10070   2.715   2.624  11.244 -0.5430  0.2500  0.8931
  677TMC3     O10071   2.792   2.714  11.253  0.0490 -0.4320 -0.3462
  677TMC3     H10072   2.503   2.464  11.255 -0.3995 -0.0462 -0.1877
  677TMC3    H110073   2.627   2.858  11.331  1.3748 -1.0760 -0.4374
  677TMC3    H210074   2.248   2.735  11.465  1.4849  2.3624  0.7844
  677TMC3    C710075   2.425   2.910  11.493 -0.3849 -0.1963  0.0399
  677TMC3    C810076   2.264   2.483  11.368 -0.5443  0.2357 -0.0847
  677TMC3    O110077   2.350   2.897  11.591  0.2303 -0.4180 -0.1158
  677TMC3    O210078   2.246   2.403  11.277  0.1840 -0.4444 -0.1695
  678MPD2     C10079   4.294   1.515   1.220  1.3266  0.1689  0.5283
  678MPD2    C110080   4.334   1.574   1.099 -0.1387  0.1816  0.1736
  678MPD2    C210081   4.245   1.580   0.990  0.9519  0.6329  0.1086
  678MPD2    C310082   4.122   1.515   0.999  0.2387 -0.3137  0.5578
  678MPD2    C410083   4.094   1.450   1.113  1.1054  0.1841  0.0637
  678MPD2    C510084   4.171   1.453   1.222 -0.1043  1.0384 -0.0040
  678MPD2     H10085   4.280   1.630   0.901 -1.6460 -0.1349 -1.3436
  678MPD2    H110086   3.993   1.412   1.127  1.9101 -1.9528  0.0052
  678MPD2    H210087   4.344   1.522   1.316  1.3926  1.3542  0.4032
  678MPD2    H310088   4.143   1.414   1.319 -0.3309  2.0666  0.3450
  678MPD2     N10089   4.035   1.533   0.893  0.0269 -0.1909 -0.8462
  678MPD2    H510090   4.073   1.580   0.812  0.3671  0.4822 -0.3016
  678MPD2    N110091   4.457   1.640   1.109  0.5000  0.2655  0.2033
  678MPD2    H710092   4.513   1.635   1.193 -0.1125 -0.5978  0.5489
  679TMC3    C110093   0.129   1.778   1.128 -0.6584 -0.4986 -0.4114
  679TMC3    C210094   0.007   1.719   1.127  0.2536  0.0433 -0.5327
  679TMC3    C310095   4.634   1.789   1.072  0.0759  0.6935  0.4421
  679TMC3    C410096   0.152   1.897   1.055  0.0668 -0.6351 -0.4696
  679TMC3    C510097   0.037   1.966   1.019  0.7686 -0.3151  0.4665
  679TMC3    C610098   4.645   1.915   1.027  0.7496  0.5454 -0.5133
  679TMC3     C10099   0.246   1.695   1.154  0.7959  0.0318 -0.4733
  679TMC3     O10100   0.355   1.725   1.100  0.3491  0.3197  0.2528
  679TMC3     H10101   4.722   1.621   1.168  0.0523  0.8108  1.1804
  679TMC3    H110102   0.253   1.935   1.047  0.2545 -1.2479 -1.0647
  679TMC3    H210103   4.557   1.971   0.999  0.7506  1.4352  1.2507
  679TMC3    C710104   0.050   2.099   0.952  0.1570 -0.0127  0.5016
  679TMC3    C810105   4.515   1.723   1.017  0.4805 -0.3694  0.6917
  679TMC3    O110106   4.686   2.173   0.961  0.3707  0.4029 -0.0552
  679TMC3    O210107   4.469   1.774   0.917  0.9323  0.0725 -0.8970
  680MPD2     C10108   4.290   1.456  13.911 -0.5239 -0.5875 -0.4675
  680MPD2    C110109   4.374   1.361  13.978 -0.5323 -0.2327  0.0021
  680MPD2    C210110   4.464   1.410  14.067 -0.0664  0.0764 -1.2858
  680MPD2    C310111   4.480   1.549  14.084 -0.2546  0.4394 -0.8042
  680MPD2    C410112   4.410   1.636  14.008 -0.6929  0.1299  0.5767
  680MPD2    C510113   4.311   1.592  13.926  0.3994  0.2309 -0.1804
  680MPD2     H10114   4.529   1.343  14.122 -0.0183  1.9960  1.0126
  680MPD2    H110115   4.430   1.742  14.004 -0.9457  0.0377 -3.2393
  680MPD2    H210116   4.214   1.428  13.838 -0.2535 -1.2731 -0.4889
  680MPD2    H310117   4.255   1.653  13.856  0.9610 -0.4696 -1.2514
  680MPD2     N10118   4.589   1.603  14.160 -0.8303  0.0204 -0.0021
  680MPD2    H510119   4.577   1.700  14.184 -1.9490  0.3561 -1.9791
  680MPD2    N110120   4.362   1.220  13.951 -0.4613  0.2433  0.6948
  680MPD2    H710121   4.420   1.152  13.998 -0.1726  0.3293  0.4594
  681TMC3    C110122   4.256   1.015  13.905 -0.0353 -0.1806 -0.4264
  681TMC3    C210123   4.161   0.952  13.976 -0.3166  0.3402 -0.3570
  681TMC3    C310124   4.200   0.839  14.046 -0.2683 -0.2487 -0.0794
  681TMC3    C410125   4.377   0.964  13.891  0.1945 -0.3395  0.2672
  681TMC3    C510126   4.414   0.847  13.950 -0.7652 -0.2337 -0.2963
  681TMC3    C610127   4.319   0.784  14.029 -0.3235  0.9611  0.6883
  681TMC3     C10128   4.251   1.162  13.902 -0.5314 -0.7329 -0.3885
  681TMC3     O10129   4.145   1.207  13.861 -0.5472  0.0362  0.3224
  681TMC3     H10130   4.067   1.001  13.994  0.1580  0.2669  2.2327
  681TMC3    H110131   4.443   1.020  13.826  0.8116 -0.6941  0.5881
  681TMC3    H210132   4.346   0.688  14.070  0.8980  1.1808  0.4048
  681TMC3    C710133   4.499   0.756  13.874 -0.1689 -0.0096  0.3116
  681TMC3    C810134   4.151   0.860  14.184 -1.1583 -0.1122 -0.0616
  681TMC3    O110135   4.471   0.639  13.876 -0.5905  0.3623  0.0263
  681TMC3    O210136   4.033   0.883  14.214  0.3059 -0.1691  0.0908
  682MPD2     C10137   1.803   2.526  10.772  0.1976 -0.1149  0.8837
  682MPD2    C110138   1.773   2.430  10.865 -0.3244 -0.2051 -0.0030
  682MPD2    C210139   1.718   2.468  10.987  0.3347 -0.4814  0.2048
  682MPD2    C310140   1.689   2.602  11.010  0.6508  0.5233 -0.4829
  682MPD2    C410141   1.722   2.696  10.916  0.0725 -0.2511 -0.4263
  682MPD2    C510142   1.767   2.654  10.793 -0.2242 -0.4983 -0.4837
  682MPD2     H10143   1.705   2.399  11.070  2.6869 -0.2562  0.7578
  682MPD2    H110144   1.693   2.800  10.923  1.0006 -0.2945  4.1310
  682MPD2    H210145   1.868   2.515  10.686 -2.0010  0.5586 -0.8683
  682MPD2    H310146   1.783   2.734  10.722 -1.4396 -0.8620 -1.1561
  682MPD2     N10147   1.613   2.640  11.126  0.1664  0.7912 -0.1028
  682MPD2    H510148   1.604   2.740  11.133  1.9563  0.8661  0.9781
  682MPD2    N110149   1.804   2.297  10.842 -0.5819 -0.0112 -0.4237
  682MPD2    H710150   1.774   2.226  10.908 -0.7608 -0.2886 -0.8044
  683TMC3    C110151   1.411   2.842  11.396  0.0318 -0.0884 -0.0915
  683TMC3    C210152   1.287   2.796  11.428 -0.0074 -0.3723  0.4322
  683TMC3    C310153   1.258   2.662  11.402  0.3961  0.8858 -0.2613
  683TMC3    C410154   1.505   2.754  11.349 -0.1554 -0.2224  0.5983
  683TMC3    C510155   1.473   2.624  11.319 -0.2502 -0.3606  0.3613
  683TMC3    C610156   1.350   2.577  11.353  1.2417  0.3754  0.3379
  683TMC3     C10157   1.450   2.952  11.487 -0.0978 -0.0607 -1.3632
  683TMC3     O10158   1.364   3.030  11.529 -0.6405  0.2464 -0.2410
  683TMC3     H10159   1.209   2.858  11.469  0.1903  0.2534 -0.1415
  683TMC3    H110160   1.607   2.786  11.330 -0.6621 -0.1485 -1.9480
  683TMC3    H210161   1.320   2.478  11.320 -0.6547  1.1019 -0.1375
  683TMC3    C710162   1.545   2.550  11.210  0.1199 -0.5229  0.4880
  683TMC3    C810163   1.115   2.623  11.393 -0.1142  0.2422  0.0641
  683TMC3    O110164   1.528   2.429  11.198 -0.4397  0.3782 -0.2189
  683TMC3    O210165   1.031   2.706  11.355 -0.6123  0.2054 -0.0835
  684MPD2     C10166   4.692   2.452  16.451 -0.2983  0.1106 -0.3880
  684MPD2    C110167   4.684   2.500  16.322  0.0373 -0.3598 -0.3356
  684MPD2    C210168   4.673   2.634  16.288 -0.3963  0.4210 -0.0280
  684MPD2    C310169   4.675   2.727  16.394 -0.1710 -0.4133 -0.2454
  684MPD2    C410170   4.678   2.684  16.521 -0.1755  0.2663 -0.3576
  684MPD2    C510171   4.686   2.549  16.548 -0.4232  0.4236 -0.1940
  684MPD2     H10172   4.658   2.655  16.182  0.8076 -0.2750 -0.3273
  684MPD2    H110173   4.665   2.760  16.598  1.6687 -0.0902  0.3087
  684MPD2    H210174   4.673   2.349  16.480  0.5372  0.3183  0.8937
  684MPD2    H310175   4.683   2.516  16.651  3.9494  0.4937 -0.0622
  684MPD2     N10176   4.662   2.864  16.378 -0.0343  0.3663 -0.6016
  684MPD2    H510177   4.659   2.919  16.464  0.3971  1.1476 -1.0888
  684MPD2    N110178   4.683   2.403  16.214  0.0652 -0.2774 -0.1478
  684MPD2    H710179   4.675   2.448  16.123  0.3335 -0.3006 -0.1832
  685TMC3    C110180   4.731   2.208  16.089  0.0396 -0.2377  0.5703
  685TMC3    C210181   4.649   2.240  15.987  0.6546 -0.1987  0.4203
  685TMC3    C310182   4.689   2.214  15.861  0.1301  0.1632 -0.0632
  685TMC3    C410183   0.119   2.142  16.071 -0.1586  0.4000 -0.4227
  685TMC3    C510184   0.146   2.110  15.940 -0.1049 -0.1854 -0.0712
  685TMC3    C610185   0.067   2.147  15.838 -0.3477  0.4277 -0.2416
  685TMC3     C10186   4.704   2.267  16.219  0.3666 -0.5626 -0.0650
  685TMC3     O10187   4.710   2.190  16.319 -0.0720  0.0770 -0.3666
  685TMC3     H10188   4.557   2.294  16.002  0.5829  0.4637 -2.3805
  685TMC3    H110189   0.170   2.108  16.160  0.0985  0.9425 -0.3619
  685TMC3    H210190   0.077   2.109  15.737 -0.8069 -0.1059 -0.0840
  685TMC3    C710191   0.275   2.070  15.896  0.4362  0.4840  0.5508
  685TMC3    C810192   4.596   2.205  15.757  0.0471 -0.0826 -0.1656
  685TMC3    O110193   0.306   2.076  15.777  0.0574 -0.0414  0.2334
  685TMC3    O210194   4.634   2.219  15.640  0.1208  0.3455 -0.7516
  686MPD2     C10195   1.361   2.103  15.623 -0.5585 -0.9170 -0.3000
  686MPD2    C110196   1.377   1.981  15.683  0.9806  0.1059 -0.6023
  686MPD2    C210197   1.510   1.921  15.685 -0.5214 -0.0656 -0.1969
  686MPD2    C310198   1.616   1.981  15.622  0.1127 -0.1729 -0.7320
  686MPD2    C410199   1.600   2.115  15.577 -0.3338  0.3945  0.4725
  686MPD2    C510200   1.473   2.174  15.573  0.1396 -0.2987 -0.5309
  686MPD2     H10201   1.522   1.825  15.734 -1.3293 -0.3802 -0.6239
  686MPD2    H110202   1.679   2.161  15.519  1.4096 -1.0764  1.6669
  686MPD2    H210203   1.262   2.147  15.622 -1.0565 -2.0600  0.1239
  686MPD2    H310204   1.469   2.275  15.532 -0.6142 -0.8960 -1.9345
  686MPD2     N10205   1.754   1.937  15.619  0.0918 -0.2373 -0.4310
  686MPD2    H510206   1.809   2.018  15.593 -1.4593  1.4435  1.5480
  686MPD2    N110207   1.265   1.921  15.743  0.2077 -0.1994  0.1915
  686MPD2    H710208   1.173   1.964  15.735 -0.6371 -1.7337  1.4614
  687TMC3    C110209   1.735   1.701  15.681  0.4176 -0.5963  0.9043
  687TMC3    C210210   1.652   1.656  15.587  0.4739 -0.0276  0.1118
  687TMC3    C310211   1.588   1.533  15.611 -0.1458  0.4054 -0.1064
  687TMC3    C410212   1.778   1.620  15.781  0.3899  0.1814  0.2480
  687TMC3    C510213   1.719   1.501  15.800  0.3521  0.0771  0.5116
  687TMC3    C610214   1.630   1.450  15.709  0.2663 -0.5636  0.2125
  687TMC3     C10215   1.816   1.818  15.655  0.0382  0.6564  0.2343
  687TMC3     O10216   1.938   1.799  15.658  0.1960  0.0624 -0.8757
  687TMC3     H10217   1.625   1.726  15.508 -1.9110 -1.5358 -0.3906
  687TMC3    H110218   1.851   1.655  15.853 -0.9715 -0.2141  1.8315
  687TMC3    H210219   1.617   1.343  15.698 -2.8000 -0.1905  0.1417
  687TMC3    C710220   1.795   1.412  15.883  0.5556  1.0808 -0.0598
  687TMC3    C810221   1.445   1.521  15.585  0.5685 -0.6318 -0.1115
  687TMC3    O110222   1.914   1.426  15.900 -0.0638 -0.0293  0.1301
  687TMC3    O210223   1.377   1.428  15.633 -0.0612 -0.4357 -0.5695
  688MPD2     C10224   0.565   0.570  17.405 -1.0623 -0.0022 -0.0921
  688MPD2    C110225   0.586   0.430  17.391 -0.9372  0.4715 -0.3260
  688MPD2    C210226   0.685   0.386  17.310 -0.1893 -0.2791 -0.0896
  688MPD2    C310227   0.754   0.470  17.226 -0.3443 -0.7496  0.3405
  688MPD2    C410228   0.727   0.606  17.234  0.6008  1.0473  0.5233
  688MPD2    C510229   0.638   0.653  17.327 -0.1141 -0.2710 -0.1909
  688MPD2     H10230   0.709   0.281  17.297  0.6613 -0.1432  0.3761
  688MPD2    H110231   0.783   0.681  17.180  0.8171 -0.2039 -0.9676
  688MPD2    H210232   0.503   0.624  17.476  0.9441  2.1978 -0.0213
  688MPD2    H310233   0.606   0.756  17.333  1.1936  0.2187 -1.6493
  688MPD2     N10234   0.855   0.432  17.135  0.4593  0.5445 -0.4822
  688MPD2    H510235   0.908   0.510  17.097  2.1238 -0.0592  0.6621
  688MPD2    N110236   0.507   0.333  17.459  0.1843  0.5637 -0.1773
  688MPD2    H710237   0.540   0.237  17.454 -0.7143  0.1904  1.1327
  689TMC3    C110238   0.406   0.272  17.656  0.4878 -0.0558  0.0173
  689TMC3    C210239   0.413   0.319   0.045  0.1254  0.4799 -0.9645
  689TMC3    C310240   0.430   0.221   0.142  0.1758 -0.2804 -0.2838
  689TMC3    C410241   0.409   0.142  17.620  0.5215 -0.0538 -0.4451
  689TMC3    C510242   0.414   0.048  17.719  0.1488  0.6346  0.3385
  689TMC3    C610243   0.433   0.084   0.114  0.7399 -0.2953 -0.0745
  689TMC3     C10244   0.419   0.370  17.557 -0.1561 -0.2419 -0.4244
  689TMC3     O10245   0.372   0.480  17.588 -0.2205  0.6855  0.7614
  689TMC3     H10246   0.416   0.424   0.071 -1.3844  0.4692 -0.7670
  689TMC3    H110247   0.401   0.113  17.516 -2.9939 -1.4899  0.2296
  689TMC3    H210248   0.442   0.013   0.195  1.8445  0.2389  0.2719
  689TMC3    C710249   0.449   4.645  17.705 -0.4260 -0.4297 -0.3136
  689TMC3    C810250   0.444   0.258   0.279 -0.1142  1.1197  0.0312
  689TMC3    O110251   0.510   4.594   0.059 -0.8140  0.0182  0.3224
  689TMC3    O210252   0.414   0.177   0.366  0.4690 -0.9845  0.2198
  690MPD2     C10253   3.385   2.468  15.411  0.4373  0.1492 -0.0070
  690MPD2    C110254   3.286   2.487  15.317  0.2316  0.3793 -0.2686
  690MPD2    C210255   3.314   2.557  15.206  0.3712 -0.2185  0.3257
  690MPD2    C310256   3.447   2.604  15.188  0.4973 -0.6960 -0.8119
  690MPD2    C410257   3.544   2.565  15.276  0.4162 -0.3238  0.4237
  690MPD2    C510258   3.514   2.501  15.385 -0.2395 -0.8815 -0.2010
  690MPD2     H10259   3.235   2.577  15.135 -0.6651 -0.5114  1.4029
  690MPD2    H110260   3.649   2.588  15.264  1.4259 -3.6326  2.9228
  690MPD2    H210261   3.377   2.417  15.507 -0.1995 -0.1852 -0.2377
  690MPD2    H310262   3.590   2.489  15.462  0.7289  1.2215 -0.8121
  690MPD2     N10263   3.466   2.689  15.084 -0.1849  0.1011 -0.3049
  690MPD2    H510264   3.381   2.693  15.029 -0.9829  0.6466  0.9753
  690MPD2    N110265   3.153   2.445  15.336  0.2676 -0.7317 -0.8561
  690MPD2    H710266   3.087   2.485  15.271  0.3094  1.9270  0.7339
  691TMC3    C110267   2.966   2.366  15.453 -0.3198  0.6778  0.0176
  691TMC3    C210268   2.890   2.439  15.371  0.3174  0.1163  0.0919
  691TMC3    C310269   2.767   2.383  15.341  0.0902  0.4260 -0.0149
  691TMC3    C410270   2.925   2.251  15.520 -0.4460 -0.2232 -0.2370
  691TMC3    C510271   2.795   2.209  15.495  0.2808 -0.0808 -0.3074
  691TMC3    C610272   2.710   2.273  15.409 -0.2191 -0.5480  0.0676
  691TMC3     C10273   3.106   2.368  15.442 -0.0763  0.2219  0.4197
  691TMC3     O10274   3.175   2.285  15.507  0.0370  0.0042 -0.3779
  691TMC3     H10275   2.922   2.539  15.345  0.1378  0.1073 -0.1630
  691TMC3    H110276   2.990   2.193  15.584 -1.2035  1.0191  1.6532
  691TMC3    H210277   2.609   2.237  15.390 -1.2627  1.6705  1.4185
  691TMC3    C710278   2.750   2.078  15.544  0.0849 -0.0532 -0.3288
  691TMC3    C810279   2.686   2.468  15.257  0.1518  0.6526  0.2278
  691TMC3    O110280   2.839   2.009  15.594 -0.0238  0.0428 -0.4002
  691TMC3    O210281   2.744   2.537  15.175 -0.3853 -0.0400  0.2593
  692TMC3    C110282   4.185   3.642  15.464 -0.0390 -0.0119  0.3409
  692TMC3    C210283   4.285   3.729  15.490  1.2823  0.8494  0.0864
  692TMC3    C310284   4.414   3.702  15.441 -0.0252  0.2900  0.2617
  692TMC3    C410285   4.202   3.513  15.430  0.0404 -0.6604  0.0101
  692TMC3    C510286   4.332   3.485  15.397 -0.1899 -0.5567 -0.0804
  692TMC3    C610287   4.436   3.572  15.419 -0.4721 -0.1034  1.0890
  692TMC3     C10288   4.060   3.686  15.527 -0.9004 -0.6335  0.6272
  692TMC3     O10289   4.071   3.792  15.590 -0.0015 -0.2678 -0.4605
  692TMC3     H10290   4.258   3.834  15.495  0.0643  0.5844 -0.7722
  692TMC3    H110291   4.120   3.443  15.416 -0.6312  0.0548  0.3950
  692TMC3    H210292   4.535   3.558  15.379 -0.3182  2.1865  0.6676
  692TMC3    C710293   4.379   3.356  15.365 -0.2782  0.0588 -0.1363
  692TMC3    C810294   4.529   3.760  15.518 -0.3689  0.0167  0.2621
  692TMC3    O110295   4.303   3.277  15.307  0.3709 -0.1406 -0.3883
  692TMC3    O210296   4.638   3.777  15.463 -0.3629 -0.4273  0.2630
  693MPD2     C10297   3.903   1.811  10.593 -0.3476  0.5962 -1.0218
  693MPD2    C110298   3.864   1.743  10.714 -0.3171 -0.3591  0.4736
  693MPD2    C210299   3.960   1.684  10.788 -0.7306  0.3422  0.5453
  693MPD2    C310300   4.096   1.691  10.748  0.3345 -0.3676 -0.0065
  693MPD2    C410301   4.129   1.768  10.639 -0.2982 -0.1924 -0.2726
  693MPD2    C510302   4.032   1.816  10.551  0.9264  0.0906  0.2678
  693MPD2     H10303   3.924   1.620  10.867 -1.5964 -1.7414 -1.5358
  693MPD2    H110304   4.228   1.778  10.597 -0.0054  1.1131  0.7261
  693MPD2    H210305   3.828   1.841  10.520 -1.7412  0.3254  0.2796
  693MPD2    H310306   4.053   1.864  10.456  0.2726  2.1439  1.1600
  693MPD2     N10307   4.205   1.645  10.828  0.0296 -0.1947 -0.1800
  693MPD2    H510308   4.296   1.673  10.796  0.1171 -0.0084  0.2244
  693MPD2    N110309   3.728   1.732  10.737 -0.0363  0.3551  0.0952
  693MPD2    H710310   3.672   1.762  10.658  0.6607 -1.5778 -1.1386
  694TMC3    C110311   3.534   1.698  10.867 -0.0382 -0.2482  0.6614
  694TMC3    C210312   3.466   1.631  10.768 -0.8507 -0.1596  0.3894
  694TMC3    C310313   3.343   1.579  10.804 -0.1115 -0.1496 -0.6501
  694TMC3    C410314   3.494   1.718  10.996 -0.5379 -0.4444 -0.0502
  694TMC3    C510315   3.375   1.661  11.027 -0.6225  0.2817  0.6313
  694TMC3    C610316   3.308   1.584  10.938 -0.0627 -0.4295 -0.4785
  694TMC3     C10317   3.677   1.715  10.861  0.3465 -0.0165 -0.4780
  694TMC3     O10318   3.735   1.731  10.964 -0.0975 -0.4139 -0.1402
  694TMC3     H10319   3.490   1.631  10.662 -6.9638  1.6352 -0.9921
  694TMC3    H110320   3.542   1.796  11.054 -2.1345  1.0850 -0.7909
  694TMC3    H210321   3.211   1.543  10.964 -0.9885  1.4031 -0.9929
  694TMC3    C710322   3.386   1.595  11.152  0.0312  0.2386  0.0522
  694TMC3    C810323   3.286   1.471  10.719  0.2595  0.4889 -1.1699
  694TMC3    O110324   3.326   1.635  11.251 -0.0875  0.3137  0.2237
  694TMC3    O210325   3.236   1.384  10.790  0.1221 -0.2588  0.1402
  695MPD2     C10326   0.388   3.411  13.435 -0.1841  0.8354  0.5260
  695MPD2    C110327   0.353   3.462  13.555 -0.1325 -0.7152 -0.0123
  695MPD2    C210328   0.214   3.468  13.587 -0.6081 -0.4151  0.5305
  695MPD2    C310329   0.120   3.423  13.495  0.0745 -0.0490 -0.2813
  695MPD2    C410330   0.160   3.373  13.372  0.1956 -0.0251  0.0331
  695MPD2    C510331   0.295   3.363  13.345  0.0384 -0.4765 -0.4446
  695MPD2     H10332   0.180   3.513  13.679 -0.5683 -1.9765  1.3159
  695MPD2    H110333   0.088   3.337  13.299  1.3994 -4.1603  0.8669
  695MPD2    H210334   0.492   3.399  13.404 -0.5227 -0.6289 -0.0311
  695MPD2    H310335   0.328   3.330  13.247 -0.8995 -1.4997 -0.4093
  695MPD2     N10336   4.716   3.437  13.521  0.2398 -0.3142 -0.7531
  695MPD2    H510337   4.693   3.467  13.615  0.2210 -0.3735 -0.7390
  695MPD2    N110338   0.451   3.505  13.648 -0.3061  0.5023 -0.2494
  695MPD2    H710339   0.410   3.555  13.727  1.3525  2.2575 -0.5024
  696TMC3    C110340   4.492   3.454  13.490 -0.5152 -0.2911 -0.0550
  696TMC3    C210341   4.462   3.418  13.612 -0.0926 -0.1252 -0.4491
  696TMC3    C310342   4.340   3.448  13.664  0.0448 -0.5982  0.5138
  696TMC3    C410343   4.411   3.528  13.408  0.2887  0.2597  0.0279
  696TMC3    C510344   4.296   3.579  13.470 -0.1358 -0.4021  0.0869
  696TMC3    C610345   4.256   3.532  13.591  0.0815  0.1102 -0.0415
  696TMC3     C10346   4.616   3.419  13.430  0.0439  0.0166  0.0707
  696TMC3     O10347   4.606   3.389  13.310  0.6409 -0.1582 -0.2131
  696TMC3     H10348   4.531   3.354  13.667 -0.5931  2.1800  2.8918
  696TMC3    H110349   4.443   3.579  13.318  0.0202 -0.1793 -0.3179
  696TMC3    H210350   4.167   3.566  13.642 -0.4098 -1.7471  0.3379
  696TMC3    C710351   4.261   3.713  13.431  0.1367 -0.3469  0.0349
  696TMC3    C810352   4.335   3.442  13.810 -0.2740  0.1499 -0.2351
  696TMC3    O110353   4.271   3.745  13.314 -0.0255  0.0360  0.4017
  696TMC3    O210354   4.440   3.412  13.871  0.5159  0.0874 -0.0496
  697MPD2     C10355   4.313   0.446  15.699  0.3245 -0.5053 -0.3326
  697MPD2    C110356   4.219   0.412  15.615  0.7890  0.0065  0.9460
  697MPD2    C210357   4.185   0.498  15.515 -0.0585 -0.0464 -0.2471
  697MPD2    C310358   4.250   0.622  15.495  0.2888  0.1015  0.0847
  697MPD2    C410359   4.352   0.648  15.574 -0.3880  0.4316  0.0842
  697MPD2    C510360   4.384   0.564  15.676  0.5712 -0.1776 -0.3576
  697MPD2     H10361   4.115   0.465  15.440  0.5872 -1.3568 -0.2702
  697MPD2    H110362   4.412   0.738  15.563  0.9021 -0.4799 -0.4103
  697MPD2    H210363   4.346   0.375  15.774  0.0417 -0.8496 -0.5314
  697MPD2    H310364   4.469   0.587  15.740 -0.3897 -0.5703  1.0688
  697MPD2     N10365   4.200   0.710  15.394  0.1274 -0.0678  0.3623
  697MPD2    H510366   4.121   0.677  15.340 -0.0701 -2.0863  1.8808
  697MPD2    N110367   4.158   0.290  15.606  0.1276  0.1464  0.1736
  697MPD2    H710368   4.099   0.268  15.527  0.3976 -1.1612  0.3349
  698TMC3    C110369   4.192   0.882  15.242  1.1112  0.2977 -0.0544
  698TMC3    C210370   4.214   1.021  15.219 -0.7700  0.2361 -0.0339
  698TMC3    C310371   4.156   1.073  15.099 -0.5310 -0.1435  0.2748
  698TMC3    C410372   4.150   0.797  15.150  0.1764  0.0370  0.2564
  698TMC3    C510373   4.108   0.854  15.038  0.3737  0.3017  0.3537
  698TMC3    C610374   4.117   0.983  15.004  0.1692 -0.2288  0.2010
  698TMC3     C10375   4.244   0.835  15.368 -0.2559 -0.0365 -0.7015
  698TMC3     O10376   4.318   0.909  15.432  0.0425 -0.0629 -0.1740
  698TMC3     H10377   4.246   1.094  15.292 -2.1441  2.0586 -1.2517
  698TMC3    H110378   4.136   0.691  15.166 -0.5760 -0.1534 -1.6740
  698TMC3    H210379   4.085   1.015  14.906 -0.2330  1.2194  0.8033
  698TMC3    C710380   4.066   0.777  14.928 -1.1521 -0.2256 -0.7394
  698TMC3    C810381   4.187   1.206  15.044  0.4183 -0.3322 -0.4576
  698TMC3    O110382   3.957   0.798  14.879  0.5099  0.9631  0.8444
  698TMC3    O210383   4.152   1.230  14.933  0.0692 -0.5128 -0.4623
  699TMC3    C110384   3.989   3.815  13.094 -1.0117 -0.2051  0.3786
  699TMC3    C210385   4.038   3.688  13.128  0.6293  0.3859  0.2682
  699TMC3    C310386   3.948   3.591  13.163 -0.2944 -0.4825  0.3101
  699TMC3    C410387   3.855   3.844  13.094  0.0101  0.8119  0.1325
  699TMC3    C510388   3.769   3.738  13.130  0.2025 -0.2284 -0.3126
  699TMC3    C610389   3.814   3.617  13.172  0.2198 -0.4778 -0.5099
  699TMC3     C10390   4.084   3.907  13.036  0.6239  0.0874 -0.4653
  699TMC3     O10391   4.045   4.002  12.971  0.0247 -0.0424  0.3887
  699TMC3     H10392   4.141   3.654  13.120  0.5283 -0.4619  2.8144
  699TMC3    H110393   3.825   3.942  13.056 -0.5463  1.3706  2.0387
  699TMC3    H210394   3.749   3.533  13.196 -0.6899  0.4839  0.3976
  699TMC3    C710395   3.627   3.767  13.118 -0.7547 -0.3815  0.3264
  699TMC3    C810396   4.001   3.479  13.241  0.0294 -1.0887  0.4848
  699TMC3    O110397   3.598   3.884  13.138  0.1846  0.4923 -0.0209
  699TMC3    O210398   3.935   3.454  13.340 -0.0485 -0.6946  0.2784
  700TMC3    C110399   3.545   0.940  17.149  0.6087  0.0929 -0.1706
  700TMC3    C210400   3.622   0.836  17.109 -0.8548  0.2934 -0.3881
  700TMC3    C310401   3.712   0.785  17.200 -0.0824 -0.6880  0.6094
  700TMC3    C410402   3.537   0.988  17.278  0.2553  0.9236 -0.8793
  700TMC3    C510403   3.625   0.931  17.367  0.0032 -0.2767 -0.5183
  700TMC3    C610404   3.711   0.830  17.328 -0.3192  0.3798  0.2584
  700TMC3     C10405   3.488   1.017  17.036  0.0326  0.0941  0.2336
  700TMC3     O10406   3.494   0.958  16.928 -0.7224 -0.1277  0.3744
  700TMC3     H10407   3.645   0.809  17.007 -0.1388 -1.9290  0.3722
  700TMC3    H110408   3.469   1.066  17.312  2.8368  2.2927  1.0928
  700TMC3    H210409   3.765   0.777  17.405  0.8823  1.8583  0.4236
  700TMC3    C710410   3.656   1.022  17.472 -0.4479 -0.4315 -0.4678
  700TMC3    C810411   3.803   0.687  17.153 -0.8612 -0.5568  0.1999
  700TMC3    O110412   3.648   1.141  17.441 -0.0026 -0.5367  0.1949
  700TMC3    O210413   3.772   0.636  17.043 -0.0330  0.1143 -0.2635
  701TMC3    C110414   3.536   4.582  15.785 -0.4333  0.3574 -0.5882
  701TMC3    C210415   3.481   4.586  15.658 -0.0553 -0.0788 -0.2193
  701TMC3    C310416   3.556   4.648  15.563  0.3612  0.1845  0.3544
  701TMC3    C410417   3.650   4.651  15.829 -0.1423 -0.6010 -0.5103
  701TMC3    C510418   3.719   4.716  15.733  0.0541  0.0648  0.8186
  701TMC3    C610419   3.674   4.718  15.598 -0.6069  0.0281  0.1397
  701TMC3     C10420   3.478   4.488  15.883 -0.3626 -0.1153  0.6114
  701TMC3     O10421   3.503   4.515  16.002  0.3938 -0.3261  0.3744
  701TMC3     H10422   3.375   4.577  15.640 -0.3711  1.3143  0.8899
  701TMC3    H110423   3.682   4.652  15.933 -0.2507 -0.8797 -0.4742
  701TMC3    H210424   3.735   0.039  15.529  0.8897 -2.1841 -0.3263
  701TMC3    C710425   3.778   0.110  15.774  0.4972 -0.8650 -0.7897
  701TMC3    C810426   3.491   4.707  15.450  0.7614 -0.4202  0.5563
  701TMC3    O110427   3.776   0.199  15.692  0.0383 -0.1631  0.6511
  701TMC3    O210428   3.536   0.076  15.408  0.2106  0.7794  0.0771
  702MPD2     C10429   3.000   1.664  10.664  0.5818  1.3148 -0.1887
  702MPD2    C110430   2.986   1.785  10.731  0.1193  0.2022  0.5992
  702MPD2    C210431   3.030   1.902  10.671  0.1993  0.4759 -0.3487
  702MPD2    C310432   3.079   1.907  10.544 -0.3842 -0.4371  0.0816
  702MPD2    C410433   3.088   1.785  10.477 -0.3259 -0.3973 -0.2967
  702MPD2    C510434   3.058   1.669  10.540  0.0926 -0.6282  0.1955
  702MPD2     H10435   3.006   1.990  10.731 -1.2240  0.5327 -1.0123
  702MPD2    H110436   3.121   1.774  10.375  0.5155  1.7783 -0.2654
  702MPD2    H210437   2.969   1.567  10.702  1.6493 -0.2013 -3.2505
  702MPD2    H310438   3.067   1.581  10.477 -0.0088  1.0955 -2.2327
  702MPD2     N10439   3.135   2.024  10.489  0.0591 -0.1768 -0.6148
  702MPD2    H510440   3.156   2.023  10.390  2.6194 -1.7214 -0.0743
  702MPD2    N110441   2.919   1.797  10.858 -0.6343 -0.3795  0.2806
  702MPD2    H710442   2.905   1.892  10.890  3.4205  0.7459 -1.2676
  703TMC3    C110443   3.189   2.246  10.467  0.5491  0.3846  0.5641
  703TMC3    C210444   3.071   2.302  10.423 -0.3446 -0.4156 -0.1226
  703TMC3    C310445   3.066   2.430  10.396 -0.5780  0.3205 -0.4036
  703TMC3    C410446   3.297   2.326  10.500 -0.5548  0.2283 -0.6608
  703TMC3    C510447   3.298   2.451  10.454 -0.9259  0.1236 -0.5091
  703TMC3    C610448   3.184   2.509  10.397 -0.0349 -0.5297 -0.3763
  703TMC3     C10449   3.161   2.140  10.556 -0.5025 -0.5987 -0.1422
  703TMC3     O10450   3.144   2.175  10.674 -0.7907  0.3019  0.4106
  703TMC3     H10451   2.980   2.245  10.413 -1.0638  0.4612  1.4754
  703TMC3    H110452   3.383   2.289  10.554 -0.3595 -0.9529 -1.7626
  703TMC3    H210453   3.184   2.613  10.368 -0.0482 -0.1978  0.8038
  703TMC3    C710454   3.417   2.534  10.454 -0.6561 -1.2613 -0.1075
  703TMC3    C810455   2.946   2.504  10.362 -0.1402 -0.1925 -0.3670
  703TMC3    O110456   3.415   2.637  10.387 -0.9135  0.0713  0.0168
  703TMC3    O210457   2.946   2.605  10.294 -0.1455 -0.0997 -0.0756
  704TMC3    C110458   0.571   0.763  12.649  0.0868  0.6093 -1.1288
  704TMC3    C210459   0.705   0.789  12.661  0.1643  0.1109  0.0955
  704TMC3    C310460   0.772   0.708  12.746  0.0164 -0.5393 -0.5429
  704TMC3    C410461   0.502   0.664  12.723  0.4361  0.8581  0.8655
  704TMC3    C510462   0.571   0.596  12.819  0.2681 -0.4603  0.2270
  704TMC3    C610463   0.708   0.618  12.833 -0.1240 -0.1635  0.1059
  704TMC3     C10464   0.519   0.781  12.510 -0.5162 -0.6457 -0.1490
  704TMC3     O10465   0.398   0.787  12.493  0.2210  0.0325 -0.5689
  704TMC3     H10466   0.755   0.869  12.607 -1.7536 -0.8660 -3.1234
  704TMC3    H110467   0.404   0.638  12.686  1.4507 -0.0914 -1.1545
  704TMC3    H210468   0.772   0.542  12.879 -1.5176 -0.6041  1.3238
  704TMC3    C710469   0.528   0.462  12.849  0.3776 -0.1361 -0.0886
  704TMC3    C810470   0.903   0.685  12.693 -0.0073  0.5272 -0.3110
  704TMC3    O110471   0.614   0.380  12.844  0.1480 -0.2898  0.1294
  704TMC3    O210472   0.924   0.722  12.579 -0.5885  0.2606  0.0524
  705MPD2     C10473   0.075   3.006  16.653  0.4040 -0.2126 -0.5092
  705MPD2    C110474   0.029   3.092  16.556 -0.1650  0.4408  0.1750
  705MPD2    C210475   4.629   3.126  16.563 -0.5218  0.7391  0.2338
  705MPD2    C310476   4.543   3.048  16.646  0.3868 -0.4904  0.3749
  705MPD2    C410477   4.595   2.960  16.740  0.1955 -0.1680 -0.2075
  705MPD2    C510478   4.727   2.955  16.755 -0.1743 -0.6618 -0.5515
  705MPD2     H10479   4.590   3.194  16.488 -1.0181  0.4815  0.2600
  705MPD2    H110480   4.524   2.910  16.805 -0.4639  0.3935 -0.4909
  705MPD2    H210481   0.181   2.990  16.667  0.8157  3.0086  0.1570
  705MPD2    H310482   0.035   2.872  16.810  0.2615 -0.7197 -0.9703
  705MPD2     N10483   4.404   3.066  16.635 -0.2602 -0.1025  0.6015
  705MPD2    H510484   4.377   3.145  16.578 -1.4749 -1.8804 -1.2656
  705MPD2    N110485   0.117   3.160  16.463 -0.4023  0.2969 -0.1081
  705MPD2    H710486   0.077   3.226  16.397 -1.8254 -0.0698  0.3886
  706TMC3    C110487   0.445   3.178  16.154  0.1116 -0.0193  0.0013
  706TMC3    C210488   0.418   3.308  16.122 -0.6465 -0.3115 -1.0596
  706TMC3    C310489   0.325   3.371  16.202  0.6287  0.6360 -0.1031
  706TMC3    C410490   0.385   3.113  16.258 -0.1290 -0.1820 -0.5380
  706TMC3    C510491   0.304   3.190  16.340  0.6791  0.3582  0.4197
  706TMC3    C610492   0.269   3.326  16.317  0.0378  0.0466 -0.4702
  706TMC3     C10493   0.565   3.119  16.100 -0.6733 -0.2239 -0.2698
  706TMC3     O10494   0.651   3.101  16.187 -0.0060  0.1894 -0.1236
  706TMC3     H10495   0.472   3.347  16.036  0.5941  1.6305  0.5970
  706TMC3    H110496   0.438   3.022  16.287  0.0840  0.0382 -0.2256
  706TMC3    H210497   0.208   3.387  16.383  1.0554  1.4218 -0.8132
  706TMC3    C710498   0.245   3.122  16.454  0.3939 -0.4071 -0.2830
  706TMC3    C810499   0.317   3.515  16.188  0.0011  0.0742  0.3024
  706TMC3    O110500   0.304   3.020  16.488  0.2235  0.1049  0.3874
  706TMC3    O210501   0.311   3.569  16.077 -0.2630  0.0447  0.0065
  707TMC3    C110502   1.695   1.761  17.237 -0.4634  0.4427  0.2740
  707TMC3    C210503   1.777   1.716  17.139 -0.7316  0.7937  0.3516
  707TMC3    C310504   1.743   1.724  17.007  0.0389  0.1415 -0.4568
  707TMC3    C410505   1.570   1.795  17.203  0.3074  0.1201  0.0057
  707TMC3    C510506   1.528   1.792  17.075 -0.7471  0.0735 -0.0420
  707TMC3    C610507   1.612   1.750  16.977  0.2535 -0.0521 -0.0862
  707TMC3     C10508   1.729   1.723  17.381 -0.1073 -0.3177  0.4929
  707TMC3     O10509   1.839   1.672  17.397 -0.0732 -0.1501 -0.4518
  707TMC3     H10510   1.874   1.678  17.167 -0.8606  1.5200  1.7622
  707TMC3    H110511   1.492   1.835  17.267 -0.4630 -3.6863  1.4600
  707TMC3    H210512   1.586   1.734  16.873 -2.8681 -0.9280  0.8255
  707TMC3    C710513   1.385   1.779  17.050  0.0292  0.4582  0.3318
  707TMC3    C810514   1.802   1.618  16.929  0.7297  0.2364  0.0219
  707TMC3    O110515   1.321   1.731  17.143 -0.1665 -0.0653  0.3604
  707TMC3    O210516   1.806   1.637  16.805 -0.6405  0.4306  0.4654
  708MPD2     C10517   3.143   1.947  13.533 -0.4215 -0.0147 -0.2438
  708MPD2    C110518   3.085   1.887  13.639 -0.7412 -0.9534  0.1541
  708MPD2    C210519   3.155   1.798  13.722 -0.0678  0.3344  0.0512
  708MPD2    C310520   3.281   1.763  13.674  0.4406 -0.2671  1.0737
  708MPD2    C410521   3.337   1.826  13.566 -0.2937  0.4097  0.0488
  708MPD2    C510522   3.267   1.914  13.493 -0.7914 -0.1060  0.7289
  708MPD2     H10523   3.099   1.746  13.800 -0.1256  2.5599  1.4797
  708MPD2    H110524   3.426   1.779  13.527 -1.6940 -0.7144 -1.7545
  708MPD2    H210525   3.088   2.016  13.470 -0.9062 -0.7764 -0.6568
  708MPD2    H310526   3.316   1.942  13.400  0.2149  1.5041  1.7395
  708MPD2     N10527   3.351   1.654  13.734 -0.0676  0.5440  0.1194
  708MPD2    H510528   3.443   1.631  13.698 -0.8133 -0.5145 -1.1134
  708MPD2    N110529   2.952   1.903  13.669  0.0019 -0.6551  0.3797
  708MPD2    H710530   2.917   1.855  13.752 -1.6328  1.9048  1.1650
  709TMC3    C110531   2.725   1.923  13.645  0.4076  0.2099 -0.2693
  709TMC3    C210532   2.669   1.819  13.568 -0.0701  0.3387 -0.6892
  709TMC3    C310533   2.640   1.694  13.619 -0.3601 -0.2920  0.0982
  709TMC3    C410534   2.730   1.906  13.781 -0.1754 -0.3731  0.3656
  709TMC3    C510535   2.684   1.790  13.832  0.1033  0.3381 -0.0144
  709TMC3    C610536   2.646   1.682  13.754  0.0543  0.2735 -0.3558
  709TMC3     C10537   2.856   1.948  13.585  0.2312 -0.2241  0.2185
  709TMC3     O10538   2.872   1.958  13.462 -0.1360  0.2774  0.1704
  709TMC3     H10539   2.659   1.820  13.460 -1.7048  0.8351 -0.5358
  709TMC3    H110540   2.775   1.982  13.844 -0.3483 -0.4764  0.6127
  709TMC3    H210541   2.620   1.585  13.793 -1.3915  1.1419  0.8744
  709TMC3    C710542   2.766   1.758  13.945  0.3723  0.1624 -1.1633
  709TMC3    C810543   2.688   1.583  13.543 -0.0938  0.4969 -0.2868
  709TMC3    O110544   2.881   1.788  13.922  0.4185  0.5786 -0.1014
  709TMC3    O210545   2.647   1.473  13.575  0.0782  0.2482  0.0875
  710TMC3    C110546   4.413   2.760   0.501  0.3534 -0.6714 -0.1192
  710TMC3    C210547   4.407   2.735   0.366 -0.3621  1.2880  0.4905
  710TMC3    C310548   4.457   2.622   0.311 -1.0442  0.9044 -0.2698
  710TMC3    C410549   4.464   2.665   0.588 -0.3563  0.5764  0.0015
  710TMC3    C510550   4.540   2.573   0.530  0.6413 -0.1125  0.2217
  710TMC3    C610551   4.541   2.545   0.391  0.3268  0.2069 -0.1304
  710TMC3     C10552   4.319   2.849   0.567  0.0360 -0.8210 -0.2582
  710TMC3     O10553   4.357   2.875   0.682  0.1959  0.5773 -0.1990
  710TMC3     H10554   4.369   2.814   0.302  0.8749 -0.7723 -2.8163
  710TMC3    H110555   4.449   2.668   0.695  0.3322  0.7028  0.0905
  710TMC3    H210556   4.609   2.484   0.332  0.7206  0.0164  0.5261
  710TMC3    C710557   4.630   2.503   0.613 -0.1316 -0.7403 -0.5119
  710TMC3    C810558   4.487   2.640   0.170 -0.3424  0.1091  0.0589
  710TMC3    O110559   4.596   2.505   0.733 -0.3170 -0.0556  0.1150
  710TMC3    O210560   4.501   2.751   0.122 -0.5656  0.7468  0.0695
  711TMC3    C110561   3.946   4.024  15.017  0.3542  0.6952  0.5283
  711TMC3    C210562   3.966   4.091  15.137  0.8835 -0.3131 -0.2130
  711TMC3    C310563   4.084   4.077  15.209 -0.4885 -0.4521  0.2387
  711TMC3    C410564   4.042   3.931  14.977 -0.2185  0.8805  0.3529
  711TMC3    C510565   4.150   3.907  15.062  0.1569  0.5897 -0.1516
  711TMC3    C610566   4.170   3.983  15.172 -0.2877 -0.5765  0.0038
  711TMC3     C10567   3.815   4.020  14.954  0.9545  0.0052 -0.5766
  711TMC3     O10568   3.779   3.908  14.916  0.6389 -1.0416  0.2296
  711TMC3     H10569   3.900   4.163  15.185  2.5175 -0.5712  2.4099
  711TMC3    H110570   4.018   3.864  14.896  0.0095  3.8095 -2.1279
  711TMC3    H210571   4.257   3.962  15.233  0.2700 -0.2210 -0.6618
  711TMC3    C710572   4.211   3.775  15.062 -0.2396 -0.3686 -0.1252
  711TMC3    C810573   4.083   4.126  15.347  0.1205  0.4705 -0.0756
  711TMC3    O110574   4.329   3.782  15.102  0.5771 -0.5661  0.2008
  711TMC3    O210575   3.974   4.165  15.389 -0.0382 -0.1205 -0.0667
  712MPD2     C10576   1.012   0.540  13.364  0.1711 -0.3663  0.9558
  712MPD2    C110577   0.901   0.587  13.435  0.5026  0.1359  1.2267
  712MPD2    C210578   0.893   0.715  13.483 -0.7119  1.3072 -0.1946
  712MPD2    C310579   1.000   0.801  13.470  0.3004  0.1118  0.2277
  712MPD2    C410580   1.116   0.757  13.407  0.6882 -0.1499  0.5621
  712MPD2    C510581   1.115   0.629  13.353  0.3250  0.0452  0.2934
  712MPD2     H10582   0.802   0.745  13.532 -0.3048 -0.1054  1.4435
  712MPD2    H110583   1.198   0.823  13.379  0.4510  0.1226  0.5096
  712MPD2    H210584   1.028   0.444  13.316 -1.1779  0.5263 -1.2614
  712MPD2    H310585   1.198   0.610  13.287  1.4751 -2.7455  2.5428
  712MPD2     N10586   0.997   0.931  13.518  0.0144 -0.0100  0.2057
  712MPD2    H510587   1.089   0.972  13.533 -0.8251  1.6652  0.7037
  712MPD2    N110588   0.786   0.507  13.454 -0.0463 -0.7805 -0.3874
  712MPD2    H710589   0.704   0.531  13.510  0.5099 -2.2703  1.0602
  713TMC3    C110590   0.927   1.126  13.627 -0.6459  0.3623 -0.4679
  713TMC3    C210591   1.055   1.161  13.631 -0.4056  0.5597  0.0225
  713TMC3    C310592   1.101   1.250  13.726  0.1102 -0.3998 -0.2782
  713TMC3    C410593   0.836   1.168  13.717  0.1244 -0.1965  0.3711
  713TMC3    C510594   0.885   1.260  13.809 -0.3387 -0.1666  0.1565
  713TMC3    C610595   1.019   1.304  13.819 -0.2395  0.0868 -0.4155
  713TMC3     C10596   0.887   1.004  13.569  0.5397 -0.2563  0.0672
  713TMC3     O10597   0.768   0.979  13.564 -0.6034  0.3880  0.2656
  713TMC3     H10598   1.125   1.129  13.555 -0.5674  0.5666 -0.1287
  713TMC3    H110599   0.741   1.118  13.734  0.5197 -0.9760  0.2849
  713TMC3    H210600   1.056   1.372  13.895  0.7912 -0.1429 -0.7024
  713TMC3    C710601   0.790   1.328  13.896  0.6961  0.0526 -0.1900
  713TMC3    C810602   1.240   1.282  13.726  0.0523 -0.1727  0.4426
  713TMC3    O110603   0.836   1.386  13.991 -0.1499 -0.0016 -0.9959
  713TMC3    O210604   1.308   1.268  13.625  0.5732 -0.0778  0.3739
  714MPD2     C10605   3.381   3.910   2.016 -0.4593  0.6598 -0.2101
  714MPD2    C110606   3.339   3.841   1.909 -0.0039  0.3027  0.4174
  714MPD2    C210607   3.208   3.816   1.883 -0.0200 -0.6735 -0.6139
  714MPD2    C310608   3.118   3.844   1.987  0.3297  1.3463 -0.1877
  714MPD2    C410609   3.158   3.910   2.100 -0.1737  0.1263  0.1163
  714MPD2    C510610   3.290   3.953   2.108 -0.4388 -0.4047  0.6930
  714MPD2     H10611   3.168   3.757   1.801 -0.2530 -1.0561 -0.2204
  714MPD2    H110612   3.080   3.941   2.169  0.6860 -1.1655  1.6685
  714MPD2    H210613   3.479   3.949   2.039 -0.6924 -0.6267  3.0750
  714MPD2    H310614   3.329   3.997   2.199  0.3633 -0.3364  0.3176
  714MPD2     N10615   2.984   3.805   1.970  0.1029 -1.1346  0.0778
  714MPD2    H510616   2.966   3.752   1.885  2.6268  1.0919 -1.8445
  714MPD2    N110617   3.442   3.813   1.814 -0.6865 -0.1239  0.0264
  714MPD2    H710618   3.533   3.848   1.840 -0.7570  0.6943 -0.8480
  715TMC3    C110619   3.530   3.751   1.611 -0.5063  0.3358 -0.0673
  715TMC3    C210620   3.565   3.634   1.542 -0.1988  0.0022 -0.3639
  715TMC3    C310621   3.676   3.633   1.470 -0.1264  0.2392  1.4024
  715TMC3    C410622   3.618   3.854   1.612 -0.8037 -0.8205 -0.5042
  715TMC3    C510623   3.731   3.846   1.529  0.2357 -0.2360 -0.1657
  715TMC3    C610624   3.754   3.742   1.442  0.7479 -0.4131  0.5627
  715TMC3     C10625   3.424   3.733   1.708  0.4838 -0.5363  0.1473
  715TMC3     O10626   3.345   3.640   1.707  0.5328 -0.2229 -0.2333
  715TMC3     H10627   3.520   3.540   1.573 -0.3893 -0.0711 -0.8722
  715TMC3    H110628   3.591   3.951   1.652 -0.0099 -0.7708 -0.1004
  715TMC3    H210629   3.829   3.738   1.364  0.0867  0.3857 -0.1038
  715TMC3    C710630   3.816   3.959   1.511 -1.1945 -0.5676 -0.0334
  715TMC3    C810631   3.690   3.515   1.384 -1.0402 -0.0892 -0.6344
  715TMC3    O110632   3.889   3.955   1.415  0.1156 -0.4278 -0.1578
  715TMC3    O210633   3.592   3.454   1.368  0.4153  0.1976 -0.0010
  716MPD2     C10634   2.419   2.083  10.361  0.2255 -0.1341  0.3395
  716MPD2    C110635   2.349   2.056  10.250  0.3596  0.0615  0.0503
  716MPD2    C210636   2.406   1.992  10.140  0.4990  0.9508 -0.3813
  716MPD2    C310637   2.542   1.973  10.141 -0.2865 -0.1083  0.4910
  716MPD2    C410638   2.617   2.001  10.245 -0.1924 -0.3139 -0.1570
  716MPD2    C510639   2.556   2.069  10.346 -0.2225 -0.1093  0.4877
  716MPD2     H10640   2.350   1.990  10.047  1.1088 -1.0118 -0.6924
  716MPD2    H110641   2.723   1.979  10.233  0.5464  2.4828  1.0919
  716MPD2    H210642   2.385   2.160  10.430 -1.0529  1.8535 -2.4834
  716MPD2    H310643   2.624   2.109  10.421  0.3889  1.3883 -0.8564
  716MPD2     N10644   2.585   1.900  10.022 -0.2935  0.6325 -0.3954
  716MPD2    H510645   2.510   1.874   9.959 -0.5055  0.7052 -0.1746
  716MPD2    N110646   2.217   2.098  10.236 -0.0685  0.0409  1.0765
  716MPD2    H710647   2.186   2.138  10.323 -1.5758 -1.7416  1.3431
  717TMC3    C110648   2.718   1.820   9.854  0.3470  0.2894 -0.0350
  717TMC3    C210649   2.607   1.838   9.780 -1.1696 -0.1350 -0.1757
  717TMC3    C310650   2.588   1.763   9.667 -0.2581 -0.1529  0.2227
  717TMC3    C410651   2.823   1.737   9.813  0.2865 -0.1349  0.2881
  717TMC3    C510652   2.803   1.663   9.697  0.5574 -0.4942  0.5283
  717TMC3    C610653   2.680   1.675   9.624 -0.3683  0.3020  0.3785
  717TMC3     C10654   2.713   1.863   9.989  0.3605  0.2254  0.1047
  717TMC3     O10655   2.815   1.882  10.052 -0.0085 -0.6237  0.2445
  717TMC3     H10656   2.534   1.915   9.803 -1.6116 -0.1529 -1.4835
  717TMC3    H110657   2.918   1.735   9.866 -0.8331  0.1987  2.3327
  717TMC3    H210658   2.655   1.622   9.533 -1.5101  1.2561  0.1362
  717TMC3    C710659   2.908   1.564   9.658  0.3045 -0.5081  0.7436
  717TMC3    C810660   2.447   1.768   9.620 -0.0097  0.3199 -0.2176
  717TMC3    O110661   3.004   1.562   9.738 -0.0489 -0.5183 -0.4619
  717TMC3    O210662   2.378   1.864   9.660 -0.0576  0.2147 -0.1513
  718MPD2     C10663   2.158   1.842  12.801  0.5338 -1.0181  0.6778
  718MPD2    C110664   2.208   1.757  12.707  1.1351  0.1108 -0.3597
  718MPD2    C210665   2.231   1.622  12.754 -0.3514  0.3925  0.0572
  718MPD2    C310666   2.190   1.578  12.881 -0.0523  0.3610 -0.0889
  718MPD2    C410667   2.138   1.670  12.970  0.1910 -0.2273  0.6062
  718MPD2    C510668   2.126   1.801  12.929  0.5807 -0.1793  0.1573
  718MPD2     H10669   2.273   1.541  12.695 -1.9287 -0.8976  0.6955
  718MPD2    H110670   2.115   1.653  13.074  2.9166  1.6185  1.4905
  718MPD2    H210671   2.138   1.945  12.770 -1.0211 -1.2699  0.8240
  718MPD2    H310672   2.095   1.874  13.002 -0.3841 -1.9272  1.5095
  718MPD2     N10673   2.212   1.441  12.911 -0.2108 -0.1774  0.1940
  718MPD2    H510674   2.261   1.390  12.838 -1.3404  0.1811 -0.8171
  718MPD2    N110675   2.236   1.803  12.576  0.4848 -0.0592  0.0393
  718MPD2    H710676   2.199   1.892  12.544 -0.4878 -0.3566  0.3358
  719TMC3    C110677   2.282   1.769  12.345  0.0916 -0.4628 -0.0331
  719TMC3    C210678   2.222   1.663  12.278 -0.2819  0.1122  0.0497
  719TMC3    C310679   2.267   1.611  12.161 -0.7391  0.3265  0.7527
  719TMC3    C410680   2.395   1.825  12.287 -0.0581 -0.4186  0.6378
  719TMC3    C510681   2.441   1.772  12.172 -0.7056 -0.5751 -0.2629
  719TMC3    C610682   2.386   1.662  12.110 -0.5518  1.0208  0.0921
  719TMC3     C10683   2.287   1.720  12.481 -0.6940  0.4300 -0.2645
  719TMC3     O10684   2.325   1.599  12.493  0.0294 -0.1541  0.0372
  719TMC3     H10685   2.135   1.616  12.324  0.4825 -2.2744 -0.9287
  719TMC3    H110686   2.439   1.912  12.335 -0.4767  0.8679 -1.3442
  719TMC3    H210687   2.420   1.624  12.015 -0.4577 -0.0608  0.5598
  719TMC3    C710688   2.572   1.805  12.129  0.5843 -0.3873 -0.2749
  719TMC3    C810689   2.276   1.466  12.152  0.1752 -0.4109  0.2120
  719TMC3    O110690   2.625   1.727  12.048  0.3206  0.3629 -0.3019
  719TMC3    O210691   2.312   1.415  12.049 -0.6121  0.0214 -0.0190
  720MPD2     C10692   0.730   2.420  14.037  0.0447  0.4796 -0.2419
  720MPD2    C110693   0.827   2.474  13.960  0.1322  0.1760 -0.3199
  720MPD2    C210694   0.957   2.490  14.010 -1.0124  0.7768 -0.1231
  720MPD2    C310695   0.991   2.444  14.135 -0.1554  0.8082  0.3395
  720MPD2    C410696   0.895   2.378  14.208 -0.4937  0.2660 -0.4861
  720MPD2    C510697   0.766   2.366  14.164  0.4967 -0.1175  0.3911
  720MPD2     H10698   1.027   2.535  13.940 -3.4845  0.2695 -2.9242
  720MPD2    H110699   0.920   2.317  14.294 -0.2061 -1.1519 -1.5920
  720MPD2    H210700   0.625   2.417  14.013  0.0880 -0.7211 -0.2869
  720MPD2    H310701   0.693   2.304  14.214 -1.3799  1.3268 -0.5297
  720MPD2     N10702   1.121   2.465  14.188 -0.1391  0.1274 -0.0359
  720MPD2    H510703   1.196   2.495  14.126  1.2657  1.4900  2.2809
  720MPD2    N110704   0.802   2.520  13.831  0.5175  0.4622 -0.4793
  720MPD2    H710705   0.882   2.558  13.782  0.6968 -0.3748 -0.8474
  721TMC3    C110706   1.288   2.478  14.354  0.0457 -0.5764 -0.3036
  721TMC3    C210707   1.318   2.534  14.472 -0.1821  0.5039  0.6558
  721TMC3    C310708   1.442   2.510  14.523 -0.8853 -0.3659  0.8330
  721TMC3    C410709   1.378   2.415  14.273  0.0955  0.2426  0.5484
  721TMC3    C510710   1.498   2.399  14.327  0.0482  0.4304  0.5577
  721TMC3    C610711   1.537   2.450  14.447  0.3290 -0.8237  0.0219
  721TMC3     C10712   1.149   2.459  14.322 -0.0389 -0.1978  0.6603
  721TMC3     O10713   1.082   2.440  14.422 -0.6882  0.6851 -0.1872
  721TMC3     H10714   1.239   2.568  14.538 -1.1085  1.5886 -1.0190
  721TMC3    H110715   1.345   2.344  14.198 -0.6362  1.1264  0.0320
  721TMC3    H210716   1.640   2.454  14.479  0.0620  1.6057  0.5398
  721TMC3    C710717   1.600   2.352  14.228  0.1133 -0.1019  0.0086
  721TMC3    C810718   1.495   2.588  14.635  0.7007 -0.2235 -0.3797
  721TMC3    O110719   1.563   2.368  14.113  0.1235  0.0314  0.6421
  721TMC3    O210720   1.610   2.636  14.625 -0.2158 -0.7356  0.2797
  722MPD2     C10721   4.421   1.046  13.525  0.2127 -0.0254 -0.4212
  722MPD2    C110722   4.365   1.166  13.541  0.7840  0.3273  0.6887
  722MPD2    C210723   4.236   1.177  13.479 -0.1237 -0.1418  0.0406
  722MPD2    C310724   4.185   1.088  13.391 -0.2078 -0.9860  0.2491
  722MPD2    C410725   4.251   0.964  13.381  0.1718 -0.3371  0.4735
  722MPD2    C510726   4.364   0.945  13.458 -0.3159  0.3766 -0.4843
  722MPD2     H10727   4.194   1.272  13.510  2.2019  1.0181 -0.3674
  722MPD2    H110728   4.218   0.878  13.324  0.6611 -0.2788  0.0982
  722MPD2    H210729   4.520   1.023  13.563 -1.0780 -0.9931  2.3253
  722MPD2    H310730   4.413   0.848  13.458  0.8711  0.9761  1.7804
  722MPD2     N10731   4.060   1.116  13.335 -0.3159 -0.2515  0.4758
  722MPD2    H510732   4.016   1.202  13.366  0.8633  0.3901  0.3565
  722MPD2    N110733   4.418   1.283  13.607 -0.3453 -0.2419  0.1460
  722MPD2    H710734   4.369   1.371  13.596 -0.0035  0.0242  0.7101
  723TMC3    C110735   3.861   1.081  13.214 -0.7389 -0.7083  0.0467
  723TMC3    C210736   3.766   0.982  13.195  0.0649  0.0201  0.1505
  723TMC3    C310737   3.630   1.014  13.193  0.3443  0.3385  0.4755
  723TMC3    C410738   3.824   1.210  13.228 -0.0086 -0.4511  0.4450
  723TMC3    C510739   3.690   1.239  13.223  0.3149 -0.2259  0.4623
  723TMC3    C610740   3.594   1.144  13.205  0.2167 -0.0764  0.2575
  723TMC3     C10741   3.992   1.036  13.253 -0.0992  0.4146  0.1771
  723TMC3     O10742   4.020   0.920  13.226 -0.1432 -0.4214 -0.8351
  723TMC3     H10743   3.807   0.881  13.193  0.2292  0.0648  1.7132
  723TMC3    H110744   3.891   1.294  13.221 -0.9510  0.2082 -0.6417
  723TMC3    H210745   3.492   1.178  13.194  0.6007  0.6097 -1.0980
  723TMC3    C710746   3.669   1.346  13.136 -0.2834  0.5685 -0.4014
  723TMC3    C810747   3.527   0.921  13.194  0.3120  0.2725 -0.4318
  723TMC3    O110748   3.582   1.332  13.050  0.2369  0.3997 -0.2486
  723TMC3    O210749   3.415   0.960  13.224  0.2403  1.0917 -0.7408
  724TMC3    C110750   0.072   4.201  10.848  0.1123  0.3509  0.1911
  724TMC3    C210751   0.036   4.207  10.716 -0.1079  0.4854 -0.8052
  724TMC3    C310752   0.061   4.325  10.654 -0.8354  0.3225  0.2497
  724TMC3    C410753   0.125   4.304  10.927  0.1851 -0.1443  0.3267
  724TMC3    C510754   0.142   4.418  10.859  0.6105  0.2185 -0.5999
  724TMC3    C610755   0.114   4.434  10.723  0.2812 -0.4593  0.0108
  724TMC3     C10756   0.035   4.075  10.920  1.5267  0.3460  0.3829
  724TMC3     O10757   0.082   4.046  11.029  0.1475  0.0605 -0.4106
  724TMC3     H10758   0.031   4.115  10.659 -1.8908 -0.0239  0.1692
  724TMC3    H110759   0.142   4.290  11.033 -0.8502  2.5194  0.8213
  724TMC3    H210760   0.166   4.510  10.665 -0.7965 -0.4535 -0.9581
  724TMC3    C710761   0.183   4.542  10.926  0.7374 -0.3321  0.1331
  724TMC3    C810762   0.058   4.315  10.510  0.0829  0.0003  0.2260
  724TMC3    O110763   0.138   4.643  10.866  0.1528 -0.1995 -0.1568
  724TMC3    O210764   4.729   4.227  10.454  0.2773  0.5120  0.0794
  725TMC3    C110765   1.017   3.120  12.526 -0.6219  0.0296 -0.8571
  725TMC3    C210766   0.908   3.169  12.466 -0.7202  0.4311 -0.1686
  725TMC3    C310767   0.808   3.076  12.449 -0.2355  0.5466  0.8783
  725TMC3    C410768   1.042   2.999  12.574  1.1451  0.5995  0.1069
  725TMC3    C510769   0.938   2.907  12.561 -0.3922 -0.0672  0.9851
  725TMC3    C610770   0.826   2.945  12.496 -0.0300 -0.3421 -0.2940
  725TMC3     C10771   1.124   3.216  12.545 -0.7882 -0.9125 -0.6669
  725TMC3     O10772   1.103   3.322  12.602  0.3579 -0.1581  0.3704
  725TMC3     H10773   0.911   3.271  12.432 -1.3201  1.4029  2.6833
  725TMC3    H110774   1.130   2.977  12.632  1.7068 -0.5898 -1.1951
  725TMC3    H210775   0.741   2.877  12.494  0.3000 -0.8005  1.4317
  725TMC3    C710776   0.972   2.770  12.588  0.5289 -0.0067  0.4890
  725TMC3    C810777   0.716   3.084  12.328 -0.0725  0.3320 -0.2324
  725TMC3    O110778   1.067   2.748  12.665 -0.4808  0.0849 -0.3570
  725TMC3    O210779   0.638   2.992  12.309 -0.2960  0.0199  0.2331
  726MPD2     C10780   3.184   4.443  10.108  0.2987  1.2607  0.2955
  726MPD2    C110781   3.298   4.373  10.138  0.1699 -0.4441 -0.6038
  726MPD2    C210782   3.285   4.243  10.190 -0.3625  0.6661 -0.1965
  726MPD2    C310783   3.157   4.203  10.219  0.4334 -0.3955  0.1171
  726MPD2    C410784   3.044   4.273  10.199 -0.7781 -0.6765  0.2138
  726MPD2    C510785   3.055   4.396  10.133  0.0631 -0.1389 -0.3910
  726MPD2     H10786   3.373   4.181  10.205 -0.0093  1.0219 -0.8310
  726MPD2    H110787   2.947   4.229  10.214  0.5427 -3.5329  0.3601
  726MPD2    H210788   3.187   4.543  10.066  2.0349  1.6678  1.3936
  726MPD2    H310789   2.966   4.457  10.121 -0.4742 -1.0443 -0.9933
  726MPD2     N10790   3.127   4.083  10.286 -0.1690 -0.5390 -0.1033
  726MPD2    H510791   3.030   4.055  10.295  0.2479 -1.8824  0.2354
  726MPD2    N110792   3.423   4.421  10.113 -0.3557  0.4104 -0.1026
  726MPD2    H710793   3.427   4.516  10.076  2.2977 -0.0232 -0.9150
  727TMC3    C110794   3.638   4.470  10.133 -1.0197 -0.1851  0.3559
  727TMC3    C210795   3.689   4.543  10.236 -0.3101 -0.0851  0.4537
  727TMC3    C310796   3.717   4.672  10.215 -0.0576 -0.6415 -0.0340
  727TMC3    C410797   3.606   4.536  10.015 -1.2542  0.0993 -0.1359
  727TMC3    C510798   3.635   4.663   9.999 -0.2946 -0.1270 -0.5695
  727TMC3    C610799   3.702   4.732  10.097  0.0117 -0.2210  0.4835
  727TMC3     C10800   3.537   4.375  10.169 -0.4158  0.4635 -0.7206
  727TMC3     O10801   3.566   4.292  10.254  0.6586  0.3239  0.4960
  727TMC3     H10802   3.706   4.508  10.337 -0.4696 -0.5769  0.3057
  727TMC3    H110803   3.567   4.480   9.931  0.2086  0.3021 -0.9618
  727TMC3    H210804   3.740   0.095  10.065 -0.6630 -0.4441 -0.9765
  727TMC3    C710805   3.567   0.004   9.894  0.2990 -0.4579 -0.2457
  727TMC3    C810806   3.802   0.003  10.313 -0.3516  0.8229  0.6789
  727TMC3    O110807   3.510   4.672   9.808  0.0157 -0.7645  0.6757
  727TMC3    O210808   3.877   4.677  10.394  0.0091  0.1022 -0.0327
  728TMC3    C110809   3.551   2.861  14.951 -0.1603 -0.0870 -0.0597
  728TMC3    C210810   3.644   2.958  14.929 -0.2943 -0.9177  0.0656
  728TMC3    C310811   3.607   3.072  14.861 -0.1657  0.7649  0.1996
  728TMC3    C410812   3.419   2.873  14.901  0.7445 -0.2993 -0.1164
  728TMC3    C510813   3.391   2.988  14.837  0.2750 -0.6524 -0.4761
  728TMC3    C610814   3.477   3.088  14.809 -1.4473 -0.4950  0.1017
  728TMC3     C10815   3.574   2.766  15.057  0.3977 -0.5860  0.1024
  728TMC3     O10816   3.677   2.777  15.120 -0.1432 -0.1441  0.1614
  728TMC3     H10817   3.748   2.949  14.958 -0.1134  2.7313  0.4879
  728TMC3    H110818   3.342   2.798  14.916 -0.0849  0.3084 -1.3070
  728TMC3    H210819   3.461   3.180  14.753 -1.6763  0.6516  2.0469
  728TMC3    C710820   3.274   2.984  14.756 -0.3702 -0.5099 -0.3858
  728TMC3    C810821   3.709   3.161  14.814  0.2822  1.0895  0.1872
  728TMC3    O110822   3.238   2.880  14.704  0.2381 -0.0729 -0.7943
  728TMC3    O210823   3.796   3.189  14.897  0.0064  0.3143 -0.3560
  729MPD2     C10824   0.620   3.685  16.769  0.1857 -0.1454  0.1210
  729MPD2    C110825   0.753   3.654  16.797 -0.2459 -0.1591 -0.0936
  729MPD2    C210826   0.793   3.634  16.929  0.1999 -0.1515 -0.1526
  729MPD2    C310827   0.702   3.651  17.037 -0.1808 -0.0889 -0.3472
  729MPD2    C410828   0.579   3.690  17.008  0.0602  0.5161 -0.7816
  729MPD2    C510829   0.539   3.696  16.875  0.5780  1.0194 -0.1881
  729MPD2     H10830   0.896   3.610  16.952 -0.0610 -0.8358  0.3196
  729MPD2    H110831   0.510   3.706  17.090 -0.8771 -1.2946 -1.2219
  729MPD2    H210832   0.590   3.699  16.666  1.4953  2.0368  0.0309
  729MPD2    H310833   0.432   3.710  16.864  0.4941 -0.1332 -0.7811
  729MPD2     N10834   0.738   3.645  17.176 -0.5119 -0.3540 -0.2389
  729MPD2    H510835   0.670   3.672  17.245  1.0787  0.5552  0.9724
  729MPD2    N110836   0.844   3.649  16.688  0.0715  0.1315 -0.1175
  729MPD2    H710837   0.813   3.682  16.598 -0.7669 -0.2940  0.0135
  730TMC3    C110838   0.894   3.624  17.349  0.3084  1.1881 -0.9420
  730TMC3    C210839   0.970   3.543  17.419  0.0346  0.4763  0.3779
  730TMC3    C310840   0.997   3.578  17.548  0.1121  0.1987  0.6643
  730TMC3    C410841   0.841   3.749  17.398  0.1898  0.6409 -0.4760
  730TMC3    C510842   0.877   3.776  17.529 -0.4740 -0.3730  0.2020
  730TMC3    C610843   0.955   3.694  17.605 -0.2998  0.0291 -0.1286
  730TMC3     C10844   0.862   3.584  17.212 -0.4393  0.4638 -0.2042
  730TMC3     O10845   0.938   3.510  17.156  0.3120  0.8745 -0.6186
  730TMC3     H10846   1.017   3.454  17.379 -0.2017  1.3932 -1.9401
  730TMC3    H110847   0.789   3.818  17.332  0.5072 -0.9949 -2.4695
  730TMC3    H210848   0.967   3.712  17.711  0.0883  2.5200 -0.6058
  730TMC3    C710849   0.853   3.912  17.591 -0.4983 -0.4037  0.1976
  730TMC3    C810850   1.066   3.482  17.635 -0.4368 -0.2009  0.3111
  730TMC3    O110851   0.892   3.929  17.705 -0.3936  0.1657  0.1862
  730TMC3    O210852   1.147   3.412  17.579 -0.0880  1.1037  0.0070
  731MPD2     C10853   0.280   2.375  12.340 -0.0564 -0.0127  0.3375
  731MPD2    C110854   0.401   2.303  12.324 -0.3558  0.2113 -0.6588
  731MPD2    C210855   0.440   2.216  12.423 -0.2279  0.2945 -0.1707
  731MPD2    C310856   0.362   2.200  12.538  0.7050 -0.8769  0.3422
  731MPD2    C410857   0.243   2.266  12.546 -0.0398 -0.0320 -0.6492
  731MPD2    C510858   0.201   2.352  12.449  0.9025 -0.0459  0.1034
  731MPD2     H10859   0.535   2.165  12.415 -0.2167  0.1929  0.6800
  731MPD2    H110860   0.168   2.244  12.621  0.4852  1.0171  0.1866
  731MPD2    H210861   0.238   2.440  12.264  2.1578  1.7994  0.6637
  731MPD2    H310862   0.113   2.415  12.459  1.6889  1.0665  0.0173
  731MPD2     N10863   0.404   2.128  12.651 -0.0470  0.1051 -0.1791
  731MPD2    H510864   0.491   2.079  12.634 -0.3681 -0.6632  0.3667
  731MPD2    N110865   0.470   2.322  12.201 -0.0623 -0.1466  0.1918
  731MPD2    H710866   0.436   2.402  12.149 -0.2019  0.7820  1.7284
  732TMC3    C110867   0.638   2.301  12.029  0.0353 -0.3630 -0.2107
  732TMC3    C210868   0.555   2.363  11.934  0.0611  0.1592  0.3547
  732TMC3    C310869   0.607   2.355  11.802 -0.4254 -0.3812 -0.6533
  732TMC3    C410870   0.770   2.262  12.009  0.1901 -0.0625 -0.5126
  732TMC3    C510871   0.822   2.300  11.889  0.1921  0.0152 -0.7723
  732TMC3    C610872   0.749   2.338  11.781 -0.2672  0.2732  0.1518
  732TMC3     C10873   0.578   2.244  12.151 -0.8846 -0.0583 -0.4893
  732TMC3     O10874   0.635   2.152  12.206  0.1530  0.8156  0.5871
  732TMC3     H10875   0.449   2.373  11.956 -0.0193 -0.2901  0.1803
  732TMC3    H110876   0.834   2.235  12.092  0.3725 -0.2799 -0.7244
  732TMC3    H210877   0.799   2.360  11.688  0.3842 -0.7246  0.2646
  732TMC3    C710878   0.964   2.327  11.883  1.3990 -0.2646  0.6119
  732TMC3    C810879   0.544   2.458  11.715 -0.2920  0.1852 -0.4385
  732TMC3    O110880   0.999   2.410  11.802  0.2156 -0.3571 -0.1815
  732TMC3    O210881   0.575   2.576  11.733 -0.5211 -1.1886 -0.6128
  733TMC3    C110882   2.118   1.025  13.061 -0.5557 -0.5950  0.0402
  733TMC3    C210883   2.121   1.158  13.096 -0.4955 -0.2886 -0.5233
  733TMC3    C310884   2.200   1.240  13.018 -0.4403 -0.0802  0.1125
  733TMC3    C410885   2.190   0.978  12.949  0.6766 -0.3335 -0.1231
  733TMC3    C510886   2.269   1.059  12.877  0.4834  0.8359  0.4640
  733TMC3    C610887   2.274   1.191  12.907 -0.3501 -0.3210  0.7007
  733TMC3     C10888   1.992   0.956  13.076 -0.1273  0.5513 -0.1952
  733TMC3     O10889   1.917   0.962  12.978 -0.4027 -0.7118 -0.1036
  733TMC3     H10890   2.063   1.191  13.181  1.7804  0.1848  0.8527
  733TMC3    H110891   2.181   0.872  12.930 -0.6190 -1.1865  5.2883
  733TMC3    H210892   2.347   1.258  12.863 -0.1222 -0.9211  0.1568
  733TMC3    C710893   2.278   1.023  12.737  0.5528  0.5130  1.1002
  733TMC3    C810894   2.173   1.378  13.022 -0.3195 -0.1368  0.7164
  733TMC3    O110895   2.240   0.910  12.699 -0.0119 -0.4425  0.6500
  733TMC3    O210896   2.118   1.417  13.127 -0.2395 -0.1024 -0.0034
  734MPD2     C10897   3.633   3.135  12.698  0.1397  0.0138  0.0744
  734MPD2    C110898   3.576   3.024  12.641  0.2170 -0.2465  0.1945
  734MPD2    C210899   3.598   2.999  12.511  0.3849 -0.5966 -0.3042
  734MPD2    C310900   3.678   3.077  12.429 -0.6344  0.4035  0.0545
  734MPD2    C410901   3.737   3.190  12.482  0.0861  0.4587 -0.5643
  734MPD2    C510902   3.711   3.214  12.615  0.0782  0.3276 -0.1830
  734MPD2     H10903   3.559   2.908  12.468  1.4854 -0.5888 -1.3154
  734MPD2    H110904   3.804   3.256  12.427  2.7166 -0.4145  1.5898
  734MPD2    H210905   3.624   3.162  12.802  0.2650 -0.5547  0.2332
  734MPD2    H310906   3.769   3.298  12.651  0.1743  0.0401  0.3325
  734MPD2     N10907   3.705   3.038  12.299  0.2659 -0.0104  0.3283
  734MPD2    H510908   3.666   2.947  12.278 -1.0709  0.6832 -0.2129
  734MPD2    N110909   3.469   2.948  12.713  0.1986  0.2545  0.4506
  734MPD2    H710910   3.470   2.963  12.814  0.0641 -0.1806  0.5161
  735TMC3    C110911   3.300   2.782  12.740 -0.0006 -0.0564  0.5076
  735TMC3    C210912   3.191   2.735  12.671  0.3011 -0.3594  0.1016
  735TMC3    C310913   3.164   2.603  12.671 -0.0497 -0.4685 -0.4217
  735TMC3    C410914   3.375   2.695  12.817 -0.5749  0.0701 -0.8425
  735TMC3    C510915   3.352   2.558  12.808  0.1389  0.4280  0.1257
  735TMC3    C610916   3.251   2.511  12.735  0.0244 -0.0762  0.0633
  735TMC3     C10917   3.372   2.874  12.656 -0.7369  0.4141  0.3493
  735TMC3     O10918   3.351   2.859  12.537 -0.5347  0.7851 -0.0106
  735TMC3     H10919   3.119   2.805  12.630 -1.2191 -0.4370  2.6476
  735TMC3    H110920   3.459   2.726  12.879 -0.0795 -1.6628 -0.6595
  735TMC3    H210921   3.214   2.409  12.726 -0.9380  0.3989 -1.4994
  735TMC3    C710922   3.473   2.477  12.813 -0.1999  0.0351 -0.4462
  735TMC3    C810923   3.140   2.548  12.536  0.4333 -0.0140  0.2269
  735TMC3    O110924   3.579   2.540  12.829 -0.4221  0.1592  0.4803
  735TMC3    O210925   3.124   2.431  12.522 -0.1670 -0.7099  0.3394
  736MPD2     C10926   3.506   2.116  12.752 -0.2869  0.0162  0.2531
  736MPD2    C110927   3.550   2.248  12.760  0.8769  0.5258 -0.1957
  736MPD2    C210928   3.683   2.276  12.735 -0.2513  0.0136 -0.2686
  736MPD2    C310929   3.768   2.175  12.700  0.5403 -0.4821  0.1267
  736MPD2    C410930   3.720   2.044  12.690  0.1299 -0.8219  1.0358
  736MPD2    C510931   3.590   2.013  12.722 -0.4504  0.1312  0.4445
  736MPD2     H10932   3.714   2.379  12.750  3.6245 -1.3336  1.0221
  736MPD2    H110933   3.781   1.961  12.656  0.0770 -0.0546 -0.9340
  736MPD2    H210934   3.404   2.092  12.778 -0.7043  0.2957 -1.1019
  736MPD2    H310935   3.562   1.908  12.721  0.8830 -0.2426  3.1316
  736MPD2     N10936   3.883   2.210  12.633 -0.0666  0.5022  0.3051
  736MPD2    H510937   3.932   2.130  12.593  0.8617  1.1303  0.2079
  736MPD2    N110938   3.450   2.343  12.792  0.1021  0.0411  0.1435
  736MPD2    H710939   3.358   2.303  12.798 -0.0796  0.6249  1.2798
  737TMC3    C110940   4.053   2.334  12.517  0.4309 -0.5367 -0.7988
  737TMC3    C210941   4.120   2.454  12.516  0.1053  0.1430  0.4346
  737TMC3    C310942   4.204   2.480  12.414 -0.0760 -0.8372 -0.1903
  737TMC3    C410943   4.062   2.249  12.410 -0.0193  0.2553 -0.7750
  737TMC3    C510944   4.143   2.281  12.309 -0.0210  0.3441 -0.1612
  737TMC3    C610945   4.225   2.393  12.313  0.6965 -0.2759 -0.0381
  737TMC3     C10946   3.941   2.333  12.615 -0.5462  0.0233 -0.8625
  737TMC3     O10947   3.928   2.436  12.684  0.2720  0.1922  0.1887
  737TMC3     H10948   4.110   2.526  12.595  2.2025  2.7441 -1.6485
  737TMC3    H110949   4.008   2.155  12.408  1.2257 -0.4503 -1.2452
  737TMC3    H210950   4.315   2.406  12.254  1.9653 -0.7596  1.8062
  737TMC3    C710951   4.172   2.176  12.212  0.0703  0.5041 -0.5343
  737TMC3    C810952   4.246   2.615  12.380 -0.5235 -0.0204 -0.2826
  737TMC3    O110953   4.143   2.058  12.238 -0.1766 -0.1700 -0.0159
  737TMC3    O210954   4.274   2.690  12.469 -0.0399  0.6338 -0.2166
  738MPD2     C10955   4.290   1.475  14.979 -0.1969 -0.3128 -0.1336
  738MPD2    C110956   4.332   1.403  15.084  0.0363 -0.0271  0.5224
  738MPD2    C210957   4.440   1.446  15.156 -0.8586 -0.2151  0.1795
  738MPD2    C310958   4.508   1.559  15.114  0.1122  0.1462  0.4606
  738MPD2    C410959   4.475   1.624  14.999 -0.6024 -0.0793 -0.2083
  738MPD2    C510960   4.357   1.585  14.941 -0.0697  0.4438  0.5068
  738MPD2     H10961   4.480   1.385  15.236 -1.3784 -0.2826  0.3840
  738MPD2    H110962   4.531   1.704  14.954  0.4206 -0.6924 -0.0189
  738MPD2    H210963   4.207   1.445  14.916 -0.3992  0.8733 -0.4269
  738MPD2    H310964   4.332   1.628  14.844 -2.0512 -0.0773  0.7906
  738MPD2     N10965   4.625   1.604  15.173 -0.1439  0.1641  0.5641
  738MPD2    H510966   4.669   1.678  15.120  0.6091 -0.1983  0.6786
  738MPD2    N110967   4.274   1.278  15.122 -0.6917 -0.0746  0.1978
  738MPD2    H710968   4.305   1.239  15.210 -0.4074 -1.1665 -0.3853
  739TMC3    C110969   0.083   1.609  15.301  1.2748 -0.3252  0.3654
  739TMC3    C210970   0.166   1.595  15.187 -0.4246 -0.2513  0.9935
  739TMC3    C310971   0.301   1.596  15.194 -0.0513  0.2786  0.4247
  739TMC3    C410972   0.144   1.637  15.417 -0.0522  0.4816  0.0546
  739TMC3    C510973   0.278   1.655  15.422 -0.1893  0.0518 -0.0442
  739TMC3    C610974   0.361   1.631  15.309  0.0034 -0.2979 -0.2598
  739TMC3     C10975   4.677   1.562  15.294  0.5210 -0.3948  0.3550
  739TMC3     O10976   4.629   1.505  15.390  0.1083  0.4472  0.5053
  739TMC3     H10977   0.128   1.565  15.090  1.2664 -1.1076  0.5866
  739TMC3    H110978   0.091   1.654  15.510  1.4131 -1.8914  1.3194
  739TMC3    H210979   0.469   1.641  15.317 -0.0453  0.9338 -1.0718
  739TMC3    C710980   0.356   1.661  15.544  0.0025 -0.3319  0.0485
  739TMC3    C810981   0.365   1.581  15.065  0.6235  0.3267 -0.4885
  739TMC3    O110982   0.472   1.688  15.550  0.6255 -0.4083  0.0152
  739TMC3    O210983   0.313   1.505  14.981  0.1087 -0.2797 -0.1929
  740TMC3    C110984   0.362   3.318  13.942 -0.5821  0.1029 -0.3037
  740TMC3    C210985   0.448   3.346  14.043  0.0427  0.2818 -0.0586
  740TMC3    C310986   0.558   3.268  14.065  0.8345  0.3780  0.5987
  740TMC3    C410987   0.409   3.245  13.833 -0.1631  0.6325 -0.1188
  740TMC3    C510988   0.519   3.165  13.861 -0.2946  1.0293  0.2208
  740TMC3    C610989   0.592   3.170  13.972  0.1722  0.6382  0.2262
  740TMC3     C10990   0.221   3.324  13.970  0.1310 -0.1217 -0.5102
  740TMC3     O10991   0.136   3.369  13.894  0.0645 -0.1662  0.1269
  740TMC3     H10992   0.410   3.400  14.129 -1.9893 -1.7633  0.3312
  740TMC3    H110993   0.356   3.223  13.741 -0.8226  1.7754 -0.0135
  740TMC3    H210994   0.673   3.103  14.000 -0.5669 -0.3067  0.0909
  740TMC3    C710995   0.563   3.068  13.755  0.0729  0.0573 -0.5674
  740TMC3    C810996   0.658   3.298  14.172  0.3464 -0.1203 -0.8319
  740TMC3    O110997   0.618   2.969  13.801  0.3210  0.4986  0.1672
  740TMC3    O210998   0.661   3.412  14.214 -0.1578 -0.0853 -0.3849
  741TMC3    C110999   0.134   2.031  14.660 -0.3837 -0.2470  0.4279
  741TMC3    C211000   0.049   1.953  14.589  0.2121 -0.4420  0.3793
  741TMC3    C311001   4.723   1.851  14.653 -0.3235 -0.2319 -1.0363
  741TMC3    C411002   0.137   2.029  14.801  0.6819 -0.5457 -0.2758
  741TMC3    C511003   0.071   1.927  14.864  0.0768 -1.1409 -0.6937
  741TMC3    C611004   0.001   1.829  14.795 -0.0264  0.0950 -0.2084
  741TMC3     C11005   0.166   2.161  14.597 -0.5565 -0.5650 -0.4295
  741TMC3     O11006   0.113   2.195  14.492  0.0028  0.4476  0.0067
  741TMC3     H11007   0.038   1.967  14.482 -0.9622 -0.0481  0.5604
  741TMC3    H111008   0.185   2.108  14.856 -1.5055  0.3499  0.3237
  741TMC3    H211009   4.691   1.746  14.849  0.0094 -0.5276 -1.1332
  741TMC3    C711010   0.091   1.930  15.007  0.0474  0.1201 -0.3457
  741TMC3    C811011   4.631   1.769  14.581  0.1433  0.2282  0.0952
  741TMC3    O111012   0.010   1.871  15.078  0.9956  0.6085 -0.9355
  741TMC3    O211013   4.595   1.816  14.475  0.3921 -0.2323  0.1132
  742TMC3    C111014   4.609   0.356  15.535  0.3635  0.3245  0.2368
  742TMC3    C211015   4.533   0.353  15.418  0.5100 -0.8167  0.1852
  742TMC3    C311016   4.561   0.449  15.322  0.0908 -0.4630 -0.0075
  742TMC3    C411017   4.712   0.442  15.559  0.4258  0.6001 -0.6311
  742TMC3    C511018   0.001   0.533  15.459 -0.1902 -0.3000 -0.2315
  742TMC3    C611019   4.667   0.530  15.343 -0.0019 -0.0405  0.2058
  742TMC3     C11020   4.582   0.255  15.639  0.0094 -0.4988 -0.6551
  742TMC3     O11021   4.612   0.285  15.754  0.1083 -0.1135 -0.5141
  742TMC3     H11022   4.465   0.274  15.386 -3.1506  1.4323  2.3848
  742TMC3    H111023   0.043   0.424  15.643  0.3966 -0.1528 -0.7682
  742TMC3    H211024   4.681   0.602  15.263  0.3817  0.5524  0.8060
  742TMC3    C711025   0.142   0.539  15.429 -0.1421  0.4090  0.0300
  742TMC3    C811026   4.484   0.439  15.199  0.4171  0.8628 -0.0551
  742TMC3    O111027   0.167   0.539  15.310  0.7333  0.3793  0.2255
  742TMC3    O211028   4.548   0.447  15.097  0.3827  0.3479  0.1752
  743MPD2     C11029   1.953   1.032   0.301  0.4994  0.2583 -0.3878
  743MPD2    C111030   2.070   0.978   0.252 -0.2047 -0.1256 -0.0099
  743MPD2    C211031   2.171   0.939   0.336  0.0029  0.0777 -0.1493
  743MPD2    C311032   2.157   0.969   0.473 -0.0921  0.3372  0.4895
  743MPD2    C411033   2.033   1.006   0.524  0.0791  0.2098 -0.1641
  743MPD2    C511034   1.936   1.041   0.440  0.5381  1.0890 -0.1362
  743MPD2     H11035   2.265   0.898   0.301 -0.1499 -1.0319  0.7451
  743MPD2    H111036   2.009   0.984   0.628  0.8206 -0.3402 -0.1118
  743MPD2    H211037   1.870   1.063   0.240  0.7593 -0.7312 -1.2474
  743MPD2    H311038   1.845   1.085   0.478  1.0109  1.7072  0.2715
  743MPD2     N11039   2.264   0.932   0.563  0.0234  0.2555 -0.7042
  743MPD2    H511040   2.333   0.870   0.522  0.3822 -0.0368  0.3514
  743MPD2    N111041   2.101   0.958   0.114 -0.1588 -0.4600 -0.6396
  743MPD2    H711042   2.183   0.903   0.091  0.7600  0.5569  0.2067
  744TMC3    C111043   2.058   0.971  17.614 -0.2109  0.2229 -0.7115
  744TMC3    C211044   2.049   1.065  17.516  0.2604 -0.4135 -0.4258
  744TMC3    C311045   2.072   1.026  17.389 -0.2840 -0.0721  0.2767
  744TMC3    C411046   2.064   0.839  17.584  0.2721  0.3712 -0.2686
  744TMC3    C511047   2.090   0.806  17.455  0.2659 -0.7138 -0.3021
  744TMC3    C611048   2.087   0.893  17.351 -0.0061 -0.7521  0.2924
  744TMC3     C11049   2.025   1.007   0.012  0.4017  0.2095 -0.4466
  744TMC3     O11050   1.917   1.070   0.012  0.2055  0.1653  0.1629
  744TMC3     H11051   2.043   1.168  17.551  0.8622 -1.1695  1.8682
  744TMC3    H111052   2.055   0.766  17.663  0.8997  0.3364 -0.2300
  744TMC3    H211053   2.126   0.865  17.254  1.5370  0.9559  0.4191
  744TMC3    C711054   2.144   0.669  17.429  0.1624  0.6302 -0.1013
  744TMC3    C811055   2.017   1.127  17.299  0.2935 -0.0440  0.1548
  744TMC3    O111056   2.090   0.573  17.483  0.0593 -0.1375 -0.0961
  744TMC3    O211057   1.954   1.217  17.352 -0.4909 -0.1621 -0.8954
  745TMC3    C111058   0.612   0.383  13.386  0.5425  0.1215  0.0839
  745TMC3    C211059   0.572   0.380  13.518  0.2280 -0.1285 -0.1295
  745TMC3    C311060   0.450   0.435  13.554  0.4410 -0.0606 -0.3401
  745TMC3    C411061   0.545   0.456  13.293 -0.1679  0.1321  0.6616
  745TMC3    C511062   0.435   0.525  13.332  0.1018  0.3646  0.4528
  745TMC3    C611063   0.383   0.509  13.456  1.0012  0.6886  0.1693
  745TMC3     C11064   0.757   0.402  13.366 -0.1319  0.0428  0.1393
  745TMC3     O11065   0.796   0.383  13.254 -0.4287 -0.0992  0.0817
  745TMC3     H11066   0.642   0.331  13.584  1.8555  2.3247 -0.0159
  745TMC3    H111067   0.583   0.460  13.191 -1.5606 -1.0259  0.0901
  745TMC3    H211068   0.310   0.583  13.486  1.7229  0.2040  3.1574
  745TMC3    C711069   0.431   0.662  13.276  0.0099  0.4249  0.7600
  745TMC3    C811070   0.461   0.491  13.688 -0.0947  0.7708  0.0658
  745TMC3    O111071   0.318   0.715  13.267  0.2800 -0.0072  0.1615
  745TMC3    O211072   0.577   0.520  13.716 -0.7554  0.0337 -0.1463
  746TMC3    C111073   2.814   1.839  11.243  0.0137  0.2689 -0.4721
  746TMC3    C211074   2.857   1.818  11.117  0.3191  0.0836  0.6208
  746TMC3    C311075   2.786   1.736  11.040  0.7970  0.1788  1.0653
  746TMC3    C411076   2.698   1.782  11.286 -0.3029 -0.6293 -0.4125
  746TMC3    C511077   2.649   1.682  11.209 -0.0399  0.3698  0.5213
  746TMC3    C611078   2.685   1.662  11.084  0.1084  0.0041  0.3016
  746TMC3     C11079   2.828   1.976  11.285  0.3561 -0.3686  0.0993
  746TMC3     O11080   2.731   2.016  11.343 -0.3016  0.0030 -0.1371
  746TMC3     H11081   2.948   1.870  11.089 -0.4595  1.3160  0.3684
  746TMC3    H111082   2.655   1.801  11.383  0.1834  0.2404 -0.3723
  746TMC3    H211083   2.625   1.606  11.013 -3.9876 -0.5110  4.1736
  746TMC3    C711084   2.548   1.605  11.268 -0.3849  0.0377 -0.1377
  746TMC3    C811085   2.853   1.695  10.918 -1.1496  0.1359 -0.0760
  746TMC3    O111086   2.437   1.613  11.215 -0.0901 -0.0314 -0.2177
  746TMC3    O211087   2.838   1.576  10.886 -0.0005 -0.6350  0.0126
  747TMC3    C111088   0.079   2.468  11.434  0.0401 -0.3549 -0.1718
  747TMC3    C211089   4.728   2.364  11.462 -0.3916  0.4164 -0.4872
  747TMC3    C311090   4.688   2.349  11.592  0.0477  0.3034 -0.5247
  747TMC3    C411091   0.119   2.555  11.531  0.2318  0.6824  0.2314
  747TMC3    C511092   0.074   2.542  11.658 -0.3599  0.4352  0.5245
  747TMC3    C611093   4.725   2.440  11.691 -0.2631  0.2235 -0.2110
  747TMC3     C11094   0.076   2.534  11.304 -0.2004 -0.7377 -0.0914
  747TMC3     O11095   0.047   2.649  11.316 -0.2511  0.7417  0.0433
  747TMC3     H11096   4.688   2.303  11.382 -1.8202 -0.5275  0.9332
  747TMC3    H111097   0.196   2.627  11.505  2.4014 -0.9119  2.3377
  747TMC3    H211098   4.680   2.434  11.789  1.4198  0.5634  0.5798
  747TMC3    C711099   0.104   2.640  11.751 -0.3189  0.0534 -0.0576
  747TMC3    C811100   4.598   2.236  11.628  0.6469  0.0829  0.3429
  747TMC3    O111101   0.138   2.748  11.701 -0.5987  0.1725 -0.1560
  747TMC3    O211102   4.635   2.129  11.585 -0.4116 -0.0718 -0.6059
  748MPD2     C11103   1.486   2.146   0.749  0.0484 -0.0353  0.2045
  748MPD2    C111104   1.519   2.121   0.616  0.1880 -0.0866  0.0607
  748MPD2    C211105   1.650   2.072   0.598  0.0065 -0.5219 -0.2837
  748MPD2    C311106   1.743   2.060   0.704  0.1142  0.0502 -0.2103
  748MPD2    C411107   1.700   2.078   0.839  0.4706  0.3300  0.4045
  748MPD2    C511108   1.576   2.127   0.856 -0.2235 -0.2785  0.0724
  748MPD2     H11109   1.678   2.033   0.501 -2.8652  1.0912 -1.7820
  748MPD2    H111110   1.749   2.050   0.931 -0.2144  1.6928  1.1838
  748MPD2    H211111   1.383   2.167   0.776  0.3342  1.7238 -0.0479
  748MPD2    H311112   1.541   2.143   0.957  1.4474 -0.7791  0.7286
  748MPD2     N11113   1.878   2.020   0.678  0.3211 -0.1104 -0.5391
  748MPD2    H511114   1.906   2.006   0.581  1.3578  0.0282 -0.2651
  748MPD2    N111115   1.419   2.135   0.517  0.0485  0.1566 -0.5177
  748MPD2    H711116   1.337   2.181   0.556 -1.7179 -2.5179 -1.0514
  749TMC3    C111117   2.106   2.000   0.720 -0.9559 -0.1545  0.8300
  749TMC3    C211118   2.111   1.918   0.606 -0.0075  0.5441  0.1090
  749TMC3    C311119   2.236   1.874   0.574  0.6214 -0.2689 -0.0957
  749TMC3    C411120   2.217   2.056   0.782 -0.0945 -0.3205  0.4164
  749TMC3    C511121   2.337   2.010   0.740 -0.3017 -0.2115 -0.1628
  749TMC3    C611122   2.347   1.924   0.634 -0.7692  1.0204  1.1142
  749TMC3     C11123   1.975   2.041   0.771 -0.7523 -0.1335  0.1500
  749TMC3     O11124   1.965   2.091   0.885  0.5329  0.2509  0.4641
  749TMC3     H11125   2.022   1.874   0.563 -0.0647  2.7035 -2.0177
  749TMC3    H111126   2.207   2.144   0.844  1.6366  2.5264 -3.3197
  749TMC3    H211127   2.442   1.879   0.609 -0.3501  1.8123  1.2744
  749TMC3    C711128   2.451   2.078   0.792 -0.5328  1.0465  0.0438
  749TMC3    C811129   2.255   1.781   0.465 -0.3710 -0.4374 -0.7571
  749TMC3    O111130   2.431   2.131   0.899 -0.1952 -0.0634 -0.3470
  749TMC3    O211131   2.157   1.766   0.394  0.5314 -0.0418 -0.4194
  750MPD2     C11132   2.387   3.871  11.549  0.4634  0.2540 -0.5846
  750MPD2    C111133   2.260   3.817  11.576  0.2576  0.3414 -0.6374
  750MPD2    C211134   2.216   3.718  11.491  0.4161 -0.4309 -1.0975
  750MPD2    C311135   2.291   3.664  11.389  0.2581  0.2177 -0.3703
  750MPD2    C411136   2.418   3.718  11.372 -0.1376 -0.2593  0.2562
  750MPD2    C511137   2.466   3.815  11.457  0.8111 -0.6913 -0.7884
  750MPD2     H11138   2.110   3.700  11.502  0.4194  0.2076  0.0136
  750MPD2    H111139   2.487   3.691  11.293  0.6533 -0.5892  1.0560
  750MPD2    H211140   2.423   3.956  11.606  2.9268 -0.8865 -0.3961
  750MPD2    H311141   2.567   3.854  11.453 -0.0066  1.3804 -1.2092
  750MPD2     N11142   2.263   3.553  11.305 -0.1884  0.0734 -0.1809
  750MPD2    H511143   2.338   3.520  11.245  0.6419  0.5942  0.5806
  750MPD2    N111144   2.177   3.882  11.668 -0.2165 -0.0291  0.1699
  750MPD2    H711145   2.218   3.962  11.714 -0.8748  0.1896  0.3680
  751TMC3    C111146   2.144   3.382  11.189 -0.3450 -0.4068  0.2500
  751TMC3    C211147   2.025   3.313  11.184 -0.1386  0.1663  0.0299
  751TMC3    C311148   1.995   3.226  11.082  0.0029  0.5951  0.3643
  751TMC3    C411149   2.232   3.375  11.088 -0.2563  0.4968  0.7091
  751TMC3    C511150   2.204   3.283  10.990  0.6398 -0.1608 -0.3170
  751TMC3    C611151   2.086   3.216  10.986  0.7735  0.3656 -0.0125
  751TMC3     C11152   2.145   3.487  11.293 -0.5600  0.2198 -0.0030
  751TMC3     O11153   2.044   3.513  11.354 -0.1945  0.5677 -0.3320
  751TMC3     H11154   1.950   3.316  11.262 -1.7157  0.6224 -1.4862
  751TMC3    H111155   2.315   3.445  11.076  1.4816 -1.8131 -0.7264
  751TMC3    H211156   2.066   3.149  10.903  0.3588 -0.5171  0.8161
  751TMC3    C711157   2.318   3.196  10.974 -0.6667 -0.3550 -0.2736
  751TMC3    C811158   1.918   3.109  11.112 -0.2938  0.6003 -0.1693
  751TMC3    O111159   2.428   3.241  10.931 -0.2368 -0.3996 -0.7977
  751TMC3    O211160   1.896   3.051  11.006  0.8529 -0.5651 -0.6350
  752TMC3    C111161   1.897   3.093  16.596 -1.1230  0.6522  0.0252
  752TMC3    C211162   2.018   3.025  16.587  0.1355 -0.1690 -0.3074
  752TMC3    C311163   2.050   2.945  16.698 -0.3838 -0.5797  0.0207
  752TMC3    C411164   1.811   3.080  16.701  0.4679 -0.4702 -0.0334
  752TMC3    C511165   1.851   3.006  16.808 -0.8598 -0.1935 -0.2988
  752TMC3    C611166   1.975   2.943  16.812 -0.3668 -0.4970 -0.2633
  752TMC3     C11167   1.846   3.164  16.480  0.4193  0.2603  0.1788
  752TMC3     O11168   1.913   3.174  16.378 -0.3327 -0.0772 -0.2072
  752TMC3     H11169   2.089   3.026  16.505  0.4912 -0.1960 -0.0004
  752TMC3    H111170   1.713   3.124  16.713 -0.0448 -1.5773 -0.1213
  752TMC3    H211171   2.012   2.894  16.902 -2.9689 -1.4270  0.2985
  752TMC3    C711172   1.774   3.021  16.926 -0.1140  0.3447 -0.2059
  752TMC3    C811173   2.188   2.889  16.709  0.0564 -0.0666 -0.0995
  752TMC3    O111174   1.710   3.122  16.946  0.2732  0.2542  0.0582
  752TMC3    O211175   2.272   2.935  16.633  0.0043  0.4938  0.1110
  753TMC3    C111176   3.800   0.429  13.246  0.8196  0.3743 -0.0141
  753TMC3    C211177   3.755   0.331  13.333  0.7820  0.0576  0.2749
  753TMC3    C311178   3.698   0.217  13.290  0.5789 -0.9585  0.5575
  753TMC3    C411179   3.783   0.406  13.117  0.0763 -0.4136 -0.4994
  753TMC3    C511180   3.716   0.295  13.066  0.4000 -0.0186 -0.5847
  753TMC3    C611181   3.674   0.198  13.155  0.4612 -0.3624 -0.4455
  753TMC3     C11182   3.818   0.557  13.306 -0.8816 -0.4945 -0.0332
  753TMC3     O11183   3.811   0.651  13.229  0.2665  0.3160 -0.1189
  753TMC3     H11184   3.755   0.362  13.437 -0.0356 -1.4365  0.7167
  753TMC3    H111185   3.821   0.484  13.052  2.7807 -3.0477 -2.1168
  753TMC3    H211186   3.609   0.116  13.127  0.3586 -0.1789 -0.7390
  753TMC3    C711187   3.773   0.255  12.938 -0.4218  0.0158 -0.5749
  753TMC3    C811188   3.611   0.155  13.385  0.0661 -0.3223 -0.1159
  753TMC3    O111189   3.798   0.352  12.864 -0.0866  0.5638  0.2528
  753TMC3    O211190   3.507   0.117  13.340  0.1336  0.1158 -0.1859
  754MPD2     C11191   1.957   3.669  13.630 -0.5224  0.5580 -0.2227
  754MPD2    C111192   1.940   3.551  13.559 -0.5191 -0.7735 -0.2126
  754MPD2    C211193   1.913   3.558  13.425  0.3412 -0.6730  0.9291
  754MPD2    C311194   1.896   3.679  13.361  0.2787  0.1183  0.2618
  754MPD2    C411195   1.924   3.801  13.433  0.0239 -0.1744 -0.6167
  754MPD2    C511196   1.949   3.794  13.569  0.0702  0.2581  0.6374
  754MPD2     H11197   1.906   3.464  13.371 -0.3375 -1.5555  2.5266
  754MPD2    H111198   1.916   3.900  13.389  0.1260 -0.3644 -1.0631
  754MPD2    H211199   1.986   3.671  13.734  2.2208  0.2763 -0.9600
  754MPD2    H311200   1.963   3.884  13.629  0.7095  1.0334 -0.6881
  754MPD2     N11201   1.848   3.700  13.227 -0.1579  0.3129 -0.4778
  754MPD2    H511202   1.838   3.797  13.199  0.7080  0.2916 -0.8435
  754MPD2    N111203   1.958   3.429  13.632  0.3904 -0.1665 -0.0521
  754MPD2    H711204   2.017   3.433  13.714  0.4188  0.9053 -0.1273
  755MPD2     C11205   1.602   4.463  13.089 -0.1062 -0.6175  0.0989
  755MPD2    C111206   1.481   4.401  13.094 -0.4796  0.2977 -0.0936
  755MPD2    C211207   1.492   4.267  13.080 -0.1975  0.0222  0.2788
  755MPD2    C311208   1.611   4.196  13.061  0.1054 -0.0479 -0.3020
  755MPD2    C411209   1.730   4.264  13.078 -0.1148  0.9005 -0.2063
  755MPD2    C511210   1.722   4.397  13.100  0.5035  0.4580  0.2710
  755MPD2     H11211   1.400   4.209  13.086 -0.6677  0.5157 -1.9511
  755MPD2    H111212   1.829   4.221  13.082  0.2558  1.7610 -0.1141
  755MPD2    H211213   1.608   4.571  13.095  1.1585 -0.6039 -1.3723
  755MPD2    H311214   1.812   4.451  13.123 -0.4762  1.1436  2.5007
  755MPD2     N11215   1.608   4.056  13.056  0.6250 -0.2528 -0.6701
  755MPD2    H511216   1.691   4.000  13.071  0.6222  0.6407  2.6494
  755MPD2    N111217   1.354   4.457  13.105  0.0409 -0.4866  0.1940
  755MPD2    H711218   1.273   4.396  13.102 -0.8997  0.8099 -0.4729
  756MPD2     C11219   2.678   4.179   9.672 -0.6383 -0.1625 -0.1435
  756MPD2    C111220   2.552   4.149   9.719  0.1581  0.2444 -0.4020
  756MPD2    C211221   2.446   4.165   9.629 -0.7286  0.3024  0.0857
  756MPD2    C311222   2.466   4.209   9.501 -0.0250  0.8693 -0.0152
  756MPD2    C411223   2.587   4.249   9.464  0.5402  0.2506 -0.0820
  756MPD2    C511224   2.690   4.237   9.548  0.0109 -0.6813 -0.0136
  756MPD2     H11225   2.345   4.138   9.656 -1.6008  2.2147 -1.2650
  756MPD2    H111226   2.599   4.286   9.363  0.4024  0.8368  0.1114
  756MPD2    H211227   2.757   4.170   9.746 -1.3697  2.2110  0.9128
  756MPD2    H311228   2.785   4.274   9.509 -0.0338 -4.0613 -3.3697
  756MPD2     N11229   2.350   4.205   9.413  0.2417 -0.2566  0.3436
  756MPD2    H511230   2.258   4.180   9.446  0.6056 -0.3126  1.3071
  756MPD2    N111231   2.531   4.126   9.861 -0.2559  0.2668  0.4418
  756MPD2    H711232   2.434   4.134   9.892  0.2113  2.4865  1.3361
  757MPD2     C11233   1.580   3.969   9.636  0.0510  0.9011 -0.5170
  757MPD2    C111234   1.707   3.941   9.660  0.2817  0.5488  0.2167
  757MPD2    C211235   1.812   3.989   9.576 -0.8743 -0.6069 -0.5252
  757MPD2    C311236   1.778   4.065   9.470 -0.3588  0.1252  0.3743
  757MPD2    C411237   1.646   4.094   9.445  0.5300  0.2726 -0.2199
  757MPD2    C511238   1.547   4.037   9.523 -0.7044 -0.0280 -0.3507
  757MPD2     H11239   1.915   3.972   9.606 -0.3594  1.2137 -1.2379
  757MPD2    H111240   1.614   4.168   9.372 -0.0018  0.9440  0.7001
  757MPD2    H211241   1.503   3.939   9.706 -1.3119 -1.9484 -3.2530
  757MPD2    H311242   1.443   4.067   9.512 -0.3474  2.0853  2.2202
  757MPD2     N11243   1.881   4.103   9.381 -0.4800 -0.4438 -0.1596
  757MPD2    H511244   1.976   4.101   9.414 -1.1415 -1.7695  1.6475
  757MPD2    N111245   1.727   3.861   9.779 -0.9765 -0.2948 -1.0714
  757MPD2    H711246   1.644   3.816   9.815 -0.0348 -1.3500 -0.2095
  758MPD2     C11247   2.434   3.414  15.730 -0.3530 -0.3732 -0.1207
  758MPD2    C111248   2.439   3.279  15.758 -0.4906 -0.0702  0.3854
  758MPD2    C211249   2.396   3.239  15.881 -0.1053 -0.7390 -0.1774
  758MPD2    C311250   2.350   3.326  15.980  0.6375 -0.3770 -0.5258
  758MPD2    C411251   2.342   3.463  15.941 -0.3241  0.1574  0.2138
  758MPD2    C511252   2.389   3.504  15.818  0.0276  0.0962  0.0797
  758MPD2     H11253   2.394   3.134  15.908  1.0265 -0.0414  2.6501
  758MPD2    H111254   2.283   3.535  15.997  0.7356 -2.0893  4.2663
  758MPD2    H211255   2.463   3.456  15.634  0.0238  0.1743  0.2323
  758MPD2    H311256   2.363   3.602  15.780  0.7790  0.6570  1.0025
  758MPD2     N11257   2.314   3.296  16.114  0.1129  0.4237  0.2678
  758MPD2    H511258   2.286   3.375  16.171  0.2246  0.6113  0.0632
  758MPD2    N111259   2.490   3.184  15.662 -0.3274  0.1584  0.9436
  758MPD2    H711260   2.530   3.226  15.579 -2.0249  2.5576  1.3603
  759MPD2     C11261   1.524   1.590  10.850 -0.4022 -0.2079 -0.4229
  759MPD2    C111262   1.528   1.604  10.715  0.3577  0.0425 -0.4025
  759MPD2    C211263   1.492   1.728  10.662 -0.2225 -0.2659 -0.0722
  759MPD2    C311264   1.434   1.828  10.736 -0.1589  0.0052  0.3719
  759MPD2    C411265   1.424   1.812  10.872  0.0470  1.2043 -0.1561
  759MPD2    C511266   1.477   1.696  10.929  0.1582 -0.5316  0.6370
  759MPD2     H11267   1.499   1.732  10.554 -1.3151  0.7916 -0.1009
  759MPD2    H111268   1.390   1.887  10.942 -2.6350  1.6291 -1.9174
  759MPD2    H211269   1.547   1.492  10.890 -2.1037 -0.7152 -0.6843
  759MPD2    H311270   1.469   1.679  11.036 -0.6304  0.9892  0.8260
  759MPD2     N11271   1.396   1.950  10.670 -0.3384 -0.5233 -0.1475
  759MPD2    H511272   1.424   1.965  10.573 -3.5739 -0.8883 -1.1449
  759MPD2    N111273   1.550   1.500  10.622 -0.0179 -0.5018 -0.0354
  759MPD2    H711274   1.547   1.518  10.523  0.0723 -1.8261 -0.2820
  760MPD2     C11275   0.773   4.194  12.282 -0.9432 -0.3580  0.1518
  760MPD2    C111276   0.831   4.231  12.164 -0.1075 -0.1605  0.6215
  760MPD2    C211277   0.796   4.158  12.054  0.6771  0.1476  0.5695
  760MPD2    C311278   0.721   4.043  12.065  0.0063 -0.0015 -0.1986
  760MPD2    C411279   0.661   4.008  12.188 -1.0218 -0.8098 -0.2197
  760MPD2    C511280   0.696   4.081  12.291 -0.4286  0.3909 -0.1806
  760MPD2     H11281   0.850   4.180  11.963 -0.6437 -1.9163 -0.7010
  760MPD2    H111282   0.613   3.911  12.199 -2.1315  0.0266  2.3100
  760MPD2    H211283   0.785   4.255  12.371 -1.2259  0.7378 -0.5580
  760MPD2    H311284   0.674   4.047  12.391  0.1059 -1.5950 -0.7327
  760MPD2     N11285   0.700   3.951  11.958 -0.2593 -0.1059  0.0994
  760MPD2    H511286   0.674   3.854  11.977 -0.7876  0.0228  0.0429
  760MPD2    N111287   0.920   4.342  12.152 -0.0909 -0.0714 -0.4623
  760MPD2    H711288   0.951   4.377  12.062  0.5404 -2.1976 -1.0754
  761MPD2     C11289   1.974   2.648  11.342  0.6652  0.4880 -0.0641
  761MPD2    C111290   1.984   2.681  11.213  0.7014  0.0091  0.2144
  761MPD2    C211291   1.955   2.813  11.171 -0.2426  0.3136 -0.1287
  761MPD2    C311292   1.937   2.913  11.265  0.1056  0.3889  0.2569
  761MPD2    C411293   1.934   2.880  11.402 -0.2605  0.2820 -0.2158
  761MPD2    C511294   1.944   2.746  11.434  0.1481  0.6415 -0.0913
  761MPD2     H11295   1.955   2.835  11.065  0.9555 -1.7877 -0.5657
  761MPD2    H111296   1.919   2.956  11.478  1.0966  0.5586 -0.2277
  761MPD2    H211297   1.989   2.549  11.384 -1.0725  0.5590  0.7365
  761MPD2    H311298   1.939   2.715  11.538  2.6452 -0.0379 -0.1805
  761MPD2     N11299   1.936   3.054  11.237  0.0684  0.0511  0.3831
  761MPD2    H511300   1.958   3.106  11.322 -1.8641 -0.9425  1.4976
  761MPD2    N111301   2.027   2.584  11.123  0.2143  0.9267 -0.0708
  761MPD2    H711302   2.055   2.493  11.158  0.1291  1.8585  2.4727
  762MPD2     C11303   2.440   2.620  10.416 -0.0515 -0.0412  0.3570
  762MPD2    C111304   2.478   2.528  10.517  0.2606  0.9747 -0.3038
  762MPD2    C211305   2.605   2.476  10.517 -0.8558  0.0348  0.3357
  762MPD2    C311306   2.700   2.520  10.422 -0.8340  0.1500  0.6622
  762MPD2    C411307   2.663   2.608  10.326 -0.2094  0.5381  0.4811
  762MPD2    C511308   2.536   2.656  10.325 -0.1678 -0.0481  0.3897
  762MPD2     H11309   2.635   2.406  10.594 -1.9193 -1.8083 -0.9264
  762MPD2    H111310   2.730   2.651  10.252 -1.9105  0.7950 -0.9185
  762MPD2    H211311   2.344   2.670  10.412 -0.9113 -1.7041  0.4078
  762MPD2    H311312   2.511   2.724  10.244  0.4730 -0.0259  0.2100
  762MPD2     N11313   2.831   2.460  10.426  0.2445 -0.1769 -0.2466
  762MPD2    H511314   2.845   2.393  10.501  0.5306 -0.1571 -0.2834
  762MPD2    N111315   2.379   2.493  10.609 -0.7039  0.2390  0.2266
  762MPD2    H711316   2.289   2.536  10.590  0.1230  1.2646 -1.3332
  763MPD2     C11317   4.250   3.059  16.003 -0.0296  0.3489  0.3087
  763MPD2    C111318   4.189   3.179  15.975 -0.2205  0.9237  0.2614
  763MPD2    C211319   4.176   3.280  16.065  0.3375 -0.0419 -0.5845
  763MPD2    C311320   4.242   3.269  16.190 -0.2523 -0.0106 -0.3694
  763MPD2    C411321   4.318   3.155  16.213  0.1259  0.4672  0.1974
  763MPD2    C511322   4.318   3.052  16.125 -0.0730 -0.0415  0.4415
  763MPD2     H11323   4.128   3.374  16.042  4.6138  2.2107 -0.3073
  763MPD2    H111324   4.369   3.137  16.307 -1.3773  0.0010  0.9166
  763MPD2    H211325   4.246   2.977  15.932  2.0302 -1.4555  2.2902
  763MPD2    H311326   4.362   2.958  16.153  0.2052  0.6944  2.4345
  763MPD2     N11327   4.254   3.382  16.275  0.2858 -0.1560  0.2652
  763MPD2    H511328   4.212   3.469  16.244 -0.9473  0.2728  3.1474
  763MPD2    N111329   4.137   3.203  15.847  0.7923  0.3752  0.2169
  763MPD2    H711330   4.066   3.276  15.839  0.6013  0.3105  1.3283
  764MPD2     C11331   1.996   3.873   0.433 -0.5360  0.2748  0.0894
  764MPD2    C111332   1.882   3.804   0.460 -0.0161 -0.3678  0.6653
  764MPD2    C211333   1.868   3.753   0.590  0.1257  0.3180 -0.0606
  764MPD2    C311334   1.957   3.782   0.691 -0.0895 -0.4469  0.0554
  764MPD2    C411335   2.062   3.869   0.666  0.2229 -0.8658  0.6368
  764MPD2    C511336   2.085   3.908   0.536 -0.1256  0.4074 -0.4881
  764MPD2     H11337   1.786   3.691   0.623  1.5856 -1.4273  0.3244
  764MPD2    H111338   2.137   3.901   0.738  1.2421  1.8776 -1.6474
  764MPD2    H211339   2.030   3.904   0.335  0.5612 -3.1205 -0.6107
  764MPD2    H311340   2.174   3.968   0.519 -0.4643  0.4415 -2.0419
  764MPD2     N11341   1.923   3.741   0.823  0.9911  0.1596  0.6161
  764MPD2    H511342   1.851   3.671   0.837  0.6116  0.6349  1.0246
  764MPD2    N111343   1.783   3.779   0.357  0.4149  0.4361 -0.1623
  764MPD2    H711344   1.704   3.725   0.391  1.8859 -1.7372 -0.1881
  765MPD2     C11345   2.252   2.735  15.241 -0.4682 -0.0271  0.4584
  765MPD2    C111346   2.271   2.686  15.370 -0.3061  0.2841 -0.4240
  765MPD2    C211347   2.376   2.604  15.394  0.7044 -0.1114  0.6028
  765MPD2    C311348   2.475   2.593  15.298  0.7053  0.1124  0.4500
  765MPD2    C411349   2.464   2.649  15.171  1.1636 -0.7899 -0.2677
  765MPD2    C511350   2.347   2.713  15.148 -0.2461  0.1797  0.2725
  765MPD2     H11351   2.386   2.543  15.483 -0.4071 -0.6355  0.3647
  765MPD2    H111352   2.539   2.639  15.093  1.0644 -1.7433 -0.2467
  765MPD2    H211353   2.163   2.789  15.213 -0.1323  0.6832  0.7509
  765MPD2    H311354   2.332   2.760  15.051  1.1365 -2.4516 -1.2258
  765MPD2     N11355   2.579   2.498  15.325 -0.2763  0.4232  0.4457
  765MPD2    H511356   2.580   2.464  15.421  0.4802 -0.5201  0.1039
  765MPD2    N111357   2.162   2.695  15.461  0.3397  0.4654  0.0856
  765MPD2    H711358   2.068   2.704  15.423  0.0349  0.7930  0.9278
  766MPD2     C11359   1.508   2.937  15.324  0.0031 -0.1679  0.8711
  766MPD2    C111360   1.641   2.893  15.316 -0.5785 -0.3517  0.5258
  766MPD2    C211361   1.705   2.889  15.195  0.2157 -0.2040  0.3250
  766MPD2    C311362   1.642   2.940  15.082  0.2828  0.1251  0.1430
  766MPD2    C411363   1.517   2.987  15.092  0.2570 -0.1653 -0.3435
  766MPD2    C511364   1.449   2.988  15.215  0.1815  0.1524  0.5780
  766MPD2     H11365   1.808   2.855  15.194  0.2030 -0.2422  0.3220
  766MPD2    H111366   1.456   3.019  15.008 -1.3496  0.7671  1.1911
  766MPD2    H211367   1.455   2.947  15.418  4.1452  2.1014  2.9620
  766MPD2    H311368   1.347   3.023  15.225  0.3125  0.3919  1.0862
  766MPD2     N11369   1.710   2.956  14.960 -0.5303  0.3077  0.1088
  766MPD2    H511370   1.661   3.015  14.893 -3.6440 -0.1833  1.9734
  766MPD2    N111371   1.694   2.837  15.435 -0.1247 -0.5824 -0.0076
  766MPD2    H711372   1.636   2.839  15.518  2.4033  1.8825  1.7015
  767MPD2     C11373   1.140   3.140  15.036 -0.1801  0.1260  0.2888
  767MPD2    C111374   1.233   3.207  14.962 -0.5250 -0.5201 -0.2258
  767MPD2    C211375   1.289   3.154  14.844  0.1178 -0.2432  0.1996
  767MPD2    C311376   1.242   3.030  14.804  0.6111 -0.4897  0.6595
  767MPD2    C411377   1.134   2.971  14.874 -0.2889  0.2070  0.6180
  767MPD2    C511378   1.087   3.023  14.992  0.1838  0.2684 -0.4338
  767MPD2     H11379   1.368   3.207  14.793 -2.1420  1.3159 -1.6416
  767MPD2    H111380   1.093   2.876  14.841  0.7300  0.0500 -0.1921
  767MPD2    H211381   1.102   3.171  15.133  1.4164  0.1308  0.9064
  767MPD2    H311382   1.006   2.971  15.042 -0.5667  0.5081 -1.4082
  767MPD2     N11383   1.278   2.975  14.678 -0.4339 -0.0838  0.0568
  767MPD2    H511384   1.216   2.904  14.642  1.1569  0.4695 -3.8054
  767MPD2    N111385   1.281   3.321  15.030 -0.6872  0.1887  0.0803
  767MPD2    H711386   1.251   3.337  15.125  0.3018  0.6028  0.3251
  768MPD2     C11387   2.355   1.169  10.883 -0.8184 -0.6342  0.6676
  768MPD2    C111388   2.359   1.142  11.021  0.3383 -0.8492 -0.3155
  768MPD2    C211389   2.477   1.174  11.089  0.0515  0.1164  0.1878
  768MPD2    C311390   2.573   1.243  11.020 -0.4041  0.7010  0.0993
  768MPD2    C411391   2.565   1.280  10.891  0.4816  0.3560  0.4877
  768MPD2    C511392   2.459   1.229  10.822  0.7937  0.2889  0.5027
  768MPD2     H11393   2.495   1.144  11.192 -0.2300 -0.9278 -0.0673
  768MPD2    H111394   2.637   1.347  10.847  1.8172 -1.8561 -0.7062
  768MPD2    H211395   2.267   1.140  10.826 -0.4387 -0.5522  0.0417
  768MPD2    H311396   2.454   1.240  10.714 -0.4665 -1.2561  0.3935
  768MPD2     N11397   2.690   1.287  11.084  0.1576 -0.0721  0.0766
  768MPD2    H511398   2.747   1.354  11.032  0.2512 -1.2341 -1.3208
  768MPD2    N111399   2.254   1.080  11.092 -0.0413 -0.0570  0.2658
  768MPD2    H711400   2.251   1.095  11.192  1.2698 -0.3662  0.3423
  769MPD2     C11401   3.223   4.656  15.027  0.0332  0.0885 -0.0838
  769MPD2    C111402   3.221   4.535  15.093 -0.3187 -0.2285 -0.9545
  769MPD2    C211403   3.281   4.530  15.215  0.6907 -0.1673 -0.2574
  769MPD2    C311404   3.351   4.637  15.269 -0.6627 -0.3600  0.0678
  769MPD2    C411405   3.355   0.021  15.191  0.5543  0.4408 -0.1973
  769MPD2    C511406   3.288   0.032  15.076  0.0580  0.6586 -0.6024
  769MPD2     H11407   3.268   4.438  15.270 -2.2356  0.5035  0.1620
  769MPD2    H111408   3.421   0.105  15.210  1.3770  0.4612 -3.1666
  769MPD2    H211409   3.177   4.667  14.930  0.8315 -1.4921 -0.6293
  769MPD2    H311410   3.289   0.125  15.021 -3.4249  1.8062  1.2479
  769MPD2     N11411   3.416   4.617  15.394 -0.5382 -0.0259  0.8788
  769MPD2    H511412   3.407   4.526  15.436 -1.5221  0.7591  2.3570
  769MPD2    N111413   3.145   4.422  15.040  0.6989  0.0985 -0.2191
  769MPD2    H711414   3.101   4.449  14.953 -0.7244  1.5184  0.9121
  770MPD2     C11415   2.853   3.373  14.850 -0.0877 -0.9472  0.0059
  770MPD2    C111416   2.754   3.458  14.803  0.1324  0.4133  0.1210
  770MPD2    C211417   2.759   3.594  14.823 -0.2001  0.2348 -0.2870
  770MPD2    C311418   2.867   3.646  14.896 -0.1960  0.0928  0.9787
  770MPD2    C411419   2.967   3.560  14.937 -0.3190 -0.0252  0.4570
  770MPD2    C511420   2.959   3.425  14.914 -0.0271  0.3045  0.1323
  770MPD2     H11421   2.688   3.661  14.776 -1.7621 -0.3621  1.2135
  770MPD2    H111422   3.056   3.594  14.988 -0.7760  1.0581  0.5248
  770MPD2    H211423   2.852   3.266  14.835 -3.2569 -0.7049 -1.5668
  770MPD2    H311424   3.034   3.353  14.944 -0.9358 -0.2405  1.1145
  770MPD2     N11425   2.881   3.784  14.910 -0.2998 -0.7321  0.0807
  770MPD2    H511426   2.803   3.841  14.880 -0.7216 -0.7365  1.1570
  770MPD2    N111427   2.648   3.401  14.730  0.0551 -0.4553  0.0998
  770MPD2    H711428   2.658   3.303  14.706 -0.6273 -0.8575  1.4649
  771MPD2     C11429   4.203   2.428  13.889 -1.2005 -0.7799 -0.3687
  771MPD2    C111430   4.098   2.507  13.882  0.2016  0.4534  0.4053
  771MPD2    C211431   3.981   2.466  13.829  0.7164 -0.1548  0.1146
  771MPD2    C311432   3.966   2.342  13.776  0.1451 -0.5904 -0.6667
  771MPD2    C411433   4.079   2.257  13.780 -0.2931 -0.5065  0.5234
  771MPD2    C511434   4.186   2.299  13.848  0.1519  0.5417 -0.4272
  771MPD2     H11435   3.901   2.539  13.820  0.1918 -0.8302 -0.6749
  771MPD2    H111436   4.076   2.162  13.728 -1.3316 -0.5965  0.7520
  771MPD2    H211437   4.300   2.450  13.933 -2.5766  1.8947  1.3359
  771MPD2    H311438   4.278   2.242  13.855 -0.7619 -0.9211 -0.2338
  771MPD2     N11439   3.843   2.311  13.711  0.4435 -0.3375  0.2282
  771MPD2    H511440   3.767   2.378  13.712  1.3022  0.5915  2.1426
  771MPD2    N111441   4.103   2.643  13.919 -0.2031  0.2226 -0.2629
  771MPD2    H711442   4.024   2.702  13.896  1.3853  1.4255 -2.7271
  772MPD2     C11443   3.700   3.248  14.042  0.3618  0.0280 -1.1307
  772MPD2    C111444   3.722   3.112  14.063 -0.6155  0.3658  0.0935
  772MPD2    C211445   3.625   3.045  14.125  0.1662  0.4130 -0.4700
  772MPD2    C311446   3.499   3.101  14.149 -0.0935  0.3056 -0.4030
  772MPD2    C411447   3.481   3.240  14.122  0.1159  0.5554  0.5499
  772MPD2    C511448   3.586   3.313  14.081  0.0637 -0.4960 -0.2881
  772MPD2     H11449   3.639   2.940  14.150  0.7999  0.4928 -0.4910
  772MPD2    H111450   3.386   3.293  14.128 -0.6327 -0.7668  0.3563
  772MPD2    H211451   3.769   3.312  13.988  1.4235  1.6261  2.1369
  772MPD2    H311452   3.578   3.417  14.051  1.2151  0.3088  2.1867
  772MPD2     N11453   3.390   3.022  14.199 -0.2641  0.1712  0.6462
  772MPD2    H511454   3.300   3.069  14.200 -0.4034 -0.1123  1.1394
  772MPD2    N111455   3.842   3.050  14.015 -0.3440  0.5043 -0.4968
  772MPD2    H711456   3.852   2.953  14.043  0.1436  1.0947  1.3660
  773MPD2     C11457   3.284   3.495   0.313  0.3733  0.7098 -0.4641
  773MPD2    C111458   3.160   3.437   0.282  0.3718 -0.2590 -0.3141
  773MPD2    C211459   3.134   3.309   0.316  0.1746 -0.8964 -0.4178
  773MPD2    C311460   3.235   3.229   0.367 -0.2287 -1.2980 -0.1884
  773MPD2    C411461   3.361   3.285   0.386  0.0506  0.4361  0.4138
  773MPD2    C511462   3.381   3.418   0.369  0.2486 -0.2775  0.5214
  773MPD2     H11463   3.032   3.275   0.301 -0.8128  2.0644 -0.4569
  773MPD2    H111464   3.449   3.247   0.438  0.4026  1.0120  0.2283
  773MPD2    H211465   3.310   3.598   0.292 -0.6271  0.8630 -0.9657
  773MPD2    H311466   3.480   3.455   0.391 -0.3566  0.4034  2.1036
  773MPD2     N11467   3.203   3.095   0.390 -0.3843 -0.2626 -0.4263
  773MPD2    H511468   3.107   3.067   0.374 -0.8266 -0.1493  2.0594
  773MPD2    N111469   3.061   3.510   0.224 -0.1330 -0.3750 -0.3901
  773MPD2    H711470   2.972   3.465   0.203 -0.4251 -0.3615  0.8624
  774MPD2     C11471   1.700   2.477  13.486 -1.6461 -0.6260  0.3082
  774MPD2    C111472   1.816   2.547  13.501 -0.2450  0.0381 -0.0111
  774MPD2    C211473   1.826   2.682  13.489 -0.3809  1.1905 -0.0181
  774MPD2    C311474   1.721   2.755  13.435  0.3636 -0.3609  0.1596
  774MPD2    C411475   1.600   2.684  13.416 -0.5954  0.1887  0.5684
  774MPD2    C511476   1.588   2.551  13.451  0.4497  0.0382 -0.3648
  774MPD2     H11477   1.915   2.736  13.519  0.3856  0.6552 -1.2824
  774MPD2    H111478   1.508   2.732  13.383 -1.8433 -1.8851  0.9700
  774MPD2    H211479   1.672   2.378  13.523 -0.1051 -0.2298  2.5404
  774MPD2    H311480   1.489   2.506  13.450 -0.2771  1.6283  1.2129
  774MPD2     N11481   1.739   2.893  13.420  0.7042 -0.1378  0.3143
  774MPD2    H511482   1.829   2.926  13.452  1.6092 -3.3732  1.1437
  774MPD2    N111483   1.929   2.469  13.545  0.8063  0.1545 -0.3305
  774MPD2    H711484   1.913   2.371  13.566 -0.5308 -0.4234 -4.0346
  775MPD2     C11485   3.651   4.096  15.784 -0.2011  0.5187 -0.0251
  775MPD2    C111486   3.703   4.172  15.889  0.2459  0.0789  0.5480
  775MPD2    C211487   3.799   4.274  15.870  1.1359  0.2639 -0.9050
  775MPD2    C311488   3.836   4.303  15.733 -0.5943 -0.1743  0.0250
  775MPD2    C411489   3.766   4.243  15.635  0.2811 -0.5329  0.3896
  775MPD2    C511490   3.677   4.138  15.658  0.5909 -0.5370  1.0973
  775MPD2     H11491   3.845   4.328  15.952  2.4770 -1.4451 -0.5539
  775MPD2    H111492   3.792   4.256  15.530 -0.5196  0.1151  0.2701
  775MPD2    H211493   3.590   4.010  15.811 -0.3979  0.6575 -0.0237
  775MPD2    H311494   3.626   4.086  15.578 -1.6053  0.6621  1.7364
  775MPD2     N11495   3.936   4.389  15.690  0.2293 -0.8018  0.2669
  775MPD2    H511496   3.958   4.394  15.591 -3.5770 -0.8380 -0.6053
  775MPD2    N111497   3.654   4.141  16.021 -0.3692  0.1684  0.3016
  775MPD2    H711498   3.560   4.101  16.017 -0.3185  0.2636 -2.2533
  776MPD2     C11499   1.797   4.525  12.032  0.5068 -0.2188 -0.8305
  776MPD2    C111500   1.907   4.471  11.965  0.9090 -0.4833  1.1913
  776MPD2    C211501   1.994   4.556  11.897  0.2024  0.4779  0.2798
  776MPD2    C311502   1.970   4.687  11.897  0.2776  0.5651  0.0049
  776MPD2    C411503   1.857   0.008  11.953 -0.4862 -0.1800 -0.5668
  776MPD2    C511504   1.776   4.663  12.028  0.9985  0.2943  0.7582
  776MPD2     H11505   2.073   4.514  11.836 -3.3222 -0.4741 -3.6081
  776MPD2    H111506   1.816   0.108  11.940 -1.0552 -0.2700  0.4737
  776MPD2    H211507   1.724   4.460  12.079  0.1051  0.5449 -0.3946
  776MPD2    H311508   1.690   4.706  12.078 -0.3085 -0.9471 -0.4710
  776MPD2     N11509   2.046   0.047  11.813 -0.0222 -0.1144 -0.2742
  776MPD2    H511510   2.007   0.141  11.812  0.4751  0.0668 -1.7347
  776MPD2    N111511   1.911   4.326  11.953 -0.3490  0.1623 -0.4452
  776MPD2    H711512   1.830   4.272  11.983  0.9086 -0.2507  2.2214
  777MPD2     C11513   3.070   1.178  17.674 -0.1370 -0.4655  0.0043
  777MPD2    C111514   3.028   1.068   0.004 -0.3045  0.9042  0.4935
  777MPD2    C211515   3.024   0.944  17.677 -0.3437  0.5083 -0.8201
  777MPD2    C311516   3.061   0.939  17.543 -0.3303  0.0399  0.4331
  777MPD2    C411517   3.102   1.059  17.475 -0.1010 -0.1423 -0.4061
  777MPD2    C511518   3.108   1.174  17.541 -0.5210  0.0470  0.1783
  777MPD2     H11519   2.992   0.854  17.728  1.8705 -0.2710 -0.7909
  777MPD2    H111520   3.124   1.061  17.369 -0.6978  0.7575 -0.5083
  777MPD2    H211521   3.075   1.273  17.727 -0.6588  0.8606 -2.2935
  777MPD2    H311522   3.152   1.266  17.504 -0.3475 -0.5190 -1.0324
  777MPD2     N11523   3.058   0.813  17.481 -0.6653  0.0376  0.2621
  777MPD2    H511524   3.039   0.727  17.531  0.0243 -0.6465 -0.6474
  777MPD2    N111525   2.994   1.082   0.141 -0.3397 -0.2181 -0.3848
  777MPD2    H711526   2.980   1.180   0.166  0.4490 -0.1784 -0.1222
  778MPD2     C11527   4.141   2.230  15.182 -1.1242  0.8477 -0.2311
  778MPD2    C111528   4.091   2.164  15.070 -0.0505  0.0894  0.0064
  778MPD2    C211529   4.128   2.205  14.943  0.1851 -0.2565 -0.1347
  778MPD2    C311530   4.208   2.319  14.927 -0.2619  0.1284  0.3893
  778MPD2    C411531   4.263   2.384  15.038 -0.1562 -0.0454  0.1183
  778MPD2    C511532   4.233   2.336  15.163 -0.5290  0.8211 -0.0194
  778MPD2     H11533   4.091   2.165  14.849 -0.1168  0.2765 -0.2408
  778MPD2    H111534   4.339   2.461  15.032 -1.0597  0.9682  1.6669
  778MPD2    H211535   4.117   2.202  15.283  2.1457  0.2435  0.3646
  778MPD2    H311536   4.266   2.404  15.241  1.6198 -0.8198  0.4808
  778MPD2     N11537   4.232   2.365  14.794  0.0098 -0.5477  0.7298
  778MPD2    H511538   4.181   2.319  14.720  0.4070 -0.8287  0.6305
  778MPD2    N111539   3.999   2.056  15.074 -0.1244  0.1953  0.2721
  778MPD2    H711540   3.964   2.026  14.983 -1.6459  1.8757  0.3063
  779MPD2     C11541   3.604   0.988  13.981  0.0430  0.2635 -0.4998
  779MPD2    C111542   3.704   0.966  14.074 -0.0121 -0.3793 -0.2280
  779MPD2    C211543   3.795   1.074  14.097 -0.3382  0.8234 -0.2935
  779MPD2    C311544   3.787   1.191  14.016  0.2177 -1.0195  0.0957
  779MPD2    C411545   3.687   1.198  13.919 -0.3868 -0.1473 -0.1907
  779MPD2    C511546   3.586   1.108  13.918 -0.7618  0.0937  0.3560
  779MPD2     H11547   3.874   1.062  14.170 -0.5206 -1.3688 -0.4707
  779MPD2    H111548   3.675   1.290  13.863  1.2734 -0.3017 -0.8044
  779MPD2    H211549   3.550   0.896  13.959 -1.3877  1.4660 -1.9256
  779MPD2    H311550   3.508   1.118  13.844 -0.8177 -0.6674  0.3141
  779MPD2     N11551   3.880   1.297  14.046  0.6671 -0.4562  0.0324
  779MPD2    H511552   3.929   1.275  14.132  0.1438  1.5421  0.8323
  779MPD2    N111553   3.726   0.846  14.140  0.0442 -0.3232  0.3588
  779MPD2    H711554   3.812   0.832  14.191 -0.3345 -0.1672  1.0443
  780MPD2     C11555   3.569   0.697   1.004  0.1370  0.1572  0.1714
  780MPD2    C111556   3.512   0.719   0.880 -0.6411 -0.6701 -0.5254
  780MPD2    C211557   3.598   0.758   0.775 -0.1895  0.0921 -0.3657
  780MPD2    C311558   3.734   0.752   0.797  0.0956  0.2487 -0.0271
  780MPD2    C411559   3.786   0.717   0.915  0.1915  0.0604  0.4718
  780MPD2    C511560   3.706   0.690   1.018  0.1775 -0.0361  0.2606
  780MPD2     H11561   3.560   0.782   0.676  0.6668  3.1041  0.0142
  780MPD2    H111562   3.894   0.715   0.929  0.4529  1.6056 -1.3168
  780MPD2    H211563   3.497   0.668   1.079 -0.8898 -1.2116 -1.3384
  780MPD2    H311564   3.746   0.660   1.114  1.4738  1.2626  0.1194
  780MPD2     N11565   3.814   0.782   0.687 -0.2062 -0.4760 -0.1548
  780MPD2    H511566   3.759   0.789   0.602 -0.3307  2.5295  0.1767
  780MPD2    N111567   3.368   0.720   0.873 -0.1412 -0.2198 -0.1414
  780MPD2    H711568   3.326   0.718   0.965 -1.5351 -0.6909 -0.7914
  781MPD2     C11569   4.228   3.196  12.412 -0.5403  0.0577 -0.7139
  781MPD2    C111570   4.359   3.237  12.441  0.0478 -0.0402 -0.1156
  781MPD2    C211571   4.417   3.347  12.381 -0.1838 -0.2304  0.3245
  781MPD2    C311572   4.336   3.427  12.299 -0.4459  0.0275  1.5852
  781MPD2    C411573   4.203   3.396  12.288  0.3054 -0.7488  0.3566
  781MPD2    C511574   4.145   3.285  12.348  0.1180 -0.2728  0.4167
  781MPD2     H11575   4.522   3.369  12.401 -1.0332  1.7004  2.6657
  781MPD2    H111576   4.139   3.452  12.221  1.5364  1.8070  1.3308
  781MPD2    H211577   4.181   3.104  12.447  0.9099 -0.5071 -0.2738
  781MPD2    H311578   4.043   3.260  12.324 -0.2561 -0.5698  2.3144
  781MPD2     N11579   4.386   3.532  12.216  0.0639 -0.3488 -0.3483
  781MPD2    H511580   4.322   3.572  12.147  0.6950 -1.5891 -1.6501
  781MPD2    N111581   4.456   3.159  12.506  0.4267  0.2867  0.2711
  781MPD2    H711582   4.545   3.204  12.525 -0.6677  2.1558  0.9147
  782MPD2     C11583   2.611   3.221  10.303 -0.0298  0.1719  0.1488
  782MPD2    C111584   2.740   3.185  10.350  0.1182  0.0624  0.2623
  782MPD2    C211585   2.842   3.280  10.359  0.1785 -0.3682 -0.6642
  782MPD2    C311586   2.813   3.411  10.330  0.2814 -0.1446  0.4134
  782MPD2    C411587   2.686   3.447  10.278 -0.1239 -0.4096 -0.1479
  782MPD2    C511588   2.587   3.355  10.268  0.1051 -0.0901  0.3877
  782MPD2     H11589   2.944   3.259  10.388 -0.1322  0.0398  0.7374
  782MPD2    H111590   2.668   3.548  10.243 -1.9714 -0.0690  1.8287
  782MPD2    H211591   2.531   3.147  10.298 -1.9485  2.4821 -2.7853
  782MPD2    H311592   2.487   3.383  10.237 -0.3469  0.0122  1.9459
  782MPD2     N11593   2.907   3.512  10.370  0.6621  0.6689 -0.3230
  782MPD2    H511594   2.987   3.472  10.419  0.4821  0.4186 -0.2377
  782MPD2    N111595   2.767   3.049  10.387  0.2445 -0.0681  0.8115
  782MPD2    H711596   2.687   2.990  10.407  0.0126 -0.3134 -0.8711
  783MPD2     C11597   2.308   2.844  11.041 -0.2788  0.5071 -0.0695
  783MPD2    C111598   2.358   2.956  10.992 -0.1759  0.3662 -0.5377
  783MPD2    C211599   2.478   2.954  10.926  0.0329  0.0491 -0.5194
  783MPD2    C311600   2.544   2.839  10.905  1.0020  0.4360 -0.1794
  783MPD2    C411601   2.496   2.721  10.953 -0.2225 -0.0560 -0.1811
  783MPD2    C511602   2.371   2.723  11.015  0.3971 -0.2687 -0.5015
  783MPD2     H11603   2.530   3.040  10.886  0.5903  0.1156  0.3461
  783MPD2    H111604   2.533   2.621  10.937  1.9489  0.1692  3.3615
  783MPD2    H211605   2.205   2.846  11.074 -0.8586 -0.0793 -1.8432
  783MPD2    H311606   2.322   2.631  11.043  0.0454 -0.0122 -0.2662
  783MPD2     N11607   2.657   2.841  10.826  0.3779 -0.6612 -0.3309
  783MPD2    H511608   2.680   2.931  10.784 -2.2075  0.1723  0.0344
  783MPD2    N111609   2.279   3.070  11.008 -0.4191  0.0865  0.6535
  783MPD2    H711610   2.187   3.063  11.051 -0.8564 -3.6342 -0.9264
  784MPD2     C11611   0.922   3.115   0.438 -0.0514 -0.5526  0.1924
  784MPD2    C111612   0.830   3.130   0.543  0.7416  0.2696  0.2355
  784MPD2    C211613   0.706   3.177   0.507 -0.5628  0.4218  0.8449
  784MPD2    C311614   0.674   3.220   0.378  0.2633 -0.0572  0.5957
  784MPD2    C411615   0.763   3.201   0.275  0.5497 -0.2291  0.0942
  784MPD2    C511616   0.881   3.143   0.310 -0.4617 -0.1327 -0.6407
  784MPD2     H11617   0.633   3.198   0.584 -0.7388 -0.9767  1.0482
  784MPD2    H111618   0.759   3.226   0.170 -2.2142  0.8949  0.4528
  784MPD2    H211619   1.022   3.080   0.458 -0.0881 -0.3759  0.6710
  784MPD2    H311620   0.968   3.124   0.248 -1.6213 -0.6441 -2.0885
  784MPD2     N11621   0.548   3.286   0.355  0.2276  0.5965 -0.0940
  784MPD2    H511622   0.489   3.316   0.432  1.1871 -1.7286  1.5252
  784MPD2    N111623   0.853   3.124   0.678  0.1424  0.0430  0.4094
  784MPD2    H711624   0.789   3.173   0.740 -2.4279 -1.2224 -1.2279
  785MPD2     C11625   0.907   2.278  11.008 -0.6819  0.4658 -0.8108
  785MPD2    C111626   0.901   2.411  10.964  0.0455 -0.1798  0.1114
  785MPD2    C211627   0.795   2.458  10.885 -0.4341 -0.3576  0.7215
  785MPD2    C311628   0.699   2.365  10.838 -0.1050  0.1841 -0.6628
  785MPD2    C411629   0.708   2.235  10.887 -0.0264 -0.3447 -0.6906
  785MPD2    C511630   0.809   2.195  10.971 -0.2880 -0.0977 -0.3232
  785MPD2     H11631   0.791   2.564  10.862 -4.7090 -0.5100  0.7794
  785MPD2    H111632   0.627   2.167  10.864 -1.7796  1.8538 -1.0607
  785MPD2    H211633   0.977   2.228  11.074 -1.1894 -0.2272 -0.7941
  785MPD2    H311634   0.801   2.097  11.017  0.8618 -0.4079 -0.7844
  785MPD2     N11635   0.606   2.413  10.748  0.2249  0.2377  0.3634
  785MPD2    H511636   0.612   2.511  10.723  1.5676  0.1538  0.3823
  785MPD2    N111637   1.004   2.499  10.988  0.2114  0.6995 -0.0264
  785MPD2    H711638   0.977   2.594  10.964  0.2784  0.0551 -2.7084
  786MPD2     C11639   4.054   0.326  14.915 -0.5115 -0.0587  0.4898
  786MPD2    C111640   4.189   0.328  14.880 -0.2545  0.1206 -0.5307
  786MPD2    C211641   4.281   0.374  14.975 -0.2154 -0.6298  0.2772
  786MPD2    C311642   4.244   0.401  15.111 -0.0173  0.4628 -0.3337
  786MPD2    C411643   4.110   0.397  15.139 -0.1613  0.3452 -0.2172
  786MPD2    C511644   4.022   0.369  15.041  0.4313 -0.3757 -0.0287
  786MPD2     H11645   4.387   0.376  14.949  0.0328 -1.2319  1.2399
  786MPD2    H111646   4.078   0.420  15.240 -0.8634  0.6011 -0.5005
  786MPD2    H211647   3.979   0.286  14.848 -0.0580  0.2628 -0.2114
  786MPD2    H311648   3.919   0.386  15.073 -0.5889 -1.0598 -2.9879
  786MPD2     N11649   4.346   0.424  15.220  0.1230 -0.2028  0.3156
  786MPD2    H511650   4.319   0.421  15.318 -2.6126  2.0378 -0.3565
  786MPD2    N111651   4.237   0.274  14.763 -0.1897 -0.3713 -0.2007
  786MPD2    H711652   4.339   0.266  14.764  0.0116  1.9761 -1.4418
  787MPD2     C11653   4.651   4.589  14.858 -0.5823  0.1546 -0.2923
  787MPD2    C111654   4.604   4.549  14.730 -0.2711  0.2055  0.5034
  787MPD2    C211655   4.667   4.439  14.668  0.0882  0.0454 -0.4192
  787MPD2    C311656   0.045   4.380  14.723  0.0567  0.1080 -0.3446
  787MPD2    C411657   0.079   4.416  14.850 -0.0996  0.6716  0.3905
  787MPD2    C511658   0.016   4.513  14.917  0.2298  0.6524  0.2777
  787MPD2     H11659   4.641   4.399  14.571 -1.5170  1.5918 -0.6265
  787MPD2    H111660   0.163   4.370  14.900 -1.0819 -0.7541  0.7339
  787MPD2    H211661   4.618   4.677  14.911  0.9567  0.1672  0.6466
  787MPD2    H311662   0.069   4.548  15.005 -0.3624 -2.3552  1.8305
  787MPD2     N11663   0.101   4.274  14.641  0.2603  0.3667  0.3536
  787MPD2    H511664   0.054   4.250  14.554  1.4976  1.5710 -0.6464
  787MPD2    N111665   4.496   4.619  14.677 -0.5866 -0.2932  0.6605
  787MPD2    H711666   4.478   4.713  14.709  1.9996  1.0038 -1.6939
  788MPD2     C11667   1.521   2.896   0.782 -0.0092 -0.1098 -0.3082
  788MPD2    C111668   1.657   2.914   0.807  0.1988 -1.3548 -0.5275
  788MPD2    C211669   1.718   3.029   0.788  0.3847 -0.2007  0.4032
  788MPD2    C311670   1.643   3.133   0.737  0.4315  0.5139  0.1971
  788MPD2    C411671   1.514   3.113   0.707 -0.9851  0.4397 -0.1877
  788MPD2    C511672   1.453   2.999   0.730  0.5521  0.7422  0.2038
  788MPD2     H11673   1.824   3.034   0.809  0.4889 -1.4741  0.1145
  788MPD2    H111674   1.446   3.187   0.666 -3.4924 -2.7438 -1.7845
  788MPD2    H211675   1.463   2.809   0.809 -2.2525  2.3571  2.7700
  788MPD2    H311676   1.344   3.004   0.723  0.4879 -4.6740 -2.2029
  788MPD2     N11677   1.701   3.257   0.690 -0.5384  0.0210  0.0343
  788MPD2    H511678   1.643   3.317   0.634 -2.6574 -1.8864  0.1992
  788MPD2    N111679   1.739   2.806   0.850 -0.3707 -0.1498 -0.9519
  788MPD2    H711680   1.838   2.828   0.858 -0.6103  0.5710  0.0693
  789MPD2     C11681   2.046   2.783  16.246  0.8096  0.2914  0.5886
  789MPD2    C111682   2.033   2.725  16.371  0.2029  0.7052  0.4644
  789MPD2    C211683   1.915   2.724  16.435 -0.5085  0.0861  0.6192
  789MPD2    C311684   1.806   2.795  16.384 -0.2886  0.6341 -0.0658
  789MPD2    C411685   1.818   2.846  16.258 -0.0610 -0.3694  0.0158
  789MPD2    C511686   1.935   2.841  16.184  0.4232  0.4912 -0.2650
  789MPD2     H11687   1.913   2.668  16.527  1.9262  0.8404  1.1401
  789MPD2    H111688   1.732   2.895  16.215  0.5190 -1.3399 -2.2560
  789MPD2    H211689   2.144   2.790  16.202  1.0261 -0.0311  1.0185
  789MPD2    H311690   1.942   2.879  16.083 -0.9421 -0.1557 -0.6082
  789MPD2     N11691   1.680   2.818  16.447 -0.4115  0.2673  0.0214
  789MPD2    H511692   1.610   2.862  16.388 -1.5425  0.5683  1.5839
  789MPD2    N111693   2.142   2.644  16.427 -0.1232 -0.2064 -0.3180
  789MPD2    H711694   2.131   2.576  16.502  1.8618  0.2066  0.3378
  790MPD2     C11695   2.382   4.477  13.692 -0.1323 -0.0658  0.8640
  790MPD2    C111696   2.508   4.521  13.690  0.0057  0.1745  0.2592
  790MPD2    C211697   2.566   4.577  13.575  0.4984 -0.7222 -0.0145
  790MPD2    C311698   2.490   4.586  13.462 -0.0691 -0.7600  0.0034
  790MPD2    C411699   2.361   4.537  13.462 -0.0000  0.2291 -0.1925
  790MPD2    C511700   2.311   4.475  13.575  0.4158  0.1676  0.1797
  790MPD2     H11701   2.662   4.628  13.575  0.7542 -1.2268 -1.6753
  790MPD2    H111702   2.298   4.539  13.374  0.8701  1.3417 -0.7881
  790MPD2    H211703   2.336   4.433  13.780 -1.5642  0.1415  0.2124
  790MPD2    H311704   2.211   4.434  13.575 -0.3614  2.0696 -0.9788
  790MPD2     N11705   2.552   4.642  13.356  0.3963  0.1246  0.2659
  790MPD2    H511706   2.654   4.636  13.361  0.4088  0.7571  0.7674
  790MPD2    N111707   2.580   4.519  13.814 -0.1356  0.0832 -0.6175
  790MPD2    H711708   2.522   4.474  13.883 -2.9679  1.5247 -2.0824
  791MPD2     C11709   2.156   0.179  12.679 -0.2384  0.1511 -0.4196
  791MPD2    C111710   2.212   0.057  12.712  0.7622  0.0379  0.7009
  791MPD2    C211711   2.141   4.670  12.700  0.8041 -0.1189  0.3627
  791MPD2    C311712   2.008   4.678  12.658  0.7870 -0.6644  0.0021
  791MPD2    C411713   1.958   0.063  12.617 -0.2143 -0.0823  0.0503
  791MPD2    C511714   2.031   0.178  12.622 -1.0924 -0.5252 -0.0377
  791MPD2     H11715   2.188   4.574  12.719 -0.6551 -0.7152  0.8921
  791MPD2    H111716   1.862   0.068  12.567  0.4460  1.0090 -1.1390
  791MPD2    H211717   2.207   0.273  12.694 -0.4252  0.3803 -1.2189
  791MPD2    H311718   1.990   0.273  12.589 -3.3302 -2.2909 -2.3343
  791MPD2     N11719   1.931   4.559  12.668  0.7460 -0.1551 -0.2454
  791MPD2    H511720   1.978   4.492  12.729 -1.4500 -0.3501  1.2325
  791MPD2    N111721   2.341   0.062  12.768  0.3290  0.2124 -0.4253
  791MPD2    H711722   2.379   0.153  12.791  0.0268  0.2966 -0.2659
  792MPD2     C11723   2.855   0.181  11.226 -0.5921  0.1160  0.2492
  792MPD2    C111724   2.807   0.201  11.100  0.3985 -0.1868 -0.5139
  792MPD2    C211725   2.668   0.188  11.088  0.1297 -0.0983 -0.1689
  792MPD2    C311726   2.594   0.136  11.196  0.2582 -0.5838  0.3857
  792MPD2    C411727   2.646   0.126  11.328  0.4838  0.0499  0.3844
  792MPD2    C511728   2.784   0.150  11.339  0.4352 -0.8394  0.6340
  792MPD2     H11729   2.622   0.204  10.991  0.0846 -0.2118 -0.1664
  792MPD2    H111730   2.601   0.083  11.416 -1.5214  0.0952 -0.6177
  792MPD2    H211731   2.961   0.193  11.239 -0.6580 -0.6772  1.4537
  792MPD2    H311732   2.836   0.146  11.434  1.8185  3.4771  0.0457
  792MPD2     N11733   2.459   0.097  11.183 -0.4530  0.0391 -0.0608
  792MPD2    H511734   2.416   0.058  11.267  2.5617 -0.7802  1.0792
  792MPD2    N111735   2.895   0.226  10.991  0.4783  0.2133  0.5300
  792MPD2    H711736   2.994   0.206  11.000  0.6486  0.8444  0.0697
  793MPD2     C11737   2.045   4.243  10.457  0.7370  0.1112 -0.8060
  793MPD2    C111738   2.173   4.287  10.482 -0.1079 -0.3685 -0.3618
  793MPD2    C211739   2.194   4.382  10.575 -0.3319  0.3243 -0.0891
  793MPD2    C311740   2.089   4.433  10.649  0.9032 -0.1307  0.0582
  793MPD2    C411741   1.963   4.385  10.628 -0.3397  0.4136 -0.5748
  793MPD2    C511742   1.942   4.290  10.530 -0.5954 -0.4413 -0.8171
  793MPD2     H11743   2.299   4.406  10.583 -0.5912  0.6085  2.3047
  793MPD2    H111744   1.877   4.421  10.682 -1.0215 -0.5832 -0.9985
  793MPD2    H211745   2.022   4.170  10.380 -0.7379  0.6156 -0.8547
  793MPD2    H311746   1.840   4.263  10.506 -1.0723  0.9789 -0.4245
  793MPD2     N11747   2.118   4.522  10.757 -0.2797 -0.3518  0.5586
  793MPD2    H511748   2.216   4.541  10.778 -0.4240  1.1081 -0.1658
  793MPD2    N111749   2.286   4.244  10.411 -0.4018  0.2446 -0.0087
  793MPD2    H711750   2.372   4.265  10.460 -0.0712  2.3913 -1.5331
  794MPD2     C11751   2.933   3.821  17.199  0.3082 -0.2081  0.2930
  794MPD2    C111752   2.821   3.783  17.271  0.0231  0.5596 -0.1216
  794MPD2    C211753   2.710   3.746  17.205 -0.1757 -0.6784  1.0070
  794MPD2    C311754   2.712   3.716  17.067  0.4655 -0.3448  0.4727
  794MPD2    C411755   2.822   3.743  16.993  0.0270  0.0382  0.4878
  794MPD2    C511756   2.929   3.801  17.061  0.2550  0.9516 -0.7476
  794MPD2     H11757   2.614   3.735  17.255 -0.2195 -1.3742  0.7723
  794MPD2    H111758   2.833   3.728  16.887 -2.1402  2.0939 -0.0336
  794MPD2    H211759   3.019   3.867  17.244  1.3501 -0.8753 -1.0185
  794MPD2    H311760   3.013   3.840  17.006  0.8369 -1.4662 -1.5624
  794MPD2     N11761   2.595   3.691  16.995 -0.3994  0.2491  0.4434
  794MPD2    H511762   2.602   3.719  16.898 -0.2025  0.5124  0.5340
  794MPD2    N111763   2.808   3.780  17.416  0.2465 -0.4264 -0.2249
  794MPD2    H711764   2.724   3.740  17.456 -0.3150  1.0637  0.0789
  795MPD2     C11765   0.366   1.562  14.034 -0.2030 -0.2067  0.7247
  795MPD2    C111766   0.339   1.495  13.919 -0.4206  0.3892  0.1446
  795MPD2    C211767   0.441   1.424  13.858  0.9852 -0.0917  1.1207
  795MPD2    C311768   0.561   1.407  13.914  0.0117 -0.3632 -0.5014
  795MPD2    C411769   0.575   1.457  14.044  0.3472 -0.2749 -0.2833
  795MPD2    C511770   0.477   1.536  14.101  0.1118 -0.3998 -0.3844
  795MPD2     H11771   0.420   1.380  13.761  1.2129  1.1029  0.5260
  795MPD2    H111772   0.652   1.439  14.118  2.5394 -1.7744 -2.9463
  795MPD2    H211773   0.295   1.609  14.101  1.2666  3.3456 -0.2279
  795MPD2    H311774   0.489   1.568  14.203 -1.1129 -1.1244 -0.0161
  795MPD2     N11775   0.663   1.337  13.851 -0.1422 -0.5282 -0.1739
  795MPD2    H511776   0.634   1.307  13.759 -0.7583 -0.7138  0.0828
  795MPD2    N111777   0.221   1.500  13.845  0.2957  0.8199 -0.1081
  795MPD2    H711778   0.204   1.443  13.763  1.0913 -0.6309  0.7369
  796MPD2     C11779   4.713   2.983  15.454 -0.6018  0.1325  0.0354
  796MPD2    C111780   4.691   3.053  15.574 -0.3918  0.1827  0.3198
  796MPD2    C211781   4.620   3.169  15.564  0.7060  0.1423 -0.0091
  796MPD2    C311782   4.560   3.203  15.448 -1.0098 -0.8545  0.6458
  796MPD2    C411783   4.563   3.124  15.337  0.1974 -0.7242  0.2971
  796MPD2    C511784   4.648   3.019  15.338 -0.3094  0.4821 -0.2998
  796MPD2     H11785   4.605   3.223  15.656  0.4251  2.9650 -1.7370
  796MPD2    H111786   4.499   3.151  15.253 -0.5221 -1.6808  0.5389
  796MPD2    H211787   0.051   2.903  15.453 -1.2895 -0.4766 -0.4516
  796MPD2    H311788   4.652   2.956  15.250  1.2707  0.0329  0.0993
  796MPD2     N11789   4.486   3.322  15.449 -0.4199 -0.2502 -0.6319
  796MPD2    H511790   4.502   3.392  15.520  1.2737  1.1909 -2.4193
  796MPD2    N111791   0.016   3.000  15.692  0.2030 -0.7546  0.1337
  796MPD2    H711792   0.092   2.933  15.688  1.7977  1.0775  0.2890
  797MPD2     C11793   0.606   2.394  17.010  0.3663  0.1960 -0.0079
  797MPD2    C111794   0.736   2.365  16.974  0.2959  0.0045  0.1136
  797MPD2    C211795   0.777   2.424  16.853 -0.4079  0.2580 -0.3937
  797MPD2    C311796   0.709   2.525  16.785 -0.2243 -0.2072 -0.2713
  797MPD2    C411797   0.582   2.555  16.825  0.2916  0.4002 -0.2870
  797MPD2    C511798   0.533   2.486  16.936 -0.1328  0.6668 -0.3440
  797MPD2     H11799   0.873   2.388  16.817 -0.6140 -2.2511  1.4975
  797MPD2    H111800   0.520   2.632  16.781 -1.8811 -0.0677  1.9367
  797MPD2    H211801   0.559   2.349  17.097 -0.0091  0.4444 -0.0807
  797MPD2    H311802   0.430   2.506  16.962  0.4924  0.2370  2.5449
  797MPD2     N11803   0.758   2.585  16.668  0.2519 -0.5574  0.7746
  797MPD2    H511804   0.704   2.652  16.615 -0.0798  0.2221  2.1083
  797MPD2    N111805   0.828   2.271  17.036  0.4816  0.5880  0.0928
  797MPD2    H711806   0.921   2.254  16.998  0.3330  0.4084 -0.1919
  798MPD2     C11807   1.433   2.417  16.669 -0.0285 -0.3569  0.6772
  798MPD2    C111808   1.297   2.445  16.686  0.9873 -0.2916 -0.1108
  798MPD2    C211809   1.238   2.392  16.798  0.1375 -0.3974  0.1668
  798MPD2    C311810   1.305   2.307  16.885  0.2402  0.1714  0.4977
  798MPD2    C411811   1.438   2.276  16.865  0.0965 -0.0251  0.1359
  798MPD2    C511812   1.498   2.333  16.761  0.1060  0.9195  0.3077
  798MPD2     H11813   1.133   2.407  16.823  0.3911  0.7330  0.5465
  798MPD2    H111814   1.489   2.194  16.914 -1.3408  0.8493  3.0913
  798MPD2    H211815   1.499   2.457  16.593 -0.6031  0.5526  0.6540
  798MPD2    H311816   1.601   2.302  16.747  0.2754  1.6174 -0.0201
  798MPD2     N11817   1.240   2.257  16.995  0.4519 -0.0647 -0.3135
  798MPD2    H511818   1.140   2.274  16.991  0.4069 -0.3783 -0.5197
  798MPD2    N111819   1.225   2.536  16.608 -0.0048 -0.8925  0.1565
  798MPD2    H711820   1.134   2.561  16.643  0.8317 -0.1878  1.7952
  799MPD2     C11821   4.487   4.054  14.836 -0.3995 -0.1670 -0.0577
  799MPD2    C111822   4.449   3.960  14.741  0.0380  0.2393  0.2852
  799MPD2    C211823   4.396   4.003  14.624  0.0990  0.6424 -0.4519
  799MPD2    C311824   4.382   4.138  14.602 -0.0881 -0.1948 -0.2497
  799MPD2    C411825   4.412   4.231  14.701  0.2803  0.3232  0.4287
  799MPD2    C511826   4.473   4.186  14.811 -0.0685 -0.0861 -0.4917
  799MPD2     H11827   4.382   3.926  14.549 -0.3846  0.3747 -0.0887
  799MPD2    H111828   4.383   4.335  14.687 -1.5378 -0.2050  0.2878
  799MPD2    H211829   4.537   4.025  14.928  1.7176 -0.5704 -1.3330
  799MPD2    H311830   4.502   4.254  14.890  0.9601  0.8479 -1.6683
  799MPD2     N11831   4.344   4.181  14.480 -0.3233 -0.0702 -0.3961
  799MPD2    H511832   4.341   4.280  14.457  1.7657 -0.2643 -1.4629
  799MPD2    N111833   4.457   3.821  14.760  0.0647  0.6889 -0.4903
  799MPD2    H711834   4.416   3.751  14.699 -0.6440  0.2734  0.4522
  800MPD2     C11835   0.297   0.815  14.049 -0.2068  0.3495 -0.8105
  800MPD2    C111836   0.422   0.789  13.998  0.0143  0.5039  0.0916
  800MPD2    C211837   0.443   0.691  13.900 -1.2268  0.5535  0.5762
  800MPD2    C311838   0.334   0.627  13.846 -0.4948  0.6304  0.6505
  800MPD2    C411839   0.210   0.663  13.895  0.4779 -0.0458 -0.0330
  800MPD2    C511840   0.187   0.749  13.995  0.4157 -0.3701  0.4205
  800MPD2     H11841   0.542   0.680  13.856 -1.3151  0.4760  0.3941
  800MPD2    H111842   0.125   0.611  13.852  0.4581 -0.5592  0.6378
  800MPD2    H211843   0.278   0.904  14.108  0.4883 -1.0499  1.4828
  800MPD2    H311844   0.091   0.795  14.011  0.6930  1.0393 -2.0195
  800MPD2     N11845   0.341   0.534  13.733 -0.0954 -0.5618  0.2091
  800MPD2    H511846   0.257   0.495  13.692 -0.3747  0.3871 -0.1301
  800MPD2    N111847   0.523   0.880  14.035  0.2654  0.4438 -0.1367
  800MPD2    H711848   0.497   0.955  14.099  2.2807 -0.5642  1.8709
  801MPD2     C11849   0.680   1.348  14.574 -0.2357  1.0197  0.4433
  801MPD2    C111850   0.601   1.262  14.495 -0.2000  0.5964  0.5213
  801MPD2    C211851   0.466   1.242  14.536  0.4700  0.3643 -0.1456
  801MPD2    C311852   0.422   1.299  14.654 -0.4187 -0.4797 -0.5392
  801MPD2    C411853   0.506   1.383  14.724  0.5537 -0.3341 -0.6002
  801MPD2    C511854   0.631   1.406  14.692 -0.1894  0.1528  0.5529
  801MPD2     H11855   0.416   1.180  14.462  1.1788 -0.4771  0.0715
  801MPD2    H111856   0.469   1.434  14.812 -0.9837 -1.1254 -0.7891
  801MPD2    H211857   0.776   1.388  14.544  0.5210 -0.1728  1.3053
  801MPD2    H311858   0.689   1.483  14.743 -0.8006  0.6912  0.4442
  801MPD2     N11859   0.301   1.277  14.727  0.2723 -0.1846  0.3376
  801MPD2    H511860   0.292   1.329  14.813  1.9248 -1.2247  1.1322
  801MPD2    N111861   0.646   1.204  14.378 -0.3767  0.4142  0.0102
  801MPD2    H711862   0.584   1.145  14.324  0.0936  1.1930 -1.3790
  802MPD2     C11863   3.799   1.088  16.950  0.0409  0.2031 -0.3747
  802MPD2    C111864   3.892   1.063  17.047 -0.0162 -0.6969 -0.0226
  802MPD2    C211865   3.977   0.951  17.028 -0.0909  0.1117 -0.3306
  802MPD2    C311866   3.994   0.887  16.908 -0.0883 -0.1754  0.5493
  802MPD2    C411867   3.896   0.917  16.812 -0.3038 -0.3639 -0.4756
  802MPD2    C511868   3.799   1.014  16.833 -0.3063  0.3183 -0.4024
  802MPD2     H11869   4.039   0.909  17.106 -0.6277 -1.5162 -0.7958
  802MPD2    H111870   3.884   0.846  16.731 -1.0739 -0.7571 -0.0198
  802MPD2    H211871   3.716   1.157  16.962 -0.6339 -0.7052  0.1152
  802MPD2    H311872   3.721   1.023  16.758 -2.7409 -1.1663  1.9427
  802MPD2     N11873   4.093   0.782  16.894 -0.2576  0.4828  0.0916
  802MPD2    H511874   4.151   0.773  16.977  1.9763 -0.5031 -1.5716
  802MPD2    N111875   3.895   1.132  17.174 -1.1104 -0.3101  0.5747
  802MPD2    H711876   3.961   1.095  17.240 -0.8046  0.0556  0.4729
  803MPD2     C11877   0.962   0.292  11.947 -0.2559  0.1795  0.0822
  803MPD2    C111878   1.034   0.265  12.061 -0.7067  0.0194  0.2248
  803MPD2    C211879   0.971   0.189  12.153  0.2973  0.2440 -0.2059
  803MPD2    C311880   0.850   0.126  12.134  0.0398  0.6262  0.6908
  803MPD2    C411881   0.781   0.163  12.021 -0.3216  0.3258 -0.2337
  803MPD2    C511882   0.834   0.251  11.932  0.3080 -0.1237  0.1106
  803MPD2     H11883   1.023   0.162  12.244  2.3393  0.7352 -1.2386
  803MPD2    H111884   0.683   0.120  12.004  0.3801 -2.7673  3.4625
  803MPD2    H211885   0.998   0.369  11.880  0.3531  0.2374  0.4705
  803MPD2    H311886   0.768   0.286  11.853  1.2225  1.8182  0.2116
  803MPD2     N11887   0.783   0.046  12.232  0.0731 -0.5408 -0.2750
  803MPD2    H511888   0.692   0.012  12.203  0.3151 -0.9108 -0.5969
  803MPD2    N111889   1.165   0.317  12.085  0.1990  0.2779 -0.2971
  803MPD2    H711890   1.211   0.292  12.171 -1.8126  2.0252  1.2882
  804MPD2     C11891   0.103   0.540  16.765 -0.2037 -0.6595 -0.5454
  804MPD2    C111892   0.137   0.541  16.899  0.5934  0.2808 -0.9330
  804MPD2    C211893   0.177   0.661  16.959 -0.0867 -0.2777  0.3233
  804MPD2    C311894   0.178   0.776  16.883 -0.1789 -0.2871 -0.2401
  804MPD2    C411895   0.145   0.774  16.749 -0.4534 -0.7754 -0.1651
  804MPD2    C511896   0.100   0.656  16.694  0.3319 -0.5907  0.7496
  804MPD2     H11897   0.210   0.658  17.062 -1.2632 -2.6302  0.6302
  804MPD2    H111898   0.164   0.857  16.681 -2.4477 -1.6530 -1.8040
  804MPD2    H211899   0.077   0.447  16.716 -1.9482 -1.7478  2.4667
  804MPD2    H311900   0.073   0.644  16.589 -1.0166  2.7136  0.7169
  804MPD2     N11901   0.222   0.902  16.920  0.1891 -0.0741 -0.5005
  804MPD2    H511902   0.233   0.966  16.842  1.4222  3.3455  2.5022
  804MPD2    N111903   0.141   0.418  16.974 -0.4301  0.0729  1.2264
  804MPD2    H711904   0.200   0.429  17.056  0.7371 -1.4171  0.5953
  805MPD2     C11905   4.127   4.105  15.650 -0.2672  0.6669 -0.0004
  805MPD2    C111906   4.228   4.115  15.554 -0.4518 -0.0440  0.2591
  805MPD2    C211907   4.357   4.123  15.597 -0.3823 -0.3290  0.8367
  805MPD2    C311908   4.389   4.123  15.733  0.1126  0.7323  0.5451
  805MPD2    C411909   4.281   4.114  15.823  0.0617  0.4970  0.5794
  805MPD2    C511910   4.156   4.104  15.779  0.1856  0.0828 -0.5534
  805MPD2     H11911   4.431   4.133  15.519 -1.4431 -1.1799 -0.2662
  805MPD2    H111912   4.289   4.115  15.932  1.3443  0.0858  0.4963
  805MPD2    H211913   4.028   4.073  15.621 -0.0382 -0.7884  0.8514
  805MPD2    H311914   4.079   4.085  15.852  1.1598 -0.9779  0.2000
  805MPD2     N11915   4.524   4.147  15.771  0.3583  0.0760  1.0277
  805MPD2    H511916   4.590   4.181  15.701  0.0665  0.1305  0.7802
  805MPD2    N111917   4.203   4.113  15.417  0.9333  0.3877 -0.4450
  805MPD2    H711918   4.289   4.113  15.364  1.4517 -0.8046  0.3980
  806MPD2     C11919   0.009   2.869   0.463  0.5604  0.7261  0.1887
  806MPD2    C111920   0.024   2.992   0.526 -0.0369  0.4425 -0.1403
  806MPD2    C211921   0.011   3.107   0.444  0.1592 -0.0015 -1.0022
  806MPD2    C311922   4.727   3.092   0.306 -0.7520 -0.6518  0.0548
  806MPD2    C411923   0.004   2.964   0.251  0.1713 -0.2782  0.4253
  806MPD2    C511924   0.001   2.853   0.327 -0.3584  0.0197 -0.4292
  806MPD2     H11925   0.036   3.201   0.491  1.8137 -0.0020 -1.8613
  806MPD2    H111926   4.724   2.951   0.144 -0.0285  1.7493  0.2172
  806MPD2    H211927   0.004   2.781   0.526  1.1240 -0.4174 -1.3646
  806MPD2    H311928   4.731   2.752   0.289 -0.8906 -0.3231  0.5385
  806MPD2     N11929   0.002   3.212   0.227 -0.2535  0.3935 -0.6223
  806MPD2    H511930   4.732   3.299   0.280  1.2715 -0.5796  1.0887
  806MPD2    N111931   0.040   2.994   0.662  0.6781  0.0365  0.5690
  806MPD2    H711932   0.062   2.907   0.709 -3.2341 -1.0442  0.3760
  807MPD2     C11933   4.457   3.200   1.398 -0.6481 -0.7082 -0.7585
  807MPD2    C111934   4.445   3.132   1.280 -0.1865 -0.4132 -0.3709
  807MPD2    C211935   4.339   3.051   1.271 -0.2712  0.0287 -0.5422
  807MPD2    C311936   4.243   3.035   1.370  0.3360  0.1714 -0.5010
  807MPD2    C411937   4.263   3.108   1.487  0.4403 -0.3038 -0.3305
  807MPD2    C511938   4.365   3.194   1.502 -0.3193  0.0446  0.0738
  807MPD2     H11939   4.327   2.983   1.187 -0.4675 -0.0501 -0.4500
  807MPD2    H111940   4.188   3.110   1.566  1.6463  1.1830  0.7716
  807MPD2    H211941   4.541   3.265   1.421 -1.5527  0.3272 -0.3761
  807MPD2    H311942   4.373   3.258   1.589  0.0644 -0.9673  0.7963
  807MPD2     N11943   4.147   2.935   1.361 -0.8395  0.0126 -0.8087
  807MPD2    H511944   4.147   2.885   1.273  3.1131  1.6866 -1.7442
  807MPD2    N111945   4.544   3.131   1.180  0.0286 -1.3882  0.4137
  807MPD2    H711946   4.514   3.076   1.101  0.1796 -0.0168 -0.6049
  808MPD2     C11947   0.607   0.368   9.635 -0.5499  0.2555 -0.8026
  808MPD2    C111948   0.612   0.466   9.736 -0.0370 -0.0443  0.2707
  808MPD2    C211949   0.679   0.582   9.714  0.0917  0.5238 -0.2292
  808MPD2    C311950   0.734   0.616   9.591 -0.5401  0.5958  0.2436
  808MPD2    C411951   0.724   0.522   9.489 -0.0120  0.5161  0.4188
  808MPD2    C511952   0.666   0.399   9.515  0.4061  0.4844  0.1641
  808MPD2     H11953   0.692   0.649   9.798  3.0064 -1.6259  1.0076
  808MPD2    H111954   0.773   0.541   9.394 -1.4569 -1.1593 -0.6657
  808MPD2    H211955   0.561   0.272   9.657  0.5426 -0.0755  0.0278
  808MPD2    H311956   0.655   0.325   9.436  2.9115  0.2079  0.0905
  808MPD2     N11957   0.810   0.732   9.569 -0.4819 -0.0061  0.0941
  808MPD2    H511958   0.843   0.738   9.473 -0.1972  1.3931  0.2722
  808MPD2    N111959   0.551   0.460   9.861 -0.0243  0.4432 -0.5011
  808MPD2    H711960   0.578   0.537   9.921 -2.4157  1.2958 -0.5372
  809MPD2     C11961   1.493   0.689   9.091 -0.0615 -0.1885 -0.0588
  809MPD2    C111962   1.464   0.618   9.214  0.1235  0.8214 -0.3417
  809MPD2    C211963   1.388   0.675   9.309  0.2400  0.0460  0.0609
  809MPD2    C311964   1.330   0.797   9.282 -0.1203  0.4374  0.1016
  809MPD2    C411965   1.346   0.860   9.166 -0.0971  0.3495  0.1440
  809MPD2    C511966   1.426   0.808   9.066  0.3532 -0.7584 -0.7896
  809MPD2     H11967   1.356   0.624   9.398  2.2795  0.9282  1.3127
  809MPD2    H111968   1.290   0.952   9.149  2.8196  2.2718  0.9412
  809MPD2    H211969   1.564   0.647   9.020  0.9045  0.8589  0.2879
  809MPD2    H311970   1.439   0.857   8.970 -0.6839 -0.4860 -0.7871
  809MPD2     N11971   1.240   0.848   9.381  1.5334 -0.5584 -0.6496
  809MPD2    H511972   1.211   0.791   9.460  3.8236  1.8396  1.9427
  809MPD2    N111973   1.506   0.484   9.228 -0.3122 -0.5750  0.2526
  809MPD2    H711974   1.499   0.447   9.322 -1.3754  0.6496  0.6424
  810MPD2     C11975   4.086   4.314  11.020  0.1059  0.1107  0.1499
  810MPD2    C111976   4.078   4.358  10.890 -0.1171  0.6534  0.4417
  810MPD2    C211977   4.138   4.473  10.863 -0.2491 -0.4570  0.0304
  810MPD2    C311978   4.203   4.553  10.956  0.2280 -0.5056 -0.0874
  810MPD2    C411979   4.206   4.511  11.089 -0.3233 -0.0331 -0.0222
  810MPD2    C511980   4.146   4.389  11.122 -0.4206 -0.8473 -1.0997
  810MPD2     H11981   4.132   4.514  10.763 -0.1259  1.3583  0.7549
  810MPD2    H111982   4.262   4.568  11.162  1.7628  1.2080 -2.6009
  810MPD2    H211983   4.037   4.223  11.055  2.0775 -0.7203  0.7042
  810MPD2    H311984   4.158   4.353  11.224 -0.2269  0.9148 -0.4935
  810MPD2     N11985   4.266   4.670  10.909  0.0124 -0.2490  0.1206
  810MPD2    H511986   4.248   4.693  10.812 -0.6514  0.9113  0.5144
  810MPD2    N111987   4.012   4.281  10.789 -0.1989  0.2012  0.6587
  810MPD2    H711988   3.949   4.207  10.819  0.3395  0.0725  1.4694
  811MPD2     C11989   3.916   4.425   9.969 -0.3410  0.1853 -0.6281
  811MPD2    C111990   3.971   4.446  10.093  0.1835 -0.2617  0.3752
  811MPD2    C211991   4.024   4.572  10.124 -0.0198 -0.3876  0.6773
  811MPD2    C311992   4.017   4.673  10.032  0.3061  0.4623  0.0028
  811MPD2    C411993   3.958   4.642   9.908  0.5221 -0.5539 -0.2628
  811MPD2    C511994   3.908   4.522   9.878 -0.3029  0.4504  0.6158
  811MPD2     H11995   4.058   4.589  10.225  0.8013  0.9644  0.1701
  811MPD2    H111996   3.941   4.718   9.833  0.7962 -1.7782 -1.5634
  811MPD2    H211997   3.889   4.322   9.945 -2.3947  0.7259 -0.6412
  811MPD2    H311998   3.864   4.511   9.780 -0.4050 -2.6994  1.0259
  811MPD2     N11999   4.061   0.066  10.075  0.0553 -0.3165 -0.1739
  811MPD2    H512000   4.104   0.077  10.166  0.9148 -1.6304 -0.4350
  811MPD2    N112001   3.977   4.357  10.202 -0.0976  0.4077 -0.3901
  811MPD2    H712002   4.022   4.394  10.286 -1.1668 -0.8358  0.7322
  812MPD2     C12003   3.100   4.356  12.308  0.5320  0.2252  0.1265
  812MPD2    C112004   3.200   4.450  12.303 -0.1973  0.5844  0.3657
  812MPD2    C212005   3.313   4.429  12.379 -0.0556  0.6257 -0.6958
  812MPD2    C312006   3.329   4.309  12.440 -0.2324  0.1602 -0.1525
  812MPD2    C412007   3.226   4.220  12.457  0.0178 -0.8986  0.5316
  812MPD2    C512008   3.113   4.243  12.388 -0.3765 -0.5041 -0.4291
  812MPD2     H12009   3.395   4.499  12.387  1.8316 -1.6748  0.1556
  812MPD2    H112010   3.230   4.141  12.531  0.1347 -1.0475  0.3671
  812MPD2    H212011   3.003   4.371  12.262 -0.0491 -1.0886  0.9080
  812MPD2    H312012   3.031   4.173  12.397  1.3989 -2.5655 -0.1307
  812MPD2     N12013   3.450   4.276  12.509  0.3111 -0.7248 -0.4450
  812MPD2    H512014   3.523   4.346  12.504 -2.2978  2.0189 -0.0065
  812MPD2    N112015   3.166   4.570  12.238 -0.8203 -0.0442  0.9781
  812MPD2    H712016   3.077   4.583  12.190 -0.2690  1.8540  0.5054
  813MPD2     C12017   2.866   1.472  12.853 -1.0372 -0.1342 -0.3425
  813MPD2    C112018   2.848   1.600  12.905  0.2928 -1.5592 -0.3185
  813MPD2    C212019   2.750   1.627  12.998  0.5217 -0.0609 -0.7252
  813MPD2    C312020   2.663   1.528  13.035  0.6152  0.0167  0.6042
  813MPD2    C412021   2.686   1.397  12.987 -0.1748  0.2045 -0.1516
  813MPD2    C512022   2.788   1.373  12.904  0.1203 -0.1796 -0.0494
  813MPD2     H12023   2.736   1.729  13.034  2.3147  0.4211 -1.4362
  813MPD2    H112024   2.647   1.315  13.047 -0.9012  0.5496 -0.1469
  813MPD2    H212025   2.937   1.434  12.780  0.7603  0.8042  0.9457
  813MPD2    H312026   2.814   1.271  12.880  4.9751  0.8154  0.9938
  813MPD2     N12027   2.560   1.565  13.119 -0.1196  0.3392  0.1424
  813MPD2    H512028   2.544   1.664  13.133  0.1052  0.8482 -3.3547
  813MPD2    N112029   2.937   1.709  12.880  0.2804  0.0983 -0.3474
  813MPD2    H712030   2.920   1.790  12.938  1.3505  0.7292 -0.9159
  814MPD2     C12031   3.001   2.995  12.284  0.6199 -0.2082  0.1999
  814MPD2    C112032   3.076   2.986  12.172 -0.6132 -0.0771  0.0595
  814MPD2    C212033   3.206   3.044  12.181  0.6150  0.2627  0.4381
  814MPD2    C312034   3.244   3.117  12.295 -0.1336  0.4101  0.0377
  814MPD2    C412035   3.170   3.099  12.412 -0.3463  0.0047 -0.8807
  814MPD2    C512036   3.049   3.047  12.405 -0.1389 -0.4114  0.8535
  814MPD2     H12037   3.262   3.061  12.089 -2.1645  2.8292 -0.7862
  814MPD2    H112038   3.201   3.153  12.501 -1.0949  0.7470 -1.0754
  814MPD2    H212039   2.902   2.952  12.290  0.5599 -0.2886 -1.4025
  814MPD2    H312040   2.984   3.057  12.491  1.5912 -0.9756  2.2331
  814MPD2     N12041   3.351   3.205  12.305  0.8568  0.0454  0.2886
  814MPD2    H512042   3.361   3.261  12.389 -2.4146 -0.1822  0.8503
  814MPD2    N112043   3.035   2.932  12.044 -0.1863  0.5012  0.0793
  814MPD2    H712044   3.100   2.926  11.967  1.1827 -2.1008  1.4328
  815MPD2     C12045   3.729   1.860  11.276  0.2338 -0.1013 -0.8183
  815MPD2    C112046   3.751   1.731  11.320  0.8986 -0.2827 -0.4482
  815MPD2    C212047   3.708   1.703  11.453  0.1908  0.4031 -0.3974
  815MPD2    C312048   3.658   1.805  11.531 -0.0565  0.0277 -0.1352
  815MPD2    C412049   3.634   1.928  11.484  0.2369  0.0058  0.4091
  815MPD2    C512050   3.678   1.953  11.358 -0.3155 -0.0332 -0.9174
  815MPD2     H12051   3.703   1.599  11.485 -0.1936  0.0173 -1.7162
  815MPD2    H112052   3.583   2.005  11.541 -0.3089  0.6759 -0.9743
  815MPD2    H212053   3.779   1.892  11.185 -1.2426  1.3534 -1.1256
  815MPD2    H312054   3.692   2.057  11.332  1.3467 -1.0619 -4.0764
  815MPD2     N12055   3.629   1.761  11.664  0.2279 -0.3986 -0.0123
  815MPD2    H512056   3.657   1.665  11.677  0.4706  0.0129  2.5615
  815MPD2    N112057   3.797   1.640  11.235 -0.1605  0.4918  0.3340
  815MPD2    H712058   3.819   1.676  11.142 -1.9082 -2.4898 -1.2321
  816MPD2     C12059   4.139   0.622  17.259 -0.5028  0.3734  0.0486
  816MPD2    C112060   4.021   0.589  17.201  0.8340  0.0409  0.4795
  816MPD2    C212061   4.017   0.479  17.109  0.3463 -0.3440 -0.5484
  816MPD2    C312062   4.120   0.402  17.077 -0.4086  0.4000 -0.3881
  816MPD2    C412063   4.246   0.437  17.128  0.3699 -0.8202  0.4465
  816MPD2    C512064   4.245   0.542  17.221 -0.1750 -0.2536  0.1616
  816MPD2     H12065   3.918   0.453  17.075 -0.9600 -0.6106  3.4206
  816MPD2    H112066   4.336   0.378  17.114 -0.0868 -1.3308 -0.3157
  816MPD2    H212067   4.153   0.705  17.327 -0.4779  0.8700 -0.5525
  816MPD2    H312068   4.340   0.564  17.269 -0.7098  0.1483  1.0189
  816MPD2     N12069   4.087   0.302  16.982  0.1870  0.3428  0.5636
  816MPD2    H512070   3.992   0.291  16.949  0.6565 -0.0632 -0.6729
  816MPD2    N112071   3.917   0.676  17.230 -0.0833 -0.6124 -0.4446
  816MPD2    H712072   3.938   0.746  17.300 -0.7041 -1.6399  0.7554
  817MPD2     C12073   2.716   2.278  10.068  0.0295  0.1409 -0.2976
  817MPD2    C112074   2.713   2.246   9.934 -0.1809 -0.2643  0.2774
  817MPD2    C212075   2.589   2.238   9.870  0.5954 -0.2441  0.2322
  817MPD2    C312076   2.467   2.269   9.928 -0.0780  0.5371  0.3389
  817MPD2    C412077   2.470   2.298  10.063  0.9610 -0.4673 -0.9980
  817MPD2    C512078   2.596   2.305  10.131 -0.7124 -0.1482 -0.0845
  817MPD2     H12079   2.587   2.200   9.768  0.0264  0.3291  0.0330
  817MPD2    H112080   2.377   2.317  10.116  1.5248 -0.8966  0.1416
  817MPD2    H212081   2.810   2.284  10.121  0.5579 -2.4226 -0.9552
  817MPD2    H312082   2.608   2.341  10.232 -0.6514 -1.8909  0.5117
  817MPD2     N12083   2.350   2.260   9.848  0.3536  0.5671 -0.1372
  817MPD2    H512084   2.373   2.236   9.752 -0.1181 -0.5860  0.0307
  817MPD2    N112085   2.826   2.218   9.853 -0.0375 -0.1305 -0.5921
  817MPD2    H712086   2.803   2.202   9.755  0.9727 -1.4969 -0.5968
  818MPD2     C12087   1.874   1.747  10.156  0.4071 -0.4894 -1.3281
  818MPD2    C112088   1.956   1.731  10.273 -0.2445  0.5139  0.5143
  818MPD2    C212089   2.075   1.660  10.264 -0.6203 -0.0554  0.5159
  818MPD2    C312090   2.097   1.589  10.143 -0.0456  0.2495 -0.0663
  818MPD2    C412091   2.017   1.606  10.028 -0.0891  0.1493  0.4476
  818MPD2    C512092   1.911   1.686  10.039 -0.2128 -0.1892  0.1692
  818MPD2     H12093   2.146   1.657  10.346  1.3136 -0.4205 -1.2023
  818MPD2    H112094   2.035   1.559   9.932  1.1019  1.7268 -0.0925
  818MPD2    H212095   1.787   1.811  10.164 -1.1432 -2.7160 -0.4116
  818MPD2    H312096   1.854   1.701   9.948  0.8322  2.0279 -0.1293
  818MPD2     N12097   2.205   1.504  10.131 -0.1022 -0.4340  0.2552
  818MPD2    H512098   2.213   1.462  10.039 -2.4921 -0.1235 -0.1150
  818MPD2    N112099   1.922   1.794  10.393 -0.7842 -0.1426  0.0985
  818MPD2    H712100   1.975   1.769  10.476 -1.9247 -0.6547  0.6651
  819MPD2     C12101   0.259   3.605  15.579 -0.0819  1.0641  0.1775
  819MPD2    C112102   0.286   3.475  15.529 -0.2941 -0.0058  0.0608
  819MPD2    C212103   0.391   3.402  15.590 -0.5476  0.3182 -0.1355
  819MPD2    C312104   0.467   3.462  15.687  0.0637  1.0588  0.2039
  819MPD2    C412105   0.433   3.582  15.743  0.4216  0.1806 -0.0061
  819MPD2    C512106   0.326   3.654  15.688  0.9700  0.5843  0.4513
  819MPD2     H12107   0.426   3.309  15.548 -0.9903 -0.4067  1.0776
  819MPD2    H112108   0.495   3.629  15.819  0.2632  1.1293 -0.4584
  819MPD2    H212109   0.179   3.669  15.544 -0.6345 -0.4721 -1.4182
  819MPD2    H312110   0.294   3.753  15.719  1.9210  1.5056 -1.4871
  819MPD2     N12111   0.589   3.397  15.721  0.3500  0.0866  0.6529
  819MPD2    H512112   0.637   3.331  15.662  1.1787  1.4885 -0.2322
  819MPD2    N112113   0.226   3.434  15.407 -0.0367 -0.2957  0.6233
  819MPD2    H712114   0.178   3.509  15.359 -1.0245  0.7733  3.2695
  820MPD2     C12115   4.098   3.446  14.934  0.4025  0.1591  0.7193
  820MPD2    C112116   4.183   3.543  14.983 -0.1875 -0.1770  0.3198
  820MPD2    C212117   4.309   3.498  15.015 -0.0246  0.0657 -0.0393
  820MPD2    C312118   4.353   3.366  14.993 -0.0843 -0.1532 -0.4950
  820MPD2    C412119   4.269   3.275  14.938  0.6701  0.2271 -0.3253
  820MPD2    C512120   4.143   3.317  14.908 -0.1836  0.3293 -0.6272
  820MPD2     H12121   4.375   3.575  15.054  0.0342 -0.3636  0.7089
  820MPD2    H112122   4.293   3.174  14.906 -0.0303 -0.4419  1.2862
  820MPD2    H212123   3.995   3.472  14.916  0.3743 -0.6174 -0.2417
  820MPD2    H312124   4.074   3.242  14.871 -1.5889  2.5349 -2.4688
  820MPD2     N12125   4.477   3.323  15.020  1.0928 -0.2628  0.3197
  820MPD2    H512126   4.493   3.224  15.005  1.5406 -0.3135  1.1076
  820MPD2    N112127   4.138   3.676  14.993  0.3511  0.4173  0.7746
  820MPD2    H712128   4.036   3.681  14.987  0.3628  0.0597  0.2970
  821MPD2     C12129   0.498   0.874  13.079  0.3720  0.4511  0.1430
  821MPD2    C112130   0.595   0.804  13.147  0.8060  0.0614  0.0757
  821MPD2    C212131   0.729   0.827  13.126  0.4527 -0.1672 -0.3689
  821MPD2    C312132   0.760   0.911  13.018  0.4813 -0.2555  0.3683
  821MPD2    C412133   0.662   0.972  12.936 -0.5164 -0.8101  0.0747
  821MPD2    C512134   0.533   0.956  12.973  0.5557 -0.6330 -0.8671
  821MPD2     H12135   0.798   0.769  13.186  1.4752 -1.3289 -2.6573
  821MPD2    H112136   0.687   1.037  12.852  0.5913  0.3388  1.2976
  821MPD2    H212137   0.394   0.856  13.103  0.3904  1.2391  0.8226
  821MPD2    H312138   0.454   1.002  12.915 -0.9357 -0.2815  1.4628
  821MPD2     N12139   0.893   0.933  12.974  0.6872  0.0531 -0.1703
  821MPD2    H512140   0.910   0.983  12.888  0.7031 -0.2791 -0.3595
  821MPD2    N112141   0.561   0.701  13.240  0.2009  0.0680  0.1195
  821MPD2    H712142   0.633   0.652  13.294  0.4437  0.5724  0.2500
  822MPD2     C12143   0.967   0.234  15.731 -0.6495  0.1666  0.2317
  822MPD2    C112144   0.960   0.177  15.862  1.0565  0.1189 -0.9278
  822MPD2    C212145   0.914   0.243  15.969 -0.5073  0.4383 -0.6498
  822MPD2    C312146   0.878   0.373  15.965  0.0220 -0.3511  0.1202
  822MPD2    C412147   0.904   0.434  15.839  0.3880  0.2257  0.3652
  822MPD2    C512148   0.945   0.367  15.723  1.2333  0.1961  0.6758
  822MPD2     H12149   0.901   0.184  16.059 -3.9383  1.3291 -0.5676
  822MPD2    H112150   0.882   0.538  15.817 -1.1272 -0.1486  0.0956
  822MPD2    H212151   0.993   0.174  15.644  0.9259  0.8078  0.2783
  822MPD2    H312152   0.951   0.405  15.622 -0.0012 -0.2723  0.4270
  822MPD2     N12153   0.817   0.438  16.082  0.1931  0.6571 -0.5724
  822MPD2    H512154   0.811   0.382  16.166 -0.4402  0.1252 -0.9717
  822MPD2    N112155   0.992   0.042  15.888 -0.1316  0.2284 -0.3317
  822MPD2    H712156   0.985   0.008  15.983  1.8096 -0.6094 -0.4844
  823MPD2     C12157   0.489   0.568  16.871 -0.0089 -0.6451 -0.5088
  823MPD2    C112158   0.527   0.488  16.761  0.4963 -0.1261  0.0333
  823MPD2    C212159   0.549   0.349  16.775  0.2102 -0.0725  0.2798
  823MPD2    C312160   0.536   0.288  16.898  0.4005 -0.4238  0.4876
  823MPD2    C412161   0.486   0.368  17.002  0.0333  0.5148 -0.7874
  823MPD2    C512162   0.461   0.501  16.986 -0.2313 -0.6094 -0.0405
  823MPD2     H12163   0.590   0.296  16.690 -0.6512 -1.6598  0.8711
  823MPD2    H112164   0.452   0.330  17.098 -0.5420  1.4635 -0.6101
  823MPD2    H212165   0.483   0.676  16.874 -0.2812 -0.6676 -0.2467
  823MPD2    H312166   0.429   0.556  17.075  1.1297  2.4964 -1.4536
  823MPD2     N12167   0.578   0.159  16.932  0.5980 -0.2996  0.1438
  823MPD2    H512168   0.588   0.130  17.028 -1.5602 -0.3894  0.3460
  823MPD2    N112169   0.562   0.555  16.639 -0.4649 -0.1395 -0.0272
  823MPD2    H712170   0.553   0.656  16.641 -0.8503 -0.1568 -1.5032
  824MPD2     C12171   1.634   4.172  16.001  0.1130 -0.3427 -0.0245
  824MPD2    C112172   1.599   4.231  15.889 -0.1447  0.1914 -0.1640
  824MPD2    C212173   1.651   4.182  15.764 -0.5393 -0.9083 -0.2423
  824MPD2    C312174   1.733   4.065  15.765  0.0654  0.3772 -0.6375
  824MPD2    C412175   1.758   4.006  15.889 -0.0848  0.1348  0.1375
  824MPD2    C512176   1.706   4.057  16.003 -0.4505  0.0397 -0.1751
  824MPD2     H12177   1.621   4.226  15.669 -0.5682  2.2885  1.2600
  824MPD2    H112178   1.805   3.909  15.902  0.1007  0.2561  0.3824
  824MPD2    H212179   1.586   4.200  16.094  1.9270 -1.7723  1.3573
  824MPD2    H312180   1.707   3.999  16.095  3.9958 -2.9933 -2.1342
  824MPD2     N12181   1.791   4.016  15.638 -0.1995  0.6175 -0.0442
  824MPD2    H512182   1.765   4.070  15.556  3.6321 -0.0860 -1.7258
  824MPD2    N112183   1.507   4.339  15.898  0.3601 -0.2171  0.3934
  824MPD2    H712184   1.474   4.372  15.988  0.7116  0.7249  0.1822
  825MPD2     C12185   2.223   4.012  14.876  0.3180  0.8989 -0.0800
  825MPD2    C112186   2.180   4.076  14.985  0.4870 -0.3247 -0.3433
  825MPD2    C212187   2.182   4.216  14.992  0.1913 -0.2302 -0.3583
  825MPD2    C312188   2.230   4.289  14.885 -0.1883  0.3589  0.0796
  825MPD2    C412189   2.276   4.221  14.776 -0.2178 -0.5710  0.5852
  825MPD2    C512190   2.273   4.085  14.767 -0.0526  0.6731 -0.8497
  825MPD2     H12191   2.149   4.271  15.080 -0.9626 -1.1353 -0.2212
  825MPD2    H112192   2.311   4.281  14.693 -0.5587 -0.6177  0.4097
  825MPD2    H212193   2.216   3.904  14.870 -2.1414  1.1373 -1.2813
  825MPD2    H312194   2.308   4.034  14.678 -1.6629 -0.8912 -0.6014
  825MPD2     N12195   2.254   4.431  14.883 -0.5026  0.5112  0.3796
  825MPD2    H512196   2.295   4.467  14.797 -0.8203 -3.2990 -1.3571
  825MPD2    N112197   2.120   3.994  15.084 -0.1941  0.1984  0.4519
  825MPD2    H712198   2.130   3.894  15.070  1.6284  0.5246 -0.5974
  826MPD2     C12199   1.180   4.629  13.484 -0.6625  0.2016 -0.0524
  826MPD2    C112200   1.308   4.645  13.432 -0.0901 -0.3270  0.5617
  826MPD2    C212201   1.344   0.035  13.382 -1.0373  0.4829  0.5047
  826MPD2    C312202   1.264   0.146  13.417  0.1484 -0.6603  0.4495
  826MPD2    C412203   1.138   0.130  13.466  0.6427 -0.2338  0.4726
  826MPD2    C512204   1.099   0.001  13.498  0.2924 -0.1968  0.0219
  826MPD2     H12205   1.441   0.056  13.337 -1.9157 -0.2153 -1.6665
  826MPD2    H112206   1.056   0.202  13.469  1.2677  0.4782  0.3304
  826MPD2    H212207   1.148   4.533  13.522 -0.0069 -0.4520 -1.1598
  826MPD2    H312208   1.001   4.726  13.543  0.9141 -4.8580  0.4352
  826MPD2     N12209   1.295   0.276  13.384 -0.0522  0.0731 -0.0212
  826MPD2    H512210   1.247   0.348  13.437 -2.3077 -2.1130  0.9164
  826MPD2    N112211   1.392   4.532  13.439  0.0948 -0.2573  0.4802
  826MPD2    H712212   1.352   4.441  13.459 -1.4097  0.0748 -0.9937
  827MPD2     C12213   2.703   0.907  10.010  0.6057  0.4043 -0.9280
  827MPD2    C112214   2.729   0.798  10.083  0.3950 -0.0131 -0.3942
  827MPD2    C212215   2.724   0.674  10.021  0.1974 -0.1464  0.1220
  827MPD2    C312216   2.685   0.664   9.890 -1.1763 -0.2629  0.5634
  827MPD2    C412217   2.648   0.777   9.821  0.4300 -0.1433  0.2736
  827MPD2    C512218   2.663   0.899   9.882 -0.2367  0.4004 -0.4238
  827MPD2     H12219   2.762   0.585  10.069  0.1822 -0.7055 -0.9003
  827MPD2    H112220   2.616   0.773   9.718  0.5837  2.6696  0.1362
  827MPD2    H212221   2.702   1.005  10.056 -1.4446  0.5256 -1.2596
  827MPD2    H312222   2.643   0.988   9.823  0.3838  1.7406  1.4144
  827MPD2     N12223   2.677   0.534   9.829  0.5690 -0.3896 -0.3412
  827MPD2    H512224   2.712   0.456   9.884  1.1674  1.3380  1.7459
  827MPD2    N112225   2.770   0.813  10.222 -0.2008 -0.3957  0.0964
  827MPD2    H712226   2.775   0.905  10.264  2.6655 -0.3567 -0.3144
  828MPD2     C12227   1.202   0.921  12.656  0.0567 -0.5285  0.2980
  828MPD2    C112228   1.216   1.041  12.587 -0.4930 -0.1384  0.6874
  828MPD2    C212229   1.339   1.079  12.541 -0.5869  1.0070  0.4486
  828MPD2    C312230   1.449   1.002  12.562 -0.5933  0.4045 -0.1411
  828MPD2    C412231   1.432   0.895  12.645  0.0108  0.5925 -0.3134
  828MPD2    C512232   1.312   0.851  12.691  0.3948 -0.4420 -0.7189
  828MPD2     H12233   1.341   1.172  12.485  0.5614  0.3228 -0.6550
  828MPD2    H112234   1.521   0.839  12.672  0.2878  0.6127 -1.1836
  828MPD2    H212235   1.104   0.880  12.680 -0.8362  1.5731  0.2831
  828MPD2    H312236   1.304   0.754  12.738 -1.2680  0.5262  1.0000
  828MPD2     N12237   1.577   1.039  12.519 -0.2053  0.0485 -0.2798
  828MPD2    H512238   1.664   0.995  12.549  0.4713  1.6011  0.0520
  828MPD2    N112239   1.108   1.123  12.558  0.0901  0.3598  0.4320
  828MPD2    H712240   1.116   1.182  12.475  0.5377 -2.2708 -1.3998
  829MPD2     C12241   1.012   1.048  11.731 -0.0617 -0.9492 -0.3191
  829MPD2    C112242   0.879   1.055  11.762 -0.1013 -0.1385  0.5838
  829MPD2    C212243   0.845   1.084  11.893  0.4816 -0.4511  0.6190
  829MPD2    C312244   0.937   1.104  11.988  0.0399  0.5524 -0.0103
  829MPD2    C412245   1.074   1.087  11.960 -0.1245 -0.4848 -0.3197
  829MPD2    C512246   1.104   1.061  11.831 -0.3832 -0.1065  0.0080
  829MPD2     H12247   0.742   1.107  11.919  0.9946  0.2816  1.9906
  829MPD2    H112248   1.151   1.098  12.035  0.1985  0.5239 -0.7977
  829MPD2    H212249   1.041   1.022  11.630  2.3286 -0.4026  0.2168
  829MPD2    H312250   1.210   1.050  11.811 -0.5137 -0.1504 -0.6602
  829MPD2     N12251   0.904   1.143  12.121 -0.0346 -0.2314 -0.4116
  829MPD2    H512252   0.986   1.133  12.179  0.3263 -1.1022 -1.0653
  829MPD2    N112253   0.781   1.019  11.663  0.2693 -0.3041 -0.2134
  829MPD2    H712254   0.808   0.979  11.574  0.0322 -1.3364  0.1898
  830MPD2     C12255   1.409   3.534  15.596  0.7872 -0.7248  0.0358
  830MPD2    C112256   1.276   3.520  15.575 -0.2599 -0.1696  0.4192
  830MPD2    C212257   1.218   3.610  15.488  0.1763 -0.7001  0.5637
  830MPD2    C312258   1.292   3.706  15.419  0.0540  0.9258 -0.1119
  830MPD2    C412259   1.423   3.714  15.444  0.2119 -0.1565  0.0925
  830MPD2    C512260   1.484   3.631  15.533 -0.1360 -0.8289  0.3737
  830MPD2     H12261   1.112   3.607  15.466  0.7562 -0.3104 -2.2337
  830MPD2    H112262   1.480   3.787  15.388  0.5367 -1.0108 -0.6950
  830MPD2    H212263   1.451   3.467  15.671  3.1059 -0.8524 -1.3893
  830MPD2    H312264   1.588   3.635  15.565 -0.6113 -0.8112  1.8964
  830MPD2     N12265   1.235   3.792  15.326  0.3947 -0.5235 -0.2261
  830MPD2    H512266   1.293   3.868  15.292  0.5251 -0.3899  0.2895
  830MPD2    N112267   1.204   3.422  15.654 -0.0499  0.3933 -0.1461
  830MPD2    H712268   1.257   3.387  15.734  0.6367  0.2288 -0.6808
  831MPD2     C12269   0.978   0.345  16.415 -0.1856 -0.1877 -0.0917
  831MPD2    C112270   1.039   0.268  16.318  0.6685 -0.3632  0.0966
  831MPD2    C212271   0.987   0.140  16.296  0.6811  0.3033  0.5195
  831MPD2    C312272   0.869   0.100  16.357 -0.3441 -0.4309  0.2813
  831MPD2    C412273   0.823   0.175  16.466 -0.4126 -0.1458  0.5984
  831MPD2    C512274   0.872   0.300  16.486  0.0647 -0.4206 -0.0823
  831MPD2     H12275   1.024   0.086  16.209 -0.6692  2.9643 -1.7082
  831MPD2    H112276   0.729   0.149  16.513 -1.5959  1.3754 -0.9545
  831MPD2    H212277   1.009   0.447  16.432 -1.7439  0.2675  0.0860
  831MPD2    H312278   0.832   0.357  16.569 -1.5807  1.0863 -1.9118
  831MPD2     N12279   0.786   4.725  16.313 -0.5417 -0.1759 -0.4114
  831MPD2    H512280   0.702   4.700  16.364  0.7962 -0.7798  1.4552
  831MPD2    N112281   1.136   0.314  16.223  0.1806 -0.5611  0.4049
  831MPD2    H712282   1.175   0.249  16.156  0.5454 -0.1188  0.1903
  832MPD2     C12283   4.399   1.419  17.088 -0.5614 -1.0354  0.5058
  832MPD2    C112284   4.395   1.553  17.076 -0.0486  0.3484 -0.5010
  832MPD2    C212285   4.278   1.616  17.038 -0.6210  0.6574  0.4619
  832MPD2    C312286   4.166   1.535  16.995 -0.0933  0.1814  0.6891
  832MPD2    C412287   4.182   1.404  17.003 -0.0127  0.6459  0.0041
  832MPD2    C512288   4.291   1.347  17.059 -0.8780 -0.9429 -0.3779
  832MPD2     H12289   4.269   1.719  17.005  1.3320  0.4200 -0.8474
  832MPD2    H112290   4.098   1.340  16.978 -0.0643  0.7868 -0.1787
  832MPD2    H212291   4.485   1.369  17.131 -0.9972 -2.4965 -0.3367
  832MPD2    H312292   4.298   1.240  17.076 -1.1617 -0.9825 -0.5085
  832MPD2     N12293   4.051   1.590  16.933  0.3142  0.3180 -0.2572
  832MPD2    H512294   3.980   1.521  16.913 -1.4361  1.9237  0.4226
  832MPD2    N112295   4.516   1.619  17.093 -0.3346 -0.3342 -0.3883
  832MPD2    H712296   4.595   1.558  17.110 -2.3650 -2.0282  2.9219
  833MPD2     C12297   1.463   3.858  12.568  0.0274  0.0256  0.0158
  833MPD2    C112298   1.409   3.935  12.460 -0.2104 -0.2870 -0.7010
  833MPD2    C212299   1.450   3.906  12.333  0.2508  0.2425  0.5343
  833MPD2    C312300   1.558   3.818  12.317 -0.2077 -0.0283  0.3042
  833MPD2    C412301   1.618   3.753  12.423 -0.0991  0.4874 -0.1442
  833MPD2    C512302   1.572   3.772  12.548 -0.2631 -0.4295 -0.2469
  833MPD2     H12303   1.392   3.948  12.252  0.0942  0.0549  0.5480
  833MPD2    H112304   1.695   3.678  12.409 -0.7955  0.0347 -1.5190
  833MPD2    H212305   1.437   3.869  12.673 -3.0800 -0.1223 -0.7324
  833MPD2    H312306   1.613   3.711  12.629 -0.2886  1.7468  1.4098
  833MPD2     N12307   1.598   3.787  12.187 -0.3874 -0.4847  0.1246
  833MPD2    H512308   1.665   3.711  12.186  1.5360  1.1864  1.7027
  833MPD2    N112309   1.283   3.991  12.479 -0.3630  0.0263 -0.0384
  833MPD2    H712310   1.235   3.956  12.561 -0.0044 -0.1422  0.0987
  834MPD2     C12311   1.751   2.963  11.698  0.9051 -0.1242  0.2827
  834MPD2    C112312   1.644   3.017  11.632  0.5802 -0.3315 -0.8903
  834MPD2    C212313   1.608   3.149  11.647  0.2278 -0.0750 -0.9502
  834MPD2    C312314   1.689   3.230  11.734 -0.1496  0.0864  0.5905
  834MPD2    C412315   1.805   3.173  11.789 -0.3900  0.5649  0.5635
  834MPD2    C512316   1.827   3.043  11.774  0.1456 -0.0232  0.3592
  834MPD2     H12317   1.524   3.197  11.599  1.1096  1.0295 -1.4133
  834MPD2    H112318   1.881   3.234  11.837 -0.0781  0.7016 -0.1132
  834MPD2    H212319   1.780   2.859  11.693 -0.0988 -0.1721 -4.0601
  834MPD2    H312320   1.921   2.999  11.804  0.5918 -0.2396 -1.3646
  834MPD2     N12321   1.646   3.364  11.750 -0.1557  0.2349 -0.2132
  834MPD2    H512322   1.560   3.391  11.704 -0.2919  1.0425  0.5278
  834MPD2    N112323   1.568   2.927  11.559  0.4098  0.0059 -0.5245
  834MPD2    H712324   1.612   2.836  11.546  0.0922  0.2565 -3.4894
  835MPD2     C12325   1.850   0.721  10.934  0.8365 -0.8230 -0.2700
  835MPD2    C112326   1.745   0.802  10.966 -0.2590  0.7615 -0.2647
  835MPD2    C212327   1.749   0.861  11.093 -0.1805  0.3685  0.6135
  835MPD2    C312328   1.842   0.805  11.186  0.2707 -0.3577 -0.8528
  835MPD2    C412329   1.943   0.720  11.152  0.2453 -0.2628  0.2335
  835MPD2    C512330   1.948   0.688  11.018 -0.6476  0.1720  0.1794
  835MPD2     H12331   1.691   0.948  11.122  1.5320  1.0760  1.9637
  835MPD2    H112332   2.016   0.687  11.225  0.0063  0.5613  0.8365
  835MPD2    H212333   1.848   0.675  10.836 -0.2328 -0.0950 -0.6025
  835MPD2    H312334   2.020   0.617  10.979 -1.3444  0.1319 -1.0223
  835MPD2     N12335   1.838   0.841  11.325 -0.1693  0.1292 -0.0995
  835MPD2    H512336   1.905   0.795  11.386 -1.1198 -0.0885  0.7788
  835MPD2    N112337   1.642   0.838  10.875 -0.0456  0.3730 -0.1092
  835MPD2    H712338   1.594   0.924  10.897 -1.4735 -0.4315 -0.0670
  836MPD2     C12339   1.225   1.204  11.476 -0.2610  0.6996 -0.0490
  836MPD2    C112340   1.308   1.217  11.591  0.3246  0.3986 -0.8568
  836MPD2    C212341   1.260   1.291  11.701  0.4297 -0.1413 -0.6244
  836MPD2    C312342   1.143   1.368  11.676  0.3521 -0.0647 -0.3187
  836MPD2    C412343   1.073   1.371  11.563  0.1167  0.9736 -0.3340
  836MPD2    C512344   1.113   1.291  11.461 -0.1104  0.1131  0.5610
  836MPD2     H12345   1.307   1.285  11.798  0.9768 -0.1734 -0.8919
  836MPD2    H112346   0.976   1.420  11.553 -2.1449 -2.7223  3.2418
  836MPD2    H212347   1.260   1.142  11.394  0.4648 -0.1087  0.8731
  836MPD2    H312348   1.052   1.293  11.372  0.8511 -2.4648 -0.1388
  836MPD2     N12349   1.080   1.429  11.791  0.1366 -0.1214  0.3545
  836MPD2    H512350   0.994   1.476  11.765 -0.6314 -1.5984  0.1918
  836MPD2    N112351   1.427   1.139  11.592 -0.2304 -0.5618 -0.5097
  836MPD2    H712352   1.460   1.097  11.506 -1.2586  0.2209 -1.2835
  837MPD2     C12353   4.603   0.629  10.258  0.3047 -0.4137 -1.4741
  837MPD2    C112354   4.468   0.655  10.295  0.8386  0.2197 -0.4905
  837MPD2    C212355   4.440   0.781  10.344 -0.4980  0.3652  0.0377
  837MPD2    C312356   4.537   0.877  10.350 -0.2186  0.6947 -0.3676
  837MPD2    C412357   4.666   0.850  10.310  0.6211  0.4876 -0.2969
  837MPD2    C512358   4.700   0.722  10.265  0.1225 -0.3542  0.1869
  837MPD2     H12359   4.340   0.810  10.373 -0.7964  0.9929 -1.6430
  837MPD2    H112360   4.733   0.934  10.292  1.0552 -0.0423 -1.1443
  837MPD2    H212361   4.621   0.527  10.223 -0.0454 -0.1778 -2.3451
  837MPD2    H312362   0.064   0.697  10.228 -0.5045 -0.6664 -1.2578
  837MPD2     N12363   4.492   1.008  10.379  0.0024 -0.7103 -0.2879
  837MPD2    H512364   4.398   1.019  10.417  0.8890  0.5887  1.4695
  837MPD2    N112365   4.354   0.573  10.275  0.2226  0.2011 -0.0013
  837MPD2    H712366   4.270   0.604  10.323  1.1021  1.0475  1.0062
  838MPD2     C12367   3.217   3.861  11.945 -0.5564 -0.4390 -0.4250
  838MPD2    C112368   3.143   3.744  11.936 -0.6163 -0.5995 -0.8608
  838MPD2    C212369   3.045   3.712  12.037  0.0371  0.0057  0.6057
  838MPD2    C312370   3.026   3.797  12.144  0.1073  0.1010  0.1002
  838MPD2    C412371   3.108   3.905  12.155 -0.6177  0.6564  0.3640
  838MPD2    C512372   3.187   3.944  12.050  0.3904  0.5132  0.2366
  838MPD2     H12373   2.997   3.615  12.033 -0.2860  0.1690  0.6063
  838MPD2    H112374   3.101   3.968  12.243  2.0910 -0.7735  1.5785
  838MPD2    H212375   3.290   3.888  11.870 -1.1068  0.9092 -0.4868
  838MPD2    H312376   3.248   4.033  12.063  0.4595  0.2712  1.5848
  838MPD2     N12377   2.927   3.763  12.239 -0.2827  0.5186 -0.5499
  838MPD2    H512378   2.883   3.671  12.232 -1.7047  1.3302 -2.4496
  838MPD2    N112379   3.153   3.657  11.820  0.1785  0.3704  0.1935
  838MPD2    H712380   3.088   3.579  11.819  0.1475  0.3981 -0.0804
  839MPD2     C12381   2.520   3.089  11.727 -0.1300  0.2051 -0.1043
  839MPD2    C112382   2.566   3.095  11.594  0.4848  0.2833  0.5854
  839MPD2    C212383   2.674   3.177  11.563 -0.1908 -0.9549 -0.2996
  839MPD2    C312384   2.732   3.265  11.666  0.3323  0.0099  0.2817
  839MPD2    C412385   2.680   3.258  11.793 -0.4421  0.6579 -0.7669
  839MPD2    C512386   2.579   3.168  11.823  0.8703  0.4666  0.6526
  839MPD2     H12387   2.700   3.178  11.458 -0.3793 -2.1590 -0.3548
  839MPD2    H112388   2.721   3.318  11.873 -2.9120 -1.0217  1.7918
  839MPD2    H212389   2.443   3.019  11.757 -0.6412  1.0641  0.5992
  839MPD2    H312390   2.540   3.152  11.923 -2.8577  0.1402 -0.8361
  839MPD2     N12391   2.835   3.360  11.648  0.2368  0.2807  0.3477
  839MPD2    H512392   2.875   3.402  11.731  0.5530  0.7589 -0.0489
  839MPD2    N112393   2.525   3.008  11.485  0.3781  0.3370  0.2955
  839MPD2    H712394   2.577   3.025  11.399  1.5087 -0.7702  0.7500
  840MPD2     C12395   3.225   1.210  10.284 -0.0307  0.4562 -0.1302
  840MPD2    C112396   3.182   1.182  10.416 -0.3545 -0.1083 -0.4109
  840MPD2    C212397   3.212   1.266  10.516 -0.8486  0.3513  0.6507
  840MPD2    C312398   3.275   1.386  10.486 -0.3568 -0.1412 -1.0851
  840MPD2    C412399   3.310   1.422  10.362 -0.8461 -0.2564  0.1600
  840MPD2    C512400   3.294   1.328  10.259  0.1117 -0.3754 -0.0448
  840MPD2     H12401   3.189   1.253  10.621 -2.0537 -0.4155  0.2955
  840MPD2    H112402   3.366   1.513  10.344 -1.0714 -0.2493 -0.5385
  840MPD2    H212403   3.209   1.138  10.204  1.2052 -0.4666  0.4612
  840MPD2    H312404   3.339   1.344  10.162 -0.6489 -1.9323 -0.6507
  840MPD2     N12405   3.317   1.476  10.589 -0.7627  0.1213  0.4295
  840MPD2    H512406   3.361   1.562  10.556 -3.0774  1.4559  0.8384
  840MPD2    N112407   3.108   1.060  10.428 -0.0904 -0.8665  0.2250
  840MPD2    H712408   3.066   1.017  10.346  0.7147 -0.6948 -0.2695
  841MPD2     C12409   2.587   0.724  14.972  0.2224 -0.2665  0.4024
  841MPD2    C112410   2.632   0.693  14.840  0.4084  0.5392  0.0057
  841MPD2    C212411   2.671   0.794  14.760 -0.0510 -0.2575  0.5959
  841MPD2    C312412   2.666   0.923  14.802 -0.2270  0.4334  0.1380
  841MPD2    C412413   2.624   0.951  14.934 -0.2767 -0.0874  0.4537
  841MPD2    C512414   2.586   0.853  15.018  0.2834 -0.2316  0.8087
  841MPD2     H12415   2.681   0.762  14.657  2.6900  1.2418  0.4154
  841MPD2    H112416   2.628   1.049  14.979  0.4516 -0.2681  0.7772
  841MPD2    H212417   2.561   0.653  15.050 -0.5528 -0.3926  0.0335
  841MPD2    H312418   2.557   0.869  15.121 -0.7514 -1.2776  0.6865
  841MPD2     N12419   2.729   1.020  14.721 -0.1491  0.0272 -0.3649
  841MPD2    H512420   2.780   0.978  14.643  2.9906  1.6669  0.7965
  841MPD2    N112421   2.652   0.562  14.798 -0.4212  0.0662 -0.4391
  841MPD2    H712422   2.675   0.546  14.700  0.0956  0.9564 -0.4639
  842MPD2     C12423   3.330   2.102  16.942 -0.0563 -0.4585  0.8726
  842MPD2    C112424   3.309   1.977  16.879  0.0274 -0.5479  0.0241
  842MPD2    C212425   3.302   1.866  16.964  0.3136  0.3236  0.4348
  842MPD2    C312426   3.320   1.882  17.099  0.6185  0.5947 -0.5833
  842MPD2    C412427   3.348   2.007  17.151  0.0013 -0.5361 -0.1649
  842MPD2    C512428   3.360   2.121  17.071  0.1422 -0.3912  0.1883
  842MPD2     H12429   3.295   1.762  16.934  2.4569  0.6197 -1.1588
  842MPD2    H112430   3.359   2.022  17.258  1.3671  0.3964 -0.4442
  842MPD2    H212431   3.339   2.196  16.889  1.2994  0.1014  2.1053
  842MPD2    H312432   3.378   2.219  17.112  0.3221 -0.0470 -0.6966
  842MPD2     N12433   3.283   1.782  17.190  0.0317 -0.8874 -0.3461
  842MPD2    H512434   3.298   1.812  17.286  1.6040  1.1684 -1.2457
  842MPD2    N112435   3.282   1.956  16.744 -0.0123  0.1020  0.6285
  842MPD2    H712436   3.256   2.036  16.686 -0.3946 -0.2704  0.2817
  843MPD2     C12437   0.700   2.472  17.488  0.7431  0.6453 -0.0929
  843MPD2    C112438   0.796   2.378  17.514  0.0078 -0.3429  0.3319
  843MPD2    C212439   0.926   2.421  17.524  0.2462 -0.5731 -0.1582
  843MPD2    C312440   0.951   2.557  17.518  0.2200  0.0042  0.2817
  843MPD2    C412441   0.856   2.646  17.520  0.2125  0.0638  0.6543
  843MPD2    C512442   0.730   2.605  17.495 -1.0245  0.2722  0.4341
  843MPD2     H12443   1.003   2.345  17.533  0.9406  0.3297  1.5087
  843MPD2    H112444   0.877   2.752  17.518 -1.0766  0.2960 -1.0757
  843MPD2    H212445   0.598   2.451  17.460  0.0821  1.3022  1.8553
  843MPD2    H312446   0.642   2.668  17.481  0.5467  2.5386  0.8290
  843MPD2     N12447   1.078   2.617  17.543  0.3348 -0.2301 -0.0391
  843MPD2    H512448   1.080   2.717  17.557 -0.5543 -0.0605 -1.2377
  843MPD2    N112449   0.760   2.243  17.545 -0.0530  0.0511 -0.2541
  843MPD2    H712450   0.666   2.219  17.515 -0.8343  0.1714  2.1171
  844MPD2     C12451   3.651   1.392  16.455 -0.5130  0.3495  0.4530
  844MPD2    C112452   3.740   1.278  16.449 -0.7789  0.5331 -0.1324
  844MPD2    C212453   3.869   1.294  16.489  0.4248 -0.9421  0.4943
  844MPD2    C312454   3.923   1.408  16.535  0.4137 -0.1234 -0.1097
  844MPD2    C412455   3.836   1.512  16.540 -0.0018 -0.1980 -0.0615
  844MPD2    C512456   3.705   1.501  16.502 -0.6107 -0.3768  0.1317
  844MPD2     H12457   3.942   1.214  16.478  2.6270  1.2597 -0.9296
  844MPD2    H112458   3.881   1.605  16.572  1.2676 -0.3362 -1.4312
  844MPD2    H212459   3.543   1.382  16.446 -0.4717  0.7746 -0.5344
  844MPD2    H312460   3.647   1.592  16.517 -1.2077 -0.5485 -1.1052
  844MPD2     N12461   4.061   1.414  16.578 -0.2117 -0.2135  0.0963
  844MPD2    H512462   4.107   1.327  16.605 -1.7615 -0.6852  1.2277
  844MPD2    N112463   3.705   1.153  16.393  0.5698  0.1653 -0.9071
  844MPD2    H712464   3.778   1.083  16.386  0.4134 -0.0277 -0.6314
  845MPD2     C12465   4.602   2.232  16.743  0.4057 -0.1993  0.1231
  845MPD2    C112466   4.504   2.205  16.831 -0.0703  0.0448  0.1154
  845MPD2    C212467   4.474   2.072  16.849 -0.2840 -0.1446 -0.7401
  845MPD2    C312468   4.518   1.981  16.755  0.4163 -0.1649 -0.2406
  845MPD2    C412469   4.605   2.013  16.654  0.0507  0.2765  0.5836
  845MPD2    C512470   4.648   2.136  16.660  0.0727 -0.0641 -0.0914
  845MPD2     H12471   4.414   2.050  16.937  0.9551 -1.4726 -0.2325
  845MPD2    H112472   4.648   1.937  16.589  0.9051  1.2586 -0.0098
  845MPD2    H212473   4.636   2.335  16.740 -3.4145  1.0302 -1.2582
  845MPD2    H312474   4.725   2.174  16.594 -0.4477 -0.3007 -0.8336
  845MPD2     N12475   4.472   1.847  16.777 -0.5096 -0.2254 -0.5358
  845MPD2    H512476   4.394   1.828  16.839  0.0119 -0.1070  0.1574
  845MPD2    N112477   4.446   2.307  16.905  0.6524  0.2180 -0.6278
  845MPD2    H712478   4.472   2.404  16.887  2.8256 -0.1173  0.6276
  846MPD2     C12479   0.805   2.987  13.309  0.2112 -0.1595 -0.2655
  846MPD2    C112480   0.729   3.103  13.300 -0.5341  0.2616 -0.1743
  846MPD2    C212481   0.657   3.145  13.412 -0.1290 -0.0312  0.4602
  846MPD2    C312482   0.662   3.071  13.528  0.0805  0.2647  0.0856
  846MPD2    C412483   0.732   2.951  13.532 -0.3418  0.2586 -0.2142
  846MPD2    C512484   0.802   2.907  13.419 -0.1062  0.6585  0.1081
  846MPD2     H12485   0.589   3.229  13.406 -0.4754 -0.3485 -0.1059
  846MPD2    H112486   0.737   2.892  13.623 -2.3768 -0.5008 -0.5998
  846MPD2    H212487   0.842   2.950  13.214  0.6491 -2.7021  0.8794
  846MPD2    H312488   0.842   2.806  13.416 -3.3495 -0.6338 -0.4270
  846MPD2     N12489   0.583   3.126  13.633  0.1017  0.0510  0.1958
  846MPD2    H512490   0.548   3.219  13.612  2.2767  0.8087 -0.1148
  846MPD2    N112491   0.747   3.179  13.182  0.0347  0.8221  0.2932
  846MPD2    H712492   0.797   3.147  13.100  1.8620 -0.1601  1.7816
  847MPD2     C12493   0.856   4.521  14.995 -0.3144 -0.1163 -0.2693
  847MPD2    C112494   0.923   4.558  14.882 -1.0323 -0.3488  0.4419
  847MPD2    C212495   1.045   4.498  14.848  0.2396  0.2805 -0.8300
  847MPD2    C312496   1.100   4.401  14.931  0.0265  0.5648 -0.4191
  847MPD2    C412497   1.034   4.368  15.046  0.8634 -0.5516 -0.5329
  847MPD2    C512498   0.909   4.426  15.074  0.6497  0.3080  1.3150
  847MPD2     H12499   1.101   4.529  14.761 -1.1354  0.1378 -1.7598
  847MPD2    H112500   1.081   4.298  15.113 -1.0074  2.3268  3.7781
  847MPD2    H212501   0.755   4.554  15.015 -0.1169  0.1691  0.2607
  847MPD2    H312502   0.844   4.387  15.151 -0.2071  0.1674  0.5235
  847MPD2     N12503   1.224   4.349  14.897 -0.1439  0.2030  0.2737
  847MPD2    H512504   1.260   4.392  14.812 -1.5664  1.9459  0.5549
  847MPD2    N112505   0.873   4.657  14.790 -0.3236 -0.1226 -0.3148
  847MPD2    H712506   0.930   4.666  14.706  1.6818 -1.2233  0.9482
  848MPD2     C12507   3.575   1.872  16.382 -0.3642 -0.2323 -0.3390
  848MPD2    C112508   3.666   1.962  16.432  0.0145  0.0677  0.0372
  848MPD2    C212509   3.721   2.058  16.356 -0.1775  0.1990  0.4787
  848MPD2    C312510   3.682   2.071  16.223 -0.1989 -0.6042  0.3609
  848MPD2    C412511   3.591   1.986  16.165 -0.6177 -0.0732  0.2334
  848MPD2    C512512   3.539   1.887  16.250  0.7433  0.7577  0.8283
  848MPD2     H12513   3.792   2.133  16.388 -0.9990  0.6433  1.2835
  848MPD2    H112514   3.574   1.984  16.058  0.3492 -0.8177  0.0902
  848MPD2    H212515   3.538   1.788  16.439  1.1353  2.4741  4.7176
  848MPD2    H312516   3.469   1.819  16.203  2.3063  0.3760 -0.9597
  848MPD2     N12517   3.738   2.168  16.141  0.9665  0.6632  0.6686
  848MPD2    H512518   3.698   2.171  16.048  0.1197 -2.3591  0.9332
  848MPD2    N112519   3.724   1.945  16.564 -0.0329  0.6635  0.6341
  848MPD2    H712520   3.801   2.007  16.587 -0.6149  1.0286  1.6010
  849MPD2     C12521   2.741   1.486  14.190  0.3703 -0.7455  0.0473
  849MPD2    C112522   2.797   1.568  14.094  0.1909 -0.1461  0.3030
  849MPD2    C212523   2.932   1.547  14.076  0.2159  0.3598  0.8429
  849MPD2    C312524   3.016   1.461  14.150 -0.4570  0.0227 -0.6460
  849MPD2    C412525   2.957   1.390  14.243 -0.4454 -0.5126  0.4805
  849MPD2    C512526   2.819   1.392  14.249  0.8328 -0.1781  0.3212
  849MPD2     H12527   2.976   1.602  13.994 -2.4477 -0.4947 -1.1590
  849MPD2    H112528   3.016   1.329  14.311 -1.0425 -2.3701 -0.6624
  849MPD2    H212529   2.634   1.486  14.207  0.2713  0.4690 -0.5455
  849MPD2    H312530   2.778   1.333  14.331  1.1954 -0.1125  0.5486
  849MPD2     N12531   3.151   1.442  14.115 -0.0301 -0.7616 -0.1421
  849MPD2    H512532   3.174   1.474  14.022  1.6993  1.2015  0.9652
  849MPD2    N112533   2.712   1.648  14.015 -0.5241 -0.1693 -0.4463
  849MPD2    H712534   2.612   1.637  14.015 -0.7593  1.9630  1.3946
  850MPD2     C12535   0.851   0.562  14.643  0.0681 -0.1707  0.0976
  850MPD2    C112536   0.862   0.489  14.754 -0.2585 -0.2327  0.3341
  850MPD2    C212537   0.983   0.449  14.801  0.6064 -1.1388 -0.0556
  850MPD2    C312538   1.096   0.466  14.727  0.0929 -0.6710  0.5626
  850MPD2    C412539   1.093   0.545  14.613 -0.1258  0.6863 -0.0664
  850MPD2    C512540   0.967   0.595  14.582  0.3076  0.1436 -0.4133
  850MPD2     H12541   0.995   0.382  14.885 -0.2976  1.6514  2.3039
  850MPD2    H112542   1.178   0.574  14.552 -0.9098  1.4638 -0.8094
  850MPD2    H212543   0.753   0.587  14.603 -0.4604 -1.6541  0.4928
  850MPD2    H312544   0.954   0.643  14.486 -0.2744  1.5645  0.3789
  850MPD2     N12545   1.222   0.405  14.752 -0.8087  0.1378 -0.1829
  850MPD2    H512546   1.300   0.432  14.693  0.8553  0.6318  2.2504
  850MPD2    N112547   0.735   0.448  14.807 -0.2859  0.2769  0.0120
  850MPD2    H712548   0.654   0.479  14.755 -1.0009  0.3311  1.1575
  851MPD2     C12549   1.257   0.020  15.447  0.4860 -0.3110  0.3123
  851MPD2    C112550   1.143   0.011  15.364  0.2310 -0.3054 -0.4599
  851MPD2    C212551   1.097   4.619  15.338 -0.4928  1.0565 -0.1542
  851MPD2    C312552   1.155   4.502  15.380  0.5704  1.0949 -0.4436
  851MPD2    C412553   1.268   4.514  15.450 -0.3866 -0.4601  1.3453
  851MPD2    C512554   1.324   4.638  15.486 -0.3621  0.8604 -1.1143
  851MPD2     H12555   1.013   4.610  15.271  1.4079 -0.6836 -2.3361
  851MPD2    H112556   1.325   4.429  15.486 -1.2013 -0.4531  2.6485
  851MPD2    H212557   1.284   0.117  15.486  0.5629 -0.2128  0.0198
  851MPD2    H312558   1.413   4.648  15.548 -0.3565 -0.5590 -0.8869
  851MPD2     N12559   1.083   4.385  15.344 -0.3382 -0.0107 -0.0549
  851MPD2    H512560   1.002   4.409  15.287 -0.6798  0.2870  0.5643
  851MPD2    N112561   1.082   0.132  15.316 -0.1890  0.1039 -0.2137
  851MPD2    H712562   1.113   0.220  15.356 -3.8651 -0.5626  4.0555
  852MPD2     C12563   0.626   2.343   9.999  0.2124  0.2010  0.5511
  852MPD2    C112564   0.702   2.396  10.097 -0.0593 -0.0598  0.3793
  852MPD2    C212565   0.824   2.436  10.067  0.1173  0.5005 -0.1753
  852MPD2    C312566   0.882   2.424   9.943 -0.0965  0.4669  0.8765
  852MPD2    C412567   0.809   2.359   9.841  0.6233  0.4742  0.0485
  852MPD2    C512568   0.683   2.325   9.876 -0.4042 -0.0506  0.1553
  852MPD2     H12569   0.881   2.498  10.135 -1.5643  0.9907  0.7898
  852MPD2    H112570   0.851   2.327   9.746 -0.0223  0.9963 -0.4119
  852MPD2    H212571   0.521   2.318  10.008  0.1946  0.0142 -0.1707
  852MPD2    H312572   0.629   2.266   9.803 -1.9649  1.0301  0.4397
  852MPD2     N12573   1.018   2.464   9.934 -0.4898 -0.0251  0.2518
  852MPD2    H512574   1.055   2.513  10.015 -2.3421  0.0912  1.0321
  852MPD2    N112575   0.649   2.428  10.226 -0.1684  0.3174  0.0672
  852MPD2    H712576   0.706   2.483  10.289  0.9528 -0.6512 -0.1101
  853MPD2     C12577   2.825   2.601  12.272  0.0185  0.3809  0.7952
  853MPD2    C112578   2.717   2.511  12.304  0.5702 -1.0294  0.1654
  853MPD2    C212579   2.671   2.422  12.202  0.4274 -0.2337  0.1141
  853MPD2    C312580   2.749   2.414  12.091 -0.1873 -0.9994 -0.5536
  853MPD2    C412581   2.864   2.486  12.072  0.2109 -0.5252  0.5653
  853MPD2    C512582   2.895   2.584  12.158  0.0953 -0.5156 -0.0282
  853MPD2     H12583   2.583   2.362  12.219  1.5287 -1.5141  1.2192
  853MPD2    H112584   2.923   2.480  11.982 -0.7789 -0.6443 -0.0742
  853MPD2    H212585   2.861   2.668  12.349 -1.3155  0.3694  1.4295
  853MPD2    H312586   2.980   2.649  12.135 -0.2000 -0.0300  0.2523
  853MPD2     N12587   2.718   2.319  11.993 -0.6912 -0.0250  0.1734
  853MPD2    H512588   2.784   2.297  11.918  0.2542 -2.2126  1.6591
  853MPD2    N112589   2.664   2.523  12.431 -0.2645 -0.1158  0.3312
  853MPD2    H712590   2.700   2.597  12.489  0.3633 -1.1454  1.2593
  854MPD2     C12591   4.342   2.745  13.288 -0.3033 -0.1638 -0.1061
  854MPD2    C112592   4.283   2.624  13.240  0.2873  0.7411 -0.3232
  854MPD2    C212593   4.355   2.502  13.246  0.6111 -0.1509 -0.6600
  854MPD2    C312594   4.486   2.499  13.289 -0.3412  1.2771 -0.2744
  854MPD2    C412595   4.524   2.613  13.362 -0.3110  0.5289 -0.3878
  854MPD2    C512596   4.456   2.735  13.353 -0.2274  0.1248 -0.6765
  854MPD2     H12597   4.322   2.406  13.210 -2.5150  1.0817 -1.0693
  854MPD2    H112598   4.622   2.607  13.410 -0.3178 -0.7681 -0.5312
  854MPD2    H212599   4.294   2.842  13.288 -2.5077 -1.2591  3.2334
  854MPD2    H312600   4.499   2.815  13.413 -1.0087 -0.7701  1.0925
  854MPD2     N12601   4.563   2.387  13.301 -0.0281  0.2073  0.4614
  854MPD2    H512602   4.655   2.398  13.344  0.4720 -1.0790 -0.2697
  854MPD2    N112603   4.158   2.629  13.186 -0.8648 -1.0136 -0.3665
  854MPD2    H712604   4.129   2.545  13.138 -0.8522 -0.9868 -0.4209
  855MPD2     C12605   0.279   2.172  13.973 -0.9967  0.1344 -0.5380
  855MPD2    C112606   0.228   2.056  13.937 -0.5800 -0.0879  0.3452
  855MPD2    C212607   0.190   2.037  13.804 -0.3725 -0.2300 -0.4905
  855MPD2    C312608   0.210   2.144  13.711 -0.0925  0.0318 -0.0519
  855MPD2    C412609   0.263   2.263  13.756  0.0387 -0.4298  0.2748
  855MPD2    C512610   0.305   2.277  13.882  0.3395 -0.3670  0.2498
  855MPD2     H12611   0.159   1.940  13.767 -0.0615  0.0691 -1.5370
  855MPD2    H112612   0.281   2.340  13.682 -0.1025  0.5729  1.2947
  855MPD2    H212613   0.325   2.184  14.071 -4.2124 -0.9310  1.0970
  855MPD2    H312614   0.353   2.367  13.918 -0.6355  0.3871 -0.3404
  855MPD2     N12615   0.154   2.141  13.580  0.2872  0.3954 -0.4250
  855MPD2    H512616   0.137   2.232  13.536  1.5511  1.0437  0.4380
  855MPD2    N112617   0.219   1.943  14.023 -0.2799  0.0729 -0.8063
  855MPD2    H712618   0.182   1.856  13.987  4.3223 -2.5118  0.7655
  856MPD2     C12619   1.858   2.610  13.860  0.6821 -0.6559  0.0271
  856MPD2    C112620   1.862   2.748  13.860  1.0285  0.4768 -0.3499
  856MPD2    C212621   1.744   2.821  13.844  0.3833 -0.6352  0.2022
  856MPD2    C312622   1.626   2.749  13.826  0.0117  0.0608 -0.0377
  856MPD2    C412623   1.627   2.611  13.830  0.3101 -0.4743  0.4648
  856MPD2    C512624   1.738   2.544  13.862 -0.4357 -1.1657  0.7957
  856MPD2     H12625   1.747   2.929  13.832  1.5558 -0.6291  0.5089
  856MPD2    H112626   1.535   2.559  13.806  1.1085 -1.7844  0.2485
  856MPD2    H212627   1.946   2.550  13.878 -0.3257 -1.6149  1.8442
  856MPD2    H312628   1.726   2.437  13.874 -0.1009 -1.4638 -1.5899
  856MPD2     N12629   1.502   2.809  13.799 -0.0944  0.1094 -0.8319
  856MPD2    H512630   1.418   2.754  13.783 -0.2732  0.2140 -0.2377
  856MPD2    N112631   1.985   2.818  13.878 -0.9168 -0.1733  0.6748
  856MPD2    H712632   1.987   2.917  13.860 -0.9673 -0.4143 -0.6047
  857MPD2     C12633   3.335   0.481  13.025  0.0641 -0.0244 -0.1638
  857MPD2    C112634   3.437   0.506  12.940  0.3486 -0.1987 -0.2102
  857MPD2    C212635   3.507   0.620  12.977  0.1480 -0.0578  0.6803
  857MPD2    C312636   3.480   0.705  13.078 -0.3334  0.8203  0.2510
  857MPD2    C412637   3.373   0.675  13.158 -0.1522 -0.5572 -0.5075
  857MPD2    C512638   3.309   0.558  13.139  0.3344  0.2656  0.0185
  857MPD2     H12639   3.592   0.649  12.915 -1.6931  1.7741 -0.9963
  857MPD2    H112640   3.343   0.733  13.245 -1.2234 -2.3730  0.3353
  857MPD2    H212641   3.261   0.403  13.017  0.1686 -0.1761  0.3241
  857MPD2    H312642   3.224   0.528  13.199  1.4242  0.0634  1.4632
  857MPD2     N12643   3.559   0.817  13.105  0.2452  0.4764 -0.1733
  857MPD2    H512644   3.649   0.823  13.060  0.4338 -0.3922  0.0799
  857MPD2    N112645   3.454   0.427  12.826 -0.3558  0.6834  0.1748
  857MPD2    H712646   3.408   0.337  12.837  1.6782 -0.5170 -1.1645
  858MPD2     C12647   4.418   4.072  16.638 -0.1600  0.0793  0.2015
  858MPD2    C112648   4.437   3.960  16.714  0.6376 -0.2784  0.3244
  858MPD2    C212649   4.438   3.974  16.854  0.0993 -0.3834 -0.0025
  858MPD2    C312650   4.418   4.100  16.906 -0.0759  0.3423 -0.2911
  858MPD2    C412651   4.393   4.212  16.827 -0.3631 -0.0960 -0.6195
  858MPD2    C512652   4.394   4.193  16.692 -0.0849  0.2615  0.0934
  858MPD2     H12653   4.451   3.893  16.925  1.6840 -0.1137  0.0179
  858MPD2    H112654   4.376   4.311  16.866  1.4512  0.7901 -2.0987
  858MPD2    H212655   4.420   4.065  16.530  3.1984 -1.7180  0.3722
  858MPD2    H312656   4.389   4.283  16.632 -4.3125 -0.2788 -0.3798
  858MPD2     N12657   4.437   4.136  17.042 -0.1481 -0.4374  0.6077
  858MPD2    H512658   4.442   4.236  17.062 -0.3332 -0.2990 -0.0282
  858MPD2    N112659   4.465   3.845  16.637  0.8943 -0.1474  0.4142
  858MPD2    H712660   4.463   3.860  16.536 -0.3775 -0.3837  0.4112
  859MPD2     C12661   2.823   1.348  15.173 -0.2902  0.2059 -0.0743
  859MPD2    C112662   2.941   1.347  15.108 -0.0744 -0.5526 -0.5738
  859MPD2    C212663   3.017   1.230  15.111 -0.4512 -0.3514 -0.6562
  859MPD2    C312664   2.976   1.116  15.177  0.1000 -0.0168  0.9215
  859MPD2    C412665   2.849   1.123  15.240  0.8604 -0.0227 -0.1192
  859MPD2    C512666   2.779   1.238  15.231  0.0598  0.7743  0.1259
  859MPD2     H12667   3.114   1.242  15.065 -0.3348  0.4881 -0.1917
  859MPD2    H112668   2.813   1.040  15.300 -1.8864  1.0911 -0.2656
  859MPD2    H212669   2.763   1.438  15.182 -1.0954 -0.0181 -3.0643
  859MPD2    H312670   2.684   1.250  15.282 -0.2901  0.2660 -0.4100
  859MPD2     N12671   3.048   0.996  15.181 -0.0280  0.0684  0.3676
  859MPD2    H512672   2.996   0.918  15.220 -0.8563  1.2306  1.6102
  859MPD2    N112673   2.994   1.463  15.043 -0.2183 -0.0765 -0.0204
  859MPD2    H712674   3.083   1.462  14.994  0.5965  1.5501  1.4314
  860MPD2     C12675   0.390   2.217  11.502 -0.5835  0.0144  0.0094
  860MPD2    C112676   0.393   2.295  11.613  0.4825  0.1487  0.2253
  860MPD2    C212677   0.316   2.263  11.724 -0.4562  0.5488  0.1983
  860MPD2    C312678   0.232   2.157  11.715  0.1399  0.0566  0.0549
  860MPD2    C412679   0.225   2.085  11.599 -0.3565  0.3803  0.3091
  860MPD2    C512680   0.309   2.103  11.491 -0.0006  0.2875  0.1699
  860MPD2     H12681   0.318   2.317  11.818  0.5659  0.6726  0.1110
  860MPD2    H112682   0.163   1.996  11.596  1.3214 -0.7834  0.3367
  860MPD2    H212683   0.456   2.245  11.421 -1.3010 -0.2878 -0.6778
  860MPD2    H312684   0.303   2.041  11.403  2.7799  3.0579 -1.9446
  860MPD2     N12685   0.156   2.121  11.828 -0.7607  0.1557  0.2788
  860MPD2    H512686   0.112   2.029  11.824  0.6583 -0.4393 -1.6908
  860MPD2    N112687   0.477   2.408  11.608 -0.1155 -0.5038  0.0564
  860MPD2    H712688   0.491   2.445  11.514  3.4392  1.0415  1.1837
  861MPD2     C12689   4.077   0.073  11.241 -0.5131 -0.5529  1.0495
  861MPD2    C112690   4.114   0.193  11.193 -0.4086 -1.1334 -0.4573
  861MPD2    C212691   4.057   0.245  11.077  0.3469 -0.1400 -0.6999
  861MPD2    C312692   3.971   0.165  11.005 -0.1099  0.3508 -0.2841
  861MPD2    C412693   3.934   0.042  11.057  0.0394 -0.7855  0.1881
  861MPD2    C512694   3.981   4.734  11.176  0.2910 -0.2372  0.2405
  861MPD2     H12695   4.081   0.350  11.064  0.0930  0.1105  0.8668
  861MPD2    H112696   3.872   4.704  11.005 -1.1702  0.0886  0.4139
  861MPD2    H212697   4.112   0.034  11.336  0.4580 -0.3839  0.7544
  861MPD2    H312698   3.951   4.637  11.214 -2.7520  0.2101 -0.9730
  861MPD2     N12699   3.899   0.215  10.895 -0.3003 -0.1027  0.1927
  861MPD2    H512700   3.832   0.153  10.850  0.3671 -1.1261  0.5960
  861MPD2    N112701   4.208   0.276  11.257 -0.4906  0.2318  0.7347
  861MPD2    H712702   4.247   0.358  11.212  0.9034 -0.5352  0.5449
  862MPD2     C12703   3.356   0.033  10.438 -0.2970  0.2726  0.1095
  862MPD2    C112704   3.461   0.011  10.529 -0.5498 -0.4681  0.4156
  862MPD2    C212705   3.486   4.613  10.562 -0.5376 -0.4745 -0.0030
  862MPD2    C312706   3.417   4.502  10.508 -0.4193 -0.6725  0.6116
  862MPD2    C412707   3.315   4.535  10.422  0.0928 -0.2144 -0.5481
  862MPD2    C512708   3.288   4.661  10.388 -0.6156 -0.2903  0.3013
  862MPD2     H12709   3.553   4.600  10.646 -0.1975 -0.0275 -0.2043
  862MPD2    H112710   3.244   4.459  10.392 -0.7774  0.7394 -0.8721
  862MPD2    H212711   3.330   0.135  10.412 -0.9851  0.3379  1.0338
  862MPD2    H312712   3.208   4.685  10.320  1.2630 -1.3357 -2.2755
  862MPD2     N12713   3.431   4.366  10.544  0.3101 -0.6347  0.2590
  862MPD2    H512714   3.363   4.297  10.513  1.3902 -1.9367  0.7708
  862MPD2    N112715   3.547   0.111  10.574 -0.2066 -0.0011 -0.0596
  862MPD2    H712716   3.614   0.079  10.645 -1.8449 -4.6874 -0.5935
  863MPD2     C12717   2.874   2.971  16.613  0.5264  0.1717  0.0712
  863MPD2    C112718   2.763   3.012  16.696 -1.0154  0.6940 -0.1219
  863MPD2    C212719   2.793   3.036  16.834 -0.1261 -0.5139 -0.4783
  863MPD2    C312720   2.924   3.017  16.885  0.3261  0.0066 -0.6570
  863MPD2    C412721   3.021   2.975  16.799  0.2679 -0.6133 -0.8218
  863MPD2    C512722   2.994   2.947  16.669 -0.7212 -0.0879  0.7655
  863MPD2     H12723   2.720   3.076  16.904  1.4894  1.5542  0.0314
  863MPD2    H112724   3.123   2.949  16.825  0.7047  0.5825 -1.3412
  863MPD2    H212725   2.871   2.978  16.505 -0.7501 -1.5592  0.0002
  863MPD2    H312726   3.068   2.919  16.594 -0.7917  1.5066  0.1022
  863MPD2     N12727   2.967   3.020  17.019  0.5759  0.1775 -0.2300
  863MPD2    H512728   3.065   2.997  17.032 -0.2127 -2.1769  1.5690
  863MPD2    N112729   2.634   3.039  16.646 -0.6269  0.1833 -0.0974
  863MPD2    H712730   2.566   3.077  16.712 -1.6993 -2.1568  0.1442
  864MPD2     C12731   3.214   4.150  17.474  0.0362 -0.1995  0.6745
  864MPD2    C112732   3.265   4.090  17.362  0.0623 -0.4418  0.0453
  864MPD2    C212733   3.341   4.166  17.271  0.0596 -0.1721  0.4690
  864MPD2    C312734   3.362   4.302  17.292  0.0051 -0.2243 -0.3853
  864MPD2    C412735   3.305   4.365  17.398 -0.3832  0.0475  0.4046
  864MPD2    C512736   3.233   4.288  17.488  0.1365  0.2231  0.6309
  864MPD2     H12737   3.374   4.124  17.177 -1.0734  0.3499 -0.1607
  864MPD2    H112738   3.310   4.473  17.413 -0.8330  0.2693 -1.0199
  864MPD2    H212739   3.158   4.095  17.548 -0.3849  1.1607  1.3716
  864MPD2    H312740   3.217   4.338  17.582 -3.9365 -1.3806  0.7945
  864MPD2     N12741   3.422   4.390  17.193  1.0407  0.2518  0.1509
  864MPD2    H512742   3.414   4.490  17.204 -2.6176 -0.4970  4.3012
  864MPD2    N112743   3.250   3.946  17.347  0.3458  0.0573 -0.3251
  864MPD2    H712744   3.186   3.890  17.403  1.6079 -0.0687  0.9920
  865MPD2     C12745   3.414   4.644  16.395  0.0403  0.8530 -0.1709
  865MPD2    C112746   3.450   4.567  16.500  0.2662  0.4258  0.7626
  865MPD2    C212747   3.458   4.618  16.627 -0.1212  0.5435 -0.0953
  865MPD2    C312748   3.438   0.021  16.653  0.0429  0.6468  0.0167
  865MPD2    C412749   3.398   0.096  16.546  0.2913 -0.0156 -0.1905
  865MPD2    C512750   3.387   0.044  16.419 -0.6577 -0.3876  0.0590
  865MPD2     H12751   3.486   4.552  16.708 -1.4351  0.0892 -0.0037
  865MPD2    H112752   3.370   0.200  16.554 -2.2463 -0.7575  0.6019
  865MPD2    H212753   3.403   4.595  16.299 -1.4065 -0.4564  0.6620
  865MPD2    H312754   3.361   0.103  16.332 -1.2094  3.4613  2.8034
  865MPD2     N12755   3.445   0.088  16.772 -0.1828 -0.4849 -0.1456
  865MPD2    H512756   3.410   0.183  16.760 -1.2412 -0.4610  3.2997
  865MPD2    N112757   3.473   4.432  16.469  0.4880 -0.0651 -1.0498
  865MPD2    H712758   3.458   4.402  16.374 -0.5464  0.5623 -1.0858
  866MPD2     C12759   0.029   0.674  11.300  0.4634 -0.0826  0.2048
  866MPD2    C112760   4.680   0.568  11.279  1.1566  0.8795 -0.1596
  866MPD2    C212761   4.547   0.584  11.225 -0.1094  0.1580  0.4133
  866MPD2    C312762   4.497   0.700  11.181 -0.0127 -0.3220  0.0942
  866MPD2    C412763   4.592   0.805  11.189  0.4961 -0.1852 -0.5473
  866MPD2    C512764   4.718   0.791  11.251  0.2102  0.3042 -0.3806
  866MPD2     H12765   4.488   0.494  11.236  0.2613 -0.1171  0.1595
  866MPD2    H112766   4.567   0.903  11.150 -0.0016 -0.3661 -0.6823
  866MPD2    H212767   0.129   0.665  11.341 -0.6879 -3.2951  2.3256
  866MPD2    H312768   0.047   0.878  11.264  2.5814 -1.5328  0.3508
  866MPD2     N12769   4.369   0.718  11.118  0.3470  0.2711  0.3293
  866MPD2    H512770   4.343   0.814  11.100 -1.9332 -0.6396 -1.2535
  866MPD2    N112771   0.009   0.450  11.331  0.0292  0.0909  0.0512
  866MPD2    H712772   0.086   0.470  11.394  0.6330  1.8439 -1.2099
  867MPD2     C12773   1.645   3.735  16.993 -0.4513 -0.5406  0.5259
  867MPD2    C112774   1.753   3.752  17.078 -0.0951  0.6828 -0.0730
  867MPD2    C212775   1.735   3.754  17.220 -0.1460  0.1638  1.1025
  867MPD2    C312776   1.617   3.716  17.274  0.4947 -0.2337 -0.1122
  867MPD2    C412777   1.512   3.692  17.190  0.1429  0.2478  0.4686
  867MPD2    C512778   1.528   3.701  17.055 -0.0162  0.1758  0.4141
  867MPD2     H12779   1.809   3.789  17.291 -0.4453 -1.4187  2.1879
  867MPD2    H112780   1.414   3.670  17.230  0.4815 -1.3853  0.4394
  867MPD2    H212781   1.645   3.749  16.885 -1.1678  2.9845  0.9646
  867MPD2    H312782   1.446   3.689  16.985  1.0708  0.8047 -0.9862
  867MPD2     N12783   1.594   3.702  17.417  0.5416  0.0135  0.6969
  867MPD2    H512784   1.498   3.680  17.443 -0.1347  0.8161 -1.1421
  867MPD2    N112785   1.877   3.775  17.017  0.5004 -0.2430 -0.3688
  867MPD2    H712786   1.884   3.783  16.916  2.0145  1.7865 -0.1060
  868MPD2     C12787   3.344   3.557  12.982 -0.2968 -0.6512  0.3066
  868MPD2    C112788   3.408   3.653  13.060 -0.3266 -0.3025 -1.4134
  868MPD2    C212789   3.327   3.729  13.138  0.1670  0.2040  0.3688
  868MPD2    C312790   3.189   3.714  13.136  0.0982  0.2445  0.0437
  868MPD2    C412791   3.133   3.612  13.070 -0.1255  0.1452 -0.0760
  868MPD2    C512792   3.211   3.535  12.989  0.0580 -0.0669 -0.8004
  868MPD2     H12793   3.373   3.796  13.209  2.0080 -0.2763 -0.3748
  868MPD2    H112794   3.028   3.584  13.064 -0.5855  1.6571  0.8685
  868MPD2    H212795   3.401   3.499  12.910 -0.8364  0.5635 -1.1071
  868MPD2    H312796   3.173   3.458  12.923  2.2625  0.2225 -2.4089
  868MPD2     N12797   3.114   3.805  13.205 -0.1593 -0.4613 -0.1973
  868MPD2    H512798   3.174   3.869  13.256 -0.0553 -0.2475 -0.5917
  868MPD2    N112799   3.550   3.663  13.059 -0.5067  0.5746  0.0865
  868MPD2    H712800   3.599   3.589  13.008 -1.7627 -0.8941  1.0148
  869MPD2     C12801   4.640   0.901   0.566 -0.1872 -0.7167 -0.1902
  869MPD2    C112802   4.646   1.031   0.598 -0.5497  0.2553 -0.1812
  869MPD2    C212803   0.034   1.091   0.621 -0.4573  0.7382 -0.0418
  869MPD2    C312804   0.152   1.019   0.595  0.1055  0.0977 -0.0711
  869MPD2    C412805   0.146   0.890   0.544  0.0896  0.7563 -0.0587
  869MPD2    C512806   0.017   0.835   0.532 -0.1977  0.0406  0.0840
  869MPD2     H12807   0.042   1.198   0.637  0.3237  0.2628  2.5924
  869MPD2    H112808   0.234   0.834   0.517 -0.2982  0.4792 -0.7600
  869MPD2    H212809   4.552   0.838   0.560 -0.1115 -0.7837 -0.6338
  869MPD2    H312810   4.733   0.734   0.499  1.6790 -0.5416  0.7813
  869MPD2     N12811   0.275   1.084   0.632 -0.2820 -0.1077  0.7751
  869MPD2    H512812   0.274   1.159   0.700 -1.2772  0.3380  0.2706
  869MPD2    N112813   4.522   1.097   0.614 -0.3067  0.2047  0.3330
  869MPD2    H712814   4.440   1.041   0.594  0.3021 -0.4965 -0.1948
  870MPD2     C12815   4.281   4.640   1.974  0.4516 -0.0203 -0.1988
  870MPD2    C112816   4.287   0.043   1.989 -0.0231 -0.2324  0.4601
  870MPD2    C212817   4.354   0.122   1.892 -0.3483  0.1072  0.1471
  870MPD2    C312818   4.406   0.065   1.781  0.2477 -0.0721  0.3831
  870MPD2    C412819   4.400   4.663   1.768  0.2418 -0.7839 -0.6103
  870MPD2    C512820   4.343   4.581   1.861  0.0552  0.9117  0.1186
  870MPD2     H12821   4.346   0.230   1.896 -1.6429 -0.0342  1.6044
  870MPD2    H112822   4.444   4.615   1.681  2.4450 -1.4440  0.8600
  870MPD2    H212823   4.231   4.572   2.041  1.4518 -1.2615 -0.6981
  870MPD2    H312824   4.341   4.475   1.839  2.5756  0.5127  1.8668
  870MPD2     N12825   4.455   0.148   1.676 -0.1279  0.0946 -0.6667
  870MPD2    H512826   4.451   0.247   1.695 -2.3095 -0.2139  0.4218
  870MPD2    N112827   4.218   0.095   2.102  0.5012  0.0954 -0.6960
  870MPD2    H712828   4.171   0.033   2.167  0.1187  1.4079  0.2918
  871MPD2     C12829   1.040   4.451  16.488 -1.0044 -0.5634 -0.1154
  871MPD2    C112830   0.979   4.379  16.586  0.2044  0.0795 -0.5560
  871MPD2    C212831   0.975   4.238  16.576  0.7784 -0.2888  0.3511
  871MPD2    C312832   1.025   4.179  16.463  0.9418 -1.0516 -0.3878
  871MPD2    C412833   1.093   4.250  16.372 -0.3291  0.1592 -0.4795
  871MPD2    C512834   1.102   4.383  16.387  0.4592  0.2167  0.3225
  871MPD2     H12835   0.928   4.173  16.649  0.2101 -1.1218 -0.7741
  871MPD2    H112836   1.147   4.201  16.292  0.2857 -1.5098  0.9616
  871MPD2    H212837   1.040   4.559  16.499  1.5080 -0.5146 -0.6290
  871MPD2    H312838   1.163   4.453  16.331  1.8558 -0.3437  1.1658
  871MPD2     N12839   1.011   4.034  16.456 -0.2237  0.0624 -0.5671
  871MPD2    H512840   0.961   3.986  16.530 -0.2657  2.2659  0.8158
  871MPD2    N112841   0.926   4.450  16.699  0.4438 -0.1716  0.1683
  871MPD2    H712842   0.926   4.551  16.690  0.3019 -0.1425  0.4880
  872MPD2     C12843   1.981   2.027  14.098 -0.4654 -0.3693 -0.1777
  872MPD2    C112844   1.940   2.143  14.035  0.2790 -0.8685 -0.8194
  872MPD2    C212845   1.833   2.214  14.091  0.2305  0.3677  0.3921
  872MPD2    C312846   1.786   2.186  14.214 -0.0820  0.3564  0.3943
  872MPD2    C412847   1.829   2.070  14.273  0.3324 -0.3487 -0.0906
  872MPD2    C512848   1.926   1.991  14.215  0.0295 -0.7525  0.0869
  872MPD2     H12849   1.794   2.300  14.038 -0.0183  0.1760  0.2616
  872MPD2    H112850   1.795   2.036  14.370 -1.9838  2.6768  0.1313
  872MPD2    H212851   2.062   1.966  14.059  0.3808  0.9893 -0.5263
  872MPD2    H312852   1.970   1.914  14.276 -1.0477 -0.8676  0.7228
  872MPD2     N12853   1.691   2.268  14.282  0.3269  0.2666 -0.1716
  872MPD2    H512854   1.680   2.239  14.379  1.2988 -0.5214 -0.2976
  872MPD2    N112855   2.009   2.209  13.924 -0.7768 -0.2478  0.0419
  872MPD2    H712856   1.956   2.283  13.879  0.6272  0.9535  0.3488
  873MPD2     C12857   3.479   1.461   0.189  0.0350  0.6756  0.7308
  873MPD2    C112858   3.506   1.388   0.301  0.5491 -0.3405  0.2839
  873MPD2    C212859   3.485   1.247   0.284  0.4413  0.9154 -0.2074
  873MPD2    C312860   3.448   1.190   0.163 -0.2179  0.0135  0.2210
  873MPD2    C412861   3.442   1.269   0.049  0.0800 -0.8449  0.6891
  873MPD2    C512862   3.450   1.407   0.064 -0.1328  0.1552 -0.1785
  873MPD2     H12863   3.476   1.185   0.373 -1.1375  1.2322 -0.1308
  873MPD2    H112864   3.415   1.219  17.693  0.7037  1.1015 -0.5392
  873MPD2    H212865   3.487   1.568   0.201  2.8094  0.8873 -3.0234
  873MPD2    H312866   3.452   1.482  17.722  0.7466  2.6576  2.2572
  873MPD2     N12867   3.415   1.053   0.143 -0.2096 -0.2834 -0.3805
  873MPD2    H512868   3.399   1.027   0.047  1.0469  0.6569 -0.8441
  873MPD2    N112869   3.540   1.451   0.424 -0.1470 -0.4407  0.0615
  873MPD2    H712870   3.546   1.552   0.419  1.3302 -0.5637 -0.7053
  874MPD2     C12871   3.166   2.172  15.943 -0.1349  0.6799  0.4595
  874MPD2    C112872   3.223   2.187  16.064  0.3188 -1.2602  0.6444
  874MPD2    C212873   3.329   2.277  16.082 -0.9034  0.7055  0.4036
  874MPD2    C312874   3.394   2.331  15.974  0.3190 -0.3116  0.2694
  874MPD2    C412875   3.345   2.304  15.851 -0.2286  0.2979  0.0925
  874MPD2    C512876   3.234   2.228  15.833  0.5475 -0.4656  0.1697
  874MPD2     H12877   3.362   2.303  16.182  0.6457  3.4511 -0.8313
  874MPD2    H112878   3.392   2.340  15.761 -0.6292  1.1278  0.2126
  874MPD2    H212879   3.078   2.110  15.925 -0.3208  1.2360 -0.5721
  874MPD2    H312880   3.207   2.201  15.732 -1.9109  1.0326  0.4208
  874MPD2     N12881   3.511   2.414  15.999  0.1138 -0.0373 -0.0263
  874MPD2    H512882   3.534   2.441  16.094 -3.3695  0.7816  0.5765
  874MPD2    N112883   3.162   2.116  16.164  0.2560 -0.3913  0.3529
  874MPD2    H712884   3.085   2.058  16.134 -0.0915  0.2992 -0.0915
  875MPD2     C12885   4.242   0.575  14.491  0.3698  0.7470 -0.2528
  875MPD2    C112886   4.110   0.588  14.534 -0.1917  0.1961  0.2831
  875MPD2    C212887   4.092   0.620  14.667  0.0130 -0.0474  0.2217
  875MPD2    C312888   4.196   0.655  14.750  0.2474 -0.5345 -0.7569
  875MPD2    C412889   4.327   0.638  14.704 -0.4742  0.2274 -0.4138
  875MPD2    C512890   4.345   0.591  14.577  0.3661  0.1301  0.2281
  875MPD2     H12891   3.990   0.632  14.702 -0.3669 -0.5145 -0.6990
  875MPD2    H112892   4.411   0.647  14.772  0.6082  0.2284 -1.7740
  875MPD2    H212893   4.273   0.547  14.391 -1.1926  0.9554 -0.7923
  875MPD2    H312894   4.444   0.579  14.534  0.8595  0.6050  1.2440
  875MPD2     N12895   4.179   0.711  14.879  0.1232  0.4227  0.0677
  875MPD2    H512896   4.265   0.713  14.934  0.3267 -0.5077 -0.2248
  875MPD2    N112897   3.998   0.578  14.459 -0.3364  0.3730 -0.2637
  875MPD2    H712898   3.913   0.615  14.501  0.1733 -0.6248  1.6048
  876MPD2     C12899   2.746   1.508  15.463 -0.5330 -0.4629 -0.2280
  876MPD2    C112900   2.865   1.524  15.522  0.7556 -0.0814  0.4039
  876MPD2    C212901   2.917   1.431  15.606 -0.1292 -0.3100 -0.0626
  876MPD2    C312902   2.844   1.330  15.652 -0.3449  0.4432  1.0864
  876MPD2    C412903   2.715   1.322  15.599 -0.7606  0.3604  1.0116
  876MPD2    C512904   2.670   1.394  15.500  0.0722 -0.3194 -0.0333
  876MPD2     H12905   3.018   1.447  15.645 -0.6637  1.9115  0.4183
  876MPD2    H112906   2.657   1.234  15.622 -1.2292  0.7712  1.4048
  876MPD2    H212907   2.703   1.573  15.387  0.7460 -0.4398 -0.9388
  876MPD2    H312908   2.572   1.374  15.459 -0.5019  1.7010  0.3299
  876MPD2     N12909   2.905   1.231  15.743  0.4842  0.0460 -0.9024
  876MPD2    H512910   2.995   1.259  15.781  0.2144 -0.2082 -0.0714
  876MPD2    N112911   2.937   1.643  15.487 -0.1115  0.1224 -0.2110
  876MPD2    H712912   2.886   1.699  15.420  2.0144 -0.5627 -2.4166
  877MPD2     C12913   2.938   2.254  15.018  0.3476  0.3973  0.2424
  877MPD2    C112914   3.060   2.200  15.033  0.1601 -0.2152  0.2766
  877MPD2    C212915   3.159   2.230  14.942 -0.1317  0.9518  0.5235
  877MPD2    C312916   3.120   2.283  14.817  0.0164  0.0121  0.0636
  877MPD2    C412917   2.991   2.334  14.800 -0.5910 -0.8081 -0.7781
  877MPD2    C512918   2.902   2.333  14.904  0.0499  0.2201  0.3628
  877MPD2     H12919   3.262   2.200  14.956  0.0478  1.0637 -0.5768
  877MPD2    H112920   2.970   2.379  14.704  1.9197  0.9055 -0.5266
  877MPD2    H212921   2.867   2.256  15.100 -1.0063  2.2983 -0.9790
  877MPD2    H312922   2.811   2.391  14.910 -0.2125 -0.1914  0.2772
  877MPD2     N12923   3.205   2.298  14.703 -0.4358  0.1119 -0.0122
  877MPD2    H512924   3.177   2.347  14.619  0.2766  1.4143  0.5145
  877MPD2    N112925   3.090   2.125  15.153  0.4090 -0.0262 -0.5618
  877MPD2    H712926   3.189   2.105  15.169 -0.0675 -2.5266 -0.7575
  878MPD2     C12927   3.079   1.417  13.244 -0.7249 -0.6348 -0.0025
  878MPD2    C112928   3.094   1.552  13.267  0.5504  0.3539  0.1407
  878MPD2    C212929   3.001   1.621  13.345 -0.4293 -0.4814  0.6290
  878MPD2    C312930   2.895   1.549  13.404 -0.9692 -0.2368 -0.2943
  878MPD2    C412931   2.876   1.414  13.370  0.0609 -0.2180 -0.0459
  878MPD2    C512932   2.975   1.347  13.299 -0.9411 -0.2963 -0.5416
  878MPD2     H12933   3.003   1.727  13.365  1.5445 -0.4853  0.5056
  878MPD2    H112934   2.785   1.365  13.405 -0.4993  0.5241 -0.4459
  878MPD2    H212935   3.156   1.364  13.189  0.3773  0.4229  0.5196
  878MPD2    H312936   2.948   1.245  13.273 -0.2126 -1.5669  3.6787
  878MPD2     N12937   2.804   1.626  13.474  0.4216 -0.2751  0.2240
  878MPD2    H512938   2.828   1.724  13.469 -3.3149  0.6734  1.0210
  878MPD2    N112939   3.194   1.614  13.192  0.2568 -0.4225  0.3477
  878MPD2    H712940   3.244   1.553  13.129  0.6304  1.0364 -0.7523
  879MPD2     C12941   3.437   3.000  16.586 -0.2018  0.0795  0.9986
  879MPD2    C112942   3.407   2.896  16.667  0.6700  0.7171  0.4415
  879MPD2    C212943   3.353   2.780  16.614  0.4323 -0.5311  0.4886
  879MPD2    C312944   3.311   2.776  16.486 -0.4243  0.4059  0.6570
  879MPD2    C412945   3.340   2.884  16.406 -0.0106  0.0863 -0.0716
  879MPD2    C512946   3.410   2.993  16.451  0.1624  0.1420  0.0677
  879MPD2     H12947   3.321   2.696  16.675  0.2501  0.6653  2.0451
  879MPD2    H112948   3.307   2.878  16.303 -3.8261  0.5352  1.1537
  879MPD2    H212949   3.481   3.084  16.639  2.6552 -0.8211  0.1030
  879MPD2    H312950   3.439   3.080  16.394  1.9424 -0.7414 -0.3794
  879MPD2     N12951   3.232   2.673  16.432  0.1857 -0.0464  0.8695
  879MPD2    H512952   3.194   2.689  16.339  2.5903  0.4283 -0.0176
  879MPD2    N112953   3.455   2.911  16.808 -0.2328 -0.1950  0.0839
  879MPD2    H712954   3.504   2.996  16.837  1.7243 -0.8667 -1.2302
  880MPD2     C12955   0.497   4.274   0.256  0.2945  0.3468 -0.5673
  880MPD2    C112956   0.384   4.245   0.329 -0.2311 -0.2249 -0.3156
  880MPD2    C212957   0.338   4.115   0.337 -0.2898 -0.0026  0.4148
  880MPD2    C312958   0.411   4.013   0.274  0.0523  0.5555 -0.4240
  880MPD2    C412959   0.529   4.037   0.210  0.1279 -0.4127 -0.3238
  880MPD2    C512960   0.568   4.168   0.201 -0.7936  0.0974  0.3063
  880MPD2     H12961   0.245   4.090   0.388 -0.8806  2.6396  0.6008
  880MPD2    H112962   0.589   3.961   0.162  0.6906  1.2622 -2.2756
  880MPD2    H212963   0.543   4.371   0.242 -3.8826  2.4874  0.6483
  880MPD2    H312964   0.658   4.192   0.146 -1.0857 -1.1130 -0.7022
  880MPD2     N12965   0.358   3.886   0.281  0.1693  0.6795  0.1553
  880MPD2    H512966   0.270   3.881   0.332 -0.2296 -0.2959 -0.6202
  880MPD2    N112967   0.324   4.359   0.383  0.4120  0.0224 -0.0453
  880MPD2    H712968   0.354   4.447   0.340  0.3818 -0.3397 -0.8066
  881MPD2     C12969   4.703   0.351  17.555  0.9439 -0.0500 -0.3605
  881MPD2    C112970   0.029   0.224  17.535  0.5072  0.3916 -0.5026
  881MPD2    C212971   0.059   0.147  17.645  0.3759 -0.6857 -0.4204
  881MPD2    C312972   0.011   0.176   0.042  0.1260  0.3355  0.2203
  881MPD2    C412973   4.678   0.295   0.050 -0.0090 -0.0638  0.3016
  881MPD2    C512974   4.652   0.373  17.679 -0.2917 -0.4018 -0.0466
  881MPD2     H12975   0.123   0.060  17.637  0.9674 -0.2959 -0.0105
  881MPD2    H112976   4.635   0.330   0.143 -1.2971  1.8472 -1.0208
  881MPD2    H212977   4.676   0.413  17.471 -1.9767  1.6370  1.8271
  881MPD2    H312978   4.587   0.456  17.704 -0.1040  0.1970 -1.5651
  881MPD2     N12979   0.027   0.101   0.164 -0.1397 -0.1236 -0.5771
  881MPD2    H512980   4.721   0.135   0.251 -0.6942 -1.9201 -0.1331
  881MPD2    N112981   0.080   0.208  17.405 -0.1812  0.3689 -0.0194
  881MPD2    H712982   0.052   0.281  17.340  0.2835 -0.1771 -0.8414
  882MPD2     C12983   3.351   2.149  13.990 -0.1675  0.7672  0.3857
  882MPD2    C112984   3.308   2.252  14.075  0.3261  0.1585 -0.0183
  882MPD2    C212985   3.175   2.284  14.059  0.8780 -0.5350  0.3670
  882MPD2    C312986   3.094   2.238  13.957 -0.2685  0.2360 -0.0329
  882MPD2    C412987   3.140   2.146  13.871 -0.7574  0.0385 -0.4463
  882MPD2    C512988   3.269   2.107  13.887  0.6126 -0.2365  0.2157
  882MPD2     H12989   3.125   2.335  14.141 -1.1324 -0.3975 -0.9548
  882MPD2    H112990   3.081   2.090  13.799 -2.2595  2.2768 -0.9724
  882MPD2    H212991   3.450   2.107  14.002  0.0123  0.9573 -0.4846
  882MPD2    H312992   3.306   2.031  13.819  1.0000  2.1519 -2.2248
  882MPD2     N12993   2.953   2.278  13.963  0.1658  0.5078  1.1055
  882MPD2    H512994   2.890   2.238  13.894  1.0500 -0.5956  0.9527
  882MPD2    N112995   3.387   2.293  14.184  0.4166  0.1775 -0.0297
  882MPD2    H712996   3.471   2.240  14.204  0.2132  0.4187  1.4731
  883MPD2     C12997   0.586   2.315  16.378  0.4417  0.0019  0.1874
  883MPD2    C112998   0.635   2.293  16.251 -0.0347 -0.2559  0.5411
  883MPD2    C212999   0.774   2.277  16.237  0.4262  0.1276 -0.1752
  883MPD2    C313000   0.867   2.280  16.346  0.1388 -0.0116 -0.3050
  883MPD2    C413001   0.814   2.296  16.472 -0.5196  1.0983  0.4256
  883MPD2    C513002   0.677   2.320  16.485 -0.1995 -1.0880 -0.5280
  883MPD2     H13003   0.810   2.265  16.135  0.5052  3.3801 -0.5430
  883MPD2    H113004   0.880   2.323  16.555 -0.4656 -0.7432  0.9835
  883MPD2    H213005   0.483   2.326  16.412  0.1782 -2.6200  0.2218
  883MPD2    H313006   0.643   2.349  16.583 -2.5044  0.2931 -1.7323
  883MPD2     N13007   1.005   2.277  16.321  0.1394 -0.4740  0.1713
  883MPD2    H513008   1.036   2.280  16.225  0.8294  0.3972  0.4189
  883MPD2    N113009   0.562   2.319  16.131  0.1974  0.0195  0.5498
  883MPD2    H713010   0.615   2.317  16.045 -1.4901  0.7195 -0.5121
  884MPD2     C13011   2.079   3.070  15.098  0.0461 -0.4581  0.0527
  884MPD2    C113012   2.071   3.186  15.029  0.1611  0.6360  0.1389
  884MPD2    C213013   1.975   3.284  15.056 -0.5688 -0.8949 -0.0359
  884MPD2    C313014   1.887   3.262  15.160 -0.4979  0.0372 -0.6376
  884MPD2    C413015   1.908   3.146  15.239  0.5865 -0.0018 -0.2448
  884MPD2    C513016   2.004   3.049  15.213  0.0261 -0.0888  0.7400
  884MPD2     H13017   1.967   3.373  14.994  0.4005 -0.9540 -0.2363
  884MPD2    H113018   1.845   3.129  15.326  0.0401  2.9111 -0.0507
  884MPD2    H213019   2.150   2.991  15.078  0.6263  0.4402 -1.4036
  884MPD2    H313020   2.022   2.969  15.284 -0.7760 -1.2869 -0.4040
  884MPD2     N13021   1.788   3.360  15.186  0.0317  0.0699  0.2527
  884MPD2    H513022   1.786   3.441  15.124  0.5487  0.7808  1.1751
  884MPD2    N113023   2.155   3.208  14.916 -0.3406 -0.0781  0.0948
  884MPD2    H713024   2.140   3.298  14.872 -0.2108  0.8428  1.9066
  885MPD2     C13025   0.447   2.975   0.164 -0.5072  0.7719 -0.9290
  885MPD2    C113026   0.568   2.934   0.100 -0.2765 -0.1020 -0.5197
  885MPD2    C213027   0.573   2.924  17.701  0.3295  0.2891 -0.7385
  885MPD2    C313028   0.463   2.949  17.618  0.6002 -0.2394  0.2501
  885MPD2    C413029   0.341   2.989  17.682  0.4075  0.9576 -0.2806
  885MPD2    C513030   0.339   3.003   0.082 -0.0003 -0.0370  0.2541
  885MPD2     H13031   0.665   2.882  17.660 -1.4581 -4.1866 -0.2141
  885MPD2    H113032   0.247   3.005  17.630  0.4175 -2.1938 -1.3019
  885MPD2    H213033   0.436   2.988   0.271  2.5719  0.3380 -0.5489
  885MPD2    H313034   0.251   3.021   0.142 -0.1720 -2.1387  0.6236
  885MPD2     N13035   0.479   2.952  17.477 -0.3883 -0.7164 -0.2913
  885MPD2    H513036   0.567   2.917  17.440 -0.1501  1.0522 -1.3849
  885MPD2    N113037   0.669   2.885   0.188 -0.0312  0.6718 -0.1447
  885MPD2    H713038   0.637   2.859   0.281  2.6738 -0.4772  0.4704
  886MPD2     C13039   1.729   2.058  15.270  0.6226  0.0888  0.4615
  886MPD2    C113040   1.863   2.019  15.285  0.1608  0.7033 -0.2034
  886MPD2    C213041   1.963   2.109  15.266 -0.3903  0.3702 -0.1488
  886MPD2    C313042   1.927   2.240  15.227 -0.0708 -0.8604 -0.5028
  886MPD2    C413043   1.801   2.281  15.234 -0.4144 -0.3274  0.1651
  886MPD2    C513044   1.699   2.187  15.247 -0.2196 -0.2607 -0.6560
  886MPD2     H13045   2.067   2.080  15.276 -0.3612 -0.1193 -1.8397
  886MPD2    H113046   1.773   2.385  15.224 -0.0922 -0.1404  1.1854
  886MPD2    H213047   1.649   1.986  15.283  1.2245 -0.8788 -1.2561
  886MPD2    H313048   1.600   2.226  15.227 -0.0340 -0.2721 -1.5947
  886MPD2     N13049   2.023   2.336  15.184 -0.1549 -0.1572 -0.1505
  886MPD2    H513050   1.982   2.425  15.158  1.6922  0.9903  0.8956
  886MPD2    N113051   1.905   1.880  15.295  0.1785  0.8391 -0.1348
  886MPD2    H713052   2.004   1.869  15.315  0.2425 -0.2094 -1.0163
  887MPD2     C13053   2.462   1.657  15.634 -0.0810  0.2580 -0.1069
  887MPD2    C113054   2.405   1.723  15.526 -0.0209  0.3945 -0.2716
  887MPD2    C213055   2.461   1.843  15.479 -0.2931  0.6559 -0.7692
  887MPD2    C313056   2.579   1.895  15.540 -0.0516  0.8758  0.3941
  887MPD2    C413057   2.631   1.821  15.642 -0.9690 -0.2108  0.3655
  887MPD2    C513058   2.571   1.712  15.696 -0.7453  0.1030 -0.6161
  887MPD2     H13059   2.394   1.893  15.410 -2.8637 -0.7546  0.6694
  887MPD2    H113060   2.727   1.845  15.686 -0.2795 -0.0055 -1.2534
  887MPD2    H213061   2.428   1.562  15.671  1.3459 -0.3234 -0.2855
  887MPD2    H313062   2.623   1.652  15.770  0.6575 -0.5840 -2.1527
  887MPD2     N13063   2.629   2.028  15.497  0.0691  0.4073  0.3491
  887MPD2    H513064   2.573   2.083  15.433  1.9442  2.5902  0.5821
  887MPD2    N113065   2.274   1.687  15.478 -0.0879 -0.3498 -0.8555
  887MPD2    H713066   2.243   1.750  15.405 -0.8921  1.3644  0.9677
  888MPD2     C13067   4.473   2.083  14.741  0.1377 -0.4974  0.2838
  888MPD2    C113068   4.512   2.131  14.860  0.7394 -0.4419  0.1075
  888MPD2    C213069   4.582   2.249  14.862  0.3949  0.9105  0.4335
  888MPD2    C313070   4.606   2.315  14.742  0.6054 -0.1744  0.3162
  888MPD2    C413071   4.564   2.263  14.623 -0.3582 -0.3145 -0.2733
  888MPD2    C513072   4.503   2.144  14.628  0.3765  0.8794  0.4146
  888MPD2     H13073   4.610   2.303  14.952  0.9535 -0.0739  0.8442
  888MPD2    H113074   4.582   2.303  14.524  0.8352 -1.5792 -0.5814
  888MPD2    H213075   4.422   1.987  14.731 -1.6535  0.6567 -1.5283
  888MPD2    H313076   4.457   2.109  14.536  0.6063 -0.9389  0.9937
  888MPD2     N13077   4.648   2.447  14.746 -0.3477  0.0341 -0.0570
  888MPD2    H513078   4.678   2.483  14.837 -0.3795 -0.1958  0.0426
  888MPD2    N113079   4.492   2.071  14.987  0.1368  0.1735  0.3735
  888MPD2    H713080   4.533   2.117  15.068 -2.6556  1.7688  0.9050
  889MPD2     C13081   3.658   1.605  13.012  1.1366  0.0874  0.1528
  889MPD2    C113082   3.664   1.587  13.147  0.6051  0.6589  0.5703
  889MPD2    C213083   3.681   1.706  13.220  0.0330  0.1024 -0.0056
  889MPD2    C313084   3.653   1.832  13.173  0.2863 -0.6106 -0.5238
  889MPD2    C413085   3.619   1.841  13.038  0.0420  1.0063 -0.5498
  889MPD2    C513086   3.618   1.732  12.955  0.4361 -0.8948 -0.0889
  889MPD2     H13087   3.708   1.704  13.325  0.7309 -0.8720 -0.2039
  889MPD2    H113088   3.597   1.937  12.992 -2.1568  0.0833 -1.4592
  889MPD2    H213089   3.672   1.521  12.946 -1.2362 -0.8162  0.7967
  889MPD2    H313090   3.602   1.740  12.849  1.6888 -0.5059 -0.2508
  889MPD2     N13091   3.651   1.938  13.263  0.0989 -0.4559 -0.0371
  889MPD2    H513092   3.692   1.921  13.354  1.1076  2.3564  0.0435
  889MPD2    N113093   3.701   1.467  13.196  0.5481 -0.4388 -0.0444
  889MPD2    H713094   3.729   1.452  13.293  0.2474  1.1862  0.2845
  890MPD2     C13095   2.968   3.280  14.468  0.5881 -0.1079  0.2574
  890MPD2    C113096   3.034   3.357  14.558  0.2052  0.0189  0.4864
  890MPD2    C213097   3.123   3.292  14.637 -0.9989 -0.4755  0.0765
  890MPD2    C313098   3.145   3.160  14.637 -0.1629  0.6791 -0.1908
  890MPD2    C413099   3.080   3.079  14.544  0.4190  0.0315  1.1620
  890MPD2    C513100   2.994   3.143  14.458 -0.1135 -0.3213 -0.0194
  890MPD2     H13101   3.179   3.353  14.707  0.0857 -0.8394 -0.4763
  890MPD2    H113102   3.097   2.972  14.539  3.8383  0.5694  1.3732
  890MPD2    H213103   2.905   3.333  14.397  0.4376 -4.0849 -2.5725
  890MPD2    H313104   2.943   3.083  14.384  1.8183 -0.4574 -1.2377
  890MPD2     N13105   3.237   3.109  14.729  0.7763 -0.6065 -0.6452
  890MPD2    H513106   3.268   3.187  14.786  2.0524 -0.6749 -1.2382
  890MPD2    N113107   3.010   3.498  14.562  0.2561 -0.3782  0.3087
  890MPD2    H713108   2.945   3.537  14.494  0.0065 -0.3302  0.5778
  891MPD2     C13109   1.396   1.627  16.600  0.4346 -0.7091 -0.3818
  891MPD2    C113110   1.274   1.573  16.642 -0.3978  0.1611 -0.8245
  891MPD2    C213111   1.269   1.446  16.700 -0.0226 -0.3444 -0.5867
  891MPD2    C313112   1.382   1.368  16.712  0.0068  0.9270 -0.1376
  891MPD2    C413113   1.501   1.424  16.669 -0.2259 -0.1136  0.7443
  891MPD2    C513114   1.507   1.552  16.617  0.3955 -0.3666  0.1475
  891MPD2     H13115   1.176   1.403  16.736  0.6690 -0.9676  0.4577
  891MPD2    H113116   1.594   1.369  16.683  0.2484  0.3884 -0.4031
  891MPD2    H213117   1.411   1.726  16.559  1.5681 -1.2223 -1.2049
  891MPD2    H313118   1.605   1.584  16.583 -0.9743  1.8731 -1.6267
  891MPD2     N13119   1.363   1.236  16.765  0.2758 -0.0752  0.1731
  891MPD2    H513120   1.268   1.202  16.770  0.0611  0.2280 -1.7926
  891MPD2    N113121   1.157   1.650  16.614  0.1726  0.5789  0.5655
  891MPD2    H713122   1.171   1.742  16.572  1.0901  0.7289  1.2011
  892MPD2     C13123   2.441   2.734  14.744  0.4550  0.2408  0.3127
  892MPD2    C113124   2.349   2.716  14.643 -0.0222 -0.3341  0.4135
  892MPD2    C213125   2.387   2.645  14.532  1.0447 -0.3984 -0.0348
  892MPD2    C313126   2.516   2.598  14.527 -0.3677 -0.0268  0.1801
  892MPD2    C413127   2.608   2.614  14.626  0.2390  0.6822 -0.2896
  892MPD2    C513128   2.573   2.685  14.736 -0.0072 -0.0324  0.1133
  892MPD2     H13129   2.325   2.633  14.445  0.5560 -2.2659  0.5682
  892MPD2    H113130   2.708   2.576  14.610  0.5032  0.4678  1.9063
  892MPD2    H213131   2.417   2.792  14.833  0.8562 -1.9167  1.8213
  892MPD2    H313132   2.646   2.690  14.816  0.5148 -2.0358 -0.2395
  892MPD2     N13133   2.569   2.528  14.418 -0.4421 -0.1782  0.5741
  892MPD2    H513134   2.664   2.496  14.431  0.4368  1.8722 -0.8043
  892MPD2    N113135   2.221   2.776  14.669 -1.0222 -0.2622  0.4230
  892MPD2    H713136   2.200   2.806  14.764 -1.2572  2.7861 -0.5902
  893MPD2     C13137   3.868   0.626   1.957  0.5741 -0.4276 -0.9611
  893MPD2    C113138   3.860   0.734   1.861 -0.0327  0.6302 -0.0940
  893MPD2    C213139   3.742   0.768   1.801 -0.0630  0.8435  0.1167
  893MPD2    C313140   3.629   0.699   1.834 -0.5406 -0.3958  0.3836
  893MPD2    C413141   3.639   0.594   1.926 -0.6028  0.3530  0.5288
  893MPD2    C513142   3.753   0.561   1.989 -0.3788  0.0027  0.5887
  893MPD2     H13143   3.739   0.834   1.716  0.0847  1.1671  0.3605
  893MPD2    H113144   3.554   0.533   1.956  0.7960 -1.5337  0.6551
  893MPD2    H213145   3.967   0.611   1.999 -1.1461 -1.7628  2.5589
  893MPD2    H313146   3.746   0.486   2.068  0.5265 -1.2742 -0.5313
  893MPD2     N13147   3.497   0.717   1.780 -0.0789  0.2726 -0.0913
  893MPD2    H513148   3.417   0.660   1.807 -1.4936  1.3525 -2.0734
  893MPD2    N113149   3.976   0.805   1.819  0.1325  0.1601  0.0353
  893MPD2    H713150   4.068   0.775   1.847  0.1370  0.2168  0.0825
  894MPD2     C13151   2.419   3.121   1.581 -0.1095 -0.7500 -0.2363
  894MPD2    C113152   2.405   3.237   1.508  0.3075 -0.6830 -0.6442
  894MPD2    C213153   2.439   3.351   1.568  0.0157 -0.5111  0.7357
  894MPD2    C313154   2.488   3.347   1.696 -0.3816  0.5352  0.1659
  894MPD2    C413155   2.495   3.235   1.780  0.3526 -0.1391 -0.5293
  894MPD2    C513156   2.467   3.120   1.713  0.3074 -0.3373 -0.5931
  894MPD2     H13157   2.433   3.446   1.515  0.6987 -1.1999 -0.5596
  894MPD2    H113158   2.537   3.242   1.880 -0.5792  2.3223 -0.2927
  894MPD2    H213159   2.394   3.025   1.538 -2.1852  0.2778 -1.3225
  894MPD2    H313160   2.480   3.025   1.764  0.3643 -0.4794 -0.8748
  894MPD2     N13161   2.532   3.474   1.746 -0.4816  0.2293  0.1776
  894MPD2    H513162   2.507   3.555   1.690 -1.1434  0.2550  0.5080
  894MPD2    N113163   2.350   3.238   1.379 -1.2265 -0.3282 -0.3130
  894MPD2    H713164   2.314   3.330   1.355 -1.2172  0.0270  1.0420
  895MPD2     C13165   1.193   2.080  14.147 -0.3261  0.7824 -0.7845
  895MPD2    C113166   1.180   2.107  14.014 -0.1220 -0.5943  0.0879
  895MPD2    C213167   1.301   2.127  13.940 -0.4091  0.8470 -0.0342
  895MPD2    C313168   1.423   2.100  14.001  0.3153 -0.0274 -0.0701
  895MPD2    C413169   1.422   2.054  14.126 -0.3606 -0.1388 -0.1864
  895MPD2    C513170   1.311   2.041  14.203 -0.0684 -0.3032  0.1109
  895MPD2     H13171   1.292   2.124  13.832 -1.3410 -2.4736  0.1226
  895MPD2    H113172   1.511   2.025  14.182 -1.7498  0.8774  2.5313
  895MPD2    H213173   1.112   2.087  14.219 -0.2666 -0.1441 -0.6336
  895MPD2    H313174   1.321   2.009  14.306 -2.8852  1.3245  0.8826
  895MPD2     N13175   1.540   2.086  13.928 -0.2122 -0.0518 -0.7268
  895MPD2    H513176   1.615   2.028  13.963 -1.6303 -1.3461  0.1728
  895MPD2    N113177   1.058   2.119  13.951  0.5653  0.1991  0.4568
  895MPD2    H713178   1.061   2.138  13.851 -1.6864 -0.1043  0.3279
  896MPD2     C13179   3.271   4.075   1.569  0.0779 -0.2110  0.0804
  896MPD2    C113180   3.374   4.074   1.478 -0.2936  0.2600 -0.1480
  896MPD2    C213181   3.381   3.962   1.386  0.3047 -0.2454  0.1029
  896MPD2    C313182   3.290   3.858   1.399  0.1641 -0.1408  0.1006
  896MPD2    C413183   3.185   3.860   1.493 -0.2167  0.6241  0.0299
  896MPD2    C513184   3.184   3.971   1.574 -0.6268  0.8933 -0.0266
  896MPD2     H13185   3.471   3.953   1.327  0.8827 -2.5382  1.3339
  896MPD2    H113186   3.108   3.785   1.491  0.2532  0.2227 -3.1136
  896MPD2    H213187   3.262   4.159   1.637 -0.8636 -0.2139 -0.0318
  896MPD2    H313188   3.098   3.984   1.639 -1.7449  0.9301 -1.5189
  896MPD2     N13189   3.305   3.748   1.314  0.2372  0.7381  0.0324
  896MPD2    H513190   3.383   3.751   1.249  0.6560 -1.3065  0.4408
  896MPD2    N113191   3.468   4.177   1.485  0.1228  0.0018  0.5320
  896MPD2    H713192   3.475   4.233   1.570 -0.8363 -0.5111  0.9574
  897MPD2     C13193   0.229   1.548  10.521 -0.7990  0.8341 -0.7691
  897MPD2    C113194   0.164   1.655  10.579 -0.2480 -0.2840  0.1697
  897MPD2    C213195   0.079   1.627  10.678  0.7240  1.0523  0.0045
  897MPD2    C313196   0.043   1.495  10.705  0.9603  0.1450 -0.8118
  897MPD2    C413197   0.104   1.394  10.633 -0.2119  0.2863 -0.8484
  897MPD2    C513198   0.196   1.421  10.537 -0.2047  0.1832  0.0160
  897MPD2     H13199   0.006   1.701  10.710 -0.4817  0.5574 -1.6387
  897MPD2    H113200   0.077   1.290  10.644  0.7028  0.2662  1.1966
  897MPD2    H213201   0.290   1.573  10.435  1.4151 -3.0082 -0.3192
  897MPD2    H313202   0.244   1.334  10.492  2.4031  0.3589  2.4771
  897MPD2     N13203   4.676   1.478  10.800  0.1265  0.1886 -0.2743
  897MPD2    H513204   4.627   1.549  10.855  1.4236  0.8041  0.0723
  897MPD2    N113205   0.197   1.789  10.539 -0.3272  0.4084  0.4443
  897MPD2    H713206   0.238   1.794  10.446  1.2559  0.9277  1.1613
  898MPD2     C13207   2.607   1.552  16.991 -0.6118 -0.9133 -0.1739
  898MPD2    C113208   2.697   1.556  17.091  0.0795  0.1911  0.6394
  898MPD2    C213209   2.713   1.678  17.154  0.1728  0.2328  0.0551
  898MPD2    C313210   2.678   1.793  17.093  0.2374 -0.2535 -0.6322
  898MPD2    C413211   2.586   1.785  16.992 -0.3169 -0.1483 -0.0584
  898MPD2    C513212   2.545   1.666  16.942  0.7385  0.4537  0.3132
  898MPD2     H13213   2.769   1.684  17.246 -1.4624  0.0873  1.0596
  898MPD2    H113214   2.551   1.878  16.948 -2.8662 -1.5051 -0.9201
  898MPD2    H213215   2.580   1.456  16.949  1.9171 -2.0462  0.8228
  898MPD2    H313216   2.477   1.676  16.858  0.8402 -0.4184  0.1251
  898MPD2     N13217   2.727   1.915  17.147  0.1653  0.4645 -0.6042
  898MPD2    H513218   2.786   1.911  17.230  1.2716  1.5312 -1.3383
  898MPD2    N113219   2.759   1.441  17.151 -0.1185  0.3293 -0.2579
  898MPD2    H713220   2.824   1.459  17.227  0.1450  0.3708 -0.4940
  899MPD2     C13221   2.474   2.994  17.593 -0.3679  0.8417 -0.2796
  899MPD2    C113222   2.595   2.977  17.656 -0.1023 -0.0209  0.3021
  899MPD2    C213223   2.606   2.937   0.054 -0.1467 -0.2295  0.6971
  899MPD2    C313224   2.483   2.922   0.129 -0.0797 -0.1074  1.6470
  899MPD2    C413225   2.364   2.955   0.071 -0.2257 -0.1158  0.1814
  899MPD2    C513226   2.359   2.989  17.666 -0.5081 -0.1282  0.2682
  899MPD2     H13227   2.702   2.925   0.103  1.3431  0.7483 -2.0016
  899MPD2    H113228   2.268   2.929   0.114 -0.9122 -0.3167 -1.4503
  899MPD2    H213229   2.471   3.009  17.486 -2.4373 -1.7896 -0.5797
  899MPD2    H313230   2.264   2.989  17.615 -0.5763 -0.2613  0.3946
  899MPD2     N13231   2.481   2.883   0.267 -0.2694 -0.2076  0.2013
  899MPD2    H513232   2.388   2.875   0.307  0.4226  0.8002  1.9887
  899MPD2    N113233   2.706   2.995  17.567 -0.4400  0.0312 -0.2616
  899MPD2    H713234   2.675   3.010  17.472  0.6148  2.7504 -0.1584
  900MPD2     C13235   2.915   4.385  12.618  0.0093 -0.1621 -0.4382
  900MPD2    C113236   2.803   4.315  12.649  0.2061 -0.3118  0.0465
  900MPD2    C213237   2.683   4.363  12.611 -0.0394 -0.2289 -0.0496
  900MPD2    C313238   2.679   4.489  12.548 -0.3383 -0.1723 -0.2983
  900MPD2    C413239   2.793   4.565  12.522 -0.1356  0.1332 -0.1328
  900MPD2    C513240   2.910   4.503  12.544  0.3814 -0.2163 -0.5414
  900MPD2     H13241   2.594   4.300  12.612  1.1267 -1.8870 -0.0400
  900MPD2    H113242   2.793   4.661  12.471  0.9298 -0.3218 -0.9956
  900MPD2    H213243   3.014   4.341  12.625  0.0939  0.1485  0.2898
  900MPD2    H313244   3.004   4.547  12.511 -0.0151  2.1262  1.4224
  900MPD2     N13245   2.553   4.521  12.499 -0.3026 -0.1240 -0.4712
  900MPD2    H513246   2.484   4.446  12.499  0.9519 -1.2691  0.3216
  900MPD2    N113247   2.815   4.186  12.702 -0.1957 -0.5010  0.0518
  900MPD2    H713248   2.902   4.135  12.711  0.5759  1.1303  1.7865
  901MPD2     C13249   2.669   3.289  13.323  0.3612  0.7816 -0.0710
  901MPD2    C113250   2.665   3.252  13.186 -0.1658 -0.2551  0.7365
  901MPD2    C213251   2.666   3.354  13.098  0.1813  0.4272 -0.5694
  901MPD2    C313252   2.657   3.483  13.131  0.2666  0.6082 -0.6510
  901MPD2    C413253   2.649   3.520  13.263  0.0260  0.4307 -0.4498
  901MPD2    C513254   2.648   3.417  13.356 -0.2648 -0.5994 -0.7355
  901MPD2     H13255   2.671   3.327  12.993 -1.7672  0.5880 -0.7045
  901MPD2    H113256   2.648   3.624  13.291 -0.8072  0.4586 -0.5736
  901MPD2    H213257   2.667   3.210  13.396  1.6402  1.4215  0.6660
  901MPD2    H313258   2.648   3.439  13.462  0.7049 -1.1114 -0.6375
  901MPD2     N13259   2.674   3.571  13.022  0.0250 -0.4270  0.1997
  901MPD2    H513260   2.703   3.539  12.930 -3.7185  3.0055 -2.1937
  901MPD2    N113261   2.666   3.119  13.145 -0.5898  0.1299 -0.2376
  901MPD2    H713262   2.654   3.049  13.217  1.6681 -0.9325 -0.8669
  902MPD2     C13263   0.829   2.477  12.419  0.5116 -0.2655  0.2448
  902MPD2    C113264   0.916   2.541  12.505  0.3506  0.6912  0.0388
  902MPD2    C213265   1.002   2.468  12.579 -0.1498 -0.1977  0.2438
  902MPD2    C313266   0.995   2.333  12.576  0.2955  0.6290 -0.3389
  902MPD2    C413267   0.910   2.270  12.493  0.9073 -0.1394 -0.3836
  902MPD2    C513268   0.834   2.342  12.411  0.3381  0.3975  0.0545
  902MPD2     H13269   1.080   2.515  12.637 -1.7204  1.5128  0.9923
  902MPD2    H113270   0.903   2.162  12.481 -0.5634  0.0392 -1.1323
  902MPD2    H213271   0.758   2.535  12.361 -1.1637 -0.1838  2.4018
  902MPD2    H313272   0.762   2.289  12.349 -1.9027  1.3077  1.8863
  902MPD2     N13273   1.085   2.254  12.639 -0.7792  0.3780  0.9983
  902MPD2    H513274   1.068   2.155  12.625 -0.9043  0.6865 -1.1581
  902MPD2    N113275   0.907   2.682  12.505  0.2118 -0.2153  0.5226
  902MPD2    H713276   0.846   2.711  12.429  0.1296 -1.3957  0.1317
  903MPD2     C13277   1.381   2.394  12.174 -0.6955  1.0700  0.5751
  903MPD2    C113278   1.321   2.270  12.207  0.2138  0.1484 -0.5990
  903MPD2    C213279   1.204   2.228  12.140  0.0343 -0.0114  0.3461
  903MPD2    C313280   1.155   2.312  12.040 -0.5888  0.0415 -0.1238
  903MPD2    C413281   1.222   2.426  12.001 -0.0151 -0.1602 -0.7400
  903MPD2    C513282   1.329   2.465  12.066 -0.1259  0.1918 -0.3391
  903MPD2     H13283   1.157   2.133  12.164 -0.7025 -0.1275 -1.5176
  903MPD2    H113284   1.186   2.486  11.918 -2.6456  0.1682  0.6490
  903MPD2    H213285   1.471   2.429  12.222 -0.6049  1.6844 -0.0429
  903MPD2    H313286   1.374   2.559  12.037 -2.9754  1.5486 -0.3273
  903MPD2     N13287   1.036   2.263  11.979  0.1113  0.0180  0.4330
  903MPD2    H513288   1.008   2.169  12.006  1.8766 -0.6686 -0.1110
  903MPD2    N113289   1.379   2.206  12.323 -0.4611 -0.0204  0.6535
  903MPD2    H713290   1.464   2.245  12.362 -0.9580  0.4194  1.3066
  904MPD2     C13291   1.454   1.712  14.164  1.3247  0.2298 -0.4453
  904MPD2    C113292   1.422   1.651  14.282 -0.2317  0.9840  0.1768
  904MPD2    C213293   1.523   1.623  14.370  0.2126  0.1053  0.2885
  904MPD2    C313294   1.659   1.638  14.332 -0.4355  0.2720  0.6218
  904MPD2    C413295   1.688   1.710  14.223  0.1931  0.1719  0.5024
  904MPD2    C513296   1.582   1.748  14.140 -0.1204 -0.1543 -0.4610
  904MPD2     H13297   1.508   1.561  14.457  0.0902 -1.0438 -0.5562
  904MPD2    H113298   1.784   1.731  14.176 -1.1111  1.2993 -1.6562
  904MPD2    H213299   1.387   1.730  14.081 -0.6766 -3.9781  0.2415
  904MPD2    H313300   1.604   1.795  14.045  1.2382  1.6494  0.7422
  904MPD2     N13301   1.757   1.561  14.404 -0.5158  0.2206  0.4297
  904MPD2    H513302   1.720   1.504  14.479  0.1486  1.4433  1.6887
  904MPD2    N113303   1.291   1.590  14.289  0.2852 -0.3846 -0.9315
  904MPD2    H713304   1.230   1.590  14.208 -1.9230  2.8004  0.7356
  905MPD2     C13305   0.907   1.806  13.758  0.4198 -0.1040  0.7676
  905MPD2    C113306   1.003   1.760  13.847  0.7631  0.7990  0.0233
  905MPD2    C213307   1.136   1.780  13.811  0.1299  0.0589 -0.0341
  905MPD2    C313308   1.172   1.840  13.699 -0.0067 -0.4862  1.1878
  905MPD2    C413309   1.072   1.872  13.606  0.2808  0.3424  0.5905
  905MPD2    C513310   0.942   1.860  13.640  0.1291 -0.1776  0.1264
  905MPD2     H13311   1.210   1.767  13.890 -0.3872  2.4969  0.8372
  905MPD2    H113312   1.094   1.916  13.510 -1.4532 -0.6751 -0.2750
  905MPD2    H213313   0.800   1.793  13.771  0.4030 -0.4752  0.2863
  905MPD2    H313314   0.870   1.893  13.567  1.2027  1.0332 -0.3878
  905MPD2     N13315   1.305   1.866  13.667 -0.2474 -0.0623 -0.0549
  905MPD2    H513316   1.371   1.842  13.741 -0.6836  0.3395  0.4543
  905MPD2    N113317   0.969   1.711  13.971  0.6159 -0.8591  0.4658
  905MPD2    H713318   0.875   1.726  14.008  1.9022  2.1465  2.5182
  906MPD2     C13319   3.509   1.463  11.371  0.0392  0.0642  0.3801
  906MPD2    C113320   3.502   1.411  11.245 -0.0635 -0.0895  0.4021
  906MPD2    C213321   3.553   1.282  11.229  0.1182 -0.2342 -0.3442
  906MPD2    C313322   3.599   1.201  11.334 -0.4562 -0.0216  0.2199
  906MPD2    C413323   3.589   1.256  11.458  0.1517  0.1142  0.6755
  906MPD2    C513324   3.549   1.388  11.474 -1.1176 -0.3306 -0.3329
  906MPD2     H13325   3.547   1.256  11.124  0.2615  1.9094 -0.8849
  906MPD2    H113326   3.621   1.202  11.547 -0.0232  1.7960  1.7530
  906MPD2    H213327   3.494   1.567  11.395  3.0913  0.9659 -1.6433
  906MPD2    H313328   3.547   1.423  11.577  2.1315 -0.8853 -0.0782
  906MPD2     N13329   3.646   1.064  11.320 -0.2056  0.2536 -0.2566
  906MPD2    H513330   3.656   1.011  11.406  1.9355 -2.0041 -1.8851
  906MPD2    N113331   3.457   1.485  11.138 -0.3228  0.1109 -0.3814
  906MPD2    H713332   3.470   1.449  11.044 -0.2928 -0.6597 -0.0866
  907MPD2     C13333   2.284   0.429  15.263  0.5378 -0.3526  0.0889
  907MPD2    C113334   2.341   0.307  15.232 -0.6229  0.4911  0.0318
  907MPD2    C213335   2.473   0.264  15.263 -0.7077  0.2092  0.5167
  907MPD2    C313336   2.546   0.358  15.327  0.0053  0.1044 -0.4362
  907MPD2    C413337   2.488   0.478  15.363 -0.4859 -0.9565  0.0872
  907MPD2    C513338   2.354   0.504  15.347 -0.8493 -0.1921 -0.2994
  907MPD2     H13339   2.517   0.168  15.237 -1.4715 -0.1492  0.5383
  907MPD2    H113340   2.543   0.544  15.428 -0.2115 -0.4552 -0.6576
  907MPD2    H213341   2.180   0.461  15.256  0.4779  0.3238  3.7466
  907MPD2    H313342   2.310   0.597  15.383  0.1650  1.1509 -2.5338
  907MPD2     N13343   2.677   0.318  15.368 -0.0699 -0.3147  0.1843
  907MPD2    H513344   2.702   0.221  15.351 -0.6008 -0.6659  1.3792
  907MPD2    N113345   2.280   0.216  15.146  0.0104  0.0213 -0.1541
  907MPD2    H713346   2.334   0.131  15.134  0.4867  0.3135 -0.0658
  908MPD2     C13347   4.494   1.906   9.805  0.7242  0.3630  0.1610
  908MPD2    C113348   4.530   1.806   9.899 -0.8872 -0.0088 -0.1513
  908MPD2    C213349   4.606   1.842  10.011  0.4123 -0.2467 -0.2056
  908MPD2    C313350   4.636   1.976  10.040 -0.3222  0.3777  0.6907
  908MPD2    C413351   4.579   2.069   9.954  0.5463  0.5694  0.1584
  908MPD2    C513352   4.521   2.034   9.840  1.0290  0.6136 -0.1135
  908MPD2     H13353   4.642   1.765  10.078  0.1341  2.2289  2.8129
  908MPD2    H113354   4.599   2.175   9.964 -1.9608  1.1253 -0.7386
  908MPD2    H213355   4.434   1.886   9.717 -2.0193 -0.6104  2.2780
  908MPD2    H313356   4.488   2.113   9.772  0.0793 -0.6094 -1.0837
  908MPD2     N13357   4.711   2.013  10.154  0.4039 -0.5073  0.0673
  908MPD2    H513358   0.019   1.937  10.206 -0.9732 -0.5818  1.0716
  908MPD2    N113359   4.471   1.680   9.871 -0.0615  0.3549  0.2857
  908MPD2    H713360   4.438   1.666   9.777  1.8504 -1.3203 -0.1213
  909MPD2     C13361   0.335   4.015  12.066  0.3675 -0.3494 -0.0041
  909MPD2    C113362   0.305   4.118  11.981 -0.1460  0.0745 -0.9463
  909MPD2    C213363   0.238   4.230  12.032 -0.4271  0.0404  0.5938
  909MPD2    C313364   0.175   4.219  12.153  0.6808  0.3393 -0.7337
  909MPD2    C413365   0.199   4.113  12.240  0.7634 -0.5631  0.3505
  909MPD2    C513366   0.284   4.015  12.194  0.1388  0.2042  0.4269
  909MPD2     H13367   0.221   4.325  11.983 -0.1043  0.0137  0.4332
  909MPD2    H113368   0.170   4.107  12.344 -0.3548  0.9929  0.1250
  909MPD2    H213369   0.391   3.926  12.041  0.1834 -1.0182  1.9705
  909MPD2    H313370   0.299   3.924  12.250  2.0722 -0.3268 -0.9393
  909MPD2     N13371   0.088   4.324  12.192  0.4049 -0.2952  0.2081
  909MPD2    H513372   0.067   4.399  12.128  0.6081 -0.0144  0.4701
  909MPD2    N113373   0.345   4.121  11.844 -0.1813  0.3115  0.5203
  909MPD2    H713374   0.318   4.203  11.791  0.2211  0.4220  0.4879
  910MPD2     C13375   2.162   0.360  15.779  0.4380  0.1602  0.0814
  910MPD2    C113376   2.024   0.366  15.780 -0.1104 -0.4214  0.2834
  910MPD2    C213377   1.957   0.464  15.703 -0.0402 -0.0942 -0.1151
  910MPD2    C313378   2.027   0.555  15.625 -0.0783 -0.2401  0.0294
  910MPD2    C413379   2.166   0.541  15.618  0.3094  0.2553 -0.5105
  910MPD2    C513380   2.230   0.440  15.691  1.1843  0.6384  0.4081
  910MPD2     H13381   1.848   0.463  15.703 -0.0487  0.5929 -0.8677
  910MPD2    H113382   2.240   0.602  15.567  0.6677 -0.6016 -1.0258
  910MPD2    H213383   2.211   0.283  15.838  1.0597  0.1416 -0.4588
  910MPD2    H313384   2.337   0.427  15.686  0.9133 -0.5091 -2.5176
  910MPD2     N13385   1.955   0.653  15.560  0.6466  0.4276 -0.4523
  910MPD2    H513386   1.854   0.648  15.566  0.5583  2.1028 -0.6722
  910MPD2    N113387   1.955   0.272  15.856  0.0633 -0.7605 -0.2386
  910MPD2    H713388   2.008   0.192  15.889  0.7917 -0.5883 -1.0005
  911MPD2     C13389   4.099   1.182  16.217  0.2877  0.5972 -0.2256
  911MPD2    C113390   4.149   1.305  16.236  0.2749 -0.7425 -0.4695
  911MPD2    C213391   4.059   1.410  16.222 -0.3720  0.6339 -0.5935
  911MPD2    C313392   3.933   1.393  16.181 -0.3852 -0.0312  0.3192
  911MPD2    C413393   3.882   1.270  16.160  0.0608 -0.2078  0.0708
  911MPD2    C513394   3.973   1.167  16.174 -0.2140  0.0225  0.3415
  911MPD2     H13395   4.101   1.509  16.219 -2.0635  1.2841 -3.6823
  911MPD2    H113396   3.784   1.261  16.115  0.2810 -0.5110 -0.3394
  911MPD2    H213397   4.168   1.100  16.229  1.9477  2.1314  0.7190
  911MPD2    H313398   3.936   1.068  16.148  1.1181 -0.4948  0.4064
  911MPD2     N13399   3.842   1.496  16.164 -0.6712 -0.2527 -0.5300
  911MPD2    H513400   3.748   1.487  16.125 -1.4992 -1.9689  1.8662
  911MPD2    N113401   4.286   1.323  16.262 -0.0314  0.2575 -0.3792
  911MPD2    H713402   4.342   1.245  16.229  0.5124 -0.1638  1.5462
  912MPD2     C13403   3.886   1.400  15.671  0.3995 -0.6839 -0.6306
  912MPD2    C113404   3.775   1.442  15.742 -0.4339 -0.9242  0.6369
  912MPD2    C213405   3.713   1.353  15.826 -1.1304 -0.6945 -0.0335
  912MPD2    C313406   3.761   1.228  15.835 -0.0400 -0.6356  0.6168
  912MPD2    C413407   3.883   1.190  15.791 -0.1918 -0.3595  0.6054
  912MPD2    C513408   3.940   1.280  15.705 -0.3328 -0.6445 -0.3662
  912MPD2     H13409   3.631   1.375  15.895  0.0028 -2.6644  1.9526
  912MPD2    H113410   3.944   1.104  15.819 -0.1791 -0.5025  0.1349
  912MPD2    H213411   3.945   1.460  15.602 -1.4840  0.9316 -0.8346
  912MPD2    H313412   4.037   1.261  15.660  0.2847  0.1685  0.6265
  912MPD2     N13413   3.686   1.131  15.909 -0.1640 -0.1969 -0.0215
  912MPD2    H513414   3.592   1.156  15.940  0.6148  0.5076  1.7766
  912MPD2    N113415   3.744   1.577  15.738 -0.3246 -0.3435  0.5383
  912MPD2    H713416   3.815   1.631  15.690 -1.0303 -0.1092 -0.2569
  913MPD2     C13417   4.549   2.849  10.879  0.2463  0.5843  0.4760
  913MPD2    C113418   4.591   2.961  10.954  0.4612  0.3503  0.0130
  913MPD2    C213419   4.616   3.071  10.879  0.2352  0.0119 -0.1300
  913MPD2    C313420   4.617   3.077  10.734 -0.3090 -0.8156  0.0315
  913MPD2    C413421   4.583   2.960  10.664 -0.1884  0.3632  0.1799
  913MPD2    C513422   4.549   2.849  10.742  0.0531 -0.1142  0.1045
  913MPD2     H13423   4.646   3.158  10.936 -0.0118 -1.4602  2.2256
  913MPD2    H113424   4.570   2.954  10.557 -1.1970  0.7563  0.2841
  913MPD2    H213425   4.512   2.757  10.922 -2.3810  1.1262 -0.5715
  913MPD2    H313426   4.521   2.758  10.690 -1.5802  2.1963 -3.0400
  913MPD2     N13427   4.636   3.191  10.657 -0.0189  0.9232 -0.0671
  913MPD2    H513428   4.622   3.179  10.557  0.4637  1.1622 -0.1610
  913MPD2    N113429   4.591   2.945  11.092 -0.1358  0.4465 -1.2207
  913MPD2    H713430   4.542   2.860  11.121  2.4332 -1.3150 -2.0793
  914MPD2     C13431   2.645   3.211  12.319  0.5920 -0.4648  0.0489
  914MPD2    C113432   2.654   3.266  12.443 -0.0521  0.0380  1.1154
  914MPD2    C213433   2.662   3.176  12.553  0.4624 -0.1048  0.2611
  914MPD2    C313434   2.669   3.038  12.541 -0.3830  0.1299 -0.8077
  914MPD2    C413435   2.674   2.988  12.413  0.5686 -0.3473 -0.4588
  914MPD2    C513436   2.657   3.073  12.306 -0.4917 -1.1353 -0.5147
  914MPD2     H13437   2.668   3.209  12.656 -0.9133  1.4118 -0.1456
  914MPD2    H113438   2.674   2.881  12.396 -1.6111 -0.0979 -2.0005
  914MPD2    H213439   2.639   3.269  12.228  0.1765  0.0942  0.4320
  914MPD2    H313440   2.634   3.030  12.209  1.0101  1.8918 -2.2250
  914MPD2     N13441   2.689   2.965  12.664  0.5188 -0.0757 -0.0010
  914MPD2    H513442   2.693   3.020  12.749  0.5954  2.4376 -1.6456
  914MPD2    N113443   2.658   3.405  12.458 -0.0238 -0.2654  0.3632
  914MPD2    H713444   2.650   3.448  12.367  1.6426 -0.5351  0.0844
  915MPD2     C13445   0.884   2.955  15.739  0.4372 -0.1660 -0.8555
  915MPD2    C113446   0.777   3.009  15.679 -0.3644 -0.2378  0.2034
  915MPD2    C213447   0.680   3.051  15.765  0.3347 -0.5083 -0.2989
  915MPD2    C313448   0.677   3.027  15.901  0.1188 -1.0325 -0.3386
  915MPD2    C413449   0.788   2.984  15.958 -0.0143 -0.3427 -0.7295
  915MPD2    C513450   0.892   2.947  15.870  0.1510  0.5731  0.7089
  915MPD2     H13451   0.592   3.107  15.735  0.6845 -0.2531 -0.8476
  915MPD2    H113452   0.796   2.969  16.065  3.0675  2.2050 -0.6019
  915MPD2    H213453   0.975   2.938  15.683  0.2268 -2.6563 -0.4580
  915MPD2    H313454   0.979   2.904  15.919  0.5330  0.0829 -0.3971
  915MPD2     N13455   0.573   3.092  15.968  0.3805 -0.3277  0.4149
  915MPD2    H513456   0.495   3.125  15.914 -1.6010 -1.2716  2.6932
  915MPD2    N113457   0.771   3.024  15.540 -0.0974 -0.2664  0.5915
  915MPD2    H713458   0.847   2.985  15.485  0.9657  3.0175 -0.2947
  916MPD2     C13459   3.390   0.943  15.448 -0.7820  0.3832 -0.3919
  916MPD2    C113460   3.413   0.915  15.580  0.5910  0.4921 -0.3415
  916MPD2    C213461   3.550   0.905  15.616  0.4322 -1.2759 -0.1675
  916MPD2    C313462   3.648   0.925  15.524  0.3609  0.2357  0.8565
  916MPD2    C413463   3.618   0.955  15.397 -0.2507  0.2453  0.7245
  916MPD2    C513464   3.487   0.961  15.356 -0.7899  0.3957  0.0594
  916MPD2     H13465   3.579   0.879  15.717  1.3906 -0.3166 -0.1998
  916MPD2    H113466   3.694   0.954  15.320  1.0333  1.8248  1.9794
  916MPD2    H213467   3.291   0.948  15.405 -1.5287 -1.5683  1.1342
  916MPD2    H313468   3.467   0.958  15.250  2.8333 -1.7497 -0.5718
  916MPD2     N13469   3.777   0.909  15.579 -0.6358 -0.1296  0.6998
  916MPD2    H513470   3.781   0.883  15.677 -1.1810  2.0138  1.2937
  916MPD2    N113471   3.302   0.917  15.672  0.7624 -0.1275 -0.5732
  916MPD2    H713472   3.213   0.931  15.624  0.3091 -1.3503 -0.0859
  917MPD2     C13473   3.878   3.586  11.145  0.3417  0.3763 -0.1272
  917MPD2    C113474   3.947   3.593  11.268  0.0297 -0.5956  0.9475
  917MPD2    C213475   4.087   3.619  11.266 -0.1274  0.7258  0.1909
  917MPD2    C313476   4.157   3.629  11.143  0.4338  0.0155 -0.2419
  917MPD2    C413477   4.078   3.613  11.026  0.4010  0.5592  0.1841
  917MPD2    C513478   3.943   3.592  11.026 -0.2689 -0.4647 -0.2782
  917MPD2     H13479   4.141   3.652  11.354 -0.1515 -0.7455  0.7631
  917MPD2    H113480   4.128   3.634  10.932 -2.2706 -0.9916 -1.5955
  917MPD2    H213481   3.771   3.580  11.129  0.1431  0.7538  1.0187
  917MPD2    H313482   3.880   3.571  10.939  1.4618 -1.0780 -1.3832
  917MPD2     N13483   4.294   3.662  11.124 -0.5815  0.1055 -0.1316
  917MPD2    H513484   4.316   3.689  11.028  1.0980  0.3367  0.3303
  917MPD2    N113485   3.862   3.593  11.381 -0.2787 -0.0011  0.1425
  917MPD2    H713486   3.765   3.570  11.364 -0.2477  0.0914 -0.1588
  918MPD2     C13487   3.780   4.152  12.192 -0.2472 -0.0445 -0.2352
  918MPD2    C113488   3.892   4.100  12.144 -0.7515 -0.6391  0.0911
  918MPD2    C213489   3.891   3.991  12.065 -0.1114  0.2732 -0.0609
  918MPD2    C313490   3.770   3.936  12.023  0.2487  0.5454 -0.3436
  918MPD2    C413491   3.654   3.988  12.081  0.5427 -0.4979  0.4527
  918MPD2    C513492   3.658   4.103  12.150 -0.7276 -0.4761  0.4854
  918MPD2     H13493   3.979   3.938  12.031 -0.5680 -0.4918 -0.0659
  918MPD2    H113494   3.555   3.948  12.062  1.8376 -2.4142 -2.4329
  918MPD2    H213495   3.769   4.241  12.252 -1.5666 -1.1529  1.1870
  918MPD2    H313496   3.566   4.152  12.180 -0.1629  0.6113  0.4087
  918MPD2     N13497   3.775   3.826  11.931 -1.1951  0.1544  0.7989
  918MPD2    H513498   3.863   3.805  11.885 -1.0563  0.9967  0.6726
  918MPD2    N113499   4.015   4.152  12.185 -0.5913 -0.0661 -0.4462
  918MPD2    H713500   4.091   4.132  12.121 -1.8433 -0.7533 -1.7215
  919MPD2     C13501   4.363   2.850  12.247  0.0409 -0.1678  0.5175
  919MPD2    C113502   4.270   2.763  12.190 -0.3746  0.0640 -0.4476
  919MPD2    C213503   4.221   2.790  12.066  0.0574  0.1696  1.1536
  919MPD2    C313504   4.256   2.914  12.009  0.0041 -0.2190 -0.0904
  919MPD2    C413505   4.350   3.001  12.069  0.4721 -0.1369  0.8891
  919MPD2    C513506   4.405   2.968  12.187  0.2640  0.3505  0.1714
  919MPD2     H13507   4.153   2.726  12.010 -1.4620  0.3995  2.7501
  919MPD2    H113508   4.370   3.090  12.011 -1.5546  0.0657  0.5276
  919MPD2    H213509   4.407   2.824  12.342  1.6816  2.3645  0.4401
  919MPD2    H313510   4.463   3.042  12.241  2.3651 -1.4343  0.3685
  919MPD2     N13511   4.220   2.945  11.876 -0.3247  0.4959  0.0357
  919MPD2    H513512   4.273   3.020  11.832 -0.4263  0.4170 -0.2241
  919MPD2    N113513   4.224   2.638  12.248  0.1792  0.4645  0.6698
  919MPD2    H713514   4.165   2.573  12.196 -0.1172  0.8745  0.4963
  920MPD2     C13515   4.292   3.291  10.914  0.1625 -0.5386 -0.1439
  920MPD2    C113516   4.231   3.166  10.898  0.4462  0.3173  0.1080
  920MPD2    C213517   4.208   3.079  11.006 -0.0707 -0.8608  0.1394
  920MPD2    C313518   4.260   3.109  11.133  0.1386  0.1152  0.6440
  920MPD2    C413519   4.331   3.224  11.141 -0.0882  0.3844 -0.5931
  920MPD2    C513520   4.349   3.314  11.036 -0.0582 -0.7695  0.0058
  920MPD2     H13521   4.156   2.985  10.994 -0.2650 -0.6546 -0.6377
  920MPD2    H113522   4.383   3.250  11.233 -1.2025 -0.4287  0.2631
  920MPD2    H213523   4.308   3.363  10.835 -0.0779 -1.5524 -1.1111
  920MPD2    H313524   4.408   3.404  11.052 -2.1090  0.0550  3.0509
  920MPD2     N13525   4.243   3.014  11.238 -0.6595 -0.3104  0.1988
  920MPD2    H513526   4.203   2.924  11.214 -0.0688 -0.7328  0.8106
  920MPD2    N113527   4.187   3.120  10.771 -0.5012  0.3278 -0.0974
  920MPD2    H713528   4.131   3.036  10.767 -0.0822  0.0378  0.1843
  921MPD2     C13529   0.354   2.040  16.515  0.5365  0.5529 -0.9454
  921MPD2    C113530   0.403   1.914  16.540  0.5278  0.1250  0.6111
  921MPD2    C213531   0.326   1.800  16.514  0.0935 -0.3763 -0.7103
  921MPD2    C313532   0.207   1.812  16.446 -1.0514 -0.2811  0.6372
  921MPD2    C413533   0.165   1.942  16.414 -0.0308 -0.0239  0.4345
  921MPD2    C513534   0.233   2.049  16.456  0.2323 -0.1268  0.0842
  921MPD2     H13535   0.365   1.705  16.548  0.1136 -0.7458 -1.7895
  921MPD2    H113536   0.073   1.964  16.362 -0.8128 -0.1976  1.7589
  921MPD2    H213537   0.402   2.124  16.564  0.8547 -1.1987  1.7811
  921MPD2    H313538   0.197   2.146  16.426  1.1085 -0.0154 -0.6230
  921MPD2     N13539   0.137   1.691  16.412 -0.3813  0.1678 -0.1801
  921MPD2    H513540   0.186   1.608  16.441 -1.6614 -1.1650 -1.8235
  921MPD2    N113541   0.527   1.914  16.599  0.1465 -0.1112  0.2789
  921MPD2    H713542   0.571   2.002  16.620  0.2953  0.3892 -2.1261
  922MPD2     C13543   1.215   3.335   0.368 -0.1924 -0.8433 -0.7540
  922MPD2    C113544   1.093   3.388   0.382 -0.7543 -0.7221 -0.1681
  922MPD2    C213545   1.033   3.440   0.270 -0.6810 -1.0951 -0.0927
  922MPD2    C313546   1.093   3.429   0.143 -0.3760 -0.2617 -0.0556
  922MPD2    C413547   1.215   3.365   0.134  0.3246  0.8755 -0.2522
  922MPD2    C513548   1.274   3.328   0.247 -0.1047  0.4061  0.2969
  922MPD2     H13549   0.934   3.483   0.274 -0.2912 -0.1848 -0.2533
  922MPD2    H113550   1.266   3.358   0.039 -0.1641 -1.5276 -0.3425
  922MPD2    H213551   1.283   3.298   0.444 -0.1551 -1.3326 -1.0272
  922MPD2    H313552   1.375   3.289   0.241  0.2950  1.1063  2.2774
  922MPD2     N13553   1.030   3.489   0.034 -0.3044 -0.2139  0.5152
  922MPD2    H513554   0.937   3.527   0.052  0.5866  1.4012  1.7076
  922MPD2    N113555   1.028   3.399   0.508  0.7964 -0.3260 -0.6121
  922MPD2    H713556   0.931   3.430   0.507  0.6998 -0.5869  1.1905
  923MPD2     C13557   2.083   1.635   9.289  0.4475  0.0262  0.5854
  923MPD2    C113558   2.073   1.688   9.413  0.6360 -1.0462 -0.6712
  923MPD2    C213559   2.185   1.718   9.491 -0.4970 -0.2550  1.0002
  923MPD2    C313560   2.310   1.677   9.442 -0.0457 -0.0702  0.7054
  923MPD2    C413561   2.317   1.608   9.321  0.7760  1.0460  0.5753
  923MPD2    C513562   2.209   1.597   9.239 -0.3025  0.3132 -0.1094
  923MPD2     H13563   2.184   1.782   9.579 -2.5645  0.0604  0.7459
  923MPD2    H113564   2.407   1.563   9.280  0.6121 -1.0936  2.4989
  923MPD2    H213565   1.990   1.609   9.240  0.6948 -0.0358  0.1484
  923MPD2    H313566   2.214   1.545   9.144  0.1958  0.6235 -0.2530
  923MPD2     N13567   2.435   1.694   9.506  0.0699 -0.1925 -0.0029
  923MPD2    H513568   2.509   1.648   9.453 -1.1997 -1.4125 -0.7371
  923MPD2    N113569   1.939   1.716   9.452 -0.2495 -0.2959  0.1733
  923MPD2    H713570   1.868   1.686   9.386 -0.4715  1.4466 -0.3829
  924MPD2     C13571   2.714   4.334  15.254 -0.2296 -0.5642 -0.3706
  924MPD2    C113572   2.803   4.352  15.362 -0.1483  0.1712  0.1539
  924MPD2    C213573   2.889   4.458  15.366  0.2257 -0.0467 -0.5354
  924MPD2    C313574   2.888   4.551  15.260  0.2627  0.1451  0.7426
  924MPD2    C413575   2.813   4.520  15.148 -0.6013 -0.1311  0.0677
  924MPD2    C513576   2.727   4.414  15.147 -0.5523 -0.3716 -0.3372
  924MPD2     H13577   2.960   4.469  15.447 -0.2969  0.6449 -0.1649
  924MPD2    H113578   2.826   4.581  15.060 -1.9697 -2.3654 -1.6921
  924MPD2    H213579   2.635   4.260  15.252 -0.9461  0.2048 -0.5488
  924MPD2    H313580   2.660   4.407  15.062 -1.2962 -1.4973  0.3345
  924MPD2     N13581   2.968   4.678  15.262  0.0539 -0.4248 -0.0674
  924MPD2    H513582   2.957   0.008  15.184 -3.2197 -2.1315 -1.0324
  924MPD2    N113583   2.784   4.268  15.476 -0.4380 -0.2327 -0.0053
  924MPD2    H713584   2.700   4.212  15.466  1.0960 -2.3077 -1.1368
  925MPD2     C13585   1.584   2.635  14.902 -0.1513 -0.2675  0.0247
  925MPD2    C113586   1.449   2.612  14.870  0.3524 -0.5420 -0.5472
  925MPD2    C213587   1.362   2.575  14.965 -0.7075  0.1482 -0.5167
  925MPD2    C313588   1.395   2.564  15.092 -0.1675  0.6641 -0.6043
  925MPD2    C413589   1.526   2.574  15.133 -0.3447  0.0265  0.5409
  925MPD2    C513590   1.619   2.619  15.037  0.8109 -0.1494 -0.1203
  925MPD2     H13591   1.258   2.557  14.939 -0.4383  1.1196 -2.3322
  925MPD2    H113592   1.562   2.553  15.233 -0.5101 -3.1497 -0.0678
  925MPD2    H213593   1.656   2.666  14.827  2.7451 -3.0567  1.6308
  925MPD2    H313594   1.720   2.635  15.074  0.7306  0.1831 -0.0446
  925MPD2     N13595   1.297   2.518  15.177 -0.0368  0.6183 -0.1708
  925MPD2    H513596   1.205   2.514  15.134  0.3239 -0.2795 -0.8660
  925MPD2    N113597   1.410   2.582  14.742 -0.4087  0.2055 -0.2571
  925MPD2    H713598   1.314   2.551  14.735  0.0212 -1.4238  1.1813
  926MPD2     C13599   4.590   0.680  13.605 -0.7206  0.3893  0.3223
  926MPD2    C113600   4.645   0.780  13.682 -0.8553 -0.3933  0.3779
  926MPD2    C213601   0.018   0.853  13.633  0.1736  0.2184  0.0739
  926MPD2    C313602   0.072   0.823  13.512 -0.2201  0.5455  0.2269
  926MPD2    C413603   0.022   0.719  13.441  0.5770 -0.4405  0.4047
  926MPD2    C513604   4.650   0.645  13.489  0.6230 -0.0260 -0.0178
  926MPD2     H13605   0.055   0.935  13.692  0.0835 -0.4041  0.9995
  926MPD2    H113606   0.069   0.677  13.352 -1.0055  0.2056 -0.7237
  926MPD2    H213607   4.506   0.624  13.644 -1.4657  2.9428  2.3928
  926MPD2    H313608   4.623   0.555  13.434  0.1690  0.2122 -0.1883
  926MPD2     N13609   0.189   0.884  13.454  0.0809  0.2630  0.5314
  926MPD2    H513610   0.221   0.842  13.368  0.2972 -0.4573  0.9663
  926MPD2    N113611   4.593   0.820  13.802  0.0539  0.1625 -0.0248
  926MPD2    H713612   4.629   0.910  13.833 -0.6340  1.0404 -1.7579
  927MPD2     C13613   4.542   2.364  17.668 -0.2986 -0.7161 -0.3462
  927MPD2    C113614   4.547   2.491  17.715 -0.3455  0.0905 -0.1911
  927MPD2    C213615   4.616   2.586  17.634  0.0951 -0.1992 -0.0481
  927MPD2    C313616   4.682   2.549  17.523 -0.1097  0.2288  0.3048
  927MPD2    C413617   4.678   2.418  17.483  0.1071 -1.0683  0.6628
  927MPD2    C513618   4.599   2.333  17.548  0.5082  0.5596 -0.3475
  927MPD2     H13619   4.604   2.690  17.662  0.9482 -0.4591  1.3110
  927MPD2    H113620   4.723   2.382  17.391 -2.1526  0.2005 -0.9745
  927MPD2    H213621   4.475   2.291  17.711 -2.5346  0.8015 -1.2543
  927MPD2    H313622   4.586   2.229  17.520 -0.0402 -0.2357  2.8561
  927MPD2     N13623   0.015   2.657  17.457 -0.2966 -0.0660 -0.1768
  927MPD2    H513624   0.005   2.742  17.511  2.0061 -0.2008  0.4595
  927MPD2    N113625   4.497   2.517   0.109 -0.0321  0.3659 -0.3018
  927MPD2    H713626   4.458   2.439   0.161  1.1757  0.1065  0.1973
  928MPD2     C13627   2.290   0.428  17.350 -0.6646  0.5762 -0.2312
  928MPD2    C113628   2.343   0.558  17.355 -0.4754 -0.5202 -0.7237
  928MPD2    C213629   2.476   0.580  17.326 -0.2210  0.5421  0.0595
  928MPD2    C313630   2.564   0.473  17.300  0.4445  0.0059 -0.5827
  928MPD2    C413631   2.508   0.350  17.297 -0.1937 -0.4998  0.2747
  928MPD2    C513632   2.375   0.324  17.312 -0.3672 -0.3508 -0.2144
  928MPD2     H13633   2.510   0.682  17.312  1.4723  0.2058  1.6649
  928MPD2    H113634   2.566   0.260  17.280  2.5771  1.8924 -2.8615
  928MPD2    H213635   2.184   0.408  17.363  0.0535 -2.0576  1.4093
  928MPD2    H313636   2.324   0.229  17.312  0.4169 -0.7669 -0.6289
  928MPD2     N13637   2.701   0.501  17.278 -0.1737 -0.0657 -0.0692
  928MPD2    H513638   2.728   0.595  17.302  1.7239 -0.7568  0.4757
  928MPD2    N113639   2.271   0.674  17.374 -0.3942  0.2623  0.2537
  928MPD2    H713640   2.313   0.766  17.373 -0.6156  0.3308 -1.5728
  929MPD2     C13641   2.899   1.160  10.803 -0.2156  0.0861 -0.6663
  929MPD2    C113642   2.795   1.070  10.780  0.2623  0.1700 -0.1923
  929MPD2    C213643   2.718   1.078  10.663 -0.1762  0.2495  0.2760
  929MPD2    C313644   2.738   1.193  10.584 -0.3472  0.0631 -0.0324
  929MPD2    C413645   2.831   1.286  10.618  0.2696 -0.4511 -0.1084
  929MPD2    C513646   2.912   1.271  10.721  0.6666 -0.2365  0.0090
  929MPD2     H13647   2.652   0.996  10.639 -0.3033  0.4289  0.0033
  929MPD2    H113648   2.848   1.374  10.556 -1.7718 -0.8957 -1.3158
  929MPD2    H213649   2.965   1.137  10.886 -1.1608  0.0257  0.0680
  929MPD2    H313650   2.997   1.337  10.731  0.4713 -0.0273  0.2902
  929MPD2     N13651   2.662   1.218  10.466 -1.2325 -0.5707 -0.3620
  929MPD2    H513652   2.674   1.312  10.429 -0.4731 -1.1531 -1.6043
  929MPD2    N113653   2.770   0.972  10.884  0.1398 -0.4586  0.2415
  929MPD2    H713654   2.838   0.960  10.959  2.4336 -0.5599 -1.8349
  930MPD2     C13655   4.135   3.691  14.211  0.4084  0.1647  0.2388
  930MPD2    C113656   4.272   3.682  14.168  0.1636 -0.1144  0.1297
  930MPD2    C213657   4.300   3.593  14.064  0.1379  0.4328 -0.5270
  930MPD2    C313658   4.201   3.527  13.998 -1.0650 -0.1269  0.6036
  930MPD2    C413659   4.073   3.538  14.040 -0.4183  0.4853 -0.2909
  930MPD2    C513660   4.040   3.615  14.148 -0.1355 -0.2008  0.5510
  930MPD2     H13661   4.393   3.607  14.011  1.0874 -0.4311  0.8854
  930MPD2    H113662   3.988   3.490  13.992 -0.2193  0.6844 -0.8330
  930MPD2    H213663   4.103   3.760  14.288 -0.7930  1.3991 -1.3694
  930MPD2    H313664   3.939   3.626  14.187 -0.7540 -0.8357 -0.8453
  930MPD2     N13665   4.214   3.471  13.867  0.3721 -0.2208  0.1300
  930MPD2    H513666   4.131   3.457  13.811  1.2643 -0.7578 -1.0527
  930MPD2    N113667   4.364   3.784  14.206  0.1050 -0.4525 -0.7158
  930MPD2    H713668   4.332   3.876  14.236 -1.1978 -1.3795  0.7978
  931MPD2     C13669   0.206   2.325   0.531 -0.1768  0.5011  0.2507
  931MPD2    C113670   0.096   2.345   0.599 -0.8985  0.2435  0.7300
  931MPD2    C213671   0.086   2.280   0.715 -0.1620 -0.0190 -0.2258
  931MPD2    C313672   0.177   2.186   0.756 -0.5160  0.6340  0.6008
  931MPD2    C413673   0.289   2.161   0.679  1.0582  0.4918 -0.2329
  931MPD2    C513674   0.304   2.235   0.565 -0.6028 -0.2724 -0.3651
  931MPD2     H13675   4.725   2.287   0.768 -0.5987  1.2371 -1.1916
  931MPD2    H113676   0.356   2.078   0.699  1.2746  0.5183 -0.8588
  931MPD2    H213677   0.219   2.376   0.436  3.7689 -1.0225 -0.0111
  931MPD2    H313678   0.385   2.219   0.495 -1.1999  2.1711 -1.6450
  931MPD2     N13679   0.160   2.100   0.866  0.2673 -0.0161 -0.3811
  931MPD2    H513680   0.215   2.015   0.859 -0.5358 -0.5219 -0.5706
  931MPD2    N113681   0.008   2.445   0.548  0.3898  0.4589  0.0180
  931MPD2    H713682   0.026   2.476   0.453 -1.2192  1.6476  0.0984
  932MPD2     C13683   0.881   2.455  11.317 -0.2020 -0.5535  0.8811
  932MPD2    C113684   0.980   2.421  11.403  0.0987 -0.9680  0.6238
  932MPD2    C213685   0.967   2.307  11.482 -0.2198 -0.2562 -0.9131
  932MPD2    C313686   0.847   2.232  11.466 -0.3288 -0.1955 -0.5403
  932MPD2    C413687   0.749   2.271  11.376  0.0522 -0.5521  1.1002
  932MPD2    C513688   0.765   2.385  11.311 -0.0619  0.1329 -0.1129
  932MPD2     H13689   1.049   2.284  11.548 -1.6879 -0.9509  0.6802
  932MPD2    H113690   0.663   2.205  11.372 -1.6208  1.5333  2.1235
  932MPD2    H213691   0.877   2.541  11.251  1.2230 -0.7567  0.5421
  932MPD2    H313692   0.690   2.419  11.241  0.3137  2.6424  0.6812
  932MPD2     N13693   0.809   2.116  11.535  0.2662  0.3345  0.1895
  932MPD2    H513694   0.713   2.085  11.525 -0.2496  2.2266 -0.6104
  932MPD2    N113695   1.096   2.490  11.433 -0.1157  0.1188 -0.2804
  932MPD2    H713696   1.166   2.451  11.495 -0.1528 -1.0669 -0.9922
  933MPD2     C13697   2.104   1.198  16.949  0.1558  0.3690  0.5458
  933MPD2    C113698   2.039   1.206  17.068  1.0060  0.1717  0.1019
  933MPD2    C213699   1.937   1.299  17.076  0.7425  1.0599 -0.5259
  933MPD2    C313700   1.925   1.408  16.986 -0.4406  0.7454 -0.8651
  933MPD2    C413701   2.010   1.411  16.884 -0.1755 -0.4283  0.2343
  933MPD2    C513702   2.100   1.308  16.860  0.1524  0.3648  0.5601
  933MPD2     H13703   1.874   1.306  17.163  2.3180 -1.5241  0.8275
  933MPD2    H113704   2.017   1.488  16.807 -2.2048  0.6595  1.1429
  933MPD2    H213705   2.186   1.127  16.938 -0.3464  0.0271 -0.9589
  933MPD2    H313706   2.169   1.316  16.776 -2.0247 -0.5069 -1.3298
  933MPD2     N13707   1.830   1.510  17.010 -0.0235 -0.0064  0.2187
  933MPD2    H513708   1.776   1.498  17.096 -3.6991  0.5768 -2.0086
  933MPD2    N113709   2.066   1.109  17.168  0.0521  0.2907  0.6923
  933MPD2    H713710   2.143   1.044  17.152 -0.8718 -0.4197 -0.8886
  934MPD2     C13711   4.014   4.401   1.680 -0.3413 -0.4325  0.2160
  934MPD2    C113712   4.027   4.340   1.557 -0.1013  0.3430 -0.1667
  934MPD2    C213713   3.963   4.217   1.539 -0.0876  0.0785 -0.3943
  934MPD2    C313714   3.880   4.158   1.639 -0.2112 -0.2925 -0.2734
  934MPD2    C413715   3.857   4.230   1.755 -0.1297  0.2175  0.5645
  934MPD2    C513716   3.928   4.347   1.773  0.5633  0.1962  0.2657
  934MPD2     H13717   3.994   4.161   1.451  0.3232  2.6233 -1.8574
  934MPD2    H113718   3.796   4.194   1.838 -0.3626 -1.6640 -0.4243
  934MPD2    H213719   4.082   4.482   1.707  0.2893 -0.8629 -0.0926
  934MPD2    H313720   3.929   4.389   1.873  0.8810 -2.8167  1.5557
  934MPD2     N13721   3.812   4.035   1.622  0.2311 -0.1821  0.0538
  934MPD2    H513722   3.762   4.003   1.705  3.3079 -1.7564  1.3305
  934MPD2    N113723   4.097   4.399   1.454 -0.1344  0.0652  0.8167
  934MPD2    H713724   4.111   4.346   1.369  0.5778  1.2613  0.1808
  935MPD2     C13725   3.936   3.137   1.137 -0.8402 -0.0299  0.6656
  935MPD2    C113726   3.800   3.152   1.163 -0.0012 -0.3950 -0.7186
  935MPD2    C213727   3.757   3.266   1.228 -0.7286  0.4263 -0.0588
  935MPD2    C313728   3.845   3.357   1.272  0.5204 -0.2829 -0.0340
  935MPD2    C413729   3.978   3.330   1.263 -0.2844  0.5276  0.1014
  935MPD2    C513730   4.024   3.226   1.187  0.2507 -0.7125 -0.2602
  935MPD2     H13731   3.649   3.271   1.239 -0.9245 -0.3648 -1.6268
  935MPD2    H113732   4.051   3.404   1.294 -0.3119  0.8460 -0.6045
  935MPD2    H213733   3.984   3.058   1.080 -0.8685  2.6838 -3.1450
  935MPD2    H313734   4.131   3.208   1.190  0.1303 -1.4635 -0.2669
  935MPD2     N13735   3.811   3.477   1.343 -0.4139 -0.6059  0.4396
  935MPD2    H513736   3.888   3.537   1.372  0.7991 -1.7393 -0.4400
  935MPD2    N113737   3.709   3.053   1.115  0.6785 -0.1926  0.3229
  935MPD2    H713738   3.609   3.071   1.124  0.8640  0.4188  1.1086
  936MPD2     C13739   2.279   1.042  12.433  0.6809  0.9916 -0.1375
  936MPD2    C113740   2.292   1.148  12.518 -1.1569 -0.6569 -0.0596
  936MPD2    C213741   2.288   1.272  12.465  0.0059  0.2847 -0.0807
  936MPD2    C313742   2.285   1.292  12.328 -0.0085  0.4012  0.2271
  936MPD2    C413743   2.279   1.189  12.242  0.0520  0.0292  0.0409
  936MPD2    C513744   2.285   1.062  12.296  0.1409  0.4412  0.6712
  936MPD2     H13745   2.284   1.356  12.534 -0.2818  0.8986 -0.8422
  936MPD2    H113746   2.282   1.192  12.133  0.6911  1.7638  0.1004
  936MPD2    H213747   2.293   0.938  12.462  0.6226  0.3871 -2.2402
  936MPD2    H313748   2.271   0.978  12.229  1.0664  0.2590  0.7086
  936MPD2     N13749   2.273   1.427  12.282 -0.2401 -0.6292  0.5426
  936MPD2    H513750   2.271   1.498  12.354  1.9576 -0.4476  0.4395
  936MPD2    N113751   2.289   1.138  12.659 -0.2966  0.2649 -0.0964
  936MPD2    H713752   2.315   1.221  12.711 -1.6006 -1.2143  2.9215
  937MPD2     C13753   4.333   2.031  12.010  0.2362 -0.4677  0.1054
  937MPD2    C113754   4.295   2.168  12.002 -0.1093 -0.2077 -0.6894
  937MPD2    C213755   4.361   2.249  11.918 -0.6047  0.5103 -0.0955
  937MPD2    C313756   4.448   2.193  11.820  0.6181 -0.2857 -0.3513
  937MPD2    C413757   4.467   2.054  11.818  0.7351  0.7687 -0.7731
  937MPD2    C513758   4.421   1.978  11.923  0.1457  0.6431 -0.1106
  937MPD2     H13759   4.342   2.355  11.930 -0.0694  0.5590  0.2750
  937MPD2    H113760   4.531   2.000  11.749  1.8928 -1.3256  1.9413
  937MPD2    H213761   4.292   1.964  12.085 -1.1764  0.8092  0.4702
  937MPD2    H313762   4.453   1.875  11.934  1.2455  0.8919 -1.0980
  937MPD2     N13763   4.522   2.274  11.735  0.7538  0.0521  0.3933
  937MPD2    H513764   4.522   2.375  11.748 -1.9384 -0.0998  1.6729
  937MPD2    N113765   4.221   2.234  12.101 -0.1233  0.7767 -0.0894
  937MPD2    H713766   4.214   2.334  12.087  0.4980  1.0171  1.3447
  938MPD2     C13767   2.949   2.218   0.759 -0.0419  0.1229  0.4064
  938MPD2    C113768   2.854   2.235   0.859 -0.4297 -0.4528 -0.6185
  938MPD2    C213769   2.727   2.180   0.850  0.1027  0.6544 -0.0226
  938MPD2    C313770   2.685   2.127   0.732  0.0822  0.2760 -0.5016
  938MPD2    C413771   2.779   2.107   0.630  0.4670 -0.4447 -0.4166
  938MPD2    C513772   2.913   2.150   0.646 -0.8681  0.5488 -0.5363
  938MPD2     H13773   2.657   2.202   0.930  1.0006 -1.1073  1.2757
  938MPD2    H113774   2.744   2.064   0.538  0.1194 -1.6556  0.2862
  938MPD2    H213775   3.051   2.248   0.776 -0.4825  1.0612  1.3684
  938MPD2    H313776   2.980   2.132   0.562  0.1715  1.5602  0.0774
  938MPD2     N13777   2.557   2.080   0.704  0.4194 -0.4641 -0.2644
  938MPD2    H513778   2.546   2.051   0.608  1.9288 -1.9864  0.0261
  938MPD2    N113779   2.882   2.298   0.983  0.8075  0.2594 -0.2053
  938MPD2    H713780   2.825   2.272   1.063 -1.6265  3.0163 -1.0878
  939MPD2     C13781   3.462   4.607   1.167 -0.4990  0.1889  0.5708
  939MPD2    C113782   3.553   4.709   1.142 -0.4168  0.2029 -0.7491
  939MPD2    C213783   3.632   4.697   1.030  0.2761  0.5767  0.0839
  939MPD2    C313784   3.627   4.588   0.951  0.2491 -0.5888  0.4560
  939MPD2    C413785   3.530   4.488   0.970 -0.5088 -0.5358 -0.1554
  939MPD2    C513786   3.447   4.504   1.077 -0.6155 -0.0465  0.0614
  939MPD2     H13787   3.698   0.047   1.013  0.4430  0.1736 -1.2529
  939MPD2    H113788   3.521   4.412   0.894 -2.6760  0.7944 -1.2297
  939MPD2    H213789   3.392   4.610   1.250  0.8490  1.2319  1.6571
  939MPD2    H313790   3.375   4.427   1.102  0.4883 -0.4145  2.1224
  939MPD2     N13791   3.722   4.583   0.838  0.2258  0.0986 -0.2175
  939MPD2    H513792   3.791   4.657   0.841 -0.8528  1.1074  0.1210
  939MPD2    N113793   3.565   0.078   1.234 -0.0908  0.4870 -0.1012
  939MPD2    H713794   3.485   0.078   1.296 -1.2608  1.2984 -1.6020
  940MPD2     C13795   2.547   0.685  13.182  0.0170 -0.5668  0.1788
  940MPD2    C113796   2.664   0.692  13.255  0.0175  0.5036  0.4047
  940MPD2    C213797   2.783   0.716  13.190  0.1430 -0.2844 -0.3601
  940MPD2    C313798   2.781   0.729  13.045  0.0355  0.2531  0.3173
  940MPD2    C413799   2.665   0.719  12.974 -0.2655 -0.0744  0.1981
  940MPD2    C513800   2.548   0.693  13.044 -0.0347 -0.3149  0.8342
  940MPD2     H13801   2.874   0.718  13.248 -0.5841  0.4347  0.7433
  940MPD2    H113802   2.666   0.719  12.865 -0.6500  0.3710  0.1957
  940MPD2    H213803   2.449   0.678  13.228  0.0894 -0.2752  0.3763
  940MPD2    H313804   2.450   0.680  13.001 -0.5284 -1.6478  2.3475
  940MPD2     N13805   2.907   0.740  12.979 -0.6539  0.2484 -0.1070
  940MPD2    H513806   2.910   0.724  12.879 -0.5441  0.0773 -0.0778
  940MPD2    N113807   2.672   0.662  13.391 -0.1784  0.4809 -0.3147
  940MPD2    H713808   2.764   0.644  13.428 -0.0078  0.3929 -0.7738
  941MPD2     C13809   2.206   4.577   9.398  0.1788 -0.1432  0.3972
  941MPD2    C113810   2.236   4.522   9.525 -0.1852  0.7266  0.4973
  941MPD2    C213811   2.137   4.460   9.594  0.2308  0.0730 -0.6990
  941MPD2    C313812   2.007   4.457   9.534  0.6395 -0.5312  0.2802
  941MPD2    C413813   1.979   4.518   9.413  0.8368 -0.5052  0.3062
  941MPD2    C513814   2.084   4.568   9.345 -0.1817  0.0320 -0.1272
  941MPD2     H13815   2.165   4.421   9.691 -0.2647  0.2749 -0.4725
  941MPD2    H113816   1.882   4.520   9.365  1.2543 -0.2557 -0.5413
  941MPD2    H213817   2.278   4.636   9.342 -0.8185  1.7756  1.1277
  941MPD2    H313818   2.066   4.611   9.247  0.9815 -0.4804 -0.5680
  941MPD2     N13819   1.896   4.407   9.592 -0.0281 -0.2085 -0.2487
  941MPD2    H513820   1.806   4.426   9.549  0.6565  2.0420 -0.7069
  941MPD2    N113821   2.361   4.525   9.580 -0.2619  0.3685  0.2337
  941MPD2    H713822   2.377   4.477   9.668  1.2042 -2.1229 -1.3882
  942MPD2     C13823   1.284   1.429   9.589 -0.2622  0.0742  1.2255
  942MPD2    C113824   1.374   1.454   9.690 -0.3889  0.4358  0.2503
  942MPD2    C213825   1.509   1.434   9.676  0.2120 -0.4966 -1.2310
  942MPD2    C313826   1.558   1.402   9.549  0.0718 -0.0941  0.6393
  942MPD2    C413827   1.466   1.366   9.450  0.6009 -0.7079 -0.6689
  942MPD2    C513828   1.330   1.381   9.470  0.1604 -0.4179 -0.5989
  942MPD2     H13829   1.572   1.455   9.761  1.1787 -0.7081 -1.8927
  942MPD2    H113830   1.491   1.308   9.362  1.8342 -2.7327  1.0229
  942MPD2    H213831   1.176   1.435   9.595 -0.4625 -1.9068 -0.6477
  942MPD2    H313832   1.257   1.349   9.397  1.3169 -0.4833 -1.7073
  942MPD2     N13833   1.697   1.385   9.529 -0.0849 -0.1068  0.0775
  942MPD2    H513834   1.713   1.365   9.431 -0.5941 -1.5635  0.2934
  942MPD2    N113835   1.322   1.504   9.813 -0.8634  0.2429  0.1134
  942MPD2    H713836   1.390   1.510   9.888 -0.6952  0.5291 -0.0653
  943MPD2     C13837   0.683   0.178  10.082  0.0844 -0.1153  0.4297
  943MPD2    C113838   0.616   0.107  10.183 -0.7201 -0.6036 -0.1433
  943MPD2    C213839   0.599   0.157  10.308 -0.3854 -0.2521 -0.2762
  943MPD2    C313840   0.652   0.280  10.336 -0.4651  0.1797  0.0016
  943MPD2    C413841   0.708   0.356  10.238  1.1335 -0.0389 -0.0230
  943MPD2    C513842   0.730   0.300  10.114  0.0225  0.0443 -0.2782
  943MPD2     H13843   0.549   0.102  10.388 -1.8897 -0.5603 -1.4324
  943MPD2    H113844   0.752   0.454  10.254 -1.5445  1.5517 -2.3608
  943MPD2    H213845   0.697   0.149   9.978 -0.8821  0.0837  0.2455
  943MPD2    H313846   0.779   0.349  10.030  0.6923  1.2131  0.7995
  943MPD2     N13847   0.646   0.341  10.468 -0.5649  0.3570  0.0908
  943MPD2    H513848   0.689   0.433  10.478 -2.0505  0.9407  1.0072
  943MPD2    N113849   0.575   4.710  10.145  0.2832  0.3693 -0.1331
  943MPD2    H713850   0.575   4.702  10.044  1.0231 -1.6417  0.0167
  944MPD2     C13851   0.285   3.457  10.940  0.4900  0.0616  0.3084
  944MPD2    C113852   0.346   3.577  10.913 -0.3914  0.0954  0.1724
  944MPD2    C213853   0.338   3.681  11.005  0.3209 -0.3328  0.0770
  944MPD2    C313854   0.256   3.660  11.115  0.1725  0.3840  0.5973
  944MPD2    C413855   0.195   3.531  11.140 -0.2962 -0.4194 -0.1734
  944MPD2    C513856   0.208   3.429  11.051  0.4059 -0.7694 -0.1745
  944MPD2     H13857   0.394   3.772  10.989 -3.3688  1.8607 -0.2854
  944MPD2    H113858   0.131   3.518  11.227 -2.2705 -0.3804 -1.6300
  944MPD2    H213859   0.280   3.381  10.863  0.5296  0.1613  0.2068
  944MPD2    H313860   0.162   3.332  11.064  1.3788 -1.2115 -0.0440
  944MPD2     N13861   0.249   3.776  11.195  1.1416  0.2904 -0.8484
  944MPD2    H513862   0.297   3.864  11.179 -0.6194  1.7120  1.6430
  944MPD2    N113863   0.420   3.588  10.788  0.1001 -0.3036 -0.1642
  944MPD2    H713864   0.399   3.514  10.721 -0.4351 -0.8771  0.6321
    1TMC1    C113865   3.621   4.203  14.500  0.4676 -0.6456  0.0007
    1TMC1    C213866   3.494   4.179  14.460  0.0003  0.0957 -0.4485
    1TMC1    C313867   3.471   4.068  14.388 -0.1746  0.2850  0.3976
    1TMC1    C413868   3.723   4.117  14.478  0.3034 -0.5932 -0.0699
    1TMC1    C513869   3.694   4.006  14.402 -0.2559  0.1680 -0.4111
    1TMC1    C613870   3.569   3.989  14.344 -0.2300 -0.1649 -0.0523
    1TMC1     C13871   3.638   4.320  14.586 -0.2852 -0.0354 -0.2260
    1TMC1     O13872   3.741   4.314  14.650 -0.5518 -0.6845 -0.3358
    1TMC1     H13873   3.416   4.243  14.499  0.9597  0.7184  0.4339
    1TMC1    H113874   3.822   4.151  14.505 -0.7127 -0.1801  3.1454
    1TMC1    H213875   3.554   3.904  14.279 -1.8520 -0.9012  1.2725
    1TMC1    C713876   3.802   3.912  14.358 -0.4841 -0.4698 -0.3579
    1TMC1    C813877   3.347   4.071  14.313  0.5223  0.0845  0.3016
    1TMC1    O113878   3.786   3.820  14.279  0.4705  0.1676 -0.2982
    1TMC1    O213879   3.272   4.167  14.323 -0.2876  0.6293 -0.0792
    1TMC1    O313880   3.919   3.951  14.417  0.0352 -0.2312 -0.0585
    1TMC1    H313881   3.918   4.039  14.460 -1.1726  0.0043 -0.5535
    1TMC1    O513882   3.311   3.939  14.289  0.4571 -0.8163 -0.5206
    1TMC1    H513883   3.373   3.882  14.341  1.0265 -0.0318 -0.3431
    2MPD2     C13884   3.513   0.039  14.782  0.3501  0.0910 -0.3276
    2MPD2    C113885   3.449   0.025  14.660  0.4031 -0.3617 -0.0852
    2MPD2    C213886   3.475   4.649  14.587 -0.4788  0.2550  0.5723
    2MPD2    C313887   3.539   4.540  14.637  0.3678 -0.4742  0.4565
    2MPD2    C413888   3.598   4.556  14.760 -0.1006  0.4042 -0.0468
    2MPD2    C513889   3.591   4.674  14.828  0.7151  0.2442 -0.0432
    2MPD2     H13890   3.422   4.634  14.493 -1.2232 -1.5558  1.2889
    2MPD2    H113891   3.650   4.472  14.805 -1.1526  0.9089  2.1092
    2MPD2    H213892   3.508   0.130  14.841  1.0749  1.2060 -2.0094
    2MPD2    H313893   3.640   4.674  14.925 -1.6233 -0.6464  1.1404
    2MPD2     N13894   3.544   4.418  14.570 -0.2660 -0.4391 -0.2723
    2MPD2    H513895   3.478   4.415  14.493  0.5434 -0.4728 -0.9703
    2MPD2    N113896   3.375   0.134  14.616  0.2744  0.1179  0.6340
    2MPD2    H713897   3.341   0.203  14.682  0.6808  1.7710 -0.8996
    3TMC2    C113898   3.273   0.273  14.460 -0.6296  0.4269 -0.1442
    3TMC2    C213899   3.178   0.317  14.549  0.3724 -0.4166  0.6682
    3TMC2    C313900   3.111   0.437  14.526  0.7647  0.1417  0.5545
    3TMC2    C413901   3.288   0.336  14.339 -0.8424  0.0496  0.7878
    3TMC2    C513902   3.220   0.451  14.322  0.1925 -0.4088  0.5308
    3TMC2    C613903   3.131   0.511  14.408 -0.3340  0.2561 -0.2906
    3TMC2     C13904   3.347   0.155  14.487 -0.2413  0.2634 -0.8084
    3TMC2     O13905   3.377   0.097  14.386  0.0101  0.4087 -0.0828
    3TMC2     H13906   3.156   0.255  14.635  2.2798  0.2113  1.5858
    3TMC2    H113907   3.361   0.296  14.270 -2.1791 -0.7201 -0.1798
    3TMC2    H213908   3.090   0.610  14.392 -2.8567 -0.7414  0.0428
    3TMC2    C713909   3.239   0.520  14.192 -0.3577  0.6443  0.1711
    3TMC2    C813910   3.035   0.485  14.635 -0.1956 -0.5761  0.4700
    3TMC2    O113911   3.336   0.477  14.132 -0.0369  0.0343  0.0631
    3TMC2    O213912   3.045   0.427  14.742 -0.0108 -0.1272 -0.5483
    3TMC2    O513913   2.928   0.540  14.582 -0.8775 -0.1271 -0.0959
    3TMC2    H513914   2.939   0.580  14.493  1.5816  1.6030  0.9798
    4TMC2    C113915   2.416   0.971  13.803 -0.5324 -0.7554  0.1492
    4TMC2    C213916   2.424   1.001  13.671  0.4853  0.2944 -0.0041
    4TMC2    C313917   2.543   0.968  13.610  0.1957  0.3533  0.0435
    4TMC2    C413918   2.524   0.932  13.880 -0.2076  1.1838 -0.6162
    4TMC2    C513919   2.643   0.914  13.815 -1.0997  0.0484  0.2629
    4TMC2    C613920   2.657   0.943  13.682  0.9010  0.2563  0.6215
    4TMC2     C13921   2.291   1.002  13.873  0.5842 -0.2739  0.5510
    4TMC2     O13922   2.281   0.978  13.992  0.2082  0.4370  0.1970
    4TMC2     H13923   2.343   1.028  13.604  1.0899  0.7755 -0.5326
    4TMC2    H113924   2.524   0.929  13.989  0.6394  0.5980 -0.6343
    4TMC2    H213925   2.750   0.927  13.628 -0.2623 -1.5439 -0.8578
    4TMC2    C713926   2.758   0.871  13.894  0.1605 -0.0101 -0.6343
    4TMC2    C813927   2.552   0.993  13.467  0.3748 -0.0446  0.3738
    4TMC2    O113928   2.725   0.819  13.998  0.4073  0.0751 -0.2794
    4TMC2    O213929   2.460   0.987  13.386  0.0871 -0.5849  0.3272
    4TMC2    O513930   2.663   1.068  13.448  0.5111 -0.5697 -0.1244
    4TMC2    H513931   2.706   1.098  13.531 -1.7183  2.1346  0.0606
    5MPD2     C13932   1.793   1.133  13.817  0.4441 -0.2725 -0.3785
    5MPD2    C113933   1.864   1.161  13.700  0.2056  0.0528 -0.0647
    5MPD2    C213934   1.996   1.138  13.699 -0.8321 -0.1208 -0.7158
    5MPD2    C313935   2.060   1.079  13.804 -0.1922 -0.0143  0.4912
    5MPD2    C413936   1.989   1.048  13.918  0.3669 -0.1325  0.6011
    5MPD2    C513937   1.851   1.074  13.927  0.1865  0.2927  0.2828
    5MPD2     H13938   2.059   1.166  13.615  1.0216 -2.4661 -0.1072
    5MPD2    H113939   2.041   0.984  13.988  1.0751  0.7339  0.8633
    5MPD2    H213940   1.686   1.151  13.809  0.3052 -0.9864 -0.1895
    5MPD2    H313941   1.780   1.047  14.004 -1.1323 -1.7519 -1.6516
    5MPD2     N13942   2.197   1.053  13.789 -0.2048 -0.1238 -0.2612
    5MPD2    H513943   2.232   1.069  13.695  1.6520 -0.8327  0.3050
    5MPD2    N113944   1.797   1.203  13.583 -0.0202  0.9200 -0.0270
    5MPD2    H713945   1.696   1.197  13.591 -0.0185 -0.0269 -0.7289
    6MPD1     C13946   2.130   2.609  12.408  0.4153 -0.6752  0.7524
    6MPD1    C113947   2.196   2.486  12.386 -0.3329 -0.2471  0.2201
    6MPD1    C213948   2.146   2.374  12.449 -0.2973  0.5342  0.8759
    6MPD1    C313949   2.018   2.373  12.511  1.1033 -0.3317  0.2421
    6MPD1    C413950   1.957   2.498  12.528  0.0893  0.1935  0.5736
    6MPD1    C513951   2.019   2.615  12.489 -0.0805 -0.1190 -0.7881
    6MPD1     H13952   2.195   2.279  12.430 -2.0597  0.0503 -1.2298
    6MPD1    H113953   1.861   2.507  12.579 -0.5606 -0.8256 -0.4814
    6MPD1    H213954   2.170   2.701  12.366  1.3984 -0.6272  1.7864
    6MPD1    H313955   1.979   2.710  12.521  0.4920 -0.3364  0.5676
    6MPD1     N13956   1.940   2.267  12.562  0.1370 -0.0137  0.3441
    6MPD1    H513957   1.845   2.278  12.595  0.1763 -1.0735  0.7892
    6MPD1    N113958   2.306   2.484  12.303 -0.2923 -0.5301  0.3934
    6MPD1    H613959   2.373   2.408  12.315  1.0971  1.0250  2.4182
    6MPD1    H713960   2.356   2.572  12.313 -2.4354  0.7639 -0.4136
    7MPD2     C13961   1.463   1.923  13.065 -0.2909 -0.0493 -0.2458
    7MPD2    C113962   1.539   1.837  12.999 -1.5921  0.3824 -0.0312
    7MPD2    C213963   1.549   1.708  13.049  0.3818  0.4158 -0.3870
    7MPD2    C313964   1.492   1.671  13.170 -0.1661  0.4340  0.6984
    7MPD2    C413965   1.415   1.767  13.230  0.1601 -0.1486  0.2391
    7MPD2    C513966   1.394   1.892  13.182  0.0682  0.0060 -0.3653
    7MPD2     H13967   1.619   1.638  13.005  0.7945  0.8587 -0.4406
    7MPD2    H113968   1.357   1.742  13.318  0.1996  0.4017  0.4180
    7MPD2    H213969   1.444   2.023  13.026  1.1590 -0.4793 -2.0620
    7MPD2    H313970   1.326   1.966  13.223  0.3623 -1.1720  2.2743
    7MPD2     N13971   1.513   1.536  13.217  0.4156 -0.6429  0.8239
    7MPD2    H513972   1.554   1.475  13.147 -0.0277  0.0646 -0.0464
    7MPD2    N113973   1.597   1.867  12.876  0.0500 -1.1553 -0.4417
    7MPD2    H713974   1.663   1.795  12.850  0.3658 -0.5046 -1.4397
    8TMC3    C113975   1.526   1.347  13.341 -0.2647  0.1004  0.2312
    8TMC3    C213976   1.631   1.324  13.417 -0.7536  0.4356  0.6804
    8TMC3    C313977   1.740   1.259  13.365  0.2594  0.5314 -0.2812
    8TMC3    C413978   1.526   1.298  13.215  0.2152  0.1044 -0.4174
    8TMC3    C513979   1.640   1.249  13.161  0.0171 -0.2541 -1.0253
    8TMC3    C613980   1.754   1.223  13.230  0.6724 -0.5404  0.3308
    8TMC3     C13981   1.491   1.489  13.345  0.5279  0.3460 -0.0296
    8TMC3     O13982   1.484   1.548  13.454 -0.3060 -0.4846 -0.6383
    8TMC3     H13983   1.639   1.378  13.511  3.0448 -1.2188  1.3510
    8TMC3    H113984   1.439   1.319  13.154 -1.5773 -0.6961  1.8773
    8TMC3    H213985   1.841   1.171  13.191  1.3592  0.1926  0.8726
    8TMC3    C713986   1.653   1.285  13.020 -0.2121  0.1276 -0.3982
    8TMC3    C813987   1.844   1.219  13.456 -0.1044  0.2537 -0.8682
    8TMC3    O113988   1.583   1.379  12.987 -0.6694 -0.3774 -0.7185
    8TMC3    O213989   1.960   1.200  13.415 -0.4036  0.2464 -0.0969
    9TMC3    C113990   1.885   2.035  12.587 -0.0684 -0.2474 -0.2582
    9TMC3    C213991   1.907   1.920  12.532  0.6619 -0.1342  0.0516
    9TMC3    C313992   1.828   1.819  12.574  0.5141  0.6943  0.6188
    9TMC3    C413993   1.789   2.065  12.674 -0.2970 -0.7772 -0.4251
    9TMC3    C513994   1.693   1.968  12.693 -0.2610 -0.7056  0.4096
    9TMC3    C613995   1.721   1.836  12.654 -0.7377  0.5831  0.3376
    9TMC3     C13996   1.986   2.137  12.557 -0.4338  0.3307 -0.0770
    9TMC3     O13997   2.093   2.086  12.521  0.5655 -0.0063  0.1276
    9TMC3     H13998   1.992   1.900  12.468  1.5731  0.7429  0.9997
    9TMC3    H113999   1.766   2.162  12.716  0.2774 -1.0106  0.4115
    9TMC3    H214000   1.650   1.754  12.661 -0.8275  0.5175 -1.5789
    9TMC3    C714001   1.604   1.986  12.808 -0.0582  0.0703 -0.4444
    9TMC3    C814002   1.883   1.686  12.565  0.1590  0.0693  0.0864
    9TMC3    O114003   1.559   2.099  12.838 -0.2721  0.2236 -0.4290
    9TMC3    O214004   1.941   1.648  12.458 -0.2586  0.0943  0.1185
   10MPD2     C14005   1.896   1.204  12.757 -1.4240 -0.7399 -0.6026
   10MPD2    C114006   1.823   1.282  12.845  0.4744 -0.2957 -0.4813
   10MPD2    C214007   1.815   1.420  12.812  0.3336  0.2116 -0.0882
   10MPD2    C314008   1.864   1.470  12.693  1.2682  0.0064  0.5579
   10MPD2    C414009   1.935   1.391  12.607 -0.7370 -0.8688  0.0611
   10MPD2    C514010   1.954   1.260  12.639 -0.4625 -0.1843  0.4461
   10MPD2     H14011   1.764   1.492  12.873  1.4618 -0.6173  1.8271
   10MPD2    H114012   1.975   1.421  12.510 -0.6066 -2.9004 -0.5090
   10MPD2    H214013   1.902   1.098  12.780  1.9954 -0.0257  1.7437
   10MPD2    H314014   2.016   1.199  12.575  0.5193  0.0824  1.1232
   10MPD2     N14015   1.849   1.615  12.678  0.3012 -0.4134  0.5202
   10MPD2    H514016   1.804   1.661  12.756 -2.0205  0.6989 -1.4657
   10MPD2    N114017   1.760   1.222  12.953  0.1802  0.0726  0.5731
   10MPD2    H714018   1.800   1.136  12.989 -1.0479 -1.1164 -0.8948
   11MPD2     C14019   3.254   0.703  13.962  0.6017  0.5062  0.0653
   11MPD2    C114020   3.134   0.679  14.030  0.0225  1.0353  0.5746
   11MPD2    C214021   3.009   0.738  13.991  0.1984 -0.1486  0.5797
   11MPD2    C314022   3.000   0.830  13.888 -0.2556 -0.7041  0.0295
   11MPD2    C414023   3.124   0.855  13.828 -0.1865  0.8328 -0.3435
   11MPD2    C514024   3.244   0.790  13.854 -0.6281  0.3810  0.3661
   11MPD2     H14025   2.926   0.708  14.054  1.2887 -0.3911  1.8898
   11MPD2    H114026   3.121   0.899  13.729 -1.5894 -1.5763 -1.3784
   11MPD2    H214027   3.346   0.646  13.973 -1.4507 -2.6872  0.4471
   11MPD2    H314028   3.334   0.819  13.801  0.6407 -1.6603  1.4354
   11MPD2     N14029   2.881   0.888  13.836  0.1465  0.6634  0.2174
   11MPD2    H514030   2.895   0.956  13.763  0.6314  0.1675 -0.1476
   11MPD2    N114031   3.132   0.593  14.151  0.4562  0.4452 -0.6326
   11MPD2    H714032   3.045   0.598  14.202  0.5459 -1.6598 -0.2757
    1MPD1     C14033   1.332   1.396  17.192 -0.3225 -0.1178 -0.0648
    1MPD1    C114034   1.365   1.282  17.266 -0.1584 -1.0284  0.3007
    1MPD1    C214035   1.470   1.204  17.221 -0.4662 -0.0582  0.8127
    1MPD1    C314036   1.529   1.234  17.099  0.3484  0.1715  0.2299
    1MPD1    C414037   1.499   1.348  17.028 -0.2781  0.2541 -0.1286
    1MPD1    C514038   1.401   1.434  17.076 -0.4516  0.1607  0.0964
    1MPD1     H14039   1.506   1.133  17.295  0.3501 -2.6285 -2.0366
    1MPD1    H114040   1.555   1.379  16.940  0.5191 -0.1419  0.2321
    1MPD1    H214041   1.260   1.469  17.227 -1.0976 -1.3560  0.9216
    1MPD1    H314042   1.383   1.526  17.022 -2.0393 -1.1449 -1.6138
    1MPD1     N14043   1.634   1.157  17.044  1.0618  0.4614 -0.2370
    1MPD1    H514044   1.663   1.196  16.955 -0.5962 -0.6253 -1.2550
    1MPD1    N114045   1.293   1.241  17.380 -0.0555 -0.0873  0.2274
    1MPD1    H614046   1.198   1.277  17.382 -0.2836 -0.4240 -3.3879
    1MPD1    H714047   1.309   1.146  17.412 -0.0530  0.0591  0.6594
    2MPD1     C14048   2.281   0.285  16.859 -0.1903 -0.1118  0.9342
    2MPD1    C114049   2.261   0.359  16.752 -0.1276 -0.4794 -0.1568
    2MPD1    C214050   2.169   0.462  16.767  0.3734 -0.6192 -0.0917
    2MPD1    C314051   2.124   0.505  16.889  0.1318 -0.4328  0.3531
    2MPD1    C414052   2.164   0.435  17.006  0.2888  0.7726 -0.8269
    2MPD1    C514053   2.237   0.318  16.980  0.8342  0.0156 -0.5456
    2MPD1     H14054   2.122   0.509  16.681 -0.4638  0.4548  0.9523
    2MPD1    H114055   2.132   0.452  17.109 -0.7989 -1.4997 -0.7825
    2MPD1    H214056   2.340   0.195  16.849 -1.3016 -0.8316  0.8043
    2MPD1    H314057   2.266   0.256  17.064 -2.5650 -0.0522  0.5658
    2MPD1     N14058   2.041   0.620  16.886  0.3829  0.0869 -0.3938
    2MPD1    H514059   2.025   0.670  16.799 -3.2927  1.6227  1.1649
    2MPD1    N114060   2.300   0.328  16.623 -0.0967  0.5842  0.6600
    2MPD1    H614061   2.309   0.404  16.556 -0.3910  1.5549  1.7147
    2MPD1    H714062   2.394   0.289  16.630 -1.0217 -1.7926 -0.3736
    3TMC3    C114063   1.919   0.809  16.959 -0.0045  0.1151  0.0919
    3TMC3    C214064   1.956   0.868  16.841 -0.2973 -0.1801 -0.3896
    3TMC3    C314065   1.905   0.993  16.807 -0.5067 -0.0989 -0.9623
    3TMC3    C414066   1.844   0.875  17.046 -0.6990  0.0446  0.0429
    3TMC3    C514067   1.789   0.990  17.002  0.0799 -0.3805  0.2689
    3TMC3    C614068   1.815   1.053  16.880 -0.5284  0.2961  0.0339
    3TMC3     C14069   1.999   0.693  16.999  0.2937  0.4758 -0.2626
    3TMC3     O14070   2.001   0.664  17.118  0.1769  0.5383  0.0272
    3TMC3     H14071   2.041   0.840  16.778  1.0247 -1.7079  2.0898
    3TMC3    H114072   1.810   0.818  17.132  0.4635  0.5936  0.8813
    3TMC3    H214073   1.795   1.157  16.859  0.7286  0.6481  0.5824
    3TMC3    C714074   1.681   1.044  17.093  0.2036  0.3472 -0.5947
    3TMC3    C814075   1.955   1.068  16.694  0.2751  0.0080  1.2288
    3TMC3    O114076   1.650   0.981  17.192  0.5896  0.0248  0.2917
    3TMC3    O214077   2.062   1.026  16.647 -0.0508 -0.5538  0.0941
    4MPD1     C14078   1.921   1.363  16.280 -0.3541  0.1000  0.2435
    4MPD1    C114079   1.793   1.328  16.322 -0.1151  0.3415 -0.3167
    4MPD1    C214080   1.772   1.261  16.443  0.2851 -0.2106  0.6477
    4MPD1    C314081   1.880   1.223  16.516  0.0682 -0.4517 -0.0508
    4MPD1    C414082   2.007   1.262  16.470 -0.1590 -0.5413  0.4881
    4MPD1    C514083   2.031   1.339  16.356  0.2756 -0.1739  0.3239
    4MPD1     H14084   1.676   1.226  16.478  0.3578 -0.0123  1.0476
    4MPD1    H114085   2.096   1.240  16.528 -1.2976  0.0589  2.4658
    4MPD1    H214086   1.922   1.428  16.193 -1.6440 -0.9042 -0.5291
    4MPD1    H314087   2.130   1.366  16.321  0.1749  0.1641  0.3053
    4MPD1     N14088   1.860   1.149  16.636 -0.3366  0.1911 -0.2794
    4MPD1    H514089   1.764   1.138  16.667 -0.6118  0.4279 -1.0476
    4MPD1    N114090   1.679   1.373  16.251  0.5319  0.7848 -0.1220
    4MPD1    H614091   1.589   1.330  16.273  0.9086  0.2113  0.2995
    4MPD1    H714092   1.682   1.378  16.150  1.1160  4.0556  0.0472
    1TCq1    O114093   1.249   1.740  11.951  0.4384  0.8104 -0.1759
    1TCq1    C114094   1.288   1.767  12.075 -0.2154  0.0445 -0.1876
    1TCq1    O214095   1.244   1.716  12.177  0.1260 -0.1703 -0.1686
    1TCq1    C214096   1.357   1.897  12.073  0.2038 -0.1521 -0.1072
    1TCq1    C314097   1.343   1.987  11.972  0.6319  0.0808 -0.0993
    1TCq1    C414098   1.428   2.093  11.971 -0.1054  0.0339 -0.1259
    1TCq1    C514099   1.543   2.092  12.046  0.3686 -1.1693 -0.6016
    1TCq1    C614100   1.552   2.000  12.147  0.2114 -1.0112  0.8005
    1TCq1    C714101   1.466   1.899  12.150 -0.0284 -0.2267  0.2573
    1TCq1    C814102   1.677   1.987  12.218  0.6661  0.1206  0.2616
    1TCq1    O414103   1.708   1.879  12.260  0.3497  0.3450 -0.2304
    1TCq1    C914104   1.439   2.168  11.846  0.5910  0.4025 -0.4103
    1TCq1    O514105   1.549   2.216  11.822  0.4085  0.2505  0.0193
    1TCq1    O614106   1.349   2.169  11.759  0.1889  0.3406 -0.4969
    1TCq1    H114107   1.308   1.771  11.879  2.6869  0.6400  1.5904
    1TCq1    H214108   1.256   1.993  11.908  0.0081 -2.8585  0.4736
    1TCq1    H314109   1.615   2.171  12.035 -1.1296  0.4983  1.7607
    1TCq1    H414110   1.477   1.828  12.231 -0.6938 -0.4672  0.1355
    2MPD1     C14111   2.165   2.053  12.103 -0.2084  0.4137  0.0628
    2MPD1    C114112   2.115   2.181  12.143  0.0824  0.1083  0.7491
    2MPD1    C214113   1.984   2.195  12.186  0.2349  0.1967  0.7715
    2MPD1    C314114   1.904   2.074  12.201 -0.3108  0.1139  0.0605
    2MPD1    C414115   1.971   1.947  12.182 -0.4986 -0.5914 -0.2360
    2MPD1    C514116   2.094   1.940  12.125  0.1517 -0.8331 -0.3615
    2MPD1     H14117   1.934   2.286  12.216 -2.3260 -1.0468  0.2512
    2MPD1    H114118   1.914   1.855  12.188  0.1271 -1.0309 -0.9486
    2MPD1    H214119   2.263   2.041  12.057  0.7489  1.2985  1.8479
    2MPD1    H314120   2.133   1.842  12.098 -0.1408 -0.4699 -2.0789
    2MPD1     N14121   1.764   2.093  12.207  0.0256  0.1909 -0.7019
    2MPD1    H514122   1.729   2.187  12.188  0.1644  0.4700  0.4585
    2MPD1    N114123   2.189   2.292  12.101 -0.0274 -0.1187 -0.3773
    2MPD1    H614124   2.290   2.279  12.096 -0.0069 -0.1238  0.1067
    2MPD1    H714125   2.167   2.371  12.162 -1.8976 -0.7509 -0.2501
    1TMC1    C114126   1.371   1.223   0.638 -0.0843  0.3328  0.1906
    1TMC1    C214127   1.307   1.155   0.749  0.5210 -0.9383 -0.2278
    1TMC1    C314128   1.289   1.017   0.722  0.1435 -0.2802 -0.7160
    1TMC1    C414129   1.433   1.159   0.534 -0.1099 -0.1738 -0.5418
    1TMC1    C514130   1.416   1.023   0.528  1.1579 -0.1362  0.6873
    1TMC1    C614131   1.344   0.952   0.617 -0.3909  0.3143 -0.1335
    1TMC1     C14132   1.395   1.359   0.646 -0.2726  0.4834 -0.1031
    1TMC1     O14133   1.447   1.417   0.546  0.2152  0.4409 -1.1836
    1TMC1     H14134   1.245   1.206   0.821  0.5728  1.2733 -1.7614
    1TMC1    H114135   1.485   1.211   0.454 -0.4223 -0.4900 -0.9504
    1TMC1    H214136   1.329   0.845   0.603 -1.9050  0.1201  2.7872
    1TMC1    C714137   1.454   0.961   0.404 -0.4787  0.3025  0.2242
    1TMC1    C814138   1.231   0.920   0.822 -0.3241  0.3638 -0.0797
    1TMC1    O114139   1.474   1.034   0.308 -0.2922 -0.2261  0.3957
    1TMC1    O214140   1.190   0.813   0.787 -0.2226  0.9344 -0.4864
    1TMC1    O314141   1.521   0.846   0.436  0.4156 -0.0470  1.0650
    1TMC1    H314142   1.525   0.824   0.532  0.6948 -0.2148  1.0126
    1TMC1    O514143   1.183   0.994   0.919 -0.1165  0.0817 -0.0121
    1TMC1    H514144   1.232   1.069   0.960  0.1088 -1.1204  1.9036
    2MPD1     C14145   1.437   1.805   0.902 -0.1639  0.2430 -0.7029
    2MPD1    C114146   1.382   1.707   0.983  0.0168  0.3262 -0.0458
    2MPD1    C214147   1.368   1.587   0.938  0.5653  0.2835 -0.1854
    2MPD1    C314148   1.386   1.552   0.807  0.3316 -0.1312 -0.7253
    2MPD1    C414149   1.451   1.642   0.722 -0.3087 -0.5470 -0.3192
    2MPD1    C514150   1.462   1.770   0.768  0.0458  0.2618  0.1251
    2MPD1     H14151   1.330   1.515   1.009  0.0929  1.6785  0.9686
    2MPD1    H114152   1.483   1.619   0.621  0.6267  3.5655 -0.9472
    2MPD1    H214153   1.448   1.904   0.945  1.0346  0.9223 -2.5624
    2MPD1    H314154   1.494   1.833   0.686  3.3210  0.1473  1.3017
    2MPD1     N14155   1.369   1.416   0.769 -0.0236  0.6397 -0.6832
    2MPD1    H514156   1.330   1.346   0.832  1.4810  0.9208  0.5369
    2MPD1    N114157   1.357   1.740   1.117  0.1402 -0.2777  0.6443
    2MPD1    H614158   1.305   1.670   1.170 -0.5042  0.8983  1.5803
    2MPD1    H714159   1.297   1.823   1.123 -0.8292 -1.0262  1.3499
    1MPD1     C14160   2.616   1.491  12.369  0.6620  0.5004  0.3888
    1MPD1    C114161   2.664   1.572  12.473 -0.6809  0.5879 -0.1838
    1MPD1    C214162   2.795   1.616  12.465  0.0144  0.3326 -0.2581
    1MPD1    C314163   2.872   1.577  12.357 -0.7665 -0.2710 -0.1593
    1MPD1    C414164   2.817   1.511  12.245 -0.1759 -0.0602 -0.7098
    1MPD1    C514165   2.693   1.449  12.262  0.2914 -0.1875  0.1222
    1MPD1     H14166   2.831   1.675  12.549  1.0353 -0.9317  0.1960
    1MPD1    H114167   2.880   1.488  12.160 -0.3306 -1.6664 -0.3875
    1MPD1    H214168   2.518   1.444  12.379  1.4450 -1.4958 -1.2784
    1MPD1    H314169   2.649   1.385  12.187  0.0538 -0.2755  0.3393
    1MPD1     N14170   3.009   1.611  12.364 -0.0770 -0.2099 -0.0149
    1MPD1    H514171   3.035   1.660  12.449 -1.4712  0.5385 -0.0282
    1MPD1    N114172   2.585   1.597  12.582 -0.1378  0.0707 -0.2212
    1MPD1    H614173   2.621   1.679  12.630 -0.5746 -0.7814  1.5495
    1MPD1    H714174   2.492   1.628  12.555  0.5607  1.7301 -0.6937
    2MPD1     C14175   4.148   2.798  10.310 -0.0257 -0.2822 -0.6122
    2MPD1    C114176   4.249   2.724  10.364 -0.0165  0.1881  0.8794
    2MPD1    C214177   4.218   2.604  10.418  0.1698  0.9612  0.1027
    2MPD1    C314178   4.099   2.540  10.400  0.7880  0.1783 -0.3640
    2MPD1    C414179   4.003   2.612  10.339  0.7410  0.3135 -0.0726
    2MPD1    C514180   4.028   2.741  10.293  0.0186  0.9212  1.1450
    2MPD1     H14181   4.299   2.555  10.471 -1.4485  2.5695  4.0507
    2MPD1    H114182   3.908   2.561  10.328  0.7745 -0.0665  1.3374
    2MPD1    H214183   4.170   2.898  10.275 -0.4010 -0.0635 -0.2248
    2MPD1    H314184   3.946   2.798  10.252  0.5682  0.4456 -0.6206
    2MPD1     N14185   4.067   2.417  10.461  0.5352  0.1593  0.1079
    2MPD1    H514186   3.982   2.367  10.437 -0.1400  1.1502  0.4307
    2MPD1    N114187   4.373   2.786  10.398  0.6425 -0.2534 -0.1077
    2MPD1    H614188   4.444   2.717  10.420  0.7425  0.2995  1.2769
    2MPD1    H714189   4.408   2.850  10.326  0.5486  0.4448  0.4689
    3MPD1     C14190   3.316   2.066  10.974  0.3641  0.0789 -1.0338
    3MPD1    C114191   3.421   2.107  11.058 -0.1195 -0.0443 -0.0952
    3MPD1    C214192   3.551   2.123  11.020  0.2614  0.8197 -0.5947
    3MPD1    C314193   3.584   2.102  10.885  0.6086  0.2670 -0.4493
    3MPD1    C414194   3.487   2.057  10.805  0.1208  0.3002 -0.0399
    3MPD1    C514195   3.361   2.030  10.850  0.2281 -0.0828 -0.7832
    3MPD1     H14196   3.631   2.147  11.088  0.0481  1.3775 -0.5434
    3MPD1    H114197   3.501   2.028  10.702 -0.0793 -1.1601  0.3362
    3MPD1    H214198   3.211   2.049  10.996  0.3828  2.9043  1.2061
    3MPD1    H314199   3.292   1.989  10.778 -1.2632  0.1124  0.5347
    3MPD1     N14200   3.715   2.120  10.842  0.1825  0.0187 -0.4127
    3MPD1    H514201   3.786   2.143  10.912  2.5845  0.0904 -2.8859
    3MPD1    N114202   3.393   2.106  11.193  0.6397  0.1613 -0.6485
    3MPD1    H614203   3.303   2.142  11.225 -0.2022 -0.2759 -2.5712
    3MPD1    H714204   3.471   2.145  11.246 -1.3094  0.3719  2.0659
    4MPD2     C14205   3.530   2.132  12.351  0.0602  0.5609  0.3450
    4MPD2    C114206   3.574   2.001  12.323  0.2356  0.1140 -0.1053
    4MPD2    C214207   3.669   1.994  12.224 -0.1702 -0.2417  0.0986
    4MPD2    C314208   3.724   2.103  12.162  0.1222 -0.0086 -0.3200
    4MPD2    C414209   3.689   2.233  12.193  0.5550  0.3064 -0.2932
    4MPD2    C514210   3.580   2.240  12.276  0.4024  0.6752  0.0010
    4MPD2     H14211   3.711   1.895  12.206  1.6146  0.6942 -0.9460
    4MPD2    H114212   3.741   2.320  12.154  0.7783  0.7075  0.8922
    4MPD2    H214213   3.445   2.147  12.416  0.1651  1.5844  0.2505
    4MPD2    H314214   3.538   2.337  12.301 -1.8721 -0.2683 -0.1598
    4MPD2     N14215   3.830   2.067  12.073 -0.8045  0.0643 -0.1538
    4MPD2    H514216   3.829   1.967  12.056 -1.4906  0.3955 -2.0569
    4MPD2    N114217   3.534   1.883  12.388  0.3300 -0.0456  0.1540
    4MPD2    H714218   3.593   1.803  12.365  0.1966  0.4414 -1.8821
    5TMC3    C114219   3.388   1.734  12.485 -0.1428 -0.4828  0.0192
    5TMC3    C214220   3.261   1.707  12.438 -0.6175  0.4101 -0.4627
    5TMC3    C314221   3.242   1.602  12.348 -0.7377 -0.6021  0.7469
    5TMC3    C414222   3.490   1.649  12.457 -0.5090  0.6345  1.0369
    5TMC3    C514223   3.471   1.549  12.362 -0.4320 -0.2861 -0.2190
    5TMC3    C614224   3.345   1.520  12.311 -0.3314  0.2975  0.7052
    5TMC3     C14225   3.426   1.875  12.476  0.4880 -0.1857  0.2152
    5TMC3     O14226   3.348   1.960  12.514 -0.0864 -0.1172 -0.2559
    5TMC3     H14227   3.181   1.779  12.453  0.7370  1.4065  2.0506
    5TMC3    H114228   3.587   1.660  12.503 -0.9306  0.2499  2.0123
    5TMC3    H214229   3.317   1.438  12.247  1.7730  0.4446 -0.4119
    5TMC3    C714230   3.587   1.534  12.274  0.1571 -0.7267 -0.2773
    5TMC3    C814231   3.111   1.570  12.282 -0.3345  0.0600  0.3052
    5TMC3    O114232   3.686   1.605  12.295 -0.0464  0.3387 -0.1449
    5TMC3    O214233   3.103   1.497  12.186  0.0741  0.3868 -0.0136
    6TMC3    C114234   4.087   2.233  10.618  0.6349 -0.0747 -0.5361
    6TMC3    C214235   3.950   2.219  10.626  0.1000  0.6709  0.1376
    6TMC3    C314236   3.897   2.134  10.719  0.1342 -0.7415  0.1061
    6TMC3    C414237   4.170   2.169  10.715 -0.0781  0.5614  0.1668
    6TMC3    C514238   4.109   2.098  10.819  0.5467 -0.0953  0.2298
    6TMC3    C614239   3.969   2.067  10.814  0.5521 -0.5853 -0.1379
    6TMC3     C14240   4.150   2.350  10.549  1.3932  0.1108 -0.4966
    6TMC3     O14241   4.257   2.387  10.599  0.3670  0.2761  0.3438
    6TMC3     H14242   3.884   2.279  10.564 -1.0285 -0.0935  0.6079
    6TMC3    H114243   4.276   2.189  10.722  0.0066 -1.1106  3.5973
    6TMC3    H214244   3.921   1.993  10.878 -1.0433 -0.4795 -1.2066
    6TMC3    C714245   4.183   2.048  10.934  0.9904  0.5148 -0.9241
    6TMC3    C814246   3.756   2.119  10.713  0.2590  0.9588 -0.0484
    6TMC3    O114247   4.302   2.042  10.915  0.3559 -0.7751 -0.4888
    6TMC3    O214248   3.694   2.118  10.606 -0.2965  0.0581 -0.7677
    7MPD2     C14249   3.805   1.418  11.824  0.6178 -0.0340 -0.1455
    7MPD2    C114250   3.815   1.528  11.905  0.1594 -0.0731 -0.6928
    7MPD2    C214251   3.739   1.534  12.025 -0.7939 -0.2218 -1.0214
    7MPD2    C314252   3.647   1.439  12.056  0.4219 -0.0119  0.5706
    7MPD2    C414253   3.634   1.325  11.976 -0.1181  0.1757 -0.1897
    7MPD2    C514254   3.718   1.320  11.867 -0.5765 -0.1497 -0.4902
    7MPD2     H14255   3.775   1.606  12.097 -2.3700  0.1563 -0.5922
    7MPD2    H114256   3.554   1.253  11.983 -0.1432  0.4147  1.9115
    7MPD2    H214257   3.869   1.408  11.736 -1.1346 -1.2206 -1.2840
    7MPD2    H314258   3.697   1.242  11.794 -3.1154  0.0366  0.0606
    7MPD2     N14259   3.568   1.440  12.174  0.6077  0.3185 -0.1195
    7MPD2    H514260   3.494   1.371  12.181  0.0355  0.9705  0.1479
    7MPD2    N114261   3.899   1.641  11.876  0.1782  0.2050 -0.2926
    7MPD2    H714262   3.965   1.633  11.800  0.0744 -0.0390 -0.3586
    8TMC3    C114263   4.002   1.840  11.875 -0.1059 -0.3701 -0.1092
    8TMC3    C214264   3.979   1.853  11.742 -0.1073  0.2750 -0.6344
    8TMC3    C314265   3.947   1.975  11.690 -0.4754  0.2794 -0.1355
    8TMC3    C414266   4.021   1.955  11.947 -0.6397 -1.0407  0.0292
    8TMC3    C514267   3.986   2.082  11.896 -0.0805 -0.2340  0.0308
    8TMC3    C614268   3.935   2.084  11.771  0.7886  1.0029  0.0251
    8TMC3     C14269   3.916   1.751  11.946  0.1753  0.2938 -1.0794
    8TMC3     O14270   3.856   1.795  12.040  0.1608  0.1246 -0.0173
    8TMC3     H14271   3.964   1.764  11.681  0.9807 -0.4692  0.1920
    8TMC3    H114272   4.047   1.946  12.052  0.7220 -2.4487 -0.4360
    8TMC3    H214273   3.889   2.176  11.740  0.2573  0.0434 -2.0235
    8TMC3    C714274   3.898   2.157  11.989 -0.2775  0.2976  0.6479
    8TMC3    C814275   3.974   1.998  11.550 -0.6674  0.6604  0.4039
    8TMC3    O114276   3.887   2.276  11.970 -0.3576  0.1970  0.0597
    8TMC3    O214277   3.945   2.105  11.497 -0.2554 -0.3786 -0.2925
    9MPD2     C14278   4.246   1.818  11.378 -0.3546 -0.0980 -0.6107
    9MPD2    C114279   4.141   1.906  11.386  0.7563  0.4752  0.0884
    9MPD2    C214280   4.093   1.968  11.275 -0.0950 -0.1987  0.1062
    9MPD2    C314281   4.160   1.961  11.161 -0.3911  0.2657  0.1114
    9MPD2    C414282   4.276   1.880  11.151 -0.7740 -0.4422 -0.4380
    9MPD2    C514283   4.308   1.797  11.255  0.0322 -0.9308 -1.1877
    9MPD2     H14284   3.994   2.013  11.277 -0.2468 -0.5281  0.0775
    9MPD2    H114285   4.330   1.867  11.058  1.9146 -0.0348  1.0584
    9MPD2    H214286   4.267   1.749  11.460 -2.4238  1.0233  0.8648
    9MPD2    H314287   4.399   1.740  11.244  0.9003 -0.1990  2.3588
    9MPD2     N14288   4.103   2.023  11.044  0.3446 -0.1958  0.2990
    9MPD2    H514289   4.010   2.062  11.046  1.0656  1.4813  1.1787
    9MPD2    N114290   4.080   1.918  11.513  0.0904  0.4505 -0.1081
    9MPD2    H714291   4.108   1.860  11.592 -0.5198  1.6042  0.9543
    1MPD1     C14292   3.385   0.922  16.559 -0.0938 -0.1085  0.6432
    1MPD1    C114293   3.399   0.795  16.615  0.1553 -0.0390 -0.1847
    1MPD1    C214294   3.346   0.680  16.560 -0.8076  1.1138  0.1771
    1MPD1    C314295   3.279   0.695  16.441  0.4043 -0.2847  0.4105
    1MPD1    C414296   3.270   0.820  16.388  0.5856  0.1095  0.4798
    1MPD1    C514297   3.304   0.935  16.447  0.2828 -0.2533  0.4424
    1MPD1     H14298   3.352   0.584  16.610  0.8256  1.6835  1.0732
    1MPD1    H114299   3.212   0.821  16.297  2.5989 -1.2075 -0.8201
    1MPD1    H214300   3.437   1.011  16.592 -1.0194  1.4836 -2.1826
    1MPD1    H314301   3.277   1.030  16.403  0.9828 -0.6746 -0.8987
    1MPD1     N14302   3.249   0.581  16.360  0.0723  0.3015  0.4925
    1MPD1    H514303   3.217   0.606  16.267 -0.4114 -0.5214  0.4315
    1MPD1    N114304   3.498   0.784  16.715  0.5838 -0.3282 -0.2841
    1MPD1    H614305   3.521   0.867  16.769 -0.4458  0.1119 -0.5166
    1MPD1    H714306   3.472   0.715  16.784 -0.2587  1.1418  0.8730
    2TMC2    C114307   3.027   0.223  16.210  0.0578 -0.4158 -0.6602
    2TMC2    C214308   3.032   0.276  16.084 -0.0535 -0.5211 -0.0403
    2TMC2    C314309   3.138   0.366  16.057  0.2171 -0.1078 -0.7324
    2TMC2    C414310   3.116   0.257  16.305  0.0444  0.3838  0.2275
    2TMC2    C514311   3.202   0.367  16.279 -0.2556 -0.2383  0.4599
    2TMC2    C614312   3.217   0.416  16.158 -0.0067  0.4593  0.5819
    2TMC2     C14313   2.921   0.126  16.252  0.3007 -0.1677 -0.8140
    2TMC2     O14314   2.937   0.071  16.361  0.1021  0.3054  0.4581
    2TMC2     H14315   2.968   0.239  16.005  0.6164  1.2306 -1.4068
    2TMC2    H114316   3.106   0.214  16.404 -0.8661 -0.4747 -0.2496
    2TMC2    H214317   3.278   0.504  16.139 -0.8055  0.7321 -0.7506
    2TMC2    C714318   3.239   0.446  16.400  0.4930  0.4051 -0.5032
    2TMC2    C814319   3.132   0.444  15.928 -0.5681 -0.6287  0.1597
    2TMC2    O114320   3.253   0.391  16.505  0.3475  0.0770 -0.3488
    2TMC2    O214321   3.227   0.520  15.898 -0.1334  0.1006  0.5176
    2TMC2    O514322   3.001   0.477  15.909  0.0199 -0.4489  0.1917
    2TMC2    H514323   2.955   0.429  15.981  0.9282  0.4913  1.4054
    3MPD1     C14324   2.466   4.641  16.170 -0.2709  0.9437  0.0281
    3MPD1    C114325   2.540   4.648  16.281  0.2370 -0.7811 -0.0366
    3MPD1    C214326   2.664   4.710  16.281 -0.3273 -0.0908  0.1679
    3MPD1    C314327   2.695   0.060  16.173  0.7054  0.1481 -0.7616
    3MPD1    C414328   2.623   0.063  16.058 -0.3633 -0.6119 -0.5409
    3MPD1    C514329   2.510   4.722  16.067  0.0624 -0.3114  0.1219
    3MPD1     H14330   2.733   4.700  16.363  1.2152  0.5269 -1.0571
    3MPD1    H114331   2.637   0.120  15.967 -1.8902 -1.6388 -1.4156
    3MPD1    H214332   2.377   4.579  16.167 -1.2720  2.2105  2.9128
    3MPD1    H314333   2.437   0.001  15.987  0.0862  0.0625  0.1621
    3MPD1     N14334   2.818   0.131  16.164 -0.7680 -0.2439 -0.4187
    3MPD1    H514335   2.826   0.193  16.085 -1.3045  0.5731  0.1683
    3MPD1    N114336   2.517   4.546  16.381 -0.2346  0.6070  0.6994
    3MPD1    H614337   2.417   4.533  16.395 -0.0199 -2.0937 -0.2721
    3MPD1    H714338   2.557   4.559  16.473 -1.9168 -0.2990  1.5560
    1TMC1    C114339   1.457   0.119  12.698  0.2209  0.4069 -0.1813
    1TMC1    C214340   1.356   0.041  12.743 -0.4912  0.5000  0.0919
    1TMC1    C314341   1.254   0.003  12.665  0.0453  0.0142 -0.1951
    1TMC1    C414342   1.460   0.157  12.565  0.7724  0.4519  0.8244
    1TMC1    C514343   1.354   0.121  12.489  0.0239  0.3880 -0.2648
    1TMC1    C614344   1.249   0.050  12.538  0.5560 -0.5136  0.4366
    1TMC1     C14345   1.580   0.152  12.774  0.1658  0.0949  0.5563
    1TMC1     O14346   1.662   0.216  12.714  0.2128 -0.1549 -0.0192
    1TMC1     H14347   1.350   0.017  12.849 -1.5738  0.9283  0.1278
    1TMC1    H114348   1.540   0.215  12.521 -0.2712  1.8142  0.7260
    1TMC1    H214349   1.167   0.010  12.479 -1.5783  0.0361  2.9866
    1TMC1    C714350   1.342   0.171  12.355  0.1952 -0.8775 -0.1617
    1TMC1    C814351   1.137   4.686  12.723  0.7495 -0.0690 -0.5663
    1TMC1    O114352   1.437   0.198  12.286 -0.2614  0.0307 -0.1174
    1TMC1    O214353   1.046   0.024  12.761 -0.1883  0.3184 -0.0458
    1TMC1    O314354   1.238   0.253  12.362 -0.2838 -0.2424 -0.2914
    1TMC1    H314355   1.175   0.244  12.437 -2.2704  3.7861 -1.4648
    1TMC1    O514356   1.120   4.568  12.657 -0.0557  0.3936  0.9162
    1TMC1    H514357   1.201   4.513  12.652 -0.3617 -0.0764  1.1148
    2MPD2     C14358   1.804   0.199  12.954  0.0285 -0.4051 -1.0676
    2MPD2    C114359   1.683   0.142  12.994 -0.4881 -1.0634 -0.2491
    2MPD2    C214360   1.674   0.116  13.130  0.1671  0.5019  0.3887
    2MPD2    C314361   1.772   0.148  13.222 -0.4487  0.3565 -0.6850
    2MPD2    C414362   1.883   0.218  13.182  0.0653  0.4668 -0.5566
    2MPD2    C514363   1.901   0.230  13.045 -0.3019  0.8924  0.0405
    2MPD2     H14364   1.580   0.081  13.171 -0.9038  2.2165 -0.6058
    2MPD2    H114365   1.969   0.243  13.243  0.0630  0.8118 -0.6957
    2MPD2    H214366   1.833   0.213  12.850 -2.5505 -2.5542 -2.0747
    2MPD2    H314367   2.003   0.252  13.015 -0.1762  0.8046  0.3948
    2MPD2     N14368   1.742   0.137  13.359  0.7169  0.5080  0.4527
    2MPD2    H514369   1.667   0.076  13.390  0.5968 -0.1956 -1.2540
    2MPD2    N114370   1.575   0.117  12.905  0.5816  0.1325  0.1737
    2MPD2    H714371   1.503   0.059  12.947 -0.4224 -0.3267 -2.1869
    3TCq1    O114372   1.367   0.001  13.798 -0.5767 -0.5474 -0.2144
    3TCq1    C114373   1.425   0.118  13.750  0.7027 -0.5588  0.7100
    3TCq1    O214374   1.367   0.216  13.700  0.0962 -0.2728 -0.7306
    3TCq1    C214375   1.558   0.081  13.724 -0.3774 -0.0683 -0.0817
    3TCq1    C314376   1.635   0.037  13.827  0.2611 -0.9357 -0.0101
    3TCq1    C414377   1.766   0.028  13.809  1.3928 -0.4619 -0.8398
    3TCq1    C514378   1.830   0.079  13.694  0.1259 -0.2040  0.3777
    3TCq1    C614379   1.753   0.128  13.599  0.3179  0.4590  0.0466
    3TCq1    C714380   1.613   0.135  13.608  0.5648  0.2024 -0.8522
    3TCq1    C814381   1.823   0.169  13.472 -0.1250  0.0182  0.7099
    3TCq1    O414382   1.937   0.202  13.481 -0.2559 -0.5311 -0.0075
    3TCq1    C914383   1.850   4.697  13.909  0.4723  0.2580  0.3279
    3TCq1    O514384   1.798   4.620  13.996 -0.0896  0.3969 -0.0578
    3TCq1    O614385   1.973   4.694  13.888 -0.1916 -0.1956 -1.1104
    3TCq1    H114386   1.426   4.658  13.811  1.2694  0.8141 -0.6057
    3TCq1    H214387   1.584   4.729  13.912  0.9311 -1.3396  0.1884
    3TCq1    H314388   1.937   0.062  13.688  0.0555  0.4981 -3.0851
    3TCq1    H414389   1.554   0.165  13.522 -0.9103  0.6209  0.2887
    1MPD2     C14390   1.245   0.631  15.014  0.3306  0.7221 -0.2813
    1MPD2    C114391   1.298   0.708  14.907 -0.1522  0.3502 -0.2865
    1MPD2    C214392   1.432   0.730  14.900 -0.2224  1.1731 -0.4244
    1MPD2    C314393   1.523   0.673  14.978 -0.1237  0.2115 -0.6272
    1MPD2    C414394   1.474   0.590  15.077  0.4625 -1.1524 -0.3981
    1MPD2    C514395   1.338   0.573  15.093  0.4727 -0.3406 -0.4414
    1MPD2     H14396   1.468   0.803  14.827  0.7580  1.3321  0.2274
    1MPD2    H114397   1.543   0.534  15.139  1.3503 -1.2038 -1.4115
    1MPD2    H214398   1.139   0.610  15.029  0.1284  0.1831 -2.4215
    1MPD2    H314399   1.297   0.512  15.173 -2.5167  0.1896 -1.6065
    1MPD2     N14400   1.660   0.694  14.954  0.2163  0.6638 -0.5575
    1MPD2    H514401   1.678   0.751  14.872  1.9533  0.7548 -0.0999
    1MPD2    N114402   1.206   0.773  14.814 -0.0109  0.5626 -0.0483
    1MPD2    H714403   1.112   0.772  14.852 -0.1289 -0.6567 -0.3753
    2TMC3    C114404   1.121   0.893  14.616 -0.5763  0.2169  0.0356
    2TMC3    C214405   1.168   0.932  14.495 -0.6328 -0.0793 -0.4108
    2TMC3    C314406   1.145   1.054  14.449 -0.2899  0.4328 -0.3058
    2TMC3    C414407   1.045   0.967  14.695 -0.2300  0.2027  0.0624
    2TMC3    C514408   1.016   1.093  14.639 -0.4879  0.2860  0.7495
    2TMC3    C614409   1.073   1.143  14.524  0.3209  0.3820 -0.2419
    2TMC3     C14410   1.232   0.817  14.686  0.2669  0.1165 -0.2189
    2TMC3     O14411   1.334   0.806  14.625  0.4231 -0.2074  0.1269
    2TMC3     H14412   1.222   0.852  14.446 -1.6207 -0.2731 -1.1724
    2TMC3    H114413   0.992   0.924  14.779 -0.8408 -0.7853 -0.8296
    2TMC3    H214414   1.061   1.247  14.495 -0.0381  0.2400 -0.5998
    2TMC3    C714415   0.936   1.178  14.725  0.4835 -0.2901 -0.1430
    2TMC3    C814416   1.278   1.112  14.415 -0.3514  0.6151 -0.1871
    2TMC3    O114417   0.837   1.125  14.775 -0.3052 -0.1435  0.3268
    2TMC3    O214418   1.284   1.232  14.371 -0.4268  0.1178  0.3086
    3TCq1    O114419   1.529   2.062  14.942 -0.4811  0.3560  0.4793
    3TCq1    C114420   1.444   2.167  14.951  0.0715 -0.4228 -0.4714
    3TCq1    O214421   1.471   2.277  14.908 -0.0055 -1.1845  0.5183
    3TCq1    C214422   1.310   2.104  14.966 -0.7502  0.1816 -0.2434
    3TCq1    C314423   1.210   2.192  14.974  0.0515 -0.2309 -0.0209
    3TCq1    C414424   1.078   2.141  14.967 -0.2747 -0.0973 -0.3449
    3TCq1    C514425   1.053   2.006  14.947  0.3179  0.9831  0.2239
    3TCq1    C614426   1.161   1.921  14.935  0.4887  0.1614 -0.8443
    3TCq1    C714427   1.291   1.970  14.938  0.6733  0.7593 -0.3886
    3TCq1    C814428   1.144   1.783  14.916  0.0064 -0.0237  0.5217
    3TCq1    O414429   1.225   1.723  14.851  0.2856  0.5736 -0.1665
    3TCq1    C914430   0.969   2.226  14.974 -0.1845  0.5193 -0.2624
    3TCq1    O514431   0.986   2.355  14.955 -0.2833  0.3656  0.4213
    3TCq1    O614432   0.862   2.172  15.026  0.2265  0.0727 -0.7344
    3TCq1    H114433   1.508   1.997  15.013 -0.6380  1.0933  1.1079
    3TCq1    H214434   1.220   2.298  14.993  0.2529 -0.7136  2.5424
    3TCq1    H314435   0.952   1.967  14.940  1.1152 -0.9672 -0.5003
    3TCq1    H414436   1.374   1.907  14.908 -0.1120 -1.0140  1.2180
    4MPD2     C14437   0.859   1.583  15.025  0.4710  0.0430 -0.6542
    4MPD2    C114438   0.972   1.606  14.946 -0.0147 -0.0913  0.3913
    4MPD2    C214439   1.016   1.508  14.862  0.2477 -0.5337  0.5848
    4MPD2    C314440   0.945   1.390  14.853  0.0114  0.3038  0.0158
    4MPD2    C414441   0.843   1.362  14.945  0.4563  0.0598  0.3820
    4MPD2    C514442   0.790   1.464  15.022  0.1232  0.4960  0.5181
    4MPD2     H14443   1.101   1.527  14.798 -2.9836  0.1003 -3.5376
    4MPD2    H114444   0.798   1.264  14.956 -0.6756  0.4214 -1.0582
    4MPD2    H214445   0.830   1.660  15.096  2.2972 -1.8217  2.0939
    4MPD2    H314446   0.711   1.445  15.094  0.8244 -0.5228  1.0067
    4MPD2     N14447   1.002   1.290  14.766  0.5621  0.3532 -0.1346
    4MPD2    H514448   1.090   1.316  14.723 -0.0111  0.8403 -1.0049
    4MPD2    N114449   1.020   1.735  14.961  0.2322 -0.1076 -0.0534
    4MPD2    H714450   0.970   1.788  15.031  1.7277  1.3138 -0.0483
    5TMC2    C114451   1.911   0.798  14.746 -0.1003  0.3700  0.2419
    5TMC2    C214452   1.961   0.695  14.677  0.6781  0.3030 -0.5330
    5TMC2    C314453   1.962   0.581  14.745  0.2422 -0.5365  0.4345
    5TMC2    C414454   1.882   0.781  14.878 -0.2379 -0.1580  0.0896
    5TMC2    C514455   1.883   0.660  14.948 -0.5368 -0.4961 -0.2013
    5TMC2    C614456   1.928   0.555  14.874 -0.0078 -0.2854 -0.2139
    5TMC2     C14457   1.809   0.878  14.681  0.7776 -0.0723  0.1753
    5TMC2     O14458   1.707   0.870  14.744 -0.4256  0.2017 -0.2021
    5TMC2     H14459   1.987   0.696  14.571  1.2584 -0.6652 -0.3921
    5TMC2    H114460   1.840   0.872  14.920  4.3918  2.3700 -0.7457
    5TMC2    H214461   1.928   0.453  14.910  0.3648 -0.8732 -1.8853
    5TMC2    C714462   1.766   0.627  15.012  0.2587  0.6854 -0.4294
    5TMC2    C814463   2.046   0.477  14.690  0.2414  0.0976 -0.5147
    5TMC2    O114464   1.777   0.544  15.104  0.0663  0.1424 -0.4061
    5TMC2    O214465   2.166   0.479  14.717 -0.2291  0.5195  0.0399
    5TMC2    O514466   1.958   0.374  14.676 -0.2452 -0.1305  0.0349
    5TMC2    H514467   1.872   0.401  14.638 -0.2723  1.5188  1.2648
    6MPD2     C14468   1.562   1.144  14.340 -0.2684  0.5578 -0.0133
    6MPD2    C114469   1.517   1.052  14.427  0.0775  0.1307 -0.1121
    6MPD2    C214470   1.614   0.971  14.490  0.1033 -0.0781  0.1056
    6MPD2    C314471   1.749   0.980  14.467  0.7981 -0.3200  0.3803
    6MPD2    C414472   1.796   1.072  14.378  0.0339 -0.2322  0.2095
    6MPD2    C514473   1.700   1.152  14.315 -0.6043 -0.1747 -0.0809
    6MPD2     H14474   1.580   0.900  14.564  0.1946 -0.5877 -0.3488
    6MPD2    H114475   1.899   1.104  14.369 -0.4725  0.8464 -1.6504
    6MPD2    H214476   1.501   1.209  14.279  0.0655  2.1994  1.3961
    6MPD2    H314477   1.729   1.224  14.239 -1.3286 -0.5745 -0.7337
    6MPD2     N14478   1.839   0.921  14.551  0.1961 -0.6624 -0.0118
    6MPD2    H514479   1.939   0.928  14.534 -0.0072 -0.2357 -1.0377
    6MPD2    N114480   1.382   1.033  14.459 -0.4109 -0.0572 -0.0285
    6MPD2    H714481   1.363   0.957  14.524 -0.4916  1.7819  2.1025
  945NH3     N114482   4.083   1.972  16.367 -0.1286  0.7821 -0.2831
  945NH3     H214483   4.171   1.999  16.325  1.0434 -1.8620  0.4425
  945NH3     H314484   4.081   2.024  16.454 -4.4303 -0.2451  0.1973
  945NH3     H414485   4.011   2.020  16.315 -3.1538 -1.7737  1.5222
  946SOD     NA14486   2.447   2.591  16.059  0.5613 -0.2440  0.8902
  947SOD     NA14487   1.772   1.280  14.925  0.2647 -0.1652  0.0458
  948SOD     NA14488   0.091   0.938   8.631  0.4008 -0.2973  0.4998
  949SOD     NA14489   0.648   2.936  11.452  0.0385 -0.0407  0.4186
  950SOD     NA14490   1.247   2.023  11.640  0.4139 -0.4006  0.2623
  951SOD     NA14491   1.692   0.126  10.752  0.2837 -0.0029  0.3582
  952SOD     NA14492   4.166   1.739  16.365  0.2661  0.2121  0.0197
  953SOD     NA14493   3.914   1.858  13.644 -0.2573 -0.1613 -0.3472
  954SOL     OW14494   3.521   3.045   5.780  0.4985  0.4456  0.6539
  954SOL    HW114495   3.539   3.137   5.763  3.2218  0.3506  2.8858
  954SOL    HW214496   3.476   3.018   5.700 -0.9737  0.0453  1.6124
  955SOL     OW14497   4.191   0.603   6.843  0.1026  0.1197  0.1338
  955SOL    HW114498   4.251   0.611   6.768  1.2327 -0.0399  1.0216
  955SOL    HW214499   4.262   0.625   6.903  1.1517 -0.7564 -0.7824
  956SOL     OW14500   0.146   4.316   0.806  0.3968  0.0678  0.1893
  956SOL    HW114501   0.196   4.237   0.831 -0.1106 -0.4654 -0.4877
  956SOL    HW214502   0.169   4.309   0.714  1.0959 -1.0459  0.4484
  957SOL     OW14503   2.671   1.569   4.227  0.5992 -0.2935 -0.3670
  957SOL    HW114504   2.635   1.609   4.148  0.7326 -0.4325 -0.4972
  957SOL    HW214505   2.677   1.479   4.193  1.0402  0.3971 -2.1199
  958SOL     OW14506   2.442   2.323   1.083  0.0074  0.2373  0.6963
  958SOL    HW114507   2.452   2.284   0.996  0.3700 -2.4876  1.9631
  958SOL    HW214508   2.354   2.297   1.112 -0.7697  3.2863  1.0269
  959SOL     OW14509   1.763   3.571   2.278 -0.4652  0.0998 -0.6960
  959SOL    HW114510   1.729   3.496   2.327  1.9912 -0.8967 -0.5395
  959SOL    HW214511   1.848   3.536   2.251  1.2225  0.6268  3.9376
  960SOL     OW14512   4.181   1.125   7.886  0.3315  0.3191  0.1056
  960SOL    HW114513   4.189   1.220   7.898  0.1147  0.3213  0.2298
  960SOL    HW214514   4.267   1.085   7.871  0.3308  0.3850 -0.0789
  961SOL     OW14515   4.516   2.094   4.179  0.0281 -0.5733  0.6647
  961SOL    HW114516   4.534   2.164   4.241  0.8023  0.1667 -0.3971
  961SOL    HW214517   4.421   2.095   4.172 -0.0799 -0.6044  2.1611
  962SOL     OW14518   0.794   2.864   8.910  0.8504 -0.0263 -0.1332
  962SOL    HW114519   0.797   2.825   8.997 -0.1426  1.6615  0.6516
  962SOL    HW214520   0.885   2.862   8.879  0.5085 -0.0424 -1.1338
  963SOL     OW14521   4.071   0.544  11.774 -0.4485  0.7342  0.3238
  963SOL    HW114522   4.145   0.485  11.787  0.3996  2.1125  1.6640
  963SOL    HW214523   4.054   0.533  11.681 -1.2724 -3.3548  0.9340
  964SOL     OW14524   4.246   2.198   1.659 -0.2626  0.3809 -0.2323
  964SOL    HW114525   4.259   2.250   1.738  0.3721  0.4599 -0.3940
  964SOL    HW214526   4.164   2.156   1.686 -0.4131  2.1590  2.0486
  965SOL     OW14527   1.293   3.640   6.427 -0.4033 -0.9781  0.0418
  965SOL    HW114528   1.361   3.636   6.360  1.2612  0.2881  1.6798
  965SOL    HW214529   1.281   3.733   6.411  2.8744 -0.7839 -1.2370
  966SOL     OW14530   3.668   1.523   3.082  0.3209 -0.0846 -0.4300
  966SOL    HW114531   3.605   1.512   3.154 -1.5243 -0.7689 -2.1336
  966SOL    HW214532   3.748   1.502   3.130  0.3995  0.4258 -0.3395
  967SOL     OW14533   1.614   2.768   2.825  0.4788 -0.0923 -0.0685
  967SOL    HW114534   1.582   2.819   2.899 -0.7601 -0.8657 -0.0615
  967SOL    HW214535   1.584   2.826   2.755  0.2018  2.1057  1.9136
  968SOL     OW14536   1.814   3.069   2.159  0.3636 -0.2597 -0.8892
  968SOL    HW114537   1.882   3.020   2.113 -0.3190 -1.2095 -0.8880
  968SOL    HW214538   1.741   3.008   2.167  1.2791 -1.2199  0.0097
  969SOL     OW14539   0.586   2.829   2.174  0.2994 -0.4961 -0.3024
  969SOL    HW114540   0.526   2.782   2.117  1.3732 -2.6947  0.3915
  969SOL    HW214541   0.637   2.870   2.104  1.1639  0.4784  0.9094
  970SOL     OW14542   3.624   4.107   7.486 -0.6190  0.6768 -0.7429
  970SOL    HW114543   3.672   4.025   7.497 -1.4492  0.5220  1.7975
  970SOL    HW214544   3.601   4.101   7.393  1.1439 -0.2732 -1.1132
  971SOL     OW14545   3.329   1.918   5.603  0.1451 -0.3301 -0.5890
  971SOL    HW114546   3.318   1.951   5.692  0.3194 -1.2001 -0.2460
  971SOL    HW214547   3.255   1.857   5.591 -1.7042  2.1923 -1.9584
  972SOL     OW14548   0.538   1.997   6.938  0.7846  0.1417  0.2842
  972SOL    HW114549   0.500   2.071   6.893  1.6421  0.6690  0.4277
  972SOL    HW214550   0.564   1.932   6.873 -0.8088  1.2538 -1.4495
  973SOL     OW14551   2.899   4.418   9.309  0.9583  0.4658 -0.5457
  973SOL    HW114552   2.865   4.332   9.284  0.4787  0.3161  0.6351
  973SOL    HW214553   2.948   4.404   9.390  0.9387 -0.3098 -0.6693
  974SOL     OW14554   4.046   3.610   1.417 -0.0825 -0.4893 -0.0692
  974SOL    HW114555   4.107   3.675   1.381 -2.1168  0.9556 -0.9712
  974SOL    HW214556   4.100   3.572   1.486 -0.5026  2.1196  1.7196
  975SOL     OW14557   3.428   0.509   7.211 -0.2271 -0.2533  1.0789
  975SOL    HW114558   3.446   0.588   7.262  0.5897  0.8489 -0.9363
  975SOL    HW214559   3.498   0.447   7.232 -0.2357 -0.5860  0.1058
  976SOL     OW14560   2.652   0.590  14.178  0.1996  0.1218  0.4384
  976SOL    HW114561   2.611   0.558  14.259 -0.2747  1.0463  0.5564
  976SOL    HW214562   2.618   0.679  14.180  0.1409  0.1540 -1.9015
  977SOL     OW14563   0.042   1.555  10.193 -0.7036  0.4287  0.6330
  977SOL    HW114564   4.685   1.559  10.166 -0.6892 -4.6642 -0.1727
  977SOL    HW214565   0.065   1.464  10.215 -0.3058  0.7655  1.5829
  978SOL     OW14566   0.325   0.280   9.492  0.5226 -0.0022 -0.5401
  978SOL    HW114567   0.389   0.210   9.506 -0.6867 -1.2277 -1.2076
  978SOL    HW214568   0.263   0.272   9.564 -1.7658  1.8532 -2.3355
  979SOL     OW14569   2.700   3.517   0.472 -0.4143 -0.3125 -0.6388
  979SOL    HW114570   2.650   3.585   0.517  1.2072  0.3308  0.2002
  979SOL    HW214571   2.700   3.445   0.534  1.3914 -0.1129 -0.4112
  980SOL     OW14572   2.975   4.076   5.690 -0.1251 -0.2604 -0.1950
  980SOL    HW114573   2.994   4.090   5.597  1.2609 -1.4993 -0.0945
  980SOL    HW214574   3.030   4.145   5.726  1.4018 -0.2252 -2.6374
  981SOL     OW14575   0.324   1.369  10.883  0.2609  0.1588 -0.3391
  981SOL    HW114576   0.282   1.290  10.917 -0.6944  0.8401  0.0845
  981SOL    HW214577   0.264   1.438  10.912 -0.8136 -0.2942 -1.5091
  982SOL     OW14578   2.945   2.910   8.587  0.6088  0.3359 -0.0801
  982SOL    HW114579   2.915   2.912   8.677 -2.0234  0.9296 -0.9669
  982SOL    HW214580   3.040   2.910   8.602  0.8354  1.1461 -1.5318
  983SOL     OW14581   1.065   1.413   6.318 -0.1407  0.1832  0.3908
  983SOL    HW114582   1.117   1.447   6.390  0.8327 -0.3622 -0.0496
  983SOL    HW214583   1.120   1.403   6.240  1.7574  1.7557  1.5233
  984SOL     OW14584   2.874   2.943  15.891 -0.0050 -0.2783 -0.0873
  984SOL    HW114585   2.792   2.924  15.937 -0.6157 -1.3561 -1.6036
  984SOL    HW214586   2.942   2.894  15.937 -1.7982 -0.3849  2.4782
  985SOL     OW14587   2.078   2.048   8.155 -0.0667  0.2873  0.1555
  985SOL    HW114588   2.134   2.035   8.078 -0.0433 -0.3841  0.2879
  985SOL    HW214589   2.015   1.978   8.136 -0.6912  0.8933 -0.0063
  986SOL     OW14590   2.247   4.490  16.403 -0.0922 -0.3325  0.5272
  986SOL    HW114591   2.181   4.556  16.379  0.7314  0.8378  1.5027
  986SOL    HW214592   2.245   4.433  16.326 -1.2895  1.2616 -0.6490
  987SOL     OW14593   4.083   2.755  17.515  0.1058 -0.0444  0.1646
  987SOL    HW114594   4.171   2.722  17.534 -0.9166 -1.9432  1.6013
  987SOL    HW214595   4.060   2.701  17.438  1.2618 -0.5506  0.1797
  988SOL     OW14596   2.535   2.226  16.833  0.1801 -0.0972 -0.4455
  988SOL    HW114597   2.521   2.134  16.810  2.1230 -0.0755 -1.7749
  988SOL    HW214598   2.554   2.214  16.926 -1.0137  2.1001  0.0844
  989SOL     OW14599   0.704   2.818   8.268 -0.4863  0.0416 -0.1045
  989SOL    HW114600   0.763   2.846   8.198 -0.9459  1.5092  0.0935
  989SOL    HW214601   0.651   2.897   8.279  0.6622  0.7290  0.5134
  990SOL     OW14602   3.582   1.341   3.987  0.2862 -0.3055 -0.1071
  990SOL    HW114603   3.656   1.337   4.048 -0.1623 -0.8226  0.4061
  990SOL    HW214604   3.512   1.330   4.052 -0.0494 -2.1048 -0.7768
  991SOL     OW14605   2.149   0.011   5.473 -0.1625  0.4794 -0.0587
  991SOL    HW114606   2.087   4.684   5.512 -1.0704  1.8010  0.5592
  991SOL    HW214607   2.108   0.095   5.496  0.9987  1.4065 -1.4155
  992SOL     OW14608   4.094   1.790   8.062 -0.0125  0.0901  0.2128
  992SOL    HW114609   4.137   1.860   8.013  2.3089 -0.1282  1.9464
  992SOL    HW214610   4.036   1.760   7.992 -0.2994  0.1845  0.4096
  993SOL     OW14611   2.990   2.614  15.118 -0.2694  0.0006 -0.1580
  993SOL    HW114612   3.014   2.622  15.026 -0.3317 -0.0065 -0.1746
  993SOL    HW214613   2.899   2.586  15.105 -0.1900 -0.6551  0.6740
  994SOL     OW14614   3.449   2.430  14.897  0.2244  0.1203  0.4478
  994SOL    HW114615   3.374   2.430  14.956  0.2758 -1.3019  0.5318
  994SOL    HW214616   3.437   2.497  14.830  0.0582  0.0622  0.4182
  995SOL     OW14617   4.709   3.879   6.429  0.3562  0.7213 -0.3754
  995SOL    HW114618   4.700   3.848   6.519  0.5459  0.3288 -0.4916
  995SOL    HW214619   4.618   3.889   6.400  0.6109  0.8679 -1.1151
  996SOL     OW14620   1.925   0.382   9.872 -0.9260 -0.1073  0.1078
  996SOL    HW114621   2.005   0.339   9.842 -0.9815 -0.0846 -0.0750
  996SOL    HW214622   1.889   0.403   9.786  0.3165  1.0383 -0.1344
  997SOL     OW14623   3.215   2.448   2.605  0.1912 -1.0159  0.3188
  997SOL    HW114624   3.183   2.361   2.627  0.5375 -1.0710  0.6098
  997SOL    HW214625   3.164   2.474   2.529  1.9211  2.5045  0.3237
  998SOL     OW14626   2.647   4.616   3.028 -0.0147  0.3935 -0.0926
  998SOL    HW114627   2.637   4.537   3.082  0.1860 -0.6138 -1.5480
  998SOL    HW214628   2.699   4.585   2.955 -0.3332 -3.2894  1.2188
  999SOL     OW14629   2.478   2.146   8.313 -0.0302  0.7802  0.4505
  999SOL    HW114630   2.519   2.224   8.275 -0.5608  1.6970  1.7323
  999SOL    HW214631   2.391   2.188   8.316 -1.2832 -1.7383 -0.4192
 1000SOL     OW14632   3.301   1.410   2.892 -0.7666  0.2447  0.1371
 1000SOL    HW114633   3.214   1.450   2.896 -0.4769  0.6765  2.3318
 1000SOL    HW214634   3.346   1.460   2.824  0.3869 -1.2972 -0.2155
 1001SOL     OW14635   2.311   1.275   6.106 -0.0470  0.2439 -0.0259
 1001SOL    HW114636   2.342   1.319   6.186  1.0415  0.1128 -0.3747
 1001SOL    HW214637   2.238   1.333   6.084 -1.3373 -1.1035  0.7611
 1002SOL     OW14638   0.685   0.934  16.779  0.3205  0.5837 -0.4747
 1002SOL    HW114639   0.598   0.972  16.773  0.6947  1.3739 -0.8252
 1002SOL    HW214640   0.709   0.950  16.688 -0.6884  0.7410 -0.7072
 1003SOL     OW14641   1.154   2.234   4.962 -0.3528  0.6428 -0.0434
 1003SOL    HW114642   1.099   2.205   4.889  0.6018 -0.8306 -0.1842
 1003SOL    HW214643   1.089   2.268   5.023  0.0574  2.1466 -0.4449
 1004SOL     OW14644   4.542   1.444   5.584 -0.1974 -0.0444 -0.7256
 1004SOL    HW114645   4.562   1.430   5.676  2.2816 -1.7185 -1.5022
 1004SOL    HW214646   4.600   1.520   5.575  0.4056 -0.2005  2.0512
 1005SOL     OW14647   3.926   1.691   3.251  0.0590  0.0935 -0.3762
 1005SOL    HW114648   3.954   1.637   3.178 -1.2032 -1.2553  0.1419
 1005SOL    HW214649   4.003   1.680   3.307  0.4915 -1.3728 -1.2680
 1006SOL     OW14650   2.607   3.161   3.117 -0.0889  0.1152 -0.4994
 1006SOL    HW114651   2.604   3.255   3.137 -2.3127 -0.1829  0.5914
 1006SOL    HW214652   2.534   3.154   3.057 -1.7078  1.2232  1.3307
 1007SOL     OW14653   3.604   0.384  16.763  0.6767 -0.1059 -0.1836
 1007SOL    HW114654   3.551   0.409  16.687 -0.2831 -0.0962  0.4819
 1007SOL    HW214655   3.679   0.440  16.746  1.0105  0.0367  1.7250
 1008SOL     OW14656   3.328   4.523   1.506 -0.0240 -0.1450  0.2122
 1008SOL    HW114657   3.289   4.478   1.581  2.5711  0.3353  1.8480
 1008SOL    HW214658   3.268   4.495   1.437  2.1060  0.8067 -2.0260
 1009SOL     OW14659   2.450   3.061   4.330 -0.1583 -0.1920  0.0561
 1009SOL    HW114660   2.412   3.140   4.369 -1.6664 -1.3223  0.8609
 1009SOL    HW214661   2.538   3.092   4.310 -0.7595  1.6534  0.2351
 1010SOL     OW14662   4.089   0.673   1.476 -0.1110  0.1555  0.0115
 1010SOL    HW114663   4.133   0.618   1.411  1.2677  1.4057 -0.1430
 1010SOL    HW214664   4.134   0.638   1.553  2.4633  0.7040 -1.2188
 1011SOL     OW14665   0.516   3.513   7.902  0.1041 -0.5241 -0.3822
 1011SOL    HW114666   0.590   3.572   7.913  1.2225 -2.4033  2.0960
 1011SOL    HW214667   0.476   3.554   7.824 -2.5350  0.2470  1.3703
 1012SOL     OW14668   3.014   2.813  16.280  0.4791 -0.4030 -0.5687
 1012SOL    HW114669   2.927   2.773  16.275  0.6464 -0.7941 -0.3561
 1012SOL    HW214670   2.992   2.882  16.343 -0.9160 -2.1878  0.9270
 1013SOL     OW14671   0.661   2.160   7.837  0.1400 -0.6912  0.2914
 1013SOL    HW114672   0.732   2.179   7.776  0.3098 -2.1729  0.0408
 1013SOL    HW214673   0.686   2.214   7.912 -0.9807 -2.1568  1.7087
 1014SOL     OW14674   1.622   3.951   8.779 -0.4982 -0.1527 -0.4710
 1014SOL    HW114675   1.595   3.908   8.698 -0.4654 -1.4886  0.2334
 1014SOL    HW214676   1.558   3.922   8.843  2.0271 -0.7887  1.7855
 1015SOL     OW14677   3.031   3.313   1.732 -0.1829 -0.5390  0.5828
 1015SOL    HW114678   2.986   3.269   1.804  0.2963 -0.8586  0.6927
 1015SOL    HW214679   3.043   3.243   1.668 -1.2462 -0.3035  0.1365
 1016SOL     OW14680   1.942   2.034   4.366 -0.5483  0.5668 -0.0622
 1016SOL    HW114681   2.000   1.958   4.376 -1.4733 -0.1932 -0.4788
 1016SOL    HW214682   1.970   2.085   4.442  0.4056  0.3447 -0.2599
 1017SOL     OW14683   3.609   0.278   4.478 -0.1080 -0.2573 -0.6218
 1017SOL    HW114684   3.676   0.326   4.526 -0.8453  0.1555 -0.0207
 1017SOL    HW214685   3.661   0.199   4.460  0.0762 -0.3113  0.1729
 1018SOL     OW14686   2.407   0.726   0.383 -0.0163  0.0458 -0.1306
 1018SOL    HW114687   2.420   0.711   0.290  1.0328  1.2978 -0.1933
 1018SOL    HW214688   2.441   0.643   0.416  3.3498  2.2921  2.1887
 1019SOL     OW14689   3.343   0.708   6.561  0.3169 -0.1427  0.7597
 1019SOL    HW114690   3.356   0.736   6.652  0.0369  0.8766  0.4892
 1019SOL    HW214691   3.364   0.615   6.564  0.7236 -0.0815 -0.1963
 1020SOL     OW14692   4.032   3.517   3.921 -0.7571  0.2377  0.0989
 1020SOL    HW114693   4.081   3.492   3.843  1.6500 -0.0275  1.7010
 1020SOL    HW214694   4.067   3.605   3.934  1.6339 -0.7422  0.3540
 1021SOL     OW14695   4.382   1.133   7.254  0.0733  0.0676 -0.5168
 1021SOL    HW114696   4.333   1.149   7.334  0.2404  1.2007 -0.6513
 1021SOL    HW214697   4.345   1.185   7.183  0.1878  0.9733  0.0997
 1022SOL     OW14698   0.610   0.900   6.898 -0.0332  0.5744 -0.1041
 1022SOL    HW114699   0.658   0.902   6.981 -0.3183  0.8510  0.0513
 1022SOL    HW214700   0.541   0.957   6.933 -0.2844 -0.7692  1.5955
 1023SOL     OW14701   1.582   4.113   1.660  0.1318  0.3446 -0.0691
 1023SOL    HW114702   1.641   4.183   1.687 -0.4866  1.6728 -2.1988
 1023SOL    HW214703   1.507   4.125   1.718 -1.6456  0.8713 -2.4876
 1024SOL     OW14704   4.428   1.481   8.980  0.4132 -0.4375 -0.3141
 1024SOL    HW114705   4.335   1.457   8.981  0.1328  0.6751  0.2245
 1024SOL    HW214706   4.453   1.417   8.913 -0.3500 -2.1027  0.9862
 1025SOL     OW14707   3.959   4.578  17.470  0.0658 -0.3879 -0.4647
 1025SOL    HW114708   3.877   4.544  17.434 -0.1416  1.6567 -1.9733
 1025SOL    HW214709   3.928   4.644  17.533  0.9531  0.8451 -1.3104
 1026SOL     OW14710   3.712   3.170   9.215  0.3854  0.1687  0.2873
 1026SOL    HW114711   3.722   3.238   9.148  0.0733  0.8473  0.9307
 1026SOL    HW214712   3.776   3.101   9.197 -0.4327 -0.7478  0.9036
 1027SOL     OW14713   2.149   3.606   8.101  0.5750 -0.0961  0.1719
 1027SOL    HW114714   2.226   3.561   8.065 -0.6437 -1.2066 -1.0859
 1027SOL    HW214715   2.109   3.645   8.024 -0.1748  1.3460  1.3099
 1028SOL     OW14716   0.534   3.224  11.153  0.1396 -0.4685 -0.1567
 1028SOL    HW114717   0.531   3.283  11.229 -0.9594  0.6223 -1.0492
 1028SOL    HW214718   0.629   3.234  11.148  0.0431  1.6185  1.9494
 1029SOL     OW14719   2.799   1.921   6.105  0.4475  0.1327 -0.2186
 1029SOL    HW114720   2.736   1.942   6.036  1.1299 -0.3639 -1.0004
 1029SOL    HW214721   2.813   2.001   6.156  3.0239 -1.2779  1.2990
 1030SOL     OW14722   0.748   3.123   5.018 -0.7519  0.0646 -0.0067
 1030SOL    HW114723   0.681   3.125   5.086  1.6927 -1.8983  2.4702
 1030SOL    HW214724   0.816   3.173   5.062 -0.1934 -2.5284  2.0937
 1031SOL     OW14725   0.931   3.486   7.180  0.8865  0.2096  0.5613
 1031SOL    HW114726   0.848   3.460   7.219  0.4748 -0.3117 -0.6685
 1031SOL    HW214727   0.996   3.459   7.245  0.7577  1.5625  1.2581
 1032SOL     OW14728   2.112   2.978  14.218 -0.1175 -0.3235 -0.6007
 1032SOL    HW114729   2.127   2.899  14.270  1.8843  1.7059  1.8797
 1032SOL    HW214730   2.192   3.024  14.243  0.5628 -1.8332  0.0293
 1033SOL     OW14731   2.420   2.123   9.579  0.3518  0.5910 -0.1423
 1033SOL    HW114732   2.383   2.035   9.588 -2.0324  1.6987  0.9615
 1033SOL    HW214733   2.475   2.113   9.502 -0.5107 -2.7160 -0.3076
 1034SOL     OW14734   0.289   3.138  11.336 -0.2272  0.2859  0.4624
 1034SOL    HW114735   0.302   3.163  11.245  2.5630 -2.2634  0.1551
 1034SOL    HW214736   0.254   3.051  11.316 -0.4644  0.5643 -0.3120
 1035SOL     OW14737   4.246   3.584   5.785 -0.3379 -0.7586  0.0907
 1035SOL    HW114738   4.182   3.529   5.740  0.0863 -1.0041 -0.2093
 1035SOL    HW214739   4.193   3.659   5.809 -0.4229 -1.2653  1.5113
 1036SOL     OW14740   0.960   2.432   0.767  0.3322  0.2747  0.1910
 1036SOL    HW114741   0.878   2.415   0.721 -0.0733  1.8465  0.3447
 1036SOL    HW214742   0.960   2.524   0.742 -2.4614  0.9033  2.3808
 1037SOL     OW14743   0.049   1.603   5.591  0.0201  0.2330  0.1901
 1037SOL    HW114744   0.104   1.592   5.669 -0.6888  0.8659  0.7832
 1037SOL    HW214745   0.023   1.694   5.606 -2.6682 -0.3433 -1.1111
 1038SOL     OW14746   3.965   4.496   8.956 -0.2526 -0.3254 -0.3435
 1038SOL    HW114747   3.905   4.469   8.887  1.5622 -0.9451 -1.6918
 1038SOL    HW214748   3.957   4.425   9.019  1.2592  0.5794  0.8817
 1039SOL     OW14749   0.691   3.017   3.705 -0.6032  0.4573 -0.0575
 1039SOL    HW114750   0.666   2.937   3.660  0.6435  0.9602 -1.6646
 1039SOL    HW214751   0.695   2.992   3.797 -1.3007 -0.5150 -0.3038
 1040SOL     OW14752   2.893   2.821  10.156 -0.5151 -0.3143 -0.0794
 1040SOL    HW114753   2.913   2.773  10.237  0.1491 -1.0432 -0.6716
 1040SOL    HW214754   2.935   2.770  10.086  0.5720 -0.6908  0.8479
 1041SOL     OW14755   2.869   4.694   9.342 -0.1621 -0.1798 -0.4832
 1041SOL    HW114756   2.828   4.609   9.325  0.0340 -0.5102  0.7230
 1041SOL    HW214757   2.950   4.693   9.291  0.4998 -0.9083  0.5739
 1042SOL     OW14758   1.236   0.995   2.958 -0.3473  0.9943 -0.0777
 1042SOL    HW114759   1.223   1.039   2.874  0.9785 -2.0520 -1.9216
 1042SOL    HW214760   1.153   1.012   3.002 -0.7030 -0.9421  0.0413
 1043SOL     OW14761   0.424   3.000   1.410  0.8071  0.1337  0.2027
 1043SOL    HW114762   0.411   2.991   1.316 -0.1304  0.4821  0.3013
 1043SOL    HW214763   0.498   2.943   1.432 -1.0035 -0.2452  5.2451
 1044SOL     OW14764   1.652   1.223   1.919  0.0425  0.4209 -0.2364
 1044SOL    HW114765   1.721   1.158   1.932 -3.0331 -3.1236 -1.5483
 1044SOL    HW214766   1.595   1.169   1.864  1.8320 -2.5734  0.8331
 1045SOL     OW14767   4.476   1.399   2.157  0.0966  0.1380 -0.1252
 1045SOL    HW114768   4.401   1.352   2.122  1.3357 -1.1823 -1.0228
 1045SOL    HW214769   4.446   1.490   2.157 -0.0315  0.0957  0.2028
 1046SOL     OW14770   0.282   0.594  16.321 -0.0041  0.3864  0.0319
 1046SOL    HW114771   0.271   0.522  16.384 -0.7985 -0.0189 -0.5664
 1046SOL    HW214772   0.200   0.571  16.278 -0.3830  0.6993  0.5817
 1047SOL     OW14773   4.221   0.362  12.686  0.0941  0.1445  0.2889
 1047SOL    HW114774   4.151   0.395  12.629 -0.5746 -0.6344  0.6569
 1047SOL    HW214775   4.252   0.293  12.628  1.2519  1.0064 -0.1236
 1048SOL     OW14776   0.026   0.863   1.165 -0.3896 -0.2877  0.0195
 1048SOL    HW114777   0.102   0.857   1.108  0.5674 -1.1849  1.3981
 1048SOL    HW214778   0.014   0.770   1.183 -0.1500 -0.9604 -3.1856
 1049SOL     OW14779   0.293   2.801   3.383  0.2267 -0.3571  0.0029
 1049SOL    HW114780   0.252   2.873   3.334 -2.0061 -1.6526 -0.0057
 1049SOL    HW214781   0.219   2.751   3.417 -1.1045  0.9499 -0.9589
 1050SOL     OW14782   3.972   4.012   2.043  0.1456 -0.1640 -0.0500
 1050SOL    HW114783   3.953   4.105   2.052  0.9450 -0.0097  0.0379
 1050SOL    HW214784   3.952   3.989   2.134 -2.4920 -0.8010 -0.7991
 1051SOL     OW14785   3.910   2.355  11.456  0.6515 -0.1395 -0.1332
 1051SOL    HW114786   3.931   2.395  11.540  1.1444 -0.9432  0.1193
 1051SOL    HW214787   3.930   2.263  11.473 -1.0764 -0.4843  0.0795
 1052SOL     OW14788   0.033   4.413  13.054  0.1649 -0.5317 -0.2127
 1052SOL    HW114789   0.014   4.499  13.090 -1.3299 -0.8701 -0.2217
 1052SOL    HW214790   4.704   4.409  12.983  1.2077 -0.3732 -1.1532
 1053SOL     OW14791   0.723   0.411   6.262  0.2432 -0.2835  0.4158
 1053SOL    HW114792   0.720   0.493   6.212 -1.8231 -0.6009  0.0027
 1053SOL    HW214793   0.672   0.433   6.340  0.2673 -1.9799  0.9177
 1054SOL     OW14794   2.809   4.066  11.171 -0.1952  0.4429 -0.1914
 1054SOL    HW114795   2.901   4.076  11.192  0.3193  1.4845 -2.8664
 1054SOL    HW214796   2.814   4.120  11.092  1.1137 -0.7053 -0.8841
 1055SOL     OW14797   2.081   2.990   2.984 -0.4381  0.5976 -0.9830
 1055SOL    HW114798   2.163   2.953   3.018 -0.3637  1.9271  0.3067
 1055SOL    HW214799   2.045   2.911   2.944 -1.4485  0.7922 -0.4652
 1056SOL     OW14800   0.804   1.383   2.599  0.3424 -0.3272  0.0161
 1056SOL    HW114801   0.742   1.455   2.607 -0.2255 -0.8056 -0.0910
 1056SOL    HW214802   0.806   1.360   2.692  0.5659  0.3973  0.1919
 1057SOL     OW14803   4.585   2.409   3.466  0.1130 -0.0068  0.0093
 1057SOL    HW114804   4.536   2.331   3.491 -0.8898  0.2919 -1.0098
 1057SOL    HW214805   4.586   2.410   3.370 -3.3684 -0.0709 -0.0084
 1058SOL     OW14806   2.525   2.639   8.432 -0.4543  0.4454  0.5920
 1058SOL    HW114807   2.466   2.695   8.483  1.5661  2.2145  0.9709
 1058SOL    HW214808   2.457   2.586   8.390  0.2246 -0.1484  0.2259
 1059SOL     OW14809   0.725   1.088   5.453 -0.4214 -0.5950 -0.6820
 1059SOL    HW114810   0.657   1.144   5.418  0.3278  0.3308 -0.6509
 1059SOL    HW214811   0.712   1.007   5.403  2.4496  0.0382 -2.4370
 1060SOL     OW14812   2.003   2.256   6.061  0.2989 -0.2360 -0.3984
 1060SOL    HW114813   1.946   2.315   6.011 -1.4162 -1.6415 -0.0968
 1060SOL    HW214814   2.031   2.314   6.132  0.1973 -0.2659 -0.3340
 1061SOL     OW14815   0.522   2.648   9.710 -0.0996  0.1931  0.3533
 1061SOL    HW114816   0.611   2.683   9.724  1.0866 -3.2348  1.2642
 1061SOL    HW214817   0.500   2.662   9.618 -1.0378  1.4353  0.7639
 1062SOL     OW14818   3.592   1.304   7.961 -0.5571 -0.3729  0.3386
 1062SOL    HW114819   3.532   1.321   7.888  0.7486 -2.5781 -1.2699
 1062SOL    HW214820   3.640   1.387   7.960 -2.2444  0.6012  2.2540
 1063SOL     OW14821   0.350   3.173   0.713  0.0705 -0.1317 -0.3482
 1063SOL    HW114822   0.430   3.210   0.750  0.8592  1.7280 -3.9051
 1063SOL    HW214823   0.295   3.250   0.701 -0.9949 -0.8861 -0.3263
 1064SOL     OW14824   1.241   2.840  16.077  0.1989  0.0462  0.2645
 1064SOL    HW114825   1.179   2.867  16.145 -2.1921 -0.7154 -1.6074
 1064SOL    HW214826   1.197   2.778  16.018  0.7769 -0.0564 -0.0586
 1065SOL     OW14827   0.372   3.931  13.625 -0.3563 -0.6995 -0.5566
 1065SOL    HW114828   0.310   3.929  13.697  0.6805  0.7414  0.4026
 1065SOL    HW214829   0.439   3.986  13.666 -0.1145 -0.6079 -1.0776
 1066SOL     OW14830   4.308   4.037  11.811 -0.5393  0.6560 -0.3145
 1066SOL    HW114831   4.359   4.014  11.734  0.1542 -0.5360  0.4880
 1066SOL    HW214832   4.376   4.036  11.878  1.0845 -1.3859 -2.0114
 1067SOL     OW14833   4.733   1.284  12.119 -0.1709 -0.2524 -0.4618
 1067SOL    HW114834   0.073   1.229  12.094  2.1049  2.0068  1.3411
 1067SOL    HW214835   4.658   1.228  12.102  1.2580 -2.0552 -0.8437
 1068SOL     OW14836   3.348   1.118   6.258  0.0253  0.2278 -0.1853
 1068SOL    HW114837   3.312   1.097   6.172  1.2872 -2.1350 -0.1534
 1068SOL    HW214838   3.392   1.036   6.279  0.0929  0.4607  0.5735
 1069SOL     OW14839   0.850   3.895   5.778 -0.0999 -0.2506  0.6559
 1069SOL    HW114840   0.816   3.856   5.859  1.2871  0.5986  1.6438
 1069SOL    HW214841   0.811   3.834   5.715  1.6596 -1.5926  0.8653
 1070SOL     OW14842   1.255   4.014  14.588  0.1122  0.2396 -0.7113
 1070SOL    HW114843   1.253   4.109  14.576  5.0746  0.5314  0.7339
 1070SOL    HW214844   1.180   3.987  14.535 -0.0247  1.7567 -1.2975
 1071SOL     OW14845   4.579   2.099   8.954  0.1128  1.3413  0.2882
 1071SOL    HW114846   4.513   2.057   8.898 -1.3021  2.2858  1.2246
 1071SOL    HW214847   4.544   2.187   8.969 -2.1800  0.4232  0.3492
 1072SOL     OW14848   2.402   4.598   7.549  0.3839  0.5005 -0.1533
 1072SOL    HW114849   2.323   4.635   7.510  0.9295  0.8392 -0.9475
 1072SOL    HW214850   2.398   4.617   7.643  0.3378  1.1530 -0.2891
 1073SOL     OW14851   1.834   3.852   5.120  0.6325  0.2542  0.0047
 1073SOL    HW114852   1.840   3.930   5.065 -0.6014 -0.1903 -0.7840
 1073SOL    HW214853   1.927   3.835   5.135  0.6388 -0.9591 -1.3811
 1074SOL     OW14854   4.065   1.581  11.572 -0.4666  0.1501  0.4270
 1074SOL    HW114855   4.102   1.495  11.556  2.0902  1.3383  0.0370
 1074SOL    HW214856   3.992   1.565  11.512 -0.4360 -2.0263  0.9831
 1075SOL     OW14857   1.317   2.748   8.754 -0.0249 -0.0881  0.0085
 1075SOL    HW114858   1.386   2.783   8.810  0.3193  0.7247 -0.9251
 1075SOL    HW214859   1.331   2.801   8.675  1.6089  1.5429  1.3821
 1076SOL     OW14860   0.541   2.138   4.633 -0.4505  0.6078  0.4266
 1076SOL    HW114861   0.603   2.076   4.671  0.1966 -0.0191 -1.6521
 1076SOL    HW214862   0.535   2.173   4.721 -3.5216  0.3508  0.3353
 1077SOL     OW14863   3.238   4.333   6.491  0.6089 -0.3289 -0.6216
 1077SOL    HW114864   3.211   4.244   6.471 -2.1960 -0.2192  2.7130
 1077SOL    HW214865   3.319   4.343   6.440  1.7913 -2.0592  0.8997
 1078SOL     OW14866   4.236   2.649   4.678 -0.6969  0.5769 -0.6944
 1078SOL    HW114867   4.198   2.672   4.593  2.2367 -1.7356 -2.6159
 1078SOL    HW214868   4.193   2.714   4.734  2.8604  1.4736  0.9994
 1079SOL     OW14869   1.222   4.671   0.542  0.1898 -0.1140 -0.4428
 1079SOL    HW114870   1.262   4.662   0.455  0.6078 -0.8644 -0.1778
 1079SOL    HW214871   1.129   4.677   0.520 -0.1025  0.5351  1.0215
 1080SOL     OW14872   1.067   2.441   5.810  0.3828  0.0404  0.1709
 1080SOL    HW114873   1.092   2.533   5.821  0.1334  0.0367  0.8064
 1080SOL    HW214874   1.108   2.394   5.883 -0.0174  1.4878  1.3361
 1081SOL     OW14875   4.652   1.458   2.742  0.2565  0.0874 -0.6479
 1081SOL    HW114876   4.675   1.510   2.665 -3.4984  1.8795 -0.5765
 1081SOL    HW214877   4.590   1.518   2.784  1.1631  1.3038 -1.0561
 1082SOL     OW14878   0.208   4.222   1.691 -0.8812  0.3391  0.0186
 1082SOL    HW114879   0.243   4.309   1.708  0.9792 -0.3966 -0.0153
 1082SOL    HW214880   0.247   4.220   1.604  0.0222 -1.3375  0.4527
 1083SOL     OW14881   1.238   0.071   2.783 -0.4018  0.3858  0.1622
 1083SOL    HW114882   1.164   0.131   2.790  0.1782  0.9297  1.8231
 1083SOL    HW214883   1.209   0.013   2.713 -0.1065 -1.2068  1.3601
 1084SOL     OW14884   4.194   4.299   2.144  0.0367 -0.0334  0.2685
 1084SOL    HW114885   4.242   4.291   2.061  1.0296  2.1373  0.6380
 1084SOL    HW214886   4.103   4.313   2.118  0.1783  0.1309 -0.1382
 1085SOL     OW14887   3.272   0.821   2.003 -0.6492 -0.9126  0.3773
 1085SOL    HW114888   3.354   0.845   2.046 -1.5143  0.2179  1.3789
 1085SOL    HW214889   3.210   0.785   2.067  0.0444 -1.8045  0.5637
 1086SOL     OW14890   3.637   0.714  10.329 -0.6428 -0.2095  0.0832
 1086SOL    HW114891   3.663   0.755  10.247  1.0163 -2.1444 -0.3854
 1086SOL    HW214892   3.574   0.654  10.290 -0.4347  0.1865 -0.8592
 1087SOL     OW14893   0.240   1.005   4.661 -0.3110 -0.1962  0.1551
 1087SOL    HW114894   0.162   1.034   4.614 -1.1408 -2.3504  0.2322
 1087SOL    HW214895   0.206   0.946   4.728 -4.1476  1.0154 -0.7520
 1088SOL     OW14896   4.069   1.800  13.192 -0.1578 -0.7791  0.3338
 1088SOL    HW114897   4.148   1.850  13.209 -0.2808 -0.5913  0.3589
 1088SOL    HW214898   4.029   1.858  13.126 -1.5434 -2.1108 -0.0168
 1089SOL     OW14899   2.865   2.249   8.447 -0.3803  0.2556  0.1401
 1089SOL    HW114900   2.784   2.300   8.444 -0.9556 -0.7319 -1.4107
 1089SOL    HW214901   2.916   2.317   8.491  0.8297  1.0904 -2.5677
 1090SOL     OW14902   4.207   2.166   0.691  0.2004  0.1856 -0.1178
 1090SOL    HW114903   4.274   2.125   0.746  1.3756 -1.1512 -2.5165
 1090SOL    HW214904   4.138   2.100   0.695  0.3842 -0.0117 -0.1693
 1091SOL     OW14905   3.674   4.062   2.178 -0.0067  0.2359  0.3227
 1091SOL    HW114906   3.750   4.046   2.233  0.1628 -0.5775 -0.1448
 1091SOL    HW214907   3.626   4.106   2.248 -1.8230  0.3157 -0.9861
 1092SOL     OW14908   1.383   3.494  17.455 -0.0604  0.3168  0.1540
 1092SOL    HW114909   1.321   3.473  17.524 -0.6321 -1.3420 -0.8743
 1092SOL    HW214910   1.335   3.470  17.376 -0.0867 -1.3790  0.6789
 1093SOL     OW14911   2.425   0.724  12.277 -0.0521  0.3975 -0.6495
 1093SOL    HW114912   2.372   0.719  12.198 -0.4118 -1.0228 -0.3163
 1093SOL    HW214913   2.399   0.640  12.315  0.3582  0.4396 -0.2717
 1094SOL     OW14914   2.104   1.255   3.582 -0.0640  0.2348  0.5217
 1094SOL    HW114915   2.155   1.292   3.510  0.7797  2.1700  2.1174
 1094SOL    HW214916   2.037   1.209   3.532  3.4707 -2.7714 -1.4102
 1095SOL     OW14917   3.293   4.029  11.646  0.0685 -0.1482 -1.0118
 1095SOL    HW114918   3.255   3.948  11.680  2.4202  0.0217  1.9325
 1095SOL    HW214919   3.230   4.058  11.579 -1.3529  1.2187  0.9289
 1096SOL     OW14920   2.918   0.627   5.447  0.7944  0.5167 -0.0595
 1096SOL    HW114921   2.936   0.535   5.430 -2.1877 -0.4804  2.2495
 1096SOL    HW214922   2.938   0.628   5.541 -0.5711  1.4284  0.2230
 1097SOL     OW14923   2.606   2.345   5.297 -0.1864  0.0704 -0.1809
 1097SOL    HW114924   2.522   2.388   5.281 -0.5055 -1.2284 -1.9776
 1097SOL    HW214925   2.632   2.320   5.208  1.5842 -0.5338  0.5075
 1098SOL     OW14926   4.556   0.317   5.441  0.4468  0.3072 -0.4418
 1098SOL    HW114927   4.509   0.400   5.445 -0.3989 -0.1710 -0.5170
 1098SOL    HW214928   4.516   0.279   5.363 -0.4961 -0.1643  0.2759
 1099SOL     OW14929   1.483   3.628  14.124 -0.0593 -0.4636 -0.3178
 1099SOL    HW114930   1.471   3.586  14.038 -1.1426  0.1510 -0.4632
 1099SOL    HW214931   1.525   3.555  14.170  1.0556 -0.2009 -0.9148
 1100SOL     OW14932   2.035   0.275   1.682  0.0637  0.0183  0.2095
 1100SOL    HW114933   2.039   0.227   1.599  2.4693 -1.3989  1.1568
 1100SOL    HW214934   2.046   0.200   1.741 -0.2862  0.0159  0.2721
 1101SOL     OW14935   4.401   0.825   1.167  0.4121  0.5951 -0.1203
 1101SOL    HW114936   4.369   0.903   1.213 -0.4155  0.0540  0.2267
 1101SOL    HW214937   4.436   0.770   1.237  0.6258  1.3311  0.3503
 1102SOL     OW14938   0.421   4.032   7.008 -0.5954 -0.7516  0.1012
 1102SOL    HW114939   0.417   4.113   7.058 -0.0989 -1.2530  0.9453
 1102SOL    HW214940   0.477   3.974   7.059  0.2575  0.2956  0.3377
 1103SOL     OW14941   4.512   1.032   6.637 -0.8608  0.7548 -0.6972
 1103SOL    HW114942   4.593   0.989   6.663 -0.7454  1.2071 -0.3035
 1103SOL    HW214943   4.545   1.089   6.567 -2.3486  2.4435 -0.0248
 1104SOL     OW14944   1.242   0.705   2.608 -0.2990  0.4439  0.1313
 1104SOL    HW114945   1.172   0.714   2.543 -0.4014  1.9191  0.4452
 1104SOL    HW214946   1.188   0.727   2.685  1.0467 -1.4869  1.6236
 1105SOL     OW14947   3.192   0.437   4.828 -0.2933 -0.2437  0.2385
 1105SOL    HW114948   3.124   0.466   4.890  0.2423  2.5806 -0.5237
 1105SOL    HW214949   3.250   0.389   4.887  0.1549 -0.0544 -0.0551
 1106SOL     OW14950   4.002   2.701   9.969  0.2558 -0.3166  0.0822
 1106SOL    HW114951   3.971   2.707   9.879  0.2846 -1.9445 -0.0450
 1106SOL    HW214952   3.984   2.792   9.991  1.7612 -0.8524  3.5947
 1107SOL     OW14953   0.201   0.386   3.870 -0.3277  0.2729 -0.5431
 1107SOL    HW114954   0.260   0.418   3.803  2.9032 -3.0913  0.6593
 1107SOL    HW214955   0.241   0.426   3.948 -0.8713 -0.9400  0.3673
 1108SOL     OW14956   0.220   0.435  14.353 -0.2173  0.3649 -0.2218
 1108SOL    HW114957   0.146   0.432  14.293 -0.2582 -0.3698 -0.1413
 1108SOL    HW214958   0.289   0.387  14.308  0.3957 -0.7017  1.8310
 1109SOL     OW14959   2.554   3.348   8.626  0.0123 -0.2713 -0.2035
 1109SOL    HW114960   2.619   3.375   8.561 -0.1787 -0.5848 -0.5248
 1109SOL    HW214961   2.607   3.293   8.683  2.5806  1.5157 -0.8884
 1110SOL     OW14962   0.546   3.332  11.396 -0.2540 -0.5620  0.5418
 1110SOL    HW114963   0.469   3.315  11.450 -1.3190  0.7706 -0.5580
 1110SOL    HW214964   0.597   3.361  11.471  2.8208 -1.0314 -1.3606
 1111SOL     OW14965   4.711   4.595   3.459 -0.1950  0.1683 -0.4153
 1111SOL    HW114966   4.727   4.527   3.393  0.0699 -0.2130  0.0353
 1111SOL    HW214967   4.616   4.589   3.467 -0.1710  0.0223 -0.2328
 1112SOL     OW14968   1.914   0.040   4.844  0.2623  0.1266 -0.2258
 1112SOL    HW114969   1.958   4.689   4.846  1.2126  0.5919 -1.1491
 1112SOL    HW214970   1.958   0.090   4.912  3.2364 -1.1478 -1.2294
 1113SOL     OW14971   4.144   1.717   8.761 -0.4314 -0.0169 -0.1898
 1113SOL    HW114972   4.124   1.758   8.845 -0.2882  1.4392 -0.8699
 1113SOL    HW214973   4.073   1.748   8.704  0.3535  0.0360 -1.1497
 1114SOL     OW14974   2.894   4.400   0.214  0.2298 -0.8483  0.7513
 1114SOL    HW114975   2.961   4.342   0.177 -2.1283 -2.4760 -0.8866
 1114SOL    HW214976   2.820   4.339   0.216 -2.0246  1.8780 -1.1393
 1115SOL     OW14977   1.342   0.804   5.349  0.4012  0.0306  0.1737
 1115SOL    HW114978   1.375   0.872   5.408 -1.2802  0.2810  0.8204
 1115SOL    HW214979   1.341   0.848   5.263  0.7901 -4.0222 -1.9124
 1116SOL     OW14980   0.171   0.003   4.772  0.4864 -0.1457 -0.3523
 1116SOL    HW114981   0.230   0.020   4.845 -1.6013 -2.3486  1.8349
 1116SOL    HW214982   0.234   4.716   4.703 -0.4586  3.4692 -2.3388
 1117SOL     OW14983   1.852   2.923   9.156 -0.0841  0.0329 -0.6608
 1117SOL    HW114984   1.860   2.878   9.072 -1.2678 -0.3078 -0.5946
 1117SOL    HW214985   1.916   2.881   9.213  0.5082  1.4805 -0.2767
 1118SOL     OW14986   0.678   2.921   1.943  0.4411 -0.1022  0.5399
 1118SOL    HW114987   0.587   2.925   1.913  0.3930 -2.6360  0.3284
 1118SOL    HW214988   0.725   2.987   1.892  0.4397  0.6650  1.5294
 1119SOL     OW14989   0.504   3.591   6.298  0.4188 -0.0836  0.0813
 1119SOL    HW114990   0.420   3.616   6.335 -0.0862  1.6837 -2.2309
 1119SOL    HW214991   0.550   3.652   6.355 -1.3639  0.4187  0.9658
 1120SOL     OW14992   2.934   0.351  12.507  0.3756  0.4217 -0.2282
 1120SOL    HW114993   2.988   0.416  12.551  0.7510  0.3387 -0.5675
 1120SOL    HW214994   2.856   0.371  12.558  0.0594 -0.3550 -0.4082
 1121SOL     OW14995   3.080   2.334   8.021  0.6486  0.3444  0.3423
 1121SOL    HW114996   3.062   2.282   8.099 -0.3272  0.0209 -0.0957
 1121SOL    HW214997   2.998   2.383   8.018  0.1251 -0.5132  0.7417
 1122SOL     OW14998   4.713   3.445   8.125  0.3633  0.3217  0.1909
 1122SOL    HW114999   4.633   3.477   8.081 -0.4800  2.3308  3.1586
 1122SOL    HW215000   4.694   3.353   8.108  2.4315 -0.2802  1.2663
 1123SOL     OW15001   3.218   0.649   6.256 -0.5006  0.0563 -0.4731
 1123SOL    HW115002   3.177   0.664   6.171 -1.4307 -3.4607 -0.6507
 1123SOL    HW215003   3.174   0.703   6.321 -0.1301 -0.1859 -0.0212
 1124SOL     OW15004   3.282   0.763   4.276 -0.5901 -0.1733 -1.0403
 1124SOL    HW115005   3.228   0.743   4.352  1.5075  1.4470  0.8762
 1124SOL    HW215006   3.222   0.755   4.202 -1.6539  1.5605 -0.3675
 1125SOL     OW15007   0.357   3.575   4.554 -0.5040  0.0510  0.0148
 1125SOL    HW115008   0.388   3.634   4.623 -0.5926 -0.6120  0.6190
 1125SOL    HW215009   0.347   3.646   4.490 -1.0328  0.1427  0.1938
 1126SOL     OW15010   4.625   2.728   6.491  0.5029 -0.2095  0.6518
 1126SOL    HW115011   4.530   2.732   6.478  0.3702  0.6305  1.8434
 1126SOL    HW215012   4.651   2.681   6.411  1.6577 -1.3169  1.6840
 1127SOL     OW15013   4.231   4.061  10.516 -0.0791  0.1118  0.2078
 1127SOL    HW115014   4.257   3.970  10.505 -0.0770  0.1172  0.1683
 1127SOL    HW215015   4.246   4.070  10.610  0.8279  3.0375 -0.2121
 1128SOL     OW15016   2.882   1.006   8.915  0.1021  0.0386  0.5978
 1128SOL    HW115017   2.930   0.944   8.970  1.0762 -0.5072 -0.8706
 1128SOL    HW215018   2.892   1.092   8.957  0.4466  0.6960 -0.8061
 1129SOL     OW15019   1.432   3.794   1.750  0.0796  0.1416 -0.4422
 1129SOL    HW115020   1.397   3.756   1.831 -0.3296  0.5680 -0.4165
 1129SOL    HW215021   1.356   3.840   1.713  1.3609  0.9236 -2.0684
 1130SOL     OW15022   0.536   0.829  13.607 -0.2874  0.2514  0.4231
 1130SOL    HW115023   0.508   0.858  13.694 -1.4644  1.4466 -0.3674
 1130SOL    HW215024   0.606   0.891  13.590 -0.1159  0.3428  1.4324
 1131SOL     OW15025   4.069   2.399  11.013  0.2446  0.2751  0.2068
 1131SOL    HW115026   4.092   2.437  11.098  0.9940  2.8405 -1.1170
 1131SOL    HW215027   4.141   2.431  10.959 -0.4289  0.2489 -0.7080
 1132SOL     OW15028   3.695   3.255   6.081 -0.2791  0.0218 -0.7382
 1132SOL    HW115029   3.731   3.274   5.995  0.0994  0.7517 -0.4145
 1132SOL    HW215030   3.644   3.335   6.093 -2.7496 -1.4173 -1.6187
 1133SOL     OW15031   2.388   1.665  11.679  0.0505 -0.4743  0.7970
 1133SOL    HW115032   2.429   1.592  11.632 -0.4252  1.9962 -3.4682
 1133SOL    HW215033   2.336   1.614  11.741  1.2201 -0.6531  1.6485
 1134SOL     OW15034   0.332   2.876  13.958 -0.2862  1.0568 -0.1020
 1134SOL    HW115035   0.397   2.806  13.967 -0.2688  0.9534 -1.0560
 1134SOL    HW215036   0.305   2.877  14.050 -1.2929 -0.0430 -0.3705
 1135SOL     OW15037   4.178   2.071   6.148  0.0437 -0.0149 -0.2097
 1135SOL    HW115038   4.082   2.067   6.152  0.1009  2.1691  3.9717
 1135SOL    HW215039   4.213   2.156   6.121  0.5875 -0.4087 -0.7404
 1136SOL     OW15040   3.788   2.747  13.992  0.3975 -0.5226 -0.2307
 1136SOL    HW115041   3.824   2.742  13.903  2.7343 -0.3115  0.7306
 1136SOL    HW215042   3.695   2.733  13.972 -0.1025  2.2223  0.1655
 1137SOL     OW15043   0.594   2.721   7.807 -0.0766 -0.1853  0.6750
 1137SOL    HW115044   0.625   2.683   7.889  0.6804  0.2282  0.5753
 1137SOL    HW215045   0.506   2.757   7.818  0.8509  2.2227  0.0867
 1138SOL     OW15046   3.396   0.450   3.245  0.1430 -0.2578 -0.8476
 1138SOL    HW115047   3.370   0.358   3.246 -1.0188  0.0745  0.3187
 1138SOL    HW215048   3.477   0.444   3.296 -0.3449  2.0390  0.2224
 1139SOL     OW15049   2.283   3.044   9.194 -0.0687 -0.3777  0.2678
 1139SOL    HW115050   2.261   3.136   9.209  0.3302  0.0121 -1.5917
 1139SOL    HW215051   2.367   3.034   9.240  0.4783 -0.3070 -0.7274
 1140SOL     OW15052   1.186   4.727   8.880 -0.1340  0.6230  0.2638
 1140SOL    HW115053   1.164   0.075   8.924 -1.6212  1.8677 -2.7854
 1140SOL    HW215054   1.230   0.034   8.805 -0.3759  1.2103  0.4401
 1141SOL     OW15055   1.121   1.736   1.731 -0.2437  0.7998  0.2609
 1141SOL    HW115056   1.102   1.643   1.719 -1.5433  1.3053 -1.6331
 1141SOL    HW215057   1.181   1.720   1.803  0.8334 -1.8846 -1.2350
 1142SOL     OW15058   4.104   0.948  12.027 -0.1280  0.2836  0.0169
 1142SOL    HW115059   4.054   1.027  12.005 -0.6590  0.1012  0.5595
 1142SOL    HW215060   4.035   0.881  12.026  0.4858 -0.3605  1.1906
 1143SOL     OW15061   0.382   2.452   7.923 -0.4061 -0.0820 -0.7507
 1143SOL    HW115062   0.367   2.364   7.890  1.4718 -0.9522  0.6816
 1143SOL    HW215063   0.475   2.444   7.946 -0.7761  0.5601  0.9531
 1144SOL     OW15064   0.519   2.333   2.205 -0.0896  0.2904  0.3714
 1144SOL    HW115065   0.553   2.267   2.146  0.9227  1.0174  0.1392
 1144SOL    HW215066   0.438   2.365   2.164  0.8167 -0.6997 -2.1524
 1145SOL     OW15067   3.493   3.454   3.125  0.1584 -0.3837  0.0056
 1145SOL    HW115068   3.456   3.446   3.214  0.9753  2.3419  0.5847
 1145SOL    HW215069   3.434   3.508   3.073 -2.7643 -2.3005  1.3049
 1146SOL     OW15070   0.503   0.129   7.491 -0.5297  0.3688 -0.1466
 1146SOL    HW115071   0.570   0.172   7.437  1.0407  1.2495  2.4971
 1146SOL    HW215072   0.545   0.045   7.506 -0.5845  0.6863  1.7682
 1147SOL     OW15073   2.037   2.216  11.506 -0.1999 -0.7661 -0.3334
 1147SOL    HW115074   2.114   2.161  11.500  1.3726  1.3189  0.5887
 1147SOL    HW215075   1.975   2.149  11.535 -0.9638  0.0439 -0.0619
 1148SOL     OW15076   4.066   1.846  14.812 -0.3365 -0.1117  0.3613
 1148SOL    HW115077   4.085   1.838  14.718  2.0599 -0.2060  0.8442
 1148SOL    HW215078   4.153   1.876  14.840 -0.3878  0.8505 -0.5097
 1149SOL     OW15079   0.971   3.212   3.391  0.2313  0.2843  0.0130
 1149SOL    HW115080   0.943   3.262   3.314 -3.2635 -3.4101 -1.0679
 1149SOL    HW215081   0.900   3.232   3.452  2.5208 -0.8777  3.0750
 1150SOL     OW15082   2.374   0.239   7.713 -0.3539  0.1676  0.0584
 1150SOL    HW115083   2.409   0.229   7.625  0.6728 -1.8222  0.6867
 1150SOL    HW215084   2.324   0.157   7.712 -2.2300  1.2693  1.6573
 1151SOL     OW15085   3.674   2.797   2.283  0.6646 -0.2418 -0.4647
 1151SOL    HW115086   3.757   2.827   2.319  0.4484 -1.7009  1.2261
 1151SOL    HW215087   3.713   2.746   2.212  0.8195  0.4940 -0.9070
 1152SOL     OW15088   4.017   0.994  12.893  0.1104 -0.2661  0.0978
 1152SOL    HW115089   3.938   0.941  12.877 -1.5007  2.2179 -0.1782
 1152SOL    HW215090   4.065   0.941  12.957 -0.8316 -0.9264  0.2693
 1153SOL     OW15091   2.414   2.344   2.716 -0.4000  0.0416 -0.3564
 1153SOL    HW115092   2.485   2.285   2.737  1.1849  2.8907  2.2325
 1153SOL    HW215093   2.465   2.425   2.722 -0.8916  0.2378  1.0853
 1154SOL     OW15094   3.930   3.615   9.189  0.0653 -0.0035  0.1542
 1154SOL    HW115095   3.883   3.573   9.260  1.1350 -1.0647  0.2402
 1154SOL    HW215096   3.868   3.685   9.166  3.8208  3.5694  0.7878
 1155SOL     OW15097   3.630   4.510  12.144  0.6361  0.0981  0.2785
 1155SOL    HW115098   3.725   4.501  12.146  0.5569 -0.6660  0.4357
 1155SOL    HW215099   3.616   4.493  12.238  2.8191  2.0081  0.9626
 1156SOL     OW15100   4.225   3.455   9.713 -0.5294 -0.1103  0.3977
 1156SOL    HW115101   4.150   3.464   9.656  0.1081  2.9232  0.0288
 1156SOL    HW215102   4.185   3.443   9.800  2.5758 -1.1666  1.7009
 1157SOL     OW15103   3.188   1.287   7.636  0.1707 -0.1540 -0.1433
 1157SOL    HW115104   3.112   1.228   7.631  0.6263 -0.9601  2.1327
 1157SOL    HW215105   3.180   1.319   7.726  1.6318  0.8391 -0.3757
 1158SOL     OW15106   3.898   4.617   5.844  0.1366 -0.7362 -0.1927
 1158SOL    HW115107   3.889   4.656   5.757  0.9277  1.5660  0.7428
 1158SOL    HW215108   3.964   4.674   5.884 -0.8794 -0.0351  0.5065
 1159SOL     OW15109   2.089   4.100  13.174  0.4656 -0.2296  0.1554
 1159SOL    HW115110   2.090   4.177  13.229  0.6282 -1.1950  1.5016
 1159SOL    HW215111   2.134   4.135  13.097  0.4244  0.6174  0.5264
 1160SOL     OW15112   0.809   2.017   9.903 -0.4829 -0.2309 -0.1279
 1160SOL    HW115113   0.842   2.091   9.955  2.4364 -1.2960 -0.4332
 1160SOL    HW215114   0.854   1.946   9.950  2.7362  1.3581 -0.8025
 1161SOL     OW15115   0.709   2.624   4.197  0.2638  0.1293  0.4540
 1161SOL    HW115116   0.778   2.577   4.244  1.9012  2.4497  0.3689
 1161SOL    HW215117   0.710   2.709   4.240 -1.5168  0.6298 -0.5118
 1162SOL     OW15118   3.388   0.033   6.450  0.2578 -0.0606 -0.0044
 1162SOL    HW115119   3.425   0.120   6.435 -0.5265  0.4888  1.2878
 1162SOL    HW215120   3.459   4.711   6.416 -0.5950 -0.4657 -1.1086
 1163SOL     OW15121   0.850   0.569   4.052  0.1865  1.0346 -0.3518
 1163SOL    HW115122   0.790   0.498   4.028 -1.0789  3.3448 -3.9590
 1163SOL    HW215123   0.886   0.528   4.130 -1.9975 -2.5017 -1.1947
 1164SOL     OW15124   0.914   1.318   1.817  0.3049  0.4409  0.2562
 1164SOL    HW115125   0.918   1.323   1.913 -0.1920 -1.4136  0.3754
 1164SOL    HW215126   0.820   1.315   1.804  0.1262  1.3026  1.3293
 1165SOL     OW15127   3.278   2.286  10.097 -0.6423  0.2687 -0.0357
 1165SOL    HW115128   3.183   2.284  10.085 -0.8328  1.9028  1.1193
 1165SOL    HW215129   3.292   2.203  10.144 -1.0771 -0.2584 -0.8433
 1166SOL     OW15130   2.235   0.592   5.649 -0.5708 -0.5258 -0.9187
 1166SOL    HW115131   2.180   0.668   5.669 -0.3653 -0.1443 -1.7992
 1166SOL    HW215132   2.225   0.534   5.724 -1.2363  1.4805  0.5178
 1167SOL     OW15133   2.188   2.394   5.643 -0.7829 -0.0129 -0.2309
 1167SOL    HW115134   2.202   2.431   5.556  3.2064  1.1419  0.8948
 1167SOL    HW215135   2.274   2.407   5.684 -1.6848 -0.2134  1.7494
 1168SOL     OW15136   3.834   2.121   1.873  0.1120 -0.5244 -0.4867
 1168SOL    HW115137   3.766   2.053   1.882  1.2173 -1.7934 -1.8195
 1168SOL    HW215138   3.782   2.202   1.873 -0.4964 -0.9036 -2.8960
 1169SOL     OW15139   3.304   0.509   5.372  0.4006  0.4981  0.4671
 1169SOL    HW115140   3.282   0.417   5.385 -0.6155  0.3782 -2.1581
 1169SOL    HW215141   3.262   0.532   5.290  1.1014  2.1327  0.5686
 1170SOL     OW15142   0.409   4.680   0.510  0.0923 -0.5488 -0.1902
 1170SOL    HW115143   0.404   0.031   0.466 -1.9472 -0.2442  0.6541
 1170SOL    HW215144   0.471   4.632   0.454  0.7013  1.3946 -1.1721
 1171SOL     OW15145   1.355   1.221  15.439 -0.2681  0.1969  0.3178
 1171SOL    HW115146   1.423   1.230  15.373 -0.2955  0.9158  0.3772
 1171SOL    HW215147   1.358   1.300  15.494 -1.7831  1.9474 -2.0643
 1172SOL     OW15148   0.067   2.047   5.003  0.1107  0.3744  0.1929
 1172SOL    HW115149   0.084   2.008   4.917  2.3705 -3.1460  2.2181
 1172SOL    HW215150   4.708   2.063   4.994 -0.4082 -1.3989  2.5920
 1173SOL     OW15151   2.173   3.863  10.205 -0.0159  0.0661 -0.3280
 1173SOL    HW115152   2.201   3.840  10.294  0.4105 -1.5392 -0.8880
 1173SOL    HW215153   2.153   3.957  10.207 -2.5327 -0.4948  0.4619
 1174SOL     OW15154   2.934   4.238   7.269  0.1318 -0.0404 -0.0674
 1174SOL    HW115155   3.027   4.224   7.285 -0.1006 -1.2461  0.2011
 1174SOL    HW215156   2.881   4.159   7.278 -0.1538  0.3453  1.6236
 1175SOL     OW15157   2.745   2.791   6.199  0.5177  0.3985  0.1965
 1175SOL    HW115158   2.720   2.835   6.118  0.7961 -2.3476 -1.4128
 1175SOL    HW215159   2.807   2.855   6.234  0.3437  1.4490 -1.4505
 1176SOL     OW15160   1.230   0.296  10.911  0.2662  0.1396  0.5249
 1176SOL    HW115161   1.158   0.275  10.852 -2.2784 -0.0032  3.6236
 1176SOL    HW215162   1.199   0.378  10.949 -1.5874  0.2921 -1.3589
 1177SOL     OW15163   2.349   2.839   6.921  0.2784 -0.9612 -0.1844
 1177SOL    HW115164   2.289   2.774   6.958 -0.6259  0.0301  0.0851
 1177SOL    HW215165   2.279   2.897   6.890  0.0400 -0.2281  1.7769
 1178SOL     OW15166   3.928   2.285   0.628 -0.1648 -0.2507 -0.3785
 1178SOL    HW115167   3.882   2.315   0.706 -2.4029  1.0445 -2.2116
 1178SOL    HW215168   3.949   2.193   0.645 -0.6737 -0.2109  0.4616
 1179SOL     OW15169   0.651   1.882  15.581  0.4320  0.3666 -0.7821
 1179SOL    HW115170   0.703   1.802  15.586 -2.3408 -1.4156  0.1679
 1179SOL    HW215171   0.566   1.838  15.577  2.1145 -3.0301  0.5978
 1180SOL     OW15172   2.107   3.244   6.358 -0.4496 -0.6567 -0.1136
 1180SOL    HW115173   2.198   3.220   6.374 -0.0729 -0.2709 -1.6810
 1180SOL    HW215174   2.070   3.157   6.340 -0.9978 -0.0223 -2.0084
 1181SOL     OW15175   4.257   1.781   5.930  0.4404  0.0082 -0.1173
 1181SOL    HW115176   4.272   1.875   5.916 -1.4889 -0.0581 -2.6390
 1181SOL    HW215177   4.334   1.740   5.890  1.3057 -0.4611  2.0368
 1182SOL     OW15178   2.827   2.966   9.078  0.3497 -0.1639  0.4522
 1182SOL    HW115179   2.816   2.923   8.994 -0.0584  4.0170 -1.6123
 1182SOL    HW215180   2.824   3.060   9.057  0.2153 -0.3594 -0.3995
 1183SOL     OW15181   2.817   3.713   2.799  0.1195  0.0136  0.2524
 1183SOL    HW115182   2.744   3.651   2.801 -0.6370  0.9099  0.6422
 1183SOL    HW215183   2.785   3.748   2.715  1.5058 -0.9264 -0.6655
 1184SOL     OW15184   1.379   0.217   1.731 -0.1106 -0.4073  0.3850
 1184SOL    HW115185   1.335   0.195   1.813  0.3215  0.4814  0.8540
 1184SOL    HW215186   1.366   0.135   1.683  0.4355  0.3399 -1.0307
 1185SOL     OW15187   0.881   0.157   6.342 -0.0009 -0.1341  0.1073
 1185SOL    HW115188   0.793   0.146   6.377 -0.2022 -1.2382 -0.7538
 1185SOL    HW215189   0.918   0.216   6.408  1.2466 -0.4522 -0.3099
 1186SOL     OW15190   3.635   4.382   6.042 -0.4505 -0.2829 -0.2564
 1186SOL    HW115191   3.716   4.373   5.992  0.7236 -0.5929  1.6958
 1186SOL    HW215192   3.566   4.351   5.983 -2.1254  1.4187  0.8290
 1187SOL     OW15193   2.294   2.362   4.337  0.1270 -0.0458  0.0185
 1187SOL    HW115194   2.270   2.332   4.249  0.8084 -0.6418  0.0305
 1187SOL    HW215195   2.367   2.306   4.366  0.6411 -0.3689 -1.8689
 1188SOL     OW15196   1.939   1.509  13.796  0.1752  0.6105 -0.0361
 1188SOL    HW115197   1.900   1.522  13.710  0.8837 -0.7529 -0.5706
 1188SOL    HW215198   2.032   1.492  13.778 -0.1911 -1.9055  0.3500
 1189SOL     OW15199   2.503   3.842  14.248 -0.3339 -0.2415  0.2041
 1189SOL    HW115200   2.457   3.884  14.321  1.6486  3.1837 -0.5119
 1189SOL    HW215201   2.591   3.869  14.275 -0.5597 -0.3787  1.0963
 1190SOL     OW15202   0.152   1.497   9.816 -0.3043  0.4688 -0.2775
 1190SOL    HW115203   0.140   1.538   9.730 -0.6572  0.6654 -0.1317
 1190SOL    HW215204   0.114   1.413   9.791  0.0764  0.3997 -0.6274
 1191SOL     OW15205   1.288   4.144  17.320 -0.3586 -0.4753  0.3703
 1191SOL    HW115206   1.263   4.207  17.253  1.8692  1.6713  1.5609
 1191SOL    HW215207   1.326   4.071  17.272 -0.9264 -0.0894 -0.6667
 1192SOL     OW15208   1.474   0.194  10.804  0.5523 -0.4720 -0.1344
 1192SOL    HW115209   1.433   0.226  10.723 -1.5280 -0.7389  0.8375
 1192SOL    HW215210   1.415   0.228  10.871  2.0232 -1.8984  1.8697
 1193SOL     OW15211   1.185   2.801  15.244  0.3836 -0.1066 -0.1553
 1193SOL    HW115212   1.254   2.840  15.190 -1.4230  1.3638 -1.3699
 1193SOL    HW215213   1.155   2.733  15.184 -0.1070 -0.9286  1.0314
 1194SOL     OW15214   0.344   0.428   2.185 -0.1722  0.6487 -0.2775
 1194SOL    HW115215   0.274   0.378   2.144  0.9233 -2.2060  1.3482
 1194SOL    HW215216   0.340   0.388   2.272 -0.7257 -0.7371 -0.9400
 1195SOL     OW15217   2.915   1.221   3.897  0.9339 -0.2244 -0.3312
 1195SOL    HW115218   3.003   1.257   3.905 -0.0963  1.0663  5.3276
 1195SOL    HW215219   2.940   1.129   3.906 -0.1724 -0.3372  1.6868
 1196SOL     OW15220   2.293   3.743   8.684 -0.6967  0.3722 -0.3584
 1196SOL    HW115221   2.314   3.677   8.618 -0.2896  0.6225 -0.4786
 1196SOL    HW215222   2.367   3.731   8.743  0.2436  0.0405 -1.6049
 1197SOL     OW15223   0.952   2.020   2.829 -0.1918 -0.0031 -0.0161
 1197SOL    HW115224   0.908   1.957   2.887  4.2739 -1.1470  2.1407
 1197SOL    HW215225   0.890   2.041   2.760  1.8374 -0.6415 -2.0108
 1198SOL     OW15226   4.674   1.422   1.959  0.0874  0.4031 -0.4366
 1198SOL    HW115227   4.619   1.402   2.034  0.2706  2.3407  0.1953
 1198SOL    HW215228   0.025   1.379   1.970 -0.1430  0.3633  1.0938
 1199SOL     OW15229   0.697   1.652   8.359  0.6915 -0.5736 -0.1901
 1199SOL    HW115230   0.748   1.582   8.400  1.5424  0.2511  0.1802
 1199SOL    HW215231   0.765   1.715   8.334  0.5744 -0.5996 -0.5679
 1200SOL     OW15232   3.636   3.001   7.806 -0.4591 -0.0483  0.5770
 1200SOL    HW115233   3.578   2.997   7.729 -0.7729  0.1728  0.8031
 1200SOL    HW215234   3.655   2.907   7.810  1.0271  0.2621  0.8945
 1201SOL     OW15235   1.901   1.186   3.843 -0.5671 -0.5652  0.1189
 1201SOL    HW115236   1.862   1.270   3.819  0.7095 -0.1148 -0.3894
 1201SOL    HW215237   1.964   1.158   3.777 -0.1147  3.3805 -1.0924
 1202SOL     OW15238   3.692   1.076  12.539 -0.3378  0.5079  0.1055
 1202SOL    HW115239   3.669   1.115  12.623 -0.2166  0.0883  0.3346
 1202SOL    HW215240   3.642   0.995  12.549 -0.0638  0.7397  3.1939
 1203SOL     OW15241   1.986   4.024   2.547  0.1793 -0.4474  0.2053
 1203SOL    HW115242   2.016   4.056   2.632  0.5372  0.0661 -0.1140
 1203SOL    HW215243   1.892   4.016   2.565 -0.3794  3.3845 -0.9678
 1204SOL     OW15244   1.458   0.526   3.474  0.1058 -0.4987  0.0098
 1204SOL    HW115245   1.435   0.604   3.422 -1.7676 -1.6202 -0.8418
 1204SOL    HW215246   1.552   0.519   3.460 -0.1076 -0.0521 -1.6537
 1205SOL     OW15247   3.777   2.008   2.887  0.3456  0.5347 -0.5612
 1205SOL    HW115248   3.844   2.076   2.894  1.6954 -0.8434 -0.1435
 1205SOL    HW215249   3.732   2.036   2.807 -0.2521  2.4701  0.4803
 1206SOL     OW15250   0.096   1.940   4.738 -0.7888 -0.4672 -0.6286
 1206SOL    HW115251   0.123   2.022   4.695 -1.6684 -0.3774 -1.0014
 1206SOL    HW215252   0.183   1.904   4.755 -1.5314 -2.5161 -1.2657
 1207SOL     OW15253   0.889   0.963  10.300  0.1286  0.0250  0.5389
 1207SOL    HW115254   0.983   0.979  10.313  0.0908  3.1999 -3.1283
 1207SOL    HW215255   0.852   0.994  10.382 -0.1295 -1.8724  1.1334
 1208SOL     OW15256   3.272   1.641   6.052  0.1103  0.8146  0.0976
 1208SOL    HW115257   3.262   1.593   6.134  1.3296  1.3494  0.5575
 1208SOL    HW215258   3.198   1.703   6.052  0.4740  1.2544 -1.2297
 1209SOL     OW15259   0.550   3.398   7.375  0.4744 -0.4383 -0.1814
 1209SOL    HW115260   0.599   3.342   7.314 -0.5127 -1.2388 -0.2421
 1209SOL    HW215261   0.468   3.417   7.329  0.6845  0.5212 -0.1732
 1210SOL     OW15262   2.480   3.505   5.020  0.1088  0.3463 -0.2346
 1210SOL    HW115263   2.528   3.588   5.010 -1.7409  1.4286 -0.1334
 1210SOL    HW215264   2.447   3.484   4.933 -1.6686  0.1275  0.4984
 1211SOL     OW15265   2.816   2.236   4.466 -0.1984 -0.4035  0.2117
 1211SOL    HW115266   2.838   2.330   4.471 -0.0441 -0.4439  0.2900
 1211SOL    HW215267   2.902   2.199   4.484 -1.3665 -2.9814  0.3590
 1212SOL     OW15268   3.480   0.903   8.692  0.3507  0.2749  0.0850
 1212SOL    HW115269   3.404   0.961   8.705  0.1446  0.7733 -3.5308
 1212SOL    HW215270   3.440   0.835   8.639  1.0141 -0.2403  0.2548
 1213SOL     OW15271   2.952   4.179   1.769  0.6141 -0.7431 -0.4625
 1213SOL    HW115272   2.857   4.164   1.765  0.6821 -1.0285 -0.9289
 1213SOL    HW215273   2.962   4.221   1.684 -0.7161  1.1828  0.3298
 1214SOL     OW15274   2.165   1.684   6.409 -0.0648 -0.1709 -0.0242
 1214SOL    HW115275   2.228   1.621   6.442  0.2751  0.0706 -0.2165
 1214SOL    HW215276   2.213   1.717   6.333 -0.8868 -0.4829 -0.6719
 1215SOL     OW15277   3.020   4.443   4.474  0.0504  0.4172 -0.1630
 1215SOL    HW115278   3.110   4.473   4.479  0.5842 -1.3911  1.0980
 1215SOL    HW215279   2.984   4.506   4.411  0.0932  0.6524  0.0487
 1216SOL     OW15280   0.613   1.476   5.770 -0.8040 -0.6461  0.1239
 1216SOL    HW115281   0.657   1.413   5.713 -0.0761  0.1257 -0.1756
 1216SOL    HW215282   0.641   1.455   5.859 -3.0039  1.0711  1.2131
 1217SOL     OW15283   0.954   2.605   4.875 -0.2668 -0.4028  0.4465
 1217SOL    HW115284   0.907   2.533   4.917  2.8481 -1.8378  1.4761
 1217SOL    HW215285   0.993   2.643   4.953 -0.2552 -3.6232  2.0272
 1218SOL     OW15286   3.958   3.639   6.195 -0.5626  0.2157 -0.0540
 1218SOL    HW115287   4.044   3.655   6.236  0.6832 -0.6363 -2.3377
 1218SOL    HW215288   3.902   3.639   6.272  1.7648  0.5284  1.6253
 1219SOL     OW15289   3.701   0.418  15.053 -0.1849 -0.3142 -0.0239
 1219SOL    HW115290   3.647   0.460  14.986  0.0114 -2.3235 -1.4599
 1219SOL    HW215291   3.702   0.495  15.109 -0.8604 -0.2602 -0.0927
 1220SOL     OW15292   2.256   0.775   3.717  0.1160  0.0661  0.2305
 1220SOL    HW115293   2.319   0.709   3.690 -1.8101 -2.5338  2.0676
 1220SOL    HW215294   2.248   0.834   3.642 -1.4647 -1.5211 -0.8393
 1221SOL     OW15295   0.530   1.160   5.678 -0.2684  0.2278 -0.1644
 1221SOL    HW115296   0.616   1.119   5.691 -0.2749  0.0602 -0.6772
 1221SOL    HW215297   0.533   1.161   5.583  1.5975 -0.4508 -0.1130
 1222SOL     OW15298   0.623   2.890   7.367  0.4669 -0.1533  0.4293
 1222SOL    HW115299   0.551   2.954   7.366  0.2156 -0.4334  0.4351
 1222SOL    HW215300   0.682   2.936   7.427  2.8014 -0.8961 -1.3041
 1223SOL     OW15301   3.389   4.402  13.145  0.0736  0.1781  0.1919
 1223SOL    HW115302   3.471   4.428  13.189 -1.2914  0.1298  2.7820
 1223SOL    HW215303   3.418   4.331  13.088  0.2423  0.5528 -0.1913
 1224SOL     OW15304   1.059   0.471   3.209  0.6368  0.0889  0.0800
 1224SOL    HW115305   1.011   0.403   3.255  0.1106  0.4985  0.1365
 1224SOL    HW215306   1.128   0.418   3.168 -0.7825 -1.6159 -0.0969
 1225SOL     OW15307   3.237   2.261  11.466  0.0637  0.0247 -0.3285
 1225SOL    HW115308   3.165   2.322  11.448 -0.8165 -1.1939 -0.9684
 1225SOL    HW215309   3.237   2.244  11.560  0.1320  1.2534 -0.1143
 1226SOL     OW15310   2.787   2.387  15.775 -0.1765  0.5865 -0.9082
 1226SOL    HW115311   2.772   2.480  15.756 -0.3852  0.7280 -0.0512
 1226SOL    HW215312   2.845   2.407  15.849 -0.8883 -1.1263  0.1186
 1227SOL     OW15313   4.440   0.362   6.812  0.1801  0.6719 -0.3941
 1227SOL    HW115314   4.396   0.351   6.896  2.8155 -2.9466  0.5375
 1227SOL    HW215315   4.384   0.427   6.770  0.0754  0.8000 -0.0565
 1228SOL     OW15316   2.581   2.871   8.108  0.0203 -0.1208  0.4508
 1228SOL    HW115317   2.650   2.804   8.111 -2.1631 -2.3605 -0.3655
 1228SOL    HW215318   2.593   2.912   8.194 -2.2947 -1.4057  1.3768
 1229SOL     OW15319   3.221   0.191   1.667  0.2799  0.1372 -0.2144
 1229SOL    HW115320   3.134   0.196   1.707  0.8241  1.6414  0.7738
 1229SOL    HW215321   3.221   0.280   1.632 -0.7542  0.3014  0.1991
 1230SOL     OW15322   1.897   4.310  16.517  0.2421  0.0693  0.3689
 1230SOL    HW115323   1.932   4.229  16.480 -2.8251 -1.3385  0.5828
 1230SOL    HW215324   1.942   4.320  16.600 -1.9383 -3.9566  2.0382
 1231SOL     OW15325   4.561   0.580   3.430  0.4165 -0.1542  0.1854
 1231SOL    HW115326   4.567   0.640   3.356  2.4430  1.3806  1.5823
 1231SOL    HW215327   4.471   0.547   3.429  0.0529  0.8808 -0.3706
 1232SOL     OW15328   0.972   2.070   7.964 -0.0995 -0.4907  0.1317
 1232SOL    HW115329   0.888   2.038   7.998 -0.2718 -1.6858 -1.4085
 1232SOL    HW215330   0.965   2.161   7.991  0.0776 -0.5776  0.4655
 1233SOL     OW15331   1.554   2.119   3.240  0.7761  1.1413  0.2201
 1233SOL    HW115332   1.641   2.131   3.201  1.8301 -1.5148  1.7534
 1233SOL    HW215333   1.500   2.190   3.205 -1.4187 -0.4327  0.4633
 1234SOL     OW15334   2.188   3.829   2.619 -0.2847  0.3300  0.3513
 1234SOL    HW115335   2.143   3.898   2.571  0.8551  1.5212  0.9874
 1234SOL    HW215336   2.273   3.840   2.576 -1.2160  0.9017 -1.3313
 1235SOL     OW15337   4.625   0.802  15.726  0.2577  0.1949 -0.1729
 1235SOL    HW115338   4.695   0.738  15.736 -0.2656 -0.3088  0.2700
 1235SOL    HW215339   4.661   0.886  15.700  0.4168  0.1701 -0.0268
 1236SOL     OW15340   3.021   2.815  15.294  0.0505  0.2100  0.2700
 1236SOL    HW115341   3.100   2.859  15.260  0.1102 -0.4073 -0.3787
 1236SOL    HW215342   3.014   2.745  15.229  0.0126 -0.1269  0.6460
 1237SOL     OW15343   1.949   0.885   6.590  0.2291 -0.2129  0.1442
 1237SOL    HW115344   2.007   0.810   6.580 -2.6673 -2.6050  1.1073
 1237SOL    HW215345   1.888   0.855   6.658  1.3426  0.4576  1.4350
 1238SOL     OW15346   3.694   1.774   4.724 -0.7493 -0.1568 -0.3594
 1238SOL    HW115347   3.713   1.707   4.789 -1.3812 -1.1733 -1.2235
 1238SOL    HW215348   3.776   1.761   4.675 -0.8060 -1.6939 -0.0227
 1239SOL     OW15349   3.276   1.555   9.656 -0.0404  0.0434  0.3849
 1239SOL    HW115350   3.182   1.563   9.670 -0.0853 -1.1365  0.7259
 1239SOL    HW215351   3.301   1.634   9.705 -1.4024  0.8261 -0.1718
 1240SOL     OW15352   3.140   0.519   2.941  0.1068  0.2282 -0.6558
 1240SOL    HW115353   3.157   0.594   2.998  1.4775 -0.5001 -0.0915
 1240SOL    HW215354   3.049   0.506   2.969  0.0483  2.6768  0.2814
 1241SOL     OW15355   2.069   3.561   8.899  0.0677 -0.0334  0.0686
 1241SOL    HW115356   1.981   3.567   8.862 -0.9271 -0.9875  2.2276
 1241SOL    HW215357   2.090   3.654   8.908 -1.1160  0.2858 -0.5200
 1242SOL     OW15358   0.993   3.786   8.200 -0.1653  0.6094 -0.5821
 1242SOL    HW115359   1.002   3.693   8.222  1.8798  1.5022  2.3580
 1242SOL    HW215360   0.939   3.811   8.275  0.8196  0.8985  0.0375
 1243SOL     OW15361   1.169   2.849  11.741  0.1066 -0.3940 -0.3845
 1243SOL    HW115362   1.209   2.936  11.749 -0.0896 -0.5537  2.1127
 1243SOL    HW215363   1.248   2.797  11.726 -0.0256 -0.8580  0.5524
 1244SOL     OW15364   1.707   1.604  12.274 -0.1904 -0.3907  0.6311
 1244SOL    HW115365   1.702   1.696  12.301 -2.0125 -0.0210 -1.0107
 1244SOL    HW215366   1.796   1.600  12.239 -0.4171 -1.0385  0.1447
 1245SOL     OW15367   1.867   0.724   7.712  0.1081 -0.1857  0.4649
 1245SOL    HW115368   1.901   0.725   7.623 -0.3357  1.5492  0.3065
 1245SOL    HW215369   1.946   0.733   7.765  0.3497 -1.2200  0.2739
 1246SOL     OW15370   1.133   4.722   1.538 -0.5389 -1.0166  1.0434
 1246SOL    HW115371   1.227   0.006   1.539 -0.6462 -0.4229 -0.0709
 1246SOL    HW215372   1.122   4.694   1.447  2.4347 -1.2323  0.7785
 1247SOL     OW15373   1.827   2.431   4.963  0.5142  0.0725 -0.3405
 1247SOL    HW115374   1.786   2.362   4.912 -2.7980 -0.5045  3.0755
 1247SOL    HW215375   1.908   2.449   4.916  0.6696  0.7598  0.1945
 1248SOL     OW15376   3.098   0.479   7.546 -0.2506  0.3902  0.5483
 1248SOL    HW115377   3.129   0.555   7.498 -2.3904 -0.1790 -1.7041
 1248SOL    HW215378   3.175   0.422   7.535 -0.7957 -0.2511  0.0952
 1249SOL     OW15379   1.299   0.133  10.222 -0.0103 -0.1251 -0.2013
 1249SOL    HW115380   1.336   0.209  10.176  0.8532 -0.1705  0.4137
 1249SOL    HW215381   1.279   0.180  10.303 -0.9156 -1.1495  0.1618
 1250SOL     OW15382   3.525   4.227  11.817 -0.5359  0.2320 -0.2833
 1250SOL    HW115383   3.452   4.210  11.757  0.5591  0.6246 -1.7043
 1250SOL    HW215384   3.485   4.246  11.903  2.0497  0.9621  0.7431
 1251SOL     OW15385   1.033   0.727   9.904 -0.1256 -0.4890 -0.1878
 1251SOL    HW115386   1.041   0.802   9.962  2.4228  0.3691 -1.6323
 1251SOL    HW215387   0.940   0.706   9.910 -0.4095  0.2305 -1.9262
 1252SOL     OW15388   2.770   1.144   4.955  0.4453 -0.2261 -0.2188
 1252SOL    HW115389   2.727   1.225   4.926 -1.1778 -0.5301  1.3352
 1252SOL    HW215390   2.848   1.174   5.001  0.9431 -2.7974  0.5961
 1253SOL     OW15391   0.067   4.185   5.646  0.1929 -0.2552 -0.5586
 1253SOL    HW115392   0.134   4.118   5.656  0.8905  0.5180 -0.0300
 1253SOL    HW215393   0.061   4.221   5.734  0.2145 -1.2105 -0.1793
 1254SOL     OW15394   2.725   0.720   9.154 -0.2848  1.0001 -0.0991
 1254SOL    HW115395   2.768   0.805   9.161 -1.5719  1.7958 -1.5644
 1254SOL    HW215396   2.799   0.666   9.126 -1.7053 -0.0426 -1.8386
 1255SOL     OW15397   1.496   3.103   5.802  0.3653  0.2301 -0.0124
 1255SOL    HW115398   1.535   3.158   5.870 -2.0209  0.1980  1.3788
 1255SOL    HW215399   1.404   3.101   5.828  0.8966  2.6844  2.0141
 1256SOL     OW15400   0.733   2.628   1.929  0.0580 -0.1846  0.3975
 1256SOL    HW115401   0.725   2.724   1.929  1.7285 -0.0475 -2.1325
 1256SOL    HW215402   0.752   2.609   1.838 -0.4886  0.0598  0.2380
 1257SOL     OW15403   1.521   4.552   8.107 -0.6497 -0.4542 -0.1347
 1257SOL    HW115404   1.487   4.473   8.067 -0.0225 -1.7225  1.8456
 1257SOL    HW215405   1.468   4.616   8.059 -0.7480 -0.5256 -0.1202
 1258SOL     OW15406   2.177   3.723   2.888  0.4806  0.0463 -0.1019
 1258SOL    HW115407   2.270   3.709   2.873  0.3393 -1.8284  0.8093
 1258SOL    HW215408   2.140   3.690   2.806 -0.5467 -1.2103  0.8687
 1259SOL     OW15409   0.781   2.840   5.076 -0.1238 -0.7556 -0.4237
 1259SOL    HW115410   0.854   2.872   5.130 -0.3714  2.3812 -1.9506
 1259SOL    HW215411   0.761   2.915   5.019  3.7670 -0.4388 -1.4090
 1260SOL     OW15412   2.505   0.066  10.693 -0.3106  0.2371 -0.7675
 1260SOL    HW115413   2.479   0.090  10.781 -1.1648  0.3532 -1.0546
 1260SOL    HW215414   2.515   0.152  10.652 -1.4736  0.2437 -1.0229
 1261SOL     OW15415   1.442   3.944   3.765 -0.2830 -0.0530 -0.1477
 1261SOL    HW115416   1.427   3.947   3.671 -1.6268 -0.7705  0.0481
 1261SOL    HW215417   1.378   4.000   3.809  0.7212  1.4987 -0.6757
 1262SOL     OW15418   3.899   4.289   3.103 -0.0406  0.4809 -0.1239
 1262SOL    HW115419   3.929   4.246   3.183 -0.0015  0.2697 -0.2524
 1262SOL    HW215420   3.806   4.296   3.126 -0.4318 -1.4370 -1.1075
 1263SOL     OW15421   1.255   0.439   5.972  0.4343 -0.5415 -0.4154
 1263SOL    HW115422   1.193   0.470   5.906  0.5333 -1.2992 -0.8638
 1263SOL    HW215423   1.198   0.448   6.048 -1.2974 -1.4216 -1.5943
 1264SOL     OW15424   4.178   1.834  13.651 -0.4684 -0.1499 -0.0565
 1264SOL    HW115425   4.241   1.905  13.665 -1.4412  0.6947  0.0504
 1264SOL    HW215426   4.226   1.754  13.632 -1.4549 -0.9344  0.7685
 1265SOL     OW15427   4.482   1.539   4.758 -0.4535  0.3368 -0.7556
 1265SOL    HW115428   4.495   1.487   4.679 -1.2721 -0.7185 -0.1878
 1265SOL    HW215429   4.513   1.625   4.728  0.8306  0.9192  2.2015
 1266SOL     OW15430   3.330   3.670   3.424 -0.5282  0.6294  1.0838
 1266SOL    HW115431   3.263   3.643   3.486  2.1890 -2.1543  2.8154
 1266SOL    HW215432   3.293   3.746   3.380  0.5677  0.4007 -0.2396
 1267SOL     OW15433   2.123   4.651  13.219 -0.4543  0.5731 -0.2070
 1267SOL    HW115434   2.209   4.688  13.238 -1.1577  1.6334  0.9582
 1267SOL    HW215435   2.104   4.604  13.300 -0.8783 -1.8291 -1.7085
 1268SOL     OW15436   1.062   2.597   2.288 -0.6663 -0.0788  0.1846
 1268SOL    HW115437   0.977   2.563   2.317 -0.0268  1.1422  3.4269
 1268SOL    HW215438   1.126   2.566   2.351  1.4727  2.3798 -0.7694
 1269SOL     OW15439   0.774   3.959  10.732 -0.1654  0.2155 -0.6257
 1269SOL    HW115440   0.741   3.884  10.781  0.9803 -0.7436 -1.3536
 1269SOL    HW215441   0.793   4.019  10.804  0.4189  0.0532 -0.6495
 1270SOL     OW15442   2.381   1.947  15.818 -0.6071 -0.1365 -0.1555
 1270SOL    HW115443   2.319   1.890  15.774  1.1454 -2.1468  0.0157
 1270SOL    HW215444   2.463   1.926  15.775  0.4033  1.5121  0.9527
 1271SOL     OW15445   3.487   4.011  16.955  0.2827 -0.5816  0.4917
 1271SOL    HW115446   3.477   3.959  17.035 -1.2442 -2.3197 -0.8186
 1271SOL    HW215447   3.550   4.073  16.991 -0.1020 -0.0042  0.1736
 1272SOL     OW15448   1.304   3.082   2.897  0.2428 -0.6222 -0.2180
 1272SOL    HW115449   1.303   2.993   2.861  1.6028 -0.4302 -0.7677
 1272SOL    HW215450   1.212   3.109   2.902  1.0145  1.6740  1.8673
 1273SOL     OW15451   2.146   3.706   2.306  0.2690  0.7490  0.2483
 1273SOL    HW115452   2.217   3.763   2.335 -0.4049  1.6413  0.1228
 1273SOL    HW215453   2.115   3.738   2.222  0.0826  0.8870  0.3697
 1274SOL     OW15454   3.533   2.512   8.449 -0.4117  0.1184 -0.2157
 1274SOL    HW115455   3.541   2.425   8.408 -0.3739 -0.4809  1.0793
 1274SOL    HW215456   3.501   2.493   8.537 -2.1634 -1.1059 -1.1016
 1275SOL     OW15457   1.288   4.090   1.175  0.0420  0.3990  0.1659
 1275SOL    HW115458   1.344   4.134   1.239 -2.0934  0.4497  1.9714
 1275SOL    HW215459   1.218   4.059   1.232 -1.1082  0.2695 -1.2954
 1276SOL     OW15460   3.002   4.326   8.369  0.4023 -0.1672  0.3107
 1276SOL    HW115461   2.929   4.278   8.409 -0.6753  0.6157 -0.7296
 1276SOL    HW215462   2.958   4.349   8.287 -1.1056 -0.8048  0.9354
 1277SOL     OW15463   2.463   1.510   7.489 -0.4550 -0.1714  0.4752
 1277SOL    HW115464   2.465   1.426   7.534 -1.1100 -0.4048  0.0601
 1277SOL    HW215465   2.392   1.562   7.527  0.6955  0.6174  1.5504
 1278SOL     OW15466   1.531   0.150   5.300 -0.1962 -0.3039 -0.4029
 1278SOL    HW115467   1.483   0.072   5.271 -0.1943 -1.0669  1.6731
 1278SOL    HW215468   1.517   0.157   5.394  0.1475 -1.1624 -0.2860
 1279SOL     OW15469   2.670   4.608   6.881 -0.3483  0.2736  0.2976
 1279SOL    HW115470   2.655   4.703   6.884 -0.2697  0.3096 -0.4219
 1279SOL    HW215471   2.582   4.574   6.866 -0.4410  0.3744  0.6207
 1280SOL     OW15472   4.472   2.695   9.571 -0.4587 -0.6377  0.0887
 1280SOL    HW115473   4.507   2.702   9.659 -3.4904  1.9916  1.0700
 1280SOL    HW215474   4.504   2.782   9.547 -1.4721 -0.1372  0.5588
 1281SOL     OW15475   0.376   3.136  10.651 -0.0243 -0.1598  0.2247
 1281SOL    HW115476   0.408   3.146  10.740 -0.1236 -0.8067  0.3372
 1281SOL    HW215477   0.315   3.064  10.664  1.8288 -1.3645  2.3333
 1282SOL     OW15478   0.643   1.192   2.052  0.2391  0.3082  0.3602
 1282SOL    HW115479   0.685   1.251   2.115 -1.9975  0.3945  1.7556
 1282SOL    HW215480   0.625   1.259   1.985 -1.5712  2.1410  2.6814
 1283SOL     OW15481   4.011   2.510   5.356  0.4363 -0.6116  0.6805
 1283SOL    HW115482   4.026   2.578   5.291 -1.8068 -0.1176  0.6632
 1283SOL    HW215483   4.076   2.533   5.422  1.6616 -2.8104  0.2357
 1284SOL     OW15484   3.779   1.084   4.192  0.0385  0.1465  0.4907
 1284SOL    HW115485   3.796   1.174   4.218  0.8713 -0.0984  0.7900
 1284SOL    HW215486   3.859   1.034   4.211  0.3050  0.7760  0.9825
 1285SOL     OW15487   0.538   0.939  14.378  0.3844 -0.2748  0.1452
 1285SOL    HW115488   0.611   0.943  14.439  0.8295 -0.8547 -0.3444
 1285SOL    HW215489   0.496   0.855  14.396 -0.3846  0.3155  1.0909
 1286SOL     OW15490   2.508   2.046   7.030 -0.1579  0.2313  0.6812
 1286SOL    HW115491   2.499   2.083   6.942  0.1974  2.5521  1.6478
 1286SOL    HW215492   2.460   2.108   7.084  0.3006  0.1513  1.1819
 1287SOL     OW15493   2.952   4.363   1.529 -0.2479  0.1565  0.4581
 1287SOL    HW115494   3.039   4.392   1.505 -0.2908 -0.6361 -0.6459
 1287SOL    HW215495   2.933   4.408   1.611 -2.0450  0.0147  0.1328
 1288SOL     OW15496   2.934   3.023   0.265 -0.0040 -0.0126  0.2945
 1288SOL    HW115497   2.851   2.989   0.298 -1.0023  2.4354  0.2632
 1288SOL    HW215498   2.927   3.022   0.169  4.2806  1.6302 -0.0481
 1289SOL     OW15499   1.500   4.262   3.917  0.5691 -0.0549 -0.5388
 1289SOL    HW115500   1.520   4.256   4.010 -1.1302 -0.2063 -0.1745
 1289SOL    HW215501   1.406   4.245   3.919  0.6112 -0.2857 -0.5324
 1290SOL     OW15502   2.034   1.879  17.002  0.0604 -0.4971  0.7720
 1290SOL    HW115503   2.096   1.858  16.932 -2.1016 -0.9669 -0.9744
 1290SOL    HW215504   2.107   1.869  17.064 -0.7031  0.2637  1.8028
 1291SOL     OW15505   4.211   2.379   9.068 -0.2301 -0.0754  0.1511
 1291SOL    HW115506   4.131   2.416   9.031  0.6761  0.1293 -1.5820
 1291SOL    HW215507   4.240   2.458   9.114 -1.0825  0.6893 -0.6165
 1292SOL     OW15508   0.987   2.208   2.562 -0.2354 -0.3787 -0.0464
 1292SOL    HW115509   1.066   2.239   2.606 -0.5596 -0.4313  0.5709
 1292SOL    HW215510   1.026   2.142   2.504  1.2526 -0.6334  1.2463
 1293SOL     OW15511   0.335   0.211  13.079 -1.0248  0.0652 -0.0342
 1293SOL    HW115512   0.339   0.262  12.998 -0.2606 -2.1388 -1.4004
 1293SOL    HW215513   0.428   0.190  13.091 -1.6872 -3.0357 -0.4832
 1294SOL     OW15514   3.609   3.655  14.156  0.0264  0.0733  0.3091
 1294SOL    HW115515   3.557   3.709  14.096  0.1740 -0.3296 -0.1826
 1294SOL    HW215516   3.683   3.710  14.183  0.7163  0.6688 -2.7977
 1295SOL     OW15517   2.013   1.954   6.129  0.0257  0.4632 -0.1140
 1295SOL    HW115518   1.917   1.954   6.132  0.0853 -1.1013  2.4891
 1295SOL    HW215519   2.048   2.037   6.097 -2.2372  1.4979  0.0676
 1296SOL     OW15520   4.174   4.340   6.784 -0.0216 -0.6100 -0.1124
 1296SOL    HW115521   4.240   4.300   6.728 -2.1568 -2.8229 -1.0628
 1296SOL    HW215522   4.107   4.272   6.794 -2.5224  1.8079 -0.2696
 1297SOL     OW15523   1.412   1.970   1.922 -0.4844  0.2174  0.6947
 1297SOL    HW115524   1.455   1.931   1.997 -1.0007 -0.6222  0.5494
 1297SOL    HW215525   1.430   1.903   1.856 -1.1979  0.2378  0.4750
 1298SOL     OW15526   0.663   2.559   2.638 -0.2041  0.0509 -0.2562
 1298SOL    HW115527   0.613   2.499   2.582  1.1284 -0.1072 -1.2787
 1298SOL    HW215528   0.661   2.643   2.591 -0.4044  2.0735  3.3480
 1299SOL     OW15529   4.185   3.628   4.348 -0.0940 -0.0873  0.1560
 1299SOL    HW115530   4.214   3.718   4.337 -2.4900  0.4709 -1.5504
 1299SOL    HW215531   4.265   3.580   4.370  0.9782  1.4832 -0.3118
 1300SOL     OW15532   2.368   2.802  15.982  0.4373  0.2815 -0.4583
 1300SOL    HW115533   2.297   2.857  16.015  1.5176  1.0679  0.5614
 1300SOL    HW215534   2.412   2.861  15.921  0.0342  0.2512 -0.7764
 1301SOL     OW15535   3.492   0.166   6.820 -0.3255  0.0372 -0.1756
 1301SOL    HW115536   3.558   0.156   6.752 -0.8557  1.0574 -0.8365
 1301SOL    HW215537   3.516   0.103   6.889 -0.2392  1.5303  1.1674
 1302SOL     OW15538   3.237   3.611  12.334  0.6199 -0.2458 -0.4358
 1302SOL    HW115539   3.257   3.622  12.241  0.0090 -0.1458 -0.5541
 1302SOL    HW215540   3.283   3.688  12.365 -2.1109  1.1637  0.0959
 1303SOL     OW15541   2.818   2.642   6.942 -0.1803 -0.1387  0.0735
 1303SOL    HW115542   2.767   2.563   6.926  0.3699 -0.0709 -2.0528
 1303SOL    HW215543   2.745   2.705   6.936  1.2064  1.7235  2.8147
 1304SOL     OW15544   3.340   4.450   5.200  0.4014 -0.2210 -0.4413
 1304SOL    HW115545   3.362   4.496   5.119  1.8938  2.6721  1.5851
 1304SOL    HW215546   3.246   4.434   5.194  0.1089  0.4798  2.1756
 1305SOL     OW15547   2.385   1.616   3.867  0.5240 -0.2710 -0.4969
 1305SOL    HW115548   2.383   1.562   3.788 -1.5309 -1.2009  0.2004
 1305SOL    HW215549   2.478   1.621   3.891 -0.1574  1.3783  1.8766
 1306SOL     OW15550   3.197   0.269   5.337 -0.0588  0.4494  0.3863
 1306SOL    HW115551   3.219   0.187   5.382  0.4031 -0.0282 -0.7113
 1306SOL    HW215552   3.172   0.225   5.256 -0.5415  3.1781 -0.9350
 1307SOL     OW15553   1.007   3.861   7.344  0.8707 -0.8311 -0.5550
 1307SOL    HW115554   1.018   3.790   7.408  1.1843  0.1138  0.4467
 1307SOL    HW215555   1.076   3.825   7.288  2.4075  0.3576  0.5582
 1308SOL     OW15556   3.009   1.487   0.866 -0.1590  0.5453  0.5654
 1308SOL    HW115557   3.021   1.401   0.826 -1.1169  1.2211 -1.1891
 1308SOL    HW215558   3.090   1.495   0.916  0.5992 -0.6659 -0.4639
 1309SOL     OW15559   2.508   1.459   8.999 -1.0480 -0.2293 -0.1923
 1309SOL    HW115560   2.503   1.545   8.957  1.6565 -0.2117 -0.4706
 1309SOL    HW215561   2.436   1.413   8.956 -1.1769  1.0601 -1.3331
 1310SOL     OW15562   2.984   3.260  13.894  0.1228  0.1333 -0.1073
 1310SOL    HW115563   2.931   3.260  13.815  0.2367  2.1254 -0.1722
 1310SOL    HW215564   2.962   3.187  13.952 -1.7280  0.2134 -0.7261
 1311SOL     OW15565   1.201   3.938   1.719  0.3920 -0.2181 -0.2350
 1311SOL    HW115566   1.153   3.855   1.725 -1.0576  0.7786  2.1729
 1311SOL    HW215567   1.150   4.015   1.744 -1.1977 -1.4246  0.2954
 1312SOL     OW15568   4.366   2.017   5.878  0.2609 -1.1366 -0.1838
 1312SOL    HW115569   4.423   2.093   5.870 -1.3390  0.1103  0.1886
 1312SOL    HW215570   4.290   2.072   5.896  1.8190  0.7291  0.7564
 1313SOL     OW15571   4.002   1.735   0.363 -0.1087  0.3482  0.1775
 1313SOL    HW115572   4.064   1.806   0.350 -1.4784  1.5999  0.3904
 1313SOL    HW215573   4.062   1.668   0.394  0.9863  1.1051 -0.3308
 1314SOL     OW15574   3.095   4.245  11.978  0.5846  0.0565  0.2091
 1314SOL    HW115575   3.060   4.333  11.992 -3.4775 -1.4779 -0.1119
 1314SOL    HW215576   3.047   4.204  12.051 -0.7343 -0.9915 -1.2457
 1315SOL     OW15577   3.427   3.836   3.140 -0.0139 -0.5585 -0.1531
 1315SOL    HW115578   3.516   3.803   3.153  0.2008 -0.2021 -0.7252
 1315SOL    HW215579   3.394   3.763   3.088 -1.4618 -0.7727  1.0545
 1316SOL     OW15580   1.495   3.995   2.222  0.0736 -0.1008 -0.0327
 1316SOL    HW115581   1.422   3.987   2.283  0.0576  0.8518  0.0712
 1316SOL    HW215582   1.529   3.905   2.226 -0.4649 -0.2617  1.0668
 1317SOL     OW15583   0.359   2.095  10.890  0.0696 -0.0781 -0.1078
 1317SOL    HW115584   0.408   2.013  10.895 -1.1551 -0.8312 -0.2146
 1317SOL    HW215585   0.398   2.123  10.807  1.0258 -0.1506  0.3157
 1318SOL     OW15586   0.271   1.438  16.548  0.1710  0.0064  0.2218
 1318SOL    HW115587   0.252   1.412  16.639  2.1831 -0.5985  0.4844
 1318SOL    HW215588   0.358   1.409  16.520 -0.4582 -2.1620  0.5051
 1319SOL     OW15589   0.854   2.530   8.913  0.4274  0.1099 -0.4584
 1319SOL    HW115590   0.876   2.611   8.958  0.1424 -0.6059  0.9446
 1319SOL    HW215591   0.866   2.547   8.819 -0.2339  0.6291 -0.4455
 1320SOL     OW15592   1.476   4.153   6.133 -0.0789 -0.3683  0.5934
 1320SOL    HW115593   1.410   4.130   6.067  0.6604  0.9136 -0.5777
 1320SOL    HW215594   1.543   4.193   6.079  0.1129 -0.6268  0.6393
 1321SOL     OW15595   2.976   0.414  16.674  0.0738 -0.3238  0.2782
 1321SOL    HW115596   2.982   0.482  16.741 -1.6831 -1.0641  1.2023
 1321SOL    HW215597   3.051   0.432  16.618 -0.4251 -0.9148 -0.5690
 1322SOL     OW15598   3.569   2.267  11.386  0.4765  0.1099 -0.4913
 1322SOL    HW115599   3.621   2.225  11.455  2.2080 -0.4183 -2.1157
 1322SOL    HW215600   3.488   2.289  11.431  1.7626  1.8624  0.9571
 1323SOL     OW15601   2.121   3.878   4.727 -0.0315  0.1757  0.4587
 1323SOL    HW115602   2.177   3.844   4.797 -0.7142 -1.0008  0.4181
 1323SOL    HW215603   2.048   3.817   4.719 -1.5779  1.9931  0.4803
 1324SOL     OW15604   3.077   4.294   9.106  0.0777 -0.2525  0.3105
 1324SOL    HW115605   3.056   4.250   9.024  0.9145 -0.5195  0.2351
 1324SOL    HW215606   2.992   4.319   9.143  0.1114 -0.5206  0.5662
 1325SOL     OW15607   0.713   1.783   6.347  0.1157 -0.0348  0.1546
 1325SOL    HW115608   0.778   1.849   6.368  1.4552 -1.7825  1.4648
 1325SOL    HW215609   0.767   1.708   6.322  2.8265  2.0546 -0.3249
 1326SOL     OW15610   1.957   1.466   1.323  0.4978  0.1934 -0.9251
 1326SOL    HW115611   2.015   1.512   1.262 -0.2917  1.4090 -0.7455
 1326SOL    HW215612   2.006   1.383   1.318 -0.2340 -0.2886 -0.0050
 1327SOL     OW15613   1.600   3.987   6.705 -0.0378  0.5266 -0.0722
 1327SOL    HW115614   1.515   3.956   6.738  0.9824  0.3053  2.3126
 1327SOL    HW215615   1.643   4.018   6.784 -1.4976  0.9555  0.5581
 1328SOL     OW15616   3.128   3.657   0.533  0.1911 -0.8822 -0.0121
 1328SOL    HW115617   3.166   3.743   0.518 -1.0955  0.0067  1.9288
 1328SOL    HW215618   3.161   3.608   0.457  0.5849 -0.6330 -0.0052
 1329SOL     OW15619   0.102   2.635  13.267 -0.1348 -0.3113 -0.7351
 1329SOL    HW115620   0.055   2.608  13.188  0.7219  1.5961 -1.8962
 1329SOL    HW215621   0.057   2.717  13.287  0.0215 -0.4318  0.1302
 1330SOL     OW15622   3.232   0.447   1.104 -0.0149  0.3957 -0.4139
 1330SOL    HW115623   3.150   0.403   1.128  0.1713  0.4914  0.4224
 1330SOL    HW215624   3.278   0.460   1.187 -2.4513  1.1458  0.8150
 1331SOL     OW15625   1.291   3.297   3.159  0.0848  0.2247 -0.3759
 1331SOL    HW115626   1.208   3.335   3.128  2.3488  3.2820 -2.6728
 1331SOL    HW215627   1.279   3.314   3.252  2.5415 -0.8827  0.1325
 1332SOL     OW15628   4.169   1.962   6.972 -0.0021 -0.3924 -0.6470
 1332SOL    HW115629   4.233   1.897   6.943 -0.2893 -1.2741  0.6632
 1332SOL    HW215630   4.162   2.008   6.888  2.1855 -0.5635 -0.9280
 1333SOL     OW15631   2.313   3.045  12.438  0.0371  0.2195  0.4741
 1333SOL    HW115632   2.333   2.988  12.512 -0.7251 -1.2430 -0.4469
 1333SOL    HW215633   2.339   2.984  12.369  2.5189 -1.2691  2.7283
 1334SOL     OW15634   4.317   2.216   7.030  0.3704  0.2524 -0.1273
 1334SOL    HW115635   4.241   2.208   6.973 -0.2118 -2.1230  0.9453
 1334SOL    HW215636   4.275   2.224   7.116  0.4448  0.7347 -0.1391
 1335SOL     OW15637   4.578   1.055  12.133  0.2784  0.9678  0.6972
 1335SOL    HW115638   4.592   1.009  12.050  0.5155  0.2640  1.1278
 1335SOL    HW215639   4.641   1.015  12.192 -1.3653 -2.4028  0.1503
 1336SOL     OW15640   0.863   4.050   6.180 -0.6411  0.2654 -0.6902
 1336SOL    HW115641   0.907   3.998   6.248  1.0577  2.2508 -0.2712
 1336SOL    HW215642   0.773   4.043   6.212 -0.1531  0.5052  0.7513
 1337SOL     OW15643   3.748   3.321  15.152 -0.1057 -0.0735 -0.8260
 1337SOL    HW115644   3.774   3.307  15.061  1.7451 -4.3502  0.3876
 1337SOL    HW215645   3.665   3.369  15.143  0.3891  0.4381 -2.6238
 1338SOL     OW15646   4.285   1.857   2.479  0.1051 -0.4968 -0.1135
 1338SOL    HW115647   4.205   1.807   2.468 -0.6795  0.3715  1.6804
 1338SOL    HW215648   4.360   1.798   2.474 -0.3155 -1.1441  1.3219
 1339SOL     OW15649   2.672   4.692   7.963  0.5067 -0.0895 -0.0079
 1339SOL    HW115650   2.656   0.035   7.909  1.5868  0.7002  0.8261
 1339SOL    HW215651   2.737   4.720   8.027  0.8327  0.4239 -0.5587
 1340SOL     OW15652   0.135   0.961   5.853  0.0116 -0.4235  0.2381
 1340SOL    HW115653   0.057   0.923   5.893 -0.4948 -0.1423 -0.4614
 1340SOL    HW215654   0.110   0.986   5.763 -0.0913 -0.7467  0.1777
 1341SOL     OW15655   0.985   3.819  14.897 -0.2528  0.3636 -1.1803
 1341SOL    HW115656   0.956   3.759  14.964 -2.1317  1.1112 -1.3259
 1341SOL    HW215657   0.930   3.795  14.822 -1.5161  0.3457 -0.2382
 1342SOL     OW15658   2.143   3.475   6.191  0.0113  0.4642  0.4154
 1342SOL    HW115659   2.135   3.423   6.271 -1.9935  1.1058  0.6262
 1342SOL    HW215660   2.179   3.412   6.129  0.7805  0.7098  0.6051
 1343SOL     OW15661   0.673   4.374   3.436 -0.1113 -0.2486 -0.0732
 1343SOL    HW115662   0.729   4.401   3.363 -0.7230  2.0260  0.2971
 1343SOL    HW215663   0.606   4.440   3.422  1.2302  0.9672 -0.6941
 1344SOL     OW15664   3.450   2.552   2.953 -0.1362  0.4105 -0.3863
 1344SOL    HW115665   3.505   2.600   3.016 -0.9238  1.1169 -0.2402
 1344SOL    HW215666   3.487   2.582   2.870 -0.3067  0.8898 -0.2903
 1345SOL     OW15667   2.038   4.612   4.079  0.2710 -0.3338  0.2822
 1345SOL    HW115668   1.949   4.635   4.051  0.3035  0.0143  0.4729
 1345SOL    HW215669   2.016   4.530   4.124  0.4966 -1.0692 -0.9478
 1346SOL     OW15670   4.441   1.321   4.010  0.2938  0.0712 -0.1035
 1346SOL    HW115671   4.495   1.372   4.072  0.6421  1.2699 -1.3869
 1346SOL    HW215672   4.505   1.296   3.943  0.3865 -0.2190  0.0924
 1347SOL     OW15673   4.650   3.593  13.881 -0.8971 -0.3152 -0.1884
 1347SOL    HW115674   4.730   3.554  13.915 -0.3093  0.2377 -0.9229
 1347SOL    HW215675   4.587   3.526  13.904 -1.6179  0.6723  0.7027
 1348SOL     OW15676   0.542   3.326   1.654 -0.3095  0.3910 -0.0729
 1348SOL    HW115677   0.492   3.403   1.626  2.8537  2.4025 -0.2221
 1348SOL    HW215678   0.470   3.270   1.682  2.0019 -1.7875  1.4950
 1349SOL     OW15679   0.395   2.269   3.452 -0.3126 -0.2091 -0.4892
 1349SOL    HW115680   0.390   2.363   3.433  0.8856 -0.0570 -0.0239
 1349SOL    HW215681   0.381   2.242   3.361 -0.8901  0.7208 -0.6761
 1350SOL     OW15682   2.723   2.353   1.753 -0.3241  0.1437 -0.2368
 1350SOL    HW115683   2.672   2.274   1.737 -0.1895 -0.3149  1.6166
 1350SOL    HW215684   2.781   2.314   1.819 -1.4659  0.1991  0.8070
 1351SOL     OW15685   0.999   1.178   8.099  0.1378 -0.8089 -0.3220
 1351SOL    HW115686   0.984   1.257   8.149 -2.3426 -1.2902 -0.3261
 1351SOL    HW215687   1.095   1.178   8.097  0.1414 -0.0521 -0.0202
 1352SOL     OW15688   2.000   4.531   4.876  0.0223 -0.2977 -0.0973
 1352SOL    HW115689   1.957   4.479   4.944 -0.9383 -1.1765 -1.3643
 1352SOL    HW215690   2.073   4.569   4.924 -0.1899 -0.5644  0.4405
 1353SOL     OW15691   0.338   0.515  11.247 -0.2383  0.1217 -0.1875
 1353SOL    HW115692   0.293   0.501  11.164 -0.6258  2.6710 -0.4094
 1353SOL    HW215693   0.420   0.466  11.249  0.3591  1.1441  0.4519
 1354SOL     OW15694   3.640   2.276   7.186  0.0535  0.3006  0.0073
 1354SOL    HW115695   3.689   2.209   7.138  1.6032  1.9427 -0.7324
 1354SOL    HW215696   3.643   2.260   7.280 -0.8897 -0.9782 -0.1767
 1355SOL     OW15697   2.070   0.125   0.980  0.3560 -0.2689 -0.1359
 1355SOL    HW115698   2.144   0.132   0.920 -0.9345 -1.9545 -1.9561
 1355SOL    HW215699   2.011   0.074   0.924  1.1161 -0.3974 -0.8275
 1356SOL     OW15700   2.479   2.917  10.484  0.4076 -0.3657  0.7309
 1356SOL    HW115701   2.457   2.842  10.429 -1.5817  1.2882 -0.7399
 1356SOL    HW215702   2.418   2.895  10.554 -0.1727 -3.8826 -0.9004
 1357SOL     OW15703   0.404   0.122  11.967  0.0193 -0.5323  0.4063
 1357SOL    HW115704   0.331   0.116  11.906  1.0912  2.7318 -1.1682
 1357SOL    HW215705   0.442   0.036  11.951 -0.7261 -0.7372 -0.2358
 1358SOL     OW15706   2.231   3.192  11.593  0.6247  0.3679  0.0485
 1358SOL    HW115707   2.279   3.241  11.527  1.3078 -0.3415  0.0285
 1358SOL    HW215708   2.278   3.110  11.583 -0.1970 -0.0203 -0.6313
 1359SOL     OW15709   1.745   4.218  14.130 -0.3603  0.7292 -0.0619
 1359SOL    HW115710   1.754   4.301  14.176  1.0490  1.3334 -1.4416
 1359SOL    HW215711   1.652   4.203  14.145 -0.4933  0.9470 -0.6856
 1360SOL     OW15712   1.844   0.291   1.130  0.3137 -0.0668  0.4084
 1360SOL    HW115713   1.818   0.300   1.039  0.2152 -0.9166  0.3528
 1360SOL    HW215714   1.792   0.217   1.160  1.1696 -1.1902 -0.8950
 1361SOL     OW15715   4.579   0.714  17.340  0.0247 -0.6969 -0.0071
 1361SOL    HW115716   4.567   0.692  17.248 -0.3670  3.5299 -0.9703
 1361SOL    HW215717   4.659   0.667  17.362  1.7526  1.3470 -1.8132
 1362SOL     OW15718   4.037   0.467   2.883 -0.4271 -0.4251 -0.6381
 1362SOL    HW115719   4.090   0.455   2.804 -0.2061  1.0300 -0.7017
 1362SOL    HW215720   3.954   0.500   2.848 -0.7652 -1.6717 -1.0487
 1363SOL     OW15721   0.223   1.617  11.143  0.6408  0.5635  0.4369
 1363SOL    HW115722   0.241   1.696  11.092  0.3531  0.3629  0.0314
 1363SOL    HW215723   0.307   1.588  11.178  0.5534 -0.6090 -0.3389
 1364SOL     OW15724   1.760   2.958   8.766 -0.5606  0.0872 -0.3978
 1364SOL    HW115725   1.798   3.041   8.793  0.2930 -0.6873  0.7810
 1364SOL    HW215726   1.830   2.918   8.715 -1.3866 -1.4979 -0.2872
 1365SOL     OW15727   0.871   0.203  11.012  0.2360  0.5383 -0.1834
 1365SOL    HW115728   0.850   0.231  11.101 -0.5213 -1.3964  0.2601
 1365SOL    HW215729   0.920   0.276  10.975 -0.9211  1.8636  0.9174
 1366SOL     OW15730   4.524   1.530   4.181 -0.2631 -0.4079  0.6665
 1366SOL    HW115731   4.593   1.562   4.240  0.2468  1.4418 -0.9149
 1366SOL    HW215732   4.449   1.545   4.239 -1.5115 -0.6195 -0.9110
 1367SOL     OW15733   4.656   4.170  14.446  0.0577 -0.8585 -0.7702
 1367SOL    HW115734   4.566   4.179  14.479  0.4457  1.1590 -0.3150
 1367SOL    HW215735   4.684   4.089  14.489 -3.3025 -0.4060  2.2308
 1368SOL     OW15736   2.266   0.458   5.901  0.4645 -0.3819  0.1773
 1368SOL    HW115737   2.281   0.383   5.843 -0.5950  0.3804 -1.0992
 1368SOL    HW215738   2.356   0.479   5.926  0.7414  0.4718 -1.5359
 1369SOL     OW15739   2.533   2.624   4.061  0.2625  0.6091 -0.0277
 1369SOL    HW115740   2.559   2.621   3.968  0.2568 -1.1715  0.0213
 1369SOL    HW215741   2.506   2.715   4.065  1.2858  0.7772  3.1874
 1370SOL     OW15742   4.268   4.139   4.911  0.3660 -0.0097  0.0055
 1370SOL    HW115743   4.251   4.066   4.852  1.0607  0.3451 -0.6431
 1370SOL    HW215744   4.354   4.155   4.873  1.2106 -1.8470  1.1628
 1371SOL     OW15745   3.501   3.870  14.008 -0.1114  0.4110  0.1531
 1371SOL    HW115746   3.547   3.872  13.924  2.4230 -0.7147  1.5310
 1371SOL    HW215747   3.477   3.962  14.005  0.9514  0.6921  0.3584
 1372SOL     OW15748   4.014   0.559   3.476  0.1644  0.2037 -0.1074
 1372SOL    HW115749   3.963   0.581   3.554  0.5811  2.4154 -0.4695
 1372SOL    HW215750   3.993   0.466   3.463  1.9715 -0.2649  0.3607
 1373SOL     OW15751   0.601   1.448   7.543  0.6800 -0.0947 -0.2520
 1373SOL    HW115752   0.569   1.514   7.482 -1.7116 -0.6463  0.4033
 1373SOL    HW215753   0.568   1.366   7.508  0.5694 -0.4141  0.5970
 1374SOL     OW15754   3.214   0.992   3.130 -1.0135 -0.0603  0.1946
 1374SOL    HW115755   3.216   1.024   3.220  0.4285 -1.2746  0.5934
 1374SOL    HW215756   3.281   0.924   3.126 -0.3069  0.7838 -1.9669
 1375SOL     OW15757   0.925   1.572   0.820  0.2180  0.3435 -0.2629
 1375SOL    HW115758   0.931   1.510   0.892 -2.2252  1.9265  1.3275
 1375SOL    HW215759   0.948   1.520   0.743  0.9018  0.9095 -0.4409
 1376SOL     OW15760   1.086   3.324   8.907  0.3617  0.6239  0.0358
 1376SOL    HW115761   1.151   3.358   8.845 -0.9973  1.9382 -0.6732
 1376SOL    HW215762   1.054   3.406   8.946 -0.1138 -0.1270  1.2327
 1377SOL     OW15763   1.994   0.160   7.984  0.2785  0.1714  0.3797
 1377SOL    HW115764   2.052   0.192   8.052  0.3268 -0.5382  0.6739
 1377SOL    HW215765   1.911   0.193   8.018  1.0444  1.6162  0.8340
 1378SOL     OW15766   2.187   3.035   8.830  0.0080  0.6286 -0.1166
 1378SOL    HW115767   2.143   3.108   8.872 -2.1047 -1.2910  0.9886
 1378SOL    HW215768   2.255   3.081   8.780  2.5501 -0.4634  2.3419
 1379SOL     OW15769   2.347   3.127   8.631 -0.0358 -0.6550 -0.4071
 1379SOL    HW115770   2.401   3.206   8.626 -1.3892  0.1726 -2.3016
 1379SOL    HW215771   2.281   3.139   8.562 -0.0330  1.2878 -0.0834
 1380SOL     OW15772   2.643   1.543   3.952  0.3374  0.5229 -0.2361
 1380SOL    HW115773   2.666   1.456   3.984 -1.1822  0.0519 -0.4011
 1380SOL    HW215774   2.720   1.576   3.907  0.4070 -0.6020 -0.9194
 1381SOL     OW15775   0.329   3.626   5.478 -0.7907 -0.4235 -0.0644
 1381SOL    HW115776   0.247   3.666   5.509  0.5775  1.3042  1.3121
 1381SOL    HW215777   0.396   3.654   5.540 -0.8957  0.4570 -0.3403
 1382SOL     OW15778   0.319   1.963   7.994 -0.0549  0.0043  0.4895
 1382SOL    HW115779   0.254   2.000   8.054  1.2804  1.5734  0.9795
 1382SOL    HW215780   0.347   2.047   7.959  0.7687 -0.8232 -0.8391
 1383SOL     OW15781   3.754   3.290  16.788  0.3557 -0.2259 -0.1328
 1383SOL    HW115782   3.827   3.240  16.824  2.7245  3.0672 -0.4141
 1383SOL    HW215783   3.755   3.367  16.845 -2.3081 -0.3619  0.1101
 1384SOL     OW15784   4.551   3.870   9.260 -0.3068 -0.1921 -0.1131
 1384SOL    HW115785   4.476   3.869   9.319 -0.0186 -0.7420  0.2390
 1384SOL    HW215786   4.593   3.954   9.279  0.6795 -0.5685 -0.6534
 1385SOL     OW15787   4.548   0.073   5.159  0.2613 -0.4827 -0.8595
 1385SOL    HW115788   4.491   0.015   5.108 -0.5206 -0.7586  0.3345
 1385SOL    HW215789   4.520   0.053   5.248  0.4407 -0.9747 -0.9087
 1386SOL     OW15790   2.700   2.395   1.207 -0.4521 -0.3001 -0.6148
 1386SOL    HW115791   2.740   2.308   1.210  0.8530  0.2889 -1.0398
 1386SOL    HW215792   2.608   2.380   1.183  0.1603  0.8935 -3.6563
 1387SOL     OW15793   3.255   4.091   4.936  0.0769 -0.0141  0.2657
 1387SOL    HW115794   3.201   4.142   4.876  0.7690 -0.1239 -0.4608
 1387SOL    HW215795   3.270   4.011   4.885 -0.7632  0.4733 -0.7378
 1388SOL     OW15796   0.960   2.691  11.831 -0.1648 -0.0158 -0.0010
 1388SOL    HW115797   0.977   2.603  11.797 -2.3163 -0.8054  0.9525
 1388SOL    HW215798   1.042   2.736  11.811  0.6857 -0.1052  3.1467
 1389SOL     OW15799   1.152   2.684   2.610  0.1838 -0.1837 -0.5204
 1389SOL    HW115800   1.199   2.676   2.528 -0.4291 -0.1223 -0.8778
 1389SOL    HW215801   1.086   2.615   2.609 -1.6981  1.6049 -1.2703
 1390SOL     OW15802   2.837   2.835   3.168 -0.3431  0.0217 -0.5288
 1390SOL    HW115803   2.915   2.881   3.138 -1.1076  1.9917  0.4762
 1390SOL    HW215804   2.870   2.772   3.232 -0.6033 -0.4750 -0.8878
 1391SOL     OW15805   1.929   2.408   1.892  0.1012  0.2843 -0.0703
 1391SOL    HW115806   1.987   2.347   1.847  0.3407  0.0845  0.4974
 1391SOL    HW215807   1.853   2.353   1.915 -0.4026  0.7601 -0.6022
 1392SOL     OW15808   1.165   3.716  15.924 -0.2437 -0.0176  0.2739
 1392SOL    HW115809   1.196   3.626  15.919  0.9161  0.3385  1.1429
 1392SOL    HW215810   1.172   3.745  15.833 -2.6050  0.8439  0.3723
 1393SOL     OW15811   0.949   2.161   4.723 -0.5382 -0.2333 -0.3103
 1393SOL    HW115812   0.942   2.099   4.796  0.9246 -0.5698 -0.4362
 1393SOL    HW215813   0.959   2.104   4.646  0.0877 -0.0475 -0.3690
 1394SOL     OW15814   3.606   0.150   0.532  0.6981  0.2272  0.7713
 1394SOL    HW115815   3.560   0.070   0.505  0.3939  0.4755  0.5422
 1394SOL    HW215816   3.684   0.152   0.476 -0.6336  0.2864 -1.1092
 1395SOL     OW15817   1.896   3.904   2.911 -0.1108 -0.4125 -0.1505
 1395SOL    HW115818   1.828   3.907   2.978  1.1193 -1.2239  1.1290
 1395SOL    HW215819   1.878   3.816   2.877  1.0718 -0.4353 -0.7245
 1396SOL     OW15820   0.529   2.887   3.935 -0.4756  0.3405 -0.0875
 1396SOL    HW115821   0.488   2.956   3.883  1.5505 -0.5258 -2.8571
 1396SOL    HW215822   0.481   2.893   4.017 -0.1044 -1.2496  0.2361
 1397SOL     OW15823   2.257   2.543   6.004  0.2121 -0.3826  0.1549
 1397SOL    HW115824   2.305   2.625   6.018  0.6685 -0.3752 -1.4931
 1397SOL    HW215825   2.189   2.584   5.951  0.1249  0.1942  0.7151
 1398SOL     OW15826   3.235   4.378   5.494 -0.5617  0.8237  0.0806
 1398SOL    HW115827   3.285   4.458   5.512  0.5510 -0.0650  0.9132
 1398SOL    HW215828   3.191   4.400   5.412 -1.1449 -0.7531 -0.0326
 1399SOL     OW15829   0.927   0.555  13.050  0.5653 -0.4190 -0.3592
 1399SOL    HW115830   0.884   0.501  13.117  2.4770 -0.6445  0.6808
 1399SOL    HW215831   0.943   0.639  13.093 -1.5879 -0.3172  0.2653
 1400SOL     OW15832   4.686   1.015   7.681 -0.3953  0.0286  0.4215
 1400SOL    HW115833   0.008   1.087   7.652  1.0067 -0.2816  2.3290
 1400SOL    HW215834   4.683   0.963   7.601 -0.4319  1.4714 -0.5235
 1401SOL     OW15835   0.107   1.502   0.575 -0.0450 -0.2002  0.5735
 1401SOL    HW115836   0.046   1.429   0.571  1.6447 -1.6063  0.6917
 1401SOL    HW215837   0.186   1.461   0.610  0.1150 -0.7161 -0.3887
 1402SOL     OW15838   4.593   1.790   4.684 -0.6543  0.0305  0.0156
 1402SOL    HW115839   4.682   1.813   4.712  0.0458 -0.2562 -2.0269
 1402SOL    HW215840   4.570   1.877   4.652  1.1585 -0.3868 -2.4421
 1403SOL     OW15841   0.566   0.625   6.834  0.8386  0.5047 -0.5376
 1403SOL    HW115842   0.618   0.630   6.754  0.7563  0.3898 -0.5978
 1403SOL    HW215843   0.561   0.718   6.860 -1.2815  0.6777 -1.5516
 1404SOL     OW15844   3.809   1.556  12.672 -0.2895 -0.0569  1.0228
 1404SOL    HW115845   3.865   1.478  12.679 -1.7774 -0.9176  3.1441
 1404SOL    HW215846   3.837   1.582  12.584 -1.9991 -0.5287  0.3398
 1405SOL     OW15847   3.535   3.031   7.442  0.5477 -0.2718  0.0565
 1405SOL    HW115848   3.455   2.979   7.442  0.0708  0.4765 -1.8797
 1405SOL    HW215849   3.521   3.088   7.517  2.8242  0.3116  0.0447
 1406SOL     OW15850   0.024   0.045   6.372  0.1325 -0.4856 -0.0149
 1406SOL    HW115851   4.669   0.023   6.396 -0.1670  0.5260 -0.2068
 1406SOL    HW215852   0.068   4.703   6.412  1.4290  0.3243  0.1240
 1407SOL     OW15853   4.615   1.713   9.012 -0.4285 -0.1655  0.1145
 1407SOL    HW115854   4.530   1.669   9.003  0.0107 -1.8523  4.3828
 1407SOL    HW215855   4.676   1.640   9.019 -0.1852 -0.1307 -1.5232
 1408SOL     OW15856   2.298   4.621   4.147  0.8927 -0.8675 -0.2704
 1408SOL    HW115857   2.314   4.590   4.057 -1.0775  2.5965 -1.8334
 1408SOL    HW215858   2.205   4.646   4.141  1.4504  0.5561 -2.7911
 1409SOL     OW15859   2.319   4.120  11.794 -0.2500  0.9654 -0.2954
 1409SOL    HW115860   2.407   4.125  11.830 -1.0594 -0.4399  1.8899
 1409SOL    HW215861   2.269   4.164  11.863 -0.2374 -0.8798  0.9030
 1410SOL     OW15862   3.250   4.306  13.383  0.5129 -0.4498 -0.1359
 1410SOL    HW115863   3.164   4.323  13.422 -0.1967 -1.1988 -1.3727
 1410SOL    HW215864   3.250   4.375  13.317  0.5036 -0.8217 -0.5230
 1411SOL     OW15865   0.547   0.898   7.498  0.5924  0.1174 -0.3473
 1411SOL    HW115866   0.498   0.842   7.558 -1.3092 -0.9144 -2.8352
 1411SOL    HW215867   0.631   0.853   7.503  0.9943  1.0706  1.2085
 1412SOL     OW15868   4.624   0.375   3.836 -0.1082 -0.0126 -0.2035
 1412SOL    HW115869   4.649   0.336   3.752 -1.4503 -0.0273 -0.5862
 1412SOL    HW215870   4.703   0.352   3.886  0.2028 -1.4675 -1.3441
 1413SOL     OW15871   1.318   0.621  13.654  1.1416 -0.6318  0.1874
 1413SOL    HW115872   1.263   0.664  13.719  0.3841 -0.3918 -0.6251
 1413SOL    HW215873   1.264   0.548  13.623  0.9856  0.3991 -1.9976
 1414SOL     OW15874   1.771   4.460  14.196  0.3561  1.3556  0.6753
 1414SOL    HW115875   1.775   4.522  14.123  0.6322 -0.1060 -0.5396
 1414SOL    HW215876   1.754   4.518  14.271  0.6964 -0.4007  2.1032
 1415SOL     OW15877   1.101   0.513   8.364  0.1159 -0.4322  0.0789
 1415SOL    HW115878   1.170   0.460   8.323 -1.4324 -2.3902  0.0133
 1415SOL    HW215879   1.036   0.446   8.385  0.2265 -0.7700 -0.6368
 1416SOL     OW15880   1.124   2.755   0.989 -0.4901  0.0788  0.4683
 1416SOL    HW115881   1.183   2.699   0.939 -0.0280 -1.1956  2.4522
 1416SOL    HW215882   1.071   2.684   1.026 -0.5929 -0.0052  0.1638
 1417SOL     OW15883   0.386   0.341   7.898 -0.2876  0.1053 -0.0468
 1417SOL    HW115884   0.474   0.329   7.933  0.4305 -0.6368 -2.1091
 1417SOL    HW215885   0.417   0.397   7.826  1.8461 -2.0071 -0.7603
 1418SOL     OW15886   3.859   3.444  16.186 -0.7071 -0.0220 -0.2179
 1418SOL    HW115887   3.822   3.358  16.203 -2.1027  0.8461  1.2049
 1418SOL    HW215888   3.907   3.460  16.267  0.2050 -1.5130 -0.4735
 1419SOL     OW15889   2.065   0.250  16.253  0.1473  0.0910 -0.2174
 1419SOL    HW115890   2.045   0.182  16.318 -3.4795  1.0399 -0.3506
 1419SOL    HW215891   2.149   0.219  16.219  0.1096  0.2284 -0.4314
 1420SOL     OW15892   3.525   1.841  17.521  0.3947 -0.3876  0.2752
 1420SOL    HW115893   3.552   1.761  17.478 -2.3924 -1.3878  0.3461
 1420SOL    HW215894   3.432   1.821  17.537  0.1579  1.9455  1.8714
 1421SOL     OW15895   1.361   2.366   5.326 -0.4714  0.4106  0.8509
 1421SOL    HW115896   1.386   2.439   5.383  0.0579 -0.0150  1.1684
 1421SOL    HW215897   1.391   2.397   5.240 -2.2767  0.0459  0.0951
 1422SOL     OW15898   2.274   3.268   2.096 -0.1770 -0.1640 -0.1266
 1422SOL    HW115899   2.284   3.234   2.007 -0.8299  0.4254 -0.4284
 1422SOL    HW215900   2.267   3.182   2.138 -1.2951 -0.5100 -1.0189
 1423SOL     OW15901   0.477   1.072   4.802  0.4866  0.3125 -1.0014
 1423SOL    HW115902   0.401   1.054   4.746  2.0345 -1.8587 -2.3887
 1423SOL    HW215903   0.513   0.984   4.810 -1.7066 -0.7328 -2.5567
 1424SOL     OW15904   2.130   1.987   6.572  0.0591  0.5038 -0.0937
 1424SOL    HW115905   2.152   2.076   6.545  2.7921  0.3849  1.7980
 1424SOL    HW215906   2.207   1.938   6.543 -1.0195 -0.9206 -0.5550
 1425SOL     OW15907   3.254   2.940   6.256  0.3267  0.1635 -0.3671
 1425SOL    HW115908   3.277   2.866   6.200 -1.2530 -0.5835 -0.0466
 1425SOL    HW215909   3.306   3.009   6.214  2.0633 -1.6911 -1.2754
 1426SOL     OW15910   4.291   3.540   8.212  0.6082 -1.0828 -0.2710
 1426SOL    HW115911   4.220   3.480   8.192 -1.7259  1.6277 -0.0379
 1426SOL    HW215912   4.356   3.483   8.255 -0.3892 -1.6988  0.4163
 1427SOL     OW15913   4.091   0.027   4.510  0.0169 -0.2963 -0.0163
 1427SOL    HW115914   4.182   0.015   4.483 -0.9054 -1.7684 -2.5024
 1427SOL    HW215915   4.049   0.078   4.441 -0.6828 -0.2138  0.4620
 1428SOL     OW15916   1.555   1.673   3.731 -0.0728 -0.1541  0.5666
 1428SOL    HW115917   1.611   1.743   3.696  1.1629 -0.7602  1.3257
 1428SOL    HW215918   1.555   1.609   3.659  0.6471 -0.5235  0.8902
 1429SOL     OW15919   1.430   0.797   7.751 -0.0362  0.2183 -0.0002
 1429SOL    HW115920   1.420   0.853   7.828 -1.0391  0.8847 -0.6245
 1429SOL    HW215921   1.524   0.800   7.732 -0.1729  2.3480 -0.3419
 1430SOL     OW15922   2.345   3.215   4.823  0.4912  0.1592 -0.2424
 1430SOL    HW115923   2.372   3.301   4.792  0.3179  0.1476 -0.4250
 1430SOL    HW215924   2.257   3.223   4.787  0.9402 -3.2684 -2.0699
 1431SOL     OW15925   3.366   1.541  16.288 -0.3721 -0.4537 -0.4095
 1431SOL    HW115926   3.445   1.512  16.243  0.2809  0.8735 -0.1366
 1431SOL    HW215927   3.332   1.605  16.225  2.2641  0.7345 -0.6575
 1432SOL     OW15928   1.504   1.078   6.548  1.2048  0.1134  0.0367
 1432SOL    HW115929   1.588   1.085   6.593  0.8132 -4.1732  1.3738
 1432SOL    HW215930   1.499   1.158   6.495  2.7548 -1.1092 -1.9294
 1433SOL     OW15931   1.561   2.822   8.892 -0.2370 -0.3621 -0.3930
 1433SOL    HW115932   1.520   2.884   8.953 -1.3691  1.3281 -2.8354
 1433SOL    HW215933   1.626   2.871   8.843 -0.6326 -1.0035 -1.5569
 1434SOL     OW15934   0.071   0.181   6.649 -0.3249 -0.2494  0.4649
 1434SOL    HW115935   0.047   0.258   6.701 -2.1967 -1.4985  1.4608
 1434SOL    HW215936   4.721   0.150   6.615  0.2527  0.5322 -1.6858
 1435SOL     OW15937   1.895   4.328   4.705  0.0946  0.7323 -0.7078
 1435SOL    HW115938   1.955   4.377   4.761  0.6820 -0.0726 -0.6132
 1435SOL    HW215939   1.914   4.234   4.715 -1.2929  0.5165 -0.1926
 1436SOL     OW15940   4.130   2.781   9.614 -0.0222  0.0788 -0.5528
 1436SOL    HW115941   4.137   2.818   9.702 -1.1534 -0.4299 -0.2472
 1436SOL    HW215942   4.035   2.790   9.602 -0.2508 -1.6142 -0.1059
 1437SOL     OW15943   4.070   2.362   4.521 -0.1008  0.3099  0.2039
 1437SOL    HW115944   3.999   2.409   4.565 -0.9196 -0.5410 -0.2126
 1437SOL    HW215945   4.100   2.316   4.599 -0.4454  2.5298  1.6676
 1438SOL     OW15946   3.097   4.441   2.686  0.0764 -0.4787  0.3238
 1438SOL    HW115947   3.148   4.365   2.711  0.0593 -0.2865  0.9439
 1438SOL    HW215948   3.079   4.426   2.593  0.8657 -0.8115  0.2281
 1439SOL     OW15949   0.710   4.333   1.439  0.1400 -0.2428  0.7435
 1439SOL    HW115950   0.770   4.407   1.429  0.7190 -0.9101 -0.7369
 1439SOL    HW215951   0.644   4.375   1.494 -0.1512 -0.2122  0.3697
 1440SOL     OW15952   3.925   4.438  16.310  0.3760 -0.4169 -0.7486
 1440SOL    HW115953   3.930   4.369  16.244  0.7671 -0.5746 -0.5558
 1440SOL    HW215954   3.920   4.378  16.385  0.6557 -0.6580 -0.9204
 1441SOL     OW15955   1.428   2.925   6.908  0.4869  0.0644 -0.0278
 1441SOL    HW115956   1.378   2.865   6.963  0.9845 -2.3607 -2.2261
 1441SOL    HW215957   1.425   3.013   6.947  2.2379  0.4666 -0.7956
 1442SOL     OW15958   3.223   3.671  15.592 -0.2032  0.0675  0.4775
 1442SOL    HW115959   3.270   3.643  15.513 -0.9358  1.3146 -0.4051
 1442SOL    HW215960   3.137   3.668  15.551 -0.1933 -2.4197  0.6601
 1443SOL     OW15961   2.128   4.469   7.758  0.1792  0.5491 -0.1246
 1443SOL    HW115962   2.151   4.489   7.849  1.4231  1.0679 -0.5627
 1443SOL    HW215963   2.046   4.517   7.749 -0.4358 -0.8602 -2.0355
 1444SOL     OW15964   1.250   0.543  11.058 -0.0675 -0.0478 -0.1549
 1444SOL    HW115965   1.336   0.536  11.100 -0.7112  1.4242  1.3993
 1444SOL    HW215966   1.247   0.629  11.016 -2.1095  0.6497  1.4082
 1445SOL     OW15967   0.701   3.204  16.857 -0.1894 -0.6540 -0.1861
 1445SOL    HW115968   0.713   3.119  16.900  1.9533 -2.2225 -3.8257
 1445SOL    HW215969   0.776   3.256  16.883 -1.0775  0.3163  0.4367
 1446SOL     OW15970   2.732   3.813  15.910  0.3137 -0.1384 -0.0499
 1446SOL    HW115971   2.718   3.755  15.834 -1.3838 -0.9865  0.8984
 1446SOL    HW215972   2.659   3.875  15.907  0.7068  0.2990 -0.5323
 1447SOL     OW15973   1.455   3.806  16.216 -0.5444 -0.3519  0.0626
 1447SOL    HW115974   1.443   3.901  16.215 -0.3514 -0.3234  0.4802
 1447SOL    HW215975   1.454   3.788  16.310  1.2168  1.4057  0.4102
 1448SOL     OW15976   2.838   0.285   3.351  0.1183 -0.7240  0.2117
 1448SOL    HW115977   2.813   0.317   3.265  0.7341  0.3643  0.4405
 1448SOL    HW215978   2.883   0.361   3.388 -2.9162  1.3851 -0.4132
 1449SOL     OW15979   2.254   0.520  17.699  0.0982  0.1332  0.1392
 1449SOL    HW115980   2.296   0.437  17.675 -2.5582 -1.3267  0.5281
 1449SOL    HW215981   2.193   0.532  17.626 -0.8715 -1.4262  0.6927
 1450SOL     OW15982   1.600   0.767   0.674 -0.0034  0.1791  0.2992
 1450SOL    HW115983   1.562   0.720   0.748 -0.9760  0.3297 -0.0910
 1450SOL    HW215984   1.669   0.816   0.717 -0.2331  2.1066 -1.5257
 1451SOL     OW15985   2.466   1.031   5.823  0.5904  0.6822 -0.0923
 1451SOL    HW115986   2.387   1.079   5.848 -0.3580 -0.3778 -1.0528
 1451SOL    HW215987   2.455   1.017   5.729  1.6810 -0.9714  0.0309
 1452SOL     OW15988   4.500   3.083   2.567  0.2199  0.1092 -0.6093
 1452SOL    HW115989   4.562   3.143   2.526  0.4211  1.5067  1.7356
 1452SOL    HW215990   4.472   3.151   2.629  0.0248 -0.4914 -0.0442
 1453SOL     OW15991   4.661   0.410  13.800  0.6692  0.7163  0.0617
 1453SOL    HW115992   4.602   0.430  13.727 -3.1162  0.8621  3.1736
 1453SOL    HW215993   4.593   0.401  13.868  1.6604 -0.1754  0.9263
 1454SOL     OW15994   2.993   4.056   2.676  0.4341 -0.1843 -0.2473
 1454SOL    HW115995   3.047   4.133   2.661  0.8086 -0.3145  0.4161
 1454SOL    HW215996   3.046   4.011   2.742  0.8704 -0.2746 -0.6543
 1455SOL     OW15997   3.607   0.909   5.753  0.7674 -0.1044 -0.0518
 1455SOL    HW115998   3.513   0.894   5.742  0.1242  3.3382  1.0145
 1455SOL    HW215999   3.612   0.863   5.838 -0.8055  0.5440  0.3965
 1456SOL     OW16000   3.592   4.274   4.812 -0.6438 -0.7339  0.2189
 1456SOL    HW116001   3.612   4.196   4.761 -1.2480 -0.2106 -0.8388
 1456SOL    HW216002   3.609   4.231   4.895 -0.2848  0.2976  0.6889
 1457SOL     OW16003   2.108   3.104   5.818  0.1154  0.4909 -0.0279
 1457SOL    HW116004   2.035   3.159   5.846 -0.6702 -0.0250 -1.0807
 1457SOL    HW216005   2.067   3.069   5.740 -2.4514 -0.0155  1.5515
 1458SOL     OW16006   4.255   4.627   3.077  0.3625  0.6410 -0.0546
 1458SOL    HW116007   4.316   4.700   3.071  2.3457 -1.0221 -0.2391
 1458SOL    HW216008   4.192   4.664   3.139 -1.5557 -0.1153 -1.5670
 1459SOL     OW16009   1.866   0.986   9.291 -0.1440  0.2286  0.3936
 1459SOL    HW116010   1.943   1.040   9.274  1.0948 -1.7107 -0.0598
 1459SOL    HW216011   1.839   0.971   9.201 -0.8046 -1.5659  0.9035
 1460SOL     OW16012   2.796   2.117   9.209 -0.3525 -0.1291 -0.0898
 1460SOL    HW116013   2.777   2.207   9.184 -1.4682  0.4181  2.7951
 1460SOL    HW216014   2.892   2.119   9.202 -0.2179  0.4162  1.8484
 1461SOL     OW16015   0.332   1.987   6.045  0.3152  0.3681  0.3132
 1461SOL    HW116016   0.307   2.079   6.057  0.4693  0.7328 -2.1539
 1461SOL    HW216017   0.404   1.974   6.106 -0.4254 -1.3981  0.8065
 1462SOL     OW16018   1.614   0.044  17.550 -0.0335 -0.2583  0.3092
 1462SOL    HW116019   1.615   0.039  17.645 -1.7102  1.2713  0.4072
 1462SOL    HW216020   1.637   4.689  17.522 -0.5905 -0.2477 -0.1814
 1463SOL     OW16021   3.686   1.817  13.554 -0.2914  0.2690  0.3534
 1463SOL    HW116022   3.662   1.726  13.537  1.1186 -0.4253  2.0340
 1463SOL    HW216023   3.651   1.840  13.640  0.6877  0.9365  0.5731
 1464SOL     OW16024   2.479   4.345  12.948  0.2257 -0.2431  0.4764
 1464SOL    HW116025   2.459   4.417  12.888  1.1638  0.8979  1.5129
 1464SOL    HW216026   2.417   4.282  12.912  0.8222 -0.8516  0.5011
 1465SOL     OW16027   3.408   4.611   5.433  0.5442 -0.4479  0.2349
 1465SOL    HW116028   3.406   4.571   5.346 -1.9724 -0.2172  0.2030
 1465SOL    HW216029   3.479   4.672   5.413 -0.1119  0.2213 -0.0339
 1466SOL     OW16030   3.872   4.573   6.172  0.0536 -0.1564 -0.4476
 1466SOL    HW116031   3.865   4.621   6.089  0.0787  1.0306  0.2429
 1466SOL    HW216032   3.967   4.557   6.178 -0.2102 -2.1328 -1.4302
 1467SOL     OW16033   0.413   3.293  10.139  0.4840 -0.0088 -0.3238
 1467SOL    HW116034   0.405   3.223  10.205  1.8320  1.0653  0.9748
 1467SOL    HW216035   0.501   3.283  10.103 -0.0974 -3.5128 -0.7736
 1468SOL     OW16036   2.911   0.558   7.353  0.1927 -0.8897  0.1622
 1468SOL    HW116037   2.825   0.522   7.377  0.1869 -0.4030  0.8851
 1468SOL    HW216038   2.968   0.491   7.390 -1.4480 -2.2304  0.3008
 1469SOL     OW16039   3.893   1.775   4.324  0.1994  0.3041  0.1557
 1469SOL    HW116040   3.914   1.688   4.359 -0.4437 -0.8807 -2.4174
 1469SOL    HW216041   3.939   1.825   4.391  1.7778 -0.3087 -0.4725
 1470SOL     OW16042   0.772   2.319   8.037 -0.6900  0.1679 -0.4656
 1470SOL    HW116043   0.781   2.313   8.132 -1.3250 -1.6780 -0.5047
 1470SOL    HW216044   0.752   2.412   8.030 -1.4749  0.1857  2.1284
 1471SOL     OW16045   0.224   0.834   4.282 -0.7307 -0.3049  0.1928
 1471SOL    HW116046   0.309   0.862   4.247 -1.6814  1.2143 -0.9231
 1471SOL    HW216047   0.175   0.872   4.208  0.9971  0.0278 -0.7730
 1472SOL     OW16048   1.504   1.231   9.919 -0.0665  0.4039  0.6570
 1472SOL    HW116049   1.472   1.207  10.006 -0.1332 -3.1275 -0.3717
 1472SOL    HW216050   1.431   1.207   9.862 -0.5805  1.0513  1.0403
 1473SOL     OW16051   4.716   1.047  13.914  0.3350 -0.2343 -0.3780
 1473SOL    HW116052   0.034   1.110  13.964 -0.5448 -2.7858  3.7870
 1473SOL    HW216053   4.702   1.106  13.840  1.7537  0.3732 -0.1747
 1474SOL     OW16054   4.326   1.882  16.472  0.6808 -0.0633  0.0549
 1474SOL    HW116055   4.267   1.937  16.524  3.2784  0.3415  2.5896
 1474SOL    HW216056   4.399   1.940  16.449  0.3854  0.0338 -0.6205
 1475SOL     OW16057   4.538   3.622   7.771  0.1211  0.3103 -0.0286
 1475SOL    HW116058   4.514   3.545   7.823  0.5140  0.4548  0.3736
 1475SOL    HW216059   4.474   3.629   7.700 -1.8680  1.4971  1.8807
 1476SOL     OW16060   1.418   2.327   3.482  0.4133  0.0065  0.2692
 1476SOL    HW116061   1.455   2.264   3.420  2.8920  1.6359  0.1088
 1476SOL    HW216062   1.436   2.413   3.444  0.7545  0.0170  0.4617
 1477SOL     OW16063   0.264   2.414   9.468  0.5061 -0.0350  0.6815
 1477SOL    HW116064   0.184   2.451   9.431 -0.3209 -0.2343  2.2626
 1477SOL    HW216065   0.325   2.451   9.404 -0.1730 -1.7334 -0.9557
 1478SOL     OW16066   0.001   4.694   8.026  0.2837 -0.0177  0.5347
 1478SOL    HW116067   4.697   4.659   7.945  0.7473  0.9380 -0.0970
 1478SOL    HW216068   0.016   0.045   7.984 -2.8986  0.0625 -0.4121
 1479SOL     OW16069   4.203   1.902   5.247  0.3483 -0.5327  0.0792
 1479SOL    HW116070   4.291   1.910   5.209  0.0619 -0.1295 -0.5042
 1479SOL    HW216071   4.204   1.810   5.221 -1.8245 -0.9267  1.4390
 1480SOL     OW16072   2.156   2.682   7.076  0.3178  0.5845  0.0774
 1480SOL    HW116073   2.137   2.776   7.070 -0.0681  0.5439  0.6521
 1480SOL    HW216074   2.066   2.648   7.073  0.8829 -0.9545  0.6499
 1481SOL     OW16075   0.038   2.212   3.407  0.0478 -0.3963 -0.4217
 1481SOL    HW116076   0.020   2.153   3.480 -1.2350 -0.2376 -0.6171
 1481SOL    HW216077   0.020   2.299   3.443  2.1036  0.1248 -0.6346
 1482SOL     OW16078   0.868   0.706   5.134  0.1716 -0.2079  0.1570
 1482SOL    HW116079   0.850   0.614   5.151  0.8094 -0.0224  1.9318
 1482SOL    HW216080   0.840   0.741   5.219  3.7254 -2.1455  2.1441
 1483SOL     OW16081   1.492   3.054  12.742  0.2443  0.0859  0.1648
 1483SOL    HW116082   1.413   3.015  12.702  0.8142  0.8073 -1.6946
 1483SOL    HW216083   1.510   3.134  12.692 -1.2733 -0.0185 -0.5751
 1484SOL     OW16084   4.394   1.805   6.939  0.2405 -0.5789  0.3439
 1484SOL    HW116085   4.429   1.716   6.927 -2.9423 -1.7921  0.0582
 1484SOL    HW216086   4.421   1.840   6.854 -1.1316 -0.0127  0.1382
 1485SOL     OW16087   3.223   3.081   3.439  0.1035  0.3562 -0.2165
 1485SOL    HW116088   3.230   3.028   3.359  1.3781  1.5279 -0.8794
 1485SOL    HW216089   3.223   3.008   3.501  0.5450  1.7254  1.3828
 1486SOL     OW16090   1.283   0.465   6.793 -0.5707 -0.0655 -0.3394
 1486SOL    HW116091   1.318   0.438   6.878 -0.4333  0.2780 -0.2868
 1486SOL    HW216092   1.302   0.390   6.737  0.3045 -1.7326  2.1838
 1487SOL     OW16093   1.501   2.510  17.154  0.4599  0.0673 -0.2204
 1487SOL    HW116094   1.549   2.579  17.199  0.8654 -0.9098  0.8618
 1487SOL    HW216095   1.453   2.560  17.088 -0.6898 -1.3507 -0.4630
 1488SOL     OW16096   2.595   3.089  11.221 -0.2383  0.3998 -0.6315
 1488SOL    HW116097   2.651   3.165  11.207  1.1346 -0.9187 -2.1355
 1488SOL    HW216098   2.548   3.086  11.137 -3.5706  3.6595  1.1104
 1489SOL     OW16099   0.960   2.988   1.674 -0.0506  0.0507  0.2633
 1489SOL    HW116100   1.015   2.958   1.746  2.2212  1.5164 -0.8597
 1489SOL    HW216101   0.981   3.081   1.686 -1.6241  0.4885 -0.3922
 1490SOL     OW16102   0.284   4.482   8.394 -0.0115  0.1467  0.1007
 1490SOL    HW116103   0.347   4.548   8.368 -0.1148  0.3151  0.2761
 1490SOL    HW216104   0.228   4.478   8.317  0.9502 -1.3041 -0.5189
 1491SOL     OW16105   1.320   1.119   5.311 -0.3810  0.1033 -0.4623
 1491SOL    HW116106   1.257   1.105   5.240 -0.5840  0.3275 -0.3257
 1491SOL    HW216107   1.393   1.095   5.253  0.1340  0.8805 -0.1359
 1492SOL     OW16108   2.568   1.614   1.573 -0.1576  0.4046  0.3537
 1492SOL    HW116109   2.501   1.571   1.519 -0.2483  0.5630  0.3404
 1492SOL    HW216110   2.606   1.676   1.511 -0.8694  1.3176  0.8375
 1493SOL     OW16111   4.454   1.957   8.758  0.3598 -0.0822  0.1704
 1493SOL    HW116112   4.477   1.868   8.732 -0.2231  0.7404 -3.1542
 1493SOL    HW216113   4.368   1.971   8.719  0.5263 -2.1135 -0.8620
 1494SOL     OW16114   4.093   1.783   9.738  0.7518 -0.1018 -0.1043
 1494SOL    HW116115   4.147   1.828   9.673  0.2350  0.8579  0.1303
 1494SOL    HW216116   4.040   1.860   9.761 -0.5942 -0.5266 -1.7828
 1495SOL     OW16117   2.039   3.403  14.740 -0.2113  0.3888 -0.1754
 1495SOL    HW116118   1.970   3.469  14.744 -1.1139 -0.5690 -0.1866
 1495SOL    HW216119   2.094   3.433  14.667  0.2702 -3.8443 -1.5724
 1496SOL     OW16120   1.725   4.358   2.746  0.3339 -0.5145  0.2649
 1496SOL    HW116121   1.707   4.264   2.754  0.7998 -0.4918  1.5904
 1496SOL    HW216122   1.819   4.358   2.768 -0.1423  0.0551  2.3799
 1497SOL     OW16123   0.198   3.677  14.979 -0.3213 -0.2812 -0.7545
 1497SOL    HW116124   0.292   3.657  14.978 -0.3629 -0.5497  0.1574
 1497SOL    HW216125   0.173   3.650  15.068 -0.0424 -1.2549 -0.9773
 1498SOL     OW16126   0.645   2.763  12.702  0.1974  0.0884 -0.1662
 1498SOL    HW116127   0.723   2.764  12.758  1.2462 -1.4447 -1.6248
 1498SOL    HW216128   0.589   2.694  12.739  0.3236  0.0293 -0.0849
 1499SOL     OW16129   2.207   3.901  17.352 -0.0183 -0.1508  0.7999
 1499SOL    HW116130   2.132   3.873  17.298  1.1043 -0.8685 -0.3795
 1499SOL    HW216131   2.248   3.816  17.371  0.0058 -0.3661 -0.2476
 1500SOL     OW16132   1.164   2.632  12.336 -0.0994 -0.3273  0.0363
 1500SOL    HW116133   1.176   2.566  12.404  1.0687  0.3416  0.4873
 1500SOL    HW216134   1.075   2.621  12.302 -0.1717  1.0565 -0.2070
 1501SOL     OW16135   4.099   2.758   6.345  0.0640  0.1507  0.2269
 1501SOL    HW116136   4.032   2.783   6.283  1.2794 -1.9450 -1.9216
 1501SOL    HW216137   4.077   2.820   6.415  2.2780 -1.2617  2.1917
 1502SOL     OW16138   0.309   0.943   7.687 -0.2317 -0.7424  0.1402
 1502SOL    HW116139   0.286   1.023   7.639 -0.1424  0.1309  1.5525
 1502SOL    HW216140   0.346   0.981   7.766  0.2748  2.0780 -1.4354
 1503SOL     OW16141   1.129   1.220   4.535  0.2376 -0.3807 -0.1975
 1503SOL    HW116142   1.180   1.286   4.488  2.3901 -1.6894  0.3045
 1503SOL    HW216143   1.076   1.272   4.595  0.5238  1.4524 -1.5144
 1504SOL     OW16144   1.537   0.950   8.475  0.1193  0.3657 -0.7093
 1504SOL    HW116145   1.485   0.922   8.399  0.6729 -0.7203 -0.6824
 1504SOL    HW216146   1.590   1.021   8.439 -0.0896  0.6150 -0.5241
 1505SOL     OW16147   0.083   4.697  12.979 -0.3483 -0.5605 -0.3474
 1505SOL    HW116148   0.120   4.622  12.932 -1.9074 -2.3514  1.2910
 1505SOL    HW216149   4.724   4.675  12.977 -0.5010  0.0288  0.7733
 1506SOL     OW16150   0.087   1.327   8.336  0.4523  0.1565  0.6821
 1506SOL    HW116151   0.135   1.399   8.377 -0.7887  0.5480  1.4127
 1506SOL    HW216152   0.125   1.339   8.249  1.4924 -1.3402  0.9285
 1507SOL     OW16153   3.509   0.204   8.671  0.3071  0.3046 -0.5981
 1507SOL    HW116154   3.458   0.122   8.676  0.4298  0.1638 -1.7577
 1507SOL    HW216155   3.502   0.228   8.579  1.7440  0.7690 -0.5791
 1508SOL     OW16156   2.163   4.634   4.429  0.1394 -0.0940 -0.4761
 1508SOL    HW116157   2.207   4.641   4.345 -0.0625  0.3974 -0.5395
 1508SOL    HW216158   2.118   4.718   4.432  1.8913  0.8576 -0.7491
 1509SOL     OW16159   2.185   0.205  13.519  0.0472  0.1164  0.5357
 1509SOL    HW116160   2.095   0.204  13.487 -0.3228 -1.2483  1.6102
 1509SOL    HW216161   2.191   0.131  13.579 -0.9069 -1.0122 -0.7750
 1510SOL     OW16162   3.194   3.592   4.144 -0.6465 -0.0621  0.0441
 1510SOL    HW116163   3.285   3.620   4.130 -0.4664 -1.7616 -2.2190
 1510SOL    HW216164   3.167   3.661   4.205  2.2868  0.1285  1.1249
 1511SOL     OW16165   3.677   1.715   3.362  0.8838 -0.6988 -0.1788
 1511SOL    HW116166   3.662   1.764   3.281  1.0447 -0.2589  0.0581
 1511SOL    HW216167   3.772   1.703   3.361  0.9329 -0.1087 -3.1871
 1512SOL     OW16168   4.490   2.335   4.349  0.4241  0.3451  0.3032
 1512SOL    HW116169   4.563   2.397   4.354 -0.3600  1.2509  0.3686
 1512SOL    HW216170   4.478   2.311   4.441  1.2752 -0.0657  0.3157
 1513SOL     OW16171   1.859   0.611   8.197 -0.5599  0.0756  0.1559
 1513SOL    HW116172   1.914   0.682   8.232  0.7692 -0.4197 -0.9197
 1513SOL    HW216173   1.906   0.533   8.227  0.3358  0.2781 -0.7108
 1514SOL     OW16174   3.515   0.593   8.874 -0.1775  0.1641 -0.5187
 1514SOL    HW116175   3.479   0.680   8.889  1.1742  0.1435  2.8765
 1514SOL    HW216176   3.452   0.549   8.817 -1.0546  2.2816 -1.1703
 1515SOL     OW16177   2.100   3.575   4.246  0.1473 -0.2593  0.2847
 1515SOL    HW116178   2.119   3.623   4.326 -0.4602  0.4669 -0.0124
 1515SOL    HW216179   2.041   3.633   4.198 -2.0460 -1.7929  1.1610
 1516SOL     OW16180   3.925   2.412   0.379  0.1503  0.2969 -0.1927
 1516SOL    HW116181   3.917   2.372   0.466 -1.5963  0.9008 -0.0768
 1516SOL    HW216182   3.835   2.399   0.350 -0.5683  1.2603  1.5913
 1517SOL     OW16183   2.816   2.628   7.665 -0.3313 -0.1304  0.4525
 1517SOL    HW116184   2.898   2.655   7.707 -1.3805 -0.1164  2.5067
 1517SOL    HW216185   2.757   2.613   7.739 -0.1399  2.5897  1.1630
 1518SOL     OW16186   3.908   3.112   8.155 -0.1339  0.0266 -0.1556
 1518SOL    HW116187   3.865   3.187   8.115 -0.0522 -0.6103 -1.4467
 1518SOL    HW216188   3.839   3.082   8.213 -1.2790  0.3356 -1.3698
 1519SOL     OW16189   0.927   0.960   1.121  0.0777 -0.2634 -0.1112
 1519SOL    HW116190   0.953   0.954   1.213  0.3203  0.4263 -0.1363
 1519SOL    HW216191   1.014   0.947   1.082  0.4218 -0.3410  0.6992
 1520SOL     OW16192   2.272   2.392   7.307 -0.0987 -0.2597 -0.2448
 1520SOL    HW116193   2.281   2.486   7.295  0.1339  0.1191  2.7995
 1520SOL    HW216194   2.358   2.366   7.340 -0.3102 -2.4678 -1.4093
 1521SOL     OW16195   2.026   2.830   3.803  0.5364 -0.1519 -0.1377
 1521SOL    HW116196   2.016   2.908   3.857 -2.9556 -1.3061  0.8861
 1521SOL    HW216197   1.997   2.760   3.861  0.5006 -0.2979 -0.3287
 1522SOL     OW16198   0.794   2.525   3.467 -0.1615  0.3980  0.3415
 1522SOL    HW116199   0.765   2.465   3.398 -1.7000  0.3619  1.0123
 1522SOL    HW216200   0.752   2.476   3.538 -2.1283  1.5904  0.0036
 1523SOL     OW16201   2.468   1.521   6.967  0.4193 -0.0694 -0.3003
 1523SOL    HW116202   2.420   1.528   7.049  0.6913 -2.0748  0.0345
 1523SOL    HW216203   2.540   1.579   6.991  0.0669  0.3858 -0.3412
 1524SOL     OW16204   2.141   4.095  10.768  0.3700 -0.5260 -0.1195
 1524SOL    HW116205   2.086   4.056  10.700 -0.2846  0.9733 -0.4376
 1524SOL    HW216206   2.134   4.025  10.833 -0.5425  0.0818  0.4339
 1525SOL     OW16207   2.602   2.691   1.894  0.4051  0.1638  0.2656
 1525SOL    HW116208   2.611   2.719   1.803  1.5966 -2.3598 -0.4022
 1525SOL    HW216209   2.695   2.705   1.914  0.8671 -0.2242 -1.5874
 1526SOL     OW16210   3.948   1.606   5.802  0.4754 -0.5854 -0.5184
 1526SOL    HW116211   4.044   1.600   5.806  0.5612 -1.1660 -3.2483
 1526SOL    HW216212   3.932   1.559   5.883  0.0919  2.8055  1.3575
 1527SOL     OW16213   3.463   3.263   5.650  0.4076 -0.2359 -0.4008
 1527SOL    HW116214   3.425   3.248   5.563  2.0034  0.6295 -1.2397
 1527SOL    HW216215   3.502   3.350   5.643  1.2586 -0.5748  0.2059
 1528SOL     OW16216   3.265   1.132   2.896 -0.3023 -0.1721 -0.0592
 1528SOL    HW116217   3.282   1.226   2.900  0.1224 -0.3776  2.6478
 1528SOL    HW216218   3.240   1.115   2.987  2.2292 -1.3494  0.4006
 1529SOL     OW16219   3.811   1.246   5.964 -0.0605  0.0620 -0.0811
 1529SOL    HW116220   3.786   1.281   5.879  0.3709  0.1608 -0.1680
 1529SOL    HW216221   3.730   1.270   6.009  0.0210 -0.7716  0.5170
 1530SOL     OW16222   2.988   3.358   4.890 -0.5945  0.5817  0.4922
 1530SOL    HW116223   2.895   3.343   4.871  0.2070 -0.1335 -2.8131
 1530SOL    HW216224   3.028   3.302   4.824 -1.4683 -2.0607  2.1725
 1531SOL     OW16225   0.988   0.832  10.952  0.0522 -0.1512  0.0896
 1531SOL    HW116226   0.947   0.784  11.024 -1.8329  1.3265 -0.0118
 1531SOL    HW216227   0.996   0.920  10.987  0.1155 -0.4710  0.8659
 1532SOL     OW16228   2.895   4.169  17.591 -0.1789  0.2281  0.2238
 1532SOL    HW116229   2.930   4.166  17.502 -1.2401 -1.5703 -0.1464
 1532SOL    HW216230   2.823   4.106  17.579  1.7776 -1.8375 -0.8076
 1533SOL     OW16231   0.626   4.701   6.919 -0.3214  0.9004  0.1064
 1533SOL    HW116232   0.685   4.733   6.988  0.1149 -2.9124  1.4667
 1533SOL    HW216233   0.567   0.042   6.918 -1.4883 -0.0123  0.3907
 1534SOL     OW16234   4.298   1.063   7.535  0.1949 -0.0039  0.1858
 1534SOL    HW116235   4.274   1.131   7.599  0.9931  0.3134  0.1488
 1534SOL    HW216236   4.211   1.025   7.524  0.1765 -0.1027  0.6795
 1535SOL     OW16237   4.181   0.275   6.646  0.4591  0.2135  0.1611
 1535SOL    HW116238   4.217   0.226   6.573 -1.4286  0.1948 -0.7667
 1535SOL    HW216239   4.102   0.318   6.612  1.3743  0.3374 -1.7510
 1536SOL     OW16240   4.567   0.097  16.769 -0.3584 -0.3147 -0.3150
 1536SOL    HW116241   4.542   0.175  16.718  0.6823  2.6639  3.7402
 1536SOL    HW216242   4.648   0.127  16.810 -0.4761  1.5106 -1.3938
 1537SOL     OW16243   1.188   3.046   6.694 -0.3354  0.5259  0.2747
 1537SOL    HW116244   1.169   3.080   6.781  1.1734 -0.0487  0.8463
 1537SOL    HW216245   1.109   2.993   6.688  0.7742 -1.2124  0.7940
 1538SOL     OW16246   2.369   0.411   1.546 -0.8019 -0.4190 -0.1160
 1538SOL    HW116247   2.365   0.321   1.515  2.9210 -0.5712 -0.1637
 1538SOL    HW216248   2.460   0.416   1.516 -0.2694  0.4414  1.6446
 1539SOL     OW16249   2.652   1.858   5.858  0.1124 -0.3885 -0.2748
 1539SOL    HW116250   2.568   1.901   5.845 -0.1289 -0.8797 -0.3478
 1539SOL    HW216251   2.657   1.797   5.784 -1.7147  0.0720 -0.7749
 1540SOL     OW16252   1.449   0.748  15.992  0.3932  0.0955 -0.1618
 1540SOL    HW116253   1.455   0.681  16.060  1.4059  0.4015  0.0425
 1540SOL    HW216254   1.514   0.717  15.929  0.6656  0.1428  0.1009
 1541SOL     OW16255   4.258   0.118  12.259 -0.2540  0.1052 -0.3646
 1541SOL    HW116256   4.308   0.066  12.196 -0.4536  0.1816 -0.5873
 1541SOL    HW216257   4.175   0.070  12.265 -0.2487  0.3982  1.8629
 1542SOL     OW16258   3.103   2.318   7.024 -0.0309  0.1177 -0.0833
 1542SOL    HW116259   3.117   2.406   7.059  1.4823 -0.0577 -0.2709
 1542SOL    HW216260   3.039   2.347   6.959 -0.0229 -0.8557 -0.5119
 1543SOL     OW16261   2.291   4.427  15.368  0.2458  0.2343 -0.2567
 1543SOL    HW116262   2.250   4.435  15.281 -0.9385  0.0672  0.2860
 1543SOL    HW216263   2.224   4.377  15.416  1.3256 -1.9436 -1.0128
 1544SOL     OW16264   0.559   2.324   5.185 -0.5501 -0.5514  0.4271
 1544SOL    HW116265   0.540   2.296   5.275 -0.2267 -1.1564  0.3059
 1544SOL    HW216266   0.472   2.308   5.149 -0.4108 -0.7126  0.1657
 1545SOL     OW16267   2.068   3.377   5.265 -0.2152  0.3090  0.8087
 1545SOL    HW116268   2.127   3.328   5.208 -1.0764  1.5927 -1.1907
 1545SOL    HW216269   2.009   3.307   5.294  0.8414 -1.1566 -0.5813
 1546SOL     OW16270   2.035   0.730  11.506  0.3593 -0.2844  0.0777
 1546SOL    HW116271   1.993   0.648  11.481  0.3675  0.0375 -0.9850
 1546SOL    HW216272   2.126   0.711  11.528  0.8116  2.1245  0.3492
 1547SOL     OW16273   1.907   3.347   4.992 -0.5119  0.2824  0.1049
 1547SOL    HW116274   1.981   3.367   5.050  0.2867  3.0057 -1.8451
 1547SOL    HW216275   1.942   3.349   4.903 -1.5212 -1.2184 -0.3162
 1548SOL     OW16276   2.181   3.760   3.575 -0.6667 -0.0330  0.2221
 1548SOL    HW116277   2.129   3.833   3.542 -1.2140 -0.7267 -0.4577
 1548SOL    HW216278   2.173   3.703   3.499  0.5888 -0.6876  0.5770
 1549SOL     OW16279   4.416   2.276   0.232  0.1049  0.4871 -0.3511
 1549SOL    HW116280   4.473   2.204   0.206  1.9914  0.6352  3.2611
 1549SOL    HW216281   4.398   2.253   0.324 -0.1317  0.9650 -0.2711
 1550SOL     OW16282   2.479   3.726   7.152 -0.1104 -0.1365  0.0492
 1550SOL    HW116283   2.410   3.791   7.169 -1.8914 -1.9688 -0.2199
 1550SOL    HW216284   2.458   3.664   7.222 -0.1782 -1.3470 -1.0546
 1551SOL     OW16285   1.324   1.522   4.562 -0.1711  0.0185  0.3995
 1551SOL    HW116286   1.390   1.453   4.565 -0.5675 -0.3605  0.4025
 1551SOL    HW216287   1.369   1.591   4.512  2.3194 -0.5013  1.9357
 1552SOL     OW16288   0.657   3.828   6.913  0.3190  0.4095 -0.4822
 1552SOL    HW116289   0.601   3.758   6.945 -0.7931  1.6901  0.3815
 1552SOL    HW216290   0.724   3.807   6.978 -1.6872 -0.5597  1.2703
 1553SOL     OW16291   4.579   0.461   2.942  0.0660  0.2939  0.0305
 1553SOL    HW116292   4.568   0.555   2.927  0.3911  0.3614  0.2120
 1553SOL    HW216293   4.487   0.437   2.944  0.3295 -0.5528  1.8770
 1554SOL     OW16294   2.795   3.377   2.953  0.6537  0.6218  0.3771
 1554SOL    HW116295   2.874   3.430   2.957  1.1533 -0.2096  1.4107
 1554SOL    HW216296   2.728   3.423   3.004 -2.0797  0.1054 -2.7470
 1555SOL     OW16297   2.461   2.085  12.493  0.5254  0.0410  0.5235
 1555SOL    HW116298   2.508   2.168  12.488 -2.0371  1.4813  0.6407
 1555SOL    HW216299   2.382   2.106  12.442 -0.9046 -0.6292  2.4657
 1556SOL     OW16300   1.888   0.234   0.094 -0.1670  0.0248  0.3437
 1556SOL    HW116301   1.927   0.230   0.007  0.6714 -1.8452  0.7922
 1556SOL    HW216302   1.848   0.320   0.106 -0.0524  0.2154 -0.6243
 1557SOL     OW16303   3.062   0.069   4.207 -0.2904  0.2901 -0.0769
 1557SOL    HW116304   3.155   0.088   4.207  0.0292 -1.2910 -0.7940
 1557SOL    HW216305   3.047   0.068   4.301 -2.5736 -0.0752 -0.4433
 1558SOL     OW16306   3.313   1.082  14.790  0.8184 -0.2734  0.3686
 1558SOL    HW116307   3.259   1.096  14.868 -0.7647  0.3021 -0.8401
 1558SOL    HW216308   3.386   1.138  14.816 -0.3073  1.6818 -0.7055
 1559SOL     OW16309   1.409   2.933   0.414  0.7370 -0.4704  0.2935
 1559SOL    HW116310   1.335   2.923   0.354  0.8469 -1.3501  0.2968
 1559SOL    HW216311   1.377   2.867   0.476 -0.9950 -1.9782 -2.1953
 1560SOL     OW16312   1.016   2.409   7.181  0.1844  0.4060  0.2427
 1560SOL    HW116313   0.946   2.344   7.187  2.1152 -1.4589  2.5651
 1560SOL    HW216314   1.095   2.378   7.226  1.1602  1.7976 -0.5308
 1561SOL     OW16315   3.899   2.865   8.070 -0.7517  0.2036  0.3418
 1561SOL    HW116316   3.947   2.944   8.097  0.7621 -0.3215 -0.8024
 1561SOL    HW216317   3.829   2.862   8.135  0.0950 -4.0031  1.0416
 1562SOL     OW16318   2.287   1.640  16.341 -0.1825  0.4224  0.1623
 1562SOL    HW116319   2.283   1.720  16.290 -2.0701 -0.5767 -1.2365
 1562SOL    HW216320   2.368   1.596  16.315  1.1882  0.7816  3.7128
 1563SOL     OW16321   0.998   4.149   6.955 -0.0539 -0.3487 -0.2727
 1563SOL    HW116322   1.062   4.146   7.026  0.5763 -0.6386 -0.8585
 1563SOL    HW216323   0.994   4.244   6.950  1.5533 -0.1594  1.9710
 1564SOL     OW16324   3.288   2.114   1.951 -0.3210  0.8254  0.9782
 1564SOL    HW116325   3.298   2.052   1.879 -0.4481  0.4207  1.3063
 1564SOL    HW216326   3.234   2.065   2.013 -1.5009  0.2174 -0.5433
 1565SOL     OW16327   1.637   2.295  12.421 -0.3037  0.3797 -0.1174
 1565SOL    HW116328   1.594   2.372  12.458  4.2266  1.8418  2.1388
 1565SOL    HW216329   1.635   2.309  12.326 -0.8227 -1.7163 -0.4203
 1566SOL     OW16330   1.025   2.723   7.587 -0.1443 -0.4895  0.5330
 1566SOL    HW116331   1.017   2.706   7.493  0.1467 -1.4284  0.6773
 1566SOL    HW216332   0.933   2.726   7.613 -0.2896 -1.4714  0.1451
 1567SOL     OW16333   0.519   1.012   8.199 -0.1520 -0.5493 -0.2818
 1567SOL    HW116334   0.599   1.051   8.163  0.2181 -0.2990  0.8076
 1567SOL    HW216335   0.544   1.016   8.291  0.9308  1.8843 -0.6653
 1568SOL     OW16336   2.537   3.954   8.089 -0.2173  0.6712  0.1948
 1568SOL    HW116337   2.498   3.958   8.002 -0.2057  0.3517  0.1755
 1568SOL    HW216338   2.459   3.920   8.133  0.7192 -0.3800  1.0517
 1569SOL     OW16339   3.327   4.302   8.869  0.2981  0.4023 -0.3760
 1569SOL    HW116340   3.306   4.216   8.832 -2.6083  1.7605 -1.9140
 1569SOL    HW216341   3.422   4.297   8.860  0.4783 -0.9725  2.2538
 1570SOL     OW16342   4.267   1.845   3.053 -0.7796 -0.2330 -0.3423
 1570SOL    HW116343   4.178   1.881   3.051 -0.9937 -0.8497 -1.3376
 1570SOL    HW216344   4.281   1.833   2.960  1.5089  2.1546 -0.2960
 1571SOL     OW16345   1.936   3.973   6.957  0.3692 -0.3993 -0.8931
 1571SOL    HW116346   1.989   4.052   6.944 -3.0592  1.2965 -4.5745
 1571SOL    HW216347   1.952   3.939   6.869  0.4964 -1.8476 -0.3013
 1572SOL     OW16348   3.955   0.179   0.107 -0.1429 -0.6082 -0.4785
 1572SOL    HW116349   4.047   0.163   0.085  0.3943  1.1458  0.5153
 1572SOL    HW216350   3.947   0.269   0.076  1.6883 -0.0109  0.7748
 1573SOL     OW16351   1.945   3.770   8.310 -0.2667 -0.2494 -0.4254
 1573SOL    HW116352   1.987   3.787   8.394 -1.6771  0.6218  0.0966
 1573SOL    HW216353   2.009   3.716   8.262 -0.6130 -0.8640 -0.1945
 1574SOL     OW16354   3.489   1.807   4.984  0.0600  0.0720  0.3148
 1574SOL    HW116355   3.561   1.744   4.972 -0.5401 -0.1949 -1.9759
 1574SOL    HW216356   3.505   1.835   5.074 -0.2363  0.3878  0.2675
 1575SOL     OW16357   3.207   0.641   9.018  0.1783  0.2270  0.1644
 1575SOL    HW116358   3.279   0.699   8.995  0.0643  0.5464  0.6081
 1575SOL    HW216359   3.253   0.570   9.063  0.7696  0.3451 -0.2525
 1576SOL     OW16360   0.591   1.706   1.817 -0.3778  0.3267  0.2843
 1576SOL    HW116361   0.639   1.768   1.763 -1.2650  0.4262 -0.3941
 1576SOL    HW216362   0.517   1.683   1.760 -0.5081  1.7446 -0.1082
 1577SOL     OW16363   0.816   3.783   6.706  0.5229  0.0166  0.0774
 1577SOL    HW116364   0.754   3.781   6.779 -0.4416 -1.5760 -0.7871
 1577SOL    HW216365   0.814   3.873   6.675  2.0112  0.0984  0.2291
 1578SOL     OW16366   0.286   3.722   2.387  0.6607  0.0575 -0.4922
 1578SOL    HW116367   0.314   3.701   2.297  1.7936 -1.0155  0.1105
 1578SOL    HW216368   0.257   3.812   2.375  2.1286  0.3722 -1.6870
 1579SOL     OW16369   2.496   0.894   7.695  0.1040  0.1137 -0.1447
 1579SOL    HW116370   2.457   0.844   7.767 -1.1043  0.2198 -0.7221
 1579SOL    HW216371   2.445   0.974   7.710 -0.5000 -0.4192  0.6829
 1580SOL     OW16372   2.251   4.308   4.715 -0.2259 -0.2559 -0.1479
 1580SOL    HW116373   2.169   4.278   4.754 -1.3472  2.0193 -0.7513
 1580SOL    HW216374   2.319   4.302   4.782 -1.2108  0.6499  0.9394
 1581SOL     OW16375   1.562   4.076   0.303 -0.6598  0.1205  0.5870
 1581SOL    HW116376   1.474   4.087   0.340 -1.4320 -2.6178 -0.3979
 1581SOL    HW216377   1.613   4.156   0.311  2.3610 -1.6002 -1.4994
 1582SOL     OW16378   4.359   4.283   3.340 -0.1012 -0.0929 -0.6785
 1582SOL    HW116379   4.400   4.307   3.257  3.4165 -2.6234  0.2866
 1582SOL    HW216380   4.392   4.193   3.336 -0.4432 -0.2921  1.1077
 1583SOL     OW16381   2.831   2.861   6.591 -0.1319 -0.2438  0.0994
 1583SOL    HW116382   2.782   2.780   6.605  0.3778 -0.4444  0.6836
 1583SOL    HW216383   2.767   2.932   6.598  1.9335  1.5404  0.9730
 1584SOL     OW16384   4.635   0.342   5.098  0.1978 -0.0460 -0.5409
 1584SOL    HW116385   4.564   0.336   5.034 -0.1447 -1.7015 -0.0095
 1584SOL    HW216386   4.650   0.248   5.105  2.1341  0.1012 -2.8541
 1585SOL     OW16387   3.890   2.260   3.154 -0.2030 -0.2344 -0.2517
 1585SOL    HW116388   3.898   2.173   3.194 -1.6141 -0.2193  0.0582
 1585SOL    HW216389   3.804   2.260   3.111 -0.0297  0.3836 -0.5886
 1586SOL     OW16390   4.184   4.545   0.117 -0.4468  0.0036 -0.5250
 1586SOL    HW116391   4.188   4.639   0.097 -2.7841  0.2896  0.3288
 1586SOL    HW216392   4.267   4.525   0.161 -0.2475  0.8545 -0.4958
 1587SOL     OW16393   3.771   3.192   9.798  0.3061 -0.3617  0.6819
 1587SOL    HW116394   3.707   3.261   9.817  0.0646 -0.1163 -0.9906
 1587SOL    HW216395   3.751   3.169   9.707  1.4400 -1.7866  0.7926
 1588SOL     OW16396   2.544   4.358   2.767 -0.2005  0.0696  0.7985
 1588SOL    HW116397   2.572   4.341   2.857 -0.6124 -1.5558  0.6230
 1588SOL    HW216398   2.458   4.317   2.776 -1.6622  2.3345 -3.0496
 1589SOL     OW16399   3.904   4.449   4.096  0.2144  0.3831  0.1678
 1589SOL    HW116400   3.964   4.413   4.161 -1.1812  0.1888  1.3503
 1589SOL    HW216401   3.842   4.377   4.082  0.0631  0.5632 -0.1000
 1590SOL     OW16402   3.864   2.647   3.185 -0.5575 -0.8055 -0.3137
 1590SOL    HW116403   3.793   2.613   3.130  0.8826 -1.2743 -1.8493
 1590SOL    HW216404   3.848   2.590   3.260 -1.3575 -1.4473 -0.9706
 1591SOL     OW16405   2.879   2.479   9.511 -0.0685  0.1854 -0.7211
 1591SOL    HW116406   2.930   2.513   9.584  0.7168  1.2143 -1.7273
 1591SOL    HW216407   2.825   2.416   9.558 -1.2112  0.8840 -1.1125
 1592SOL     OW16408   4.521   0.495   7.690  0.8034 -0.0045  0.1831
 1592SOL    HW116409   4.594   0.552   7.715 -0.7258  1.2427  1.6934
 1592SOL    HW216410   4.501   0.453   7.774 -1.5642  3.4509  1.3011
 1593SOL     OW16411   1.191   2.741  15.517 -0.2765  0.3054 -0.2077
 1593SOL    HW116412   1.225   2.798  15.586 -2.1047  0.5922  0.4320
 1593SOL    HW216413   1.243   2.770  15.442  0.1395 -1.2900 -0.5348
 1594SOL     OW16414   0.528   0.705   1.875  0.2391 -0.1381 -0.2429
 1594SOL    HW116415   0.493   0.779   1.924 -0.4291  1.2543 -2.8180
 1594SOL    HW216416   0.552   0.653   1.952  0.0211  2.7413  1.7676
 1595SOL     OW16417   0.590   3.708   9.221  0.1495  0.9322 -0.2234
 1595SOL    HW116418   0.545   3.632   9.258  2.8953  0.6976  2.5691
 1595SOL    HW216419   0.666   3.662   9.185  0.3599  0.9434  0.2107
 1596SOL     OW16420   3.347   0.447   8.729 -0.3863 -0.5562  0.1247
 1596SOL    HW116421   3.318   0.437   8.638  1.3091 -0.6420 -0.4139
 1596SOL    HW216422   3.386   0.360   8.741 -1.6422 -1.2358 -0.6050
 1597SOL     OW16423   1.567   2.073   7.948 -0.1287 -0.0161  0.1328
 1597SOL    HW116424   1.614   2.134   7.892  0.0038 -1.0843 -0.9086
 1597SOL    HW216425   1.637   2.010   7.965  0.4640  0.3993 -0.8083
 1598SOL     OW16426   3.553   3.962  11.642 -0.1693  0.4387 -0.1919
 1598SOL    HW116427   3.545   3.976  11.736 -0.3128  1.6082 -0.3745
 1598SOL    HW216428   3.464   3.982  11.612 -0.6778 -0.9885  0.3933
 1599SOL     OW16429   4.189   3.841  12.396 -0.3134  0.4268  0.1469
 1599SOL    HW116430   4.137   3.897  12.453 -1.6125  0.3948 -1.0088
 1599SOL    HW216431   4.141   3.760  12.413  1.4149 -0.8435 -0.8989
 1600SOL     OW16432   1.788   4.202  17.069 -0.6896 -0.1788  0.1003
 1600SOL    HW116433   1.817   4.124  17.116  0.8725  0.5016  0.2565
 1600SOL    HW216434   1.760   4.161  16.987  2.5283  0.0986 -1.1503
 1601SOL     OW16435   2.450   1.593   6.091  0.1666  0.3841 -0.6418
 1601SOL    HW116436   2.364   1.623   6.122 -0.0301 -1.4232  0.5412
 1601SOL    HW216437   2.476   1.551   6.173 -0.6691  0.3057 -0.4217
 1602SOL     OW16438   0.803   4.117   9.344 -0.2132 -0.1763 -0.3908
 1602SOL    HW116439   0.765   4.038   9.306  0.1444 -1.1427  1.2431
 1602SOL    HW216440   0.819   4.070   9.426 -1.2549 -0.1751 -0.1862
 1603SOL     OW16441   1.082   0.278   6.180 -0.1894 -0.6106 -0.0296
 1603SOL    HW116442   1.062   0.361   6.223 -0.3682 -0.8470  0.3350
 1603SOL    HW216443   1.022   0.213   6.216  1.2718 -1.7812  0.2533
 1604SOL     OW16444   2.858   4.145   8.587 -0.5323 -0.0459  0.1236
 1604SOL    HW116445   2.888   4.222   8.635  0.8678  2.4333 -4.7401
 1604SOL    HW216446   2.938   4.094   8.575 -0.9491 -0.8090  0.5756
 1605SOL     OW16447   1.116   2.294  15.685  0.1422 -0.5078 -0.1737
 1605SOL    HW116448   1.193   2.338  15.722 -0.7955 -0.7121  1.9556
 1605SOL    HW216449   1.060   2.371  15.675  0.1128 -0.6650 -1.2270
 1606SOL     OW16450   3.907   4.372   8.622 -0.4351 -0.2176  0.2854
 1606SOL    HW116451   3.958   4.318   8.683  1.8390 -1.3857 -2.6418
 1606SOL    HW216452   3.947   4.350   8.538 -0.6519  1.6190 -0.2945
 1607SOL     OW16453   4.321   2.732   2.458  0.5065  0.2226  0.1728
 1607SOL    HW116454   4.381   2.664   2.487  3.1565  3.2554  1.7693
 1607SOL    HW216455   4.385   2.800   2.439  1.0053 -0.3559 -0.2168
 1608SOL     OW16456   3.048   0.877   3.380  0.4454  0.1558  0.3717
 1608SOL    HW116457   3.093   0.955   3.413 -1.0381  0.5624  1.4628
 1608SOL    HW216458   2.999   0.847   3.457 -0.2746 -1.2418 -0.6321
 1609SOL     OW16459   1.091   4.099   5.715  0.2004  0.1138  0.3309
 1609SOL    HW116460   1.167   4.061   5.669  1.7994  2.3302  1.1554
 1609SOL    HW216461   1.039   4.018   5.715 -0.1081  0.3105 -0.4198
 1610SOL     OW16462   0.924   3.235  10.884 -0.0878  0.1398 -0.1584
 1610SOL    HW116463   1.006   3.248  10.836 -0.2862  0.7264 -0.3375
 1610SOL    HW216464   0.874   3.175  10.830  2.0708  1.1114 -3.2399
 1611SOL     OW16465   3.920   4.136   6.178 -0.2813  0.2616 -0.7530
 1611SOL    HW116466   4.010   4.168   6.172  0.0136 -0.2213  1.0153
 1611SOL    HW216467   3.884   4.176   6.099 -1.3085  0.5003 -0.1713
 1612SOL     OW16468   3.096   4.270   6.236 -0.6456 -0.1962 -0.1618
 1612SOL    HW116469   3.183   4.254   6.200  0.4245  2.0085  1.4772
 1612SOL    HW216470   3.089   4.200   6.300 -0.9465 -1.1631 -1.2523
 1613SOL     OW16471   3.761   3.835   9.755 -0.5635 -0.1043 -0.1684
 1613SOL    HW116472   3.836   3.828   9.695  0.4767 -1.1283  1.2454
 1613SOL    HW216473   3.782   3.901   9.821 -3.2137 -0.8389  1.4069
 1614SOL     OW16474   1.023   3.484  14.919 -0.4107  0.2291 -0.4310
 1614SOL    HW116475   1.038   3.463  15.011  0.2690 -2.8012 -1.2218
 1614SOL    HW216476   0.942   3.530  14.938 -0.3906 -0.8125  2.2263
 1615SOL     OW16477   0.621   1.891   8.738  0.2799  0.5583 -0.2691
 1615SOL    HW116478   0.568   1.907   8.816 -0.0628 -0.4276 -0.3083
 1615SOL    HW216479   0.646   1.799   8.746 -1.1114  0.1890 -0.2132
 1616SOL     OW16480   2.928   1.237   5.530  0.0768  0.2880 -0.5302
 1616SOL    HW116481   3.017   1.208   5.511  0.0758 -0.4270  0.5234
 1616SOL    HW216482   2.928   1.286   5.612  2.4141 -0.8145  0.1331
 1617SOL     OW16483   4.412   1.632   9.564  0.1579  0.2399 -0.3505
 1617SOL    HW116484   4.420   1.662   9.473 -0.7387 -1.9392 -1.1482
 1617SOL    HW216485   4.488   1.576   9.573  0.8096  0.8406 -2.1340
 1618SOL     OW16486   2.948   0.831   7.219  0.4768  0.1376 -0.0670
 1618SOL    HW116487   3.020   0.861   7.274  1.3007  0.2070 -1.1921
 1618SOL    HW216488   2.904   0.774   7.283  1.3510 -0.7115 -0.2145
 1619SOL     OW16489   0.153   0.226   3.425  0.2124 -0.0051 -0.5024
 1619SOL    HW116490   0.230   0.221   3.482  0.2203 -0.8606 -0.5737
 1619SOL    HW216491   0.195   0.274   3.354  0.6559 -0.6395 -0.6784
 1620SOL     OW16492   1.547   2.549   7.961 -0.4161  0.1164 -0.2529
 1620SOL    HW116493   1.498   2.544   8.043  0.2110 -2.2300 -0.0165
 1620SOL    HW216494   1.557   2.641   7.934 -2.2780  0.2406 -0.5386
 1621SOL     OW16495   1.588   4.428   0.815  0.2656 -0.8296  0.2614
 1621SOL    HW116496   1.535   4.410   0.737 -1.0776  0.5461  0.8742
 1621SOL    HW216497   1.565   4.358   0.876  2.9515 -1.4361  0.5853
 1622SOL     OW16498   3.191   4.435   4.756  0.0141 -0.1686 -0.0617
 1622SOL    HW116499   3.112   4.483   4.781 -0.6604 -1.0010 -0.5955
 1622SOL    HW216500   3.152   4.349   4.745 -0.5738 -0.0116  0.7607
 1623SOL     OW16501   1.878   1.758   4.215 -0.4303 -0.8045 -0.3350
 1623SOL    HW116502   1.892   1.676   4.168 -0.3816 -1.3942  0.7115
 1623SOL    HW216503   1.925   1.818   4.157  0.6643 -2.7302 -1.4528
 1624SOL     OW16504   1.145   3.154   5.285 -0.2556  0.4602  0.4671
 1624SOL    HW116505   1.162   3.238   5.329  1.0268  0.2061  0.4526
 1624SOL    HW216506   1.234   3.120   5.275 -0.1532  0.9757 -0.4730
 1625SOL     OW16507   2.243   1.055  15.872 -0.1895 -0.7302  0.1136
 1625SOL    HW116508   2.174   1.008  15.825 -1.5855  2.0009 -0.5345
 1625SOL    HW216509   2.206   1.142  15.885  0.4078 -0.5490  0.6025
 1626SOL     OW16510   1.407   2.024   1.427 -0.6318  0.2039  0.6262
 1626SOL    HW116511   1.408   2.097   1.489 -2.7757  1.9986 -1.4427
 1626SOL    HW216512   1.315   2.000   1.437 -1.3110  1.6446 -2.2780
 1627SOL     OW16513   0.265   2.087   3.196  0.0169 -0.2933 -0.4631
 1627SOL    HW116514   0.221   2.022   3.141  0.3608 -1.8301  1.0734
 1627SOL    HW216515   0.189   2.122   3.242  0.1137 -0.0345 -0.5006
 1628SOL     OW16516   0.397   4.076   9.233  0.1050 -0.1894 -0.5233
 1628SOL    HW116517   0.413   4.080   9.139 -2.7695 -0.3899 -1.0217
 1628SOL    HW216518   0.329   4.008   9.238 -0.6320  0.5372 -0.5619
 1629SOL     OW16519   3.387   3.583  16.036  0.2702 -0.0340  0.1151
 1629SOL    HW116520   3.334   3.663  16.031  1.2618  0.5380 -1.1115
 1629SOL    HW216521   3.371   3.540  15.952 -2.4359  0.9795  0.1107
 1630SOL     OW16522   1.004   2.506   1.023 -0.0022  0.1337 -0.5355
 1630SOL    HW116523   0.989   2.467   0.937 -1.2796  1.6612 -1.0067
 1630SOL    HW216524   0.927   2.476   1.071 -0.8164  2.2348 -0.5270
 1631SOL     OW16525   3.819   1.136   1.935 -0.7016  0.5627 -0.0232
 1631SOL    HW116526   3.873   1.072   1.889 -1.1235 -0.3728  0.7731
 1631SOL    HW216527   3.834   1.105   2.025 -1.1854 -0.5253 -0.3146
 1632SOL     OW16528   2.618   2.786   9.471 -0.2216 -0.3172  0.4384
 1632SOL    HW116529   2.609   2.694   9.446  0.8814 -0.4942  0.6651
 1632SOL    HW216530   2.622   2.824   9.383  1.6353 -0.7151  0.3387
 1633SOL     OW16531   2.014   0.417   0.909  0.0999  0.5242  0.2393
 1633SOL    HW116532   2.025   0.336   0.960 -1.5009 -0.2673 -0.6738
 1633SOL    HW216533   1.966   0.394   0.830 -0.7229  1.4405  0.4782
 1634SOL     OW16534   4.318   4.223   7.005 -0.1631  0.2027  0.1263
 1634SOL    HW116535   4.257   4.263   6.944  1.2138 -0.4618 -1.6981
 1634SOL    HW216536   4.363   4.304   7.030  1.8316 -0.2427 -2.0021
 1635SOL     OW16537   3.252   0.650   2.661  0.3962  0.1537  0.6980
 1635SOL    HW116538   3.294   0.719   2.711  0.9645  1.5223 -1.6701
 1635SOL    HW216539   3.324   0.587   2.655  1.2647  1.2303 -0.0293
 1636SOL     OW16540   2.323   4.136   0.823 -0.5840  0.6067  0.3142
 1636SOL    HW116541   2.339   4.109   0.732 -0.2798  0.3259  0.4543
 1636SOL    HW216542   2.332   4.046   0.853 -2.4491  0.3623  0.1481
 1637SOL     OW16543   3.597   4.249   8.830 -0.5621 -0.1492 -0.2349
 1637SOL    HW116544   3.612   4.247   8.924  0.1274  1.0279 -0.3136
 1637SOL    HW216545   3.606   4.344   8.816 -0.2298  0.4926  4.2579
 1638SOL     OW16546   3.270   3.945   0.273  0.3201 -0.4967 -0.8314
 1638SOL    HW116547   3.225   3.862   0.258  2.3962 -1.4767 -1.6093
 1638SOL    HW216548   3.335   3.928   0.205  0.9250 -2.5820  0.2812
 1639SOL     OW16549   2.225   4.544   1.566  0.2849  0.8268 -0.3048
 1639SOL    HW116550   2.256   4.574   1.481  2.5101  1.3775  0.7206
 1639SOL    HW216551   2.286   4.471   1.572  0.4001  1.1665  2.5900
 1640SOL     OW16552   4.091   2.632   0.320 -0.2961  0.7853 -0.4539
 1640SOL    HW116553   4.107   2.626   0.226 -0.5001 -0.0108 -0.4362
 1640SOL    HW216554   4.028   2.564   0.342 -0.0138  1.4220  2.3559
 1641SOL     OW16555   0.330   2.489  13.198  0.0370  0.4718 -0.3894
 1641SOL    HW116556   0.251   2.538  13.220 -0.7010 -0.8308 -0.1042
 1641SOL    HW216557   0.335   2.427  13.271 -3.1764  1.0631  0.3261
 1642SOL     OW16558   2.986   3.356  11.895 -0.2907 -0.3498  0.2350
 1642SOL    HW116559   2.963   3.352  11.988  1.6423 -0.3063  0.7047
 1642SOL    HW216560   3.065   3.303  11.899 -0.9606 -1.2256  1.5615
 1643SOL     OW16561   1.055   3.449   3.620  0.3350 -0.0500  0.2961
 1643SOL    HW116562   1.124   3.489   3.673 -0.9577  2.0189  0.4272
 1643SOL    HW216563   1.101   3.410   3.547 -1.5604 -1.6676 -0.0247
 1644SOL     OW16564   4.242   0.586   1.983 -0.8356 -0.8838  0.4462
 1644SOL    HW116565   4.323   0.632   1.961 -0.7133 -2.2092 -1.8510
 1644SOL    HW216566   4.271   0.501   2.016 -1.4346 -1.2963 -0.0792
 1645SOL     OW16567   1.294   2.814   2.845  0.3696  0.3260 -0.4417
 1645SOL    HW116568   1.249   2.772   2.772 -1.1645  2.4387 -0.7165
 1645SOL    HW216569   1.299   2.746   2.912  1.4814  1.2705  0.4149
 1646SOL     OW16570   4.618   0.764   5.982  0.1524 -0.6679 -0.2167
 1646SOL    HW116571   4.610   0.688   6.039 -1.4622  1.6291  2.6199
 1646SOL    HW216572   4.548   0.817   6.021  0.3133 -0.0722 -0.7310
 1647SOL     OW16573   0.534   0.017   9.846 -0.4513 -0.5412  0.1531
 1647SOL    HW116574   0.478   0.094   9.834  0.2609 -0.3222 -1.7478
 1647SOL    HW216575   0.548   4.716   9.758  0.2568 -0.7671  0.3572
 1648SOL     OW16576   4.083   2.772   9.061  0.7535 -0.2734 -0.2099
 1648SOL    HW116577   4.136   2.826   9.119  0.1883 -0.6544  0.6650
 1648SOL    HW216578   4.145   2.743   8.994  0.1690 -1.8591 -0.0690
 1649SOL     OW16579   1.634   2.543   8.940 -0.3142  0.2989 -0.1441
 1649SOL    HW116580   1.612   2.565   8.849  0.1839  0.7641 -0.1515
 1649SOL    HW216581   1.624   2.631   8.976 -0.4895 -0.4232  1.5604
 1650SOL     OW16582   0.613   1.790   3.587  0.1373 -0.3299 -0.1994
 1650SOL    HW116583   0.600   1.879   3.620 -1.1408 -0.9752  1.0396
 1650SOL    HW216584   0.584   1.805   3.497  1.8177 -0.8776 -0.8335
 1651SOL     OW16585   0.267   1.960   2.017  0.1917 -0.8424  0.2177
 1651SOL    HW116586   0.313   2.013   1.952  1.6853 -1.9981  0.3373
 1651SOL    HW216587   0.302   1.871   2.012 -0.7572 -1.1100 -1.5707
 1652SOL     OW16588   3.004   1.602  17.612  0.7741 -0.1830  0.1388
 1652SOL    HW116589   3.038   1.585  17.699 -0.2105 -2.3025  0.1019
 1652SOL    HW216590   2.908   1.593  17.615  0.7725  0.8166  2.8506
 1653SOL     OW16591   2.747   0.228  16.942  0.0112  0.3592  0.3438
 1653SOL    HW116592   2.782   0.201  17.027 -1.0318  0.0476  0.6736
 1653SOL    HW216593   2.775   0.320  16.948  0.7462  0.1475  0.1330
 1654SOL     OW16594   3.302   1.012  14.170  0.3106  0.0558  0.2985
 1654SOL    HW116595   3.210   1.032  14.150 -0.1529 -0.5375  1.8085
 1654SOL    HW216596   3.313   0.937  14.112  1.3364  1.5582 -1.4375
 1655SOL     OW16597   4.658   3.648   1.552 -0.3552 -0.4126 -0.5425
 1655SOL    HW116598   4.709   3.722   1.517 -0.6484 -0.5684 -1.3087
 1655SOL    HW216599   4.636   3.598   1.473  2.0943 -0.1306 -1.4004
 1656SOL     OW16600   2.388   4.175   5.843 -0.0138 -0.7390 -0.2914
 1656SOL    HW116601   2.388   4.268   5.862  1.2091 -1.1392  1.6491
 1656SOL    HW216602   2.481   4.159   5.826  0.2380 -0.0934  0.4842
 1657SOL     OW16603   1.005   0.243  12.512 -0.0915  0.0732  0.0114
 1657SOL    HW116604   0.976   0.153  12.498  0.6778 -0.2740  0.6067
 1657SOL    HW216605   0.944   0.276  12.578  0.3732  2.0412 -0.5490
 1658SOL     OW16606   1.426   3.700   7.080  0.0950 -0.6756  0.2871
 1658SOL    HW116607   1.487   3.673   7.148 -0.6684  1.5204  1.8479
 1658SOL    HW216608   1.406   3.619   7.033 -0.9289  1.0656 -2.3198
 1659SOL     OW16609   3.903   2.304   5.209  0.2620 -0.4328  0.0589
 1659SOL    HW116610   3.927   2.389   5.248 -1.0045  0.9237 -2.1441
 1659SOL    HW216611   3.951   2.253   5.275  0.1169  1.1227  1.3740
 1660SOL     OW16612   4.702   4.604   7.682 -0.1599 -0.3897 -0.4089
 1660SOL    HW116613   4.634   4.646   7.736  0.3141 -0.1655  0.0183
 1660SOL    HW216614   4.655   4.526   7.652  1.4426 -1.5660  0.1277
 1661SOL     OW16615   0.667   1.754  15.316 -0.0108  0.0851  0.0461
 1661SOL    HW116616   0.664   1.663  15.343 -1.7091  0.5311  1.3731
 1661SOL    HW216617   0.665   1.786  15.406 -1.6937 -0.0961  0.0662
 1662SOL     OW16618   0.054   0.301   8.224 -0.0661 -0.0398 -0.1154
 1662SOL    HW116619   0.105   0.379   8.206 -0.1578  0.0700  0.0946
 1662SOL    HW216620   0.123   0.235   8.235  0.4567  0.3292 -1.2487
 1663SOL     OW16621   4.176   3.703   7.289  0.2084 -0.5088 -0.0471
 1663SOL    HW116622   4.182   3.713   7.194 -1.8667 -0.9266 -0.2060
 1663SOL    HW216623   4.218   3.784   7.318 -2.1188 -0.2011  2.4580
 1664SOL     OW16624   4.032   2.049   6.484  0.1800  0.1029  0.1297
 1664SOL    HW116625   4.002   2.014   6.400  0.2161 -3.0859  1.4336
 1664SOL    HW216626   3.955   2.046   6.541  0.4558 -1.7119  0.4148
 1665SOL     OW16627   2.506   0.332   4.949 -0.3131  0.0105  0.3436
 1665SOL    HW116628   2.477   0.409   4.997 -0.0263  1.8711 -2.4890
 1665SOL    HW216629   2.433   0.319   4.889 -0.5342  2.1466  0.1600
 1666SOL     OW16630   3.737   1.422   1.891 -0.4222 -0.1391 -0.2487
 1666SOL    HW116631   3.779   1.422   1.805  0.4737 -2.9134  0.1917
 1666SOL    HW216632   3.736   1.329   1.913  1.4846 -0.1957 -0.3978
 1667SOL     OW16633   2.906   4.433  17.574  0.1085 -0.1227 -0.6653
 1667SOL    HW116634   2.992   4.450  17.612 -0.9394  0.2486  1.4838
 1667SOL    HW216635   2.894   4.338  17.577 -2.7044  0.1835 -1.9757
 1668SOL     OW16636   0.357   1.161  15.952 -0.1588 -0.2442 -0.1075
 1668SOL    HW116637   0.370   1.231  16.017  0.1726  2.3354 -2.9604
 1668SOL    HW216638   0.410   1.203  15.884  0.1843 -1.7666 -0.7698
 1669SOL     OW16639   2.362   3.117  12.958  0.1784  0.0836 -0.2143
 1669SOL    HW116640   2.399   3.185  13.014 -0.7728  1.1018 -0.8150
 1669SOL    HW216641   2.353   3.167  12.877 -1.2139 -2.8722 -1.9078
 1670SOL     OW16642   1.426   3.696   9.852 -0.5807  0.3473 -0.4305
 1670SOL    HW116643   1.420   3.688   9.947 -2.5086 -0.3598 -0.6010
 1670SOL    HW216644   1.332   3.707   9.835 -0.6752 -0.4779 -0.4447
 1671SOL     OW16645   1.722   3.102  10.793 -0.6460 -0.1545  0.1833
 1671SOL    HW116646   1.740   3.151  10.874  1.6444  2.3418 -1.8543
 1671SOL    HW216647   1.776   3.025  10.803 -1.4844 -0.7694  0.0094
 1672SOL     OW16648   0.134   1.090   6.315  0.4627  0.3383 -0.2468
 1672SOL    HW116649   0.159   1.072   6.224  2.1435 -0.1311  0.3031
 1672SOL    HW216650   0.207   1.141   6.350  0.0504  0.1168  0.9160
 1673SOL     OW16651   3.776   2.969   8.577  0.2090 -0.1377  0.5127
 1673SOL    HW116652   3.769   2.877   8.550  0.8045  0.3106 -1.1721
 1673SOL    HW216653   3.856   2.966   8.631  1.4880  0.7392 -1.3142
 1674SOL     OW16654   1.386   4.487   4.812 -0.0544 -0.3858  0.8151
 1674SOL    HW116655   1.435   4.569   4.808 -1.2330  0.2137 -1.2067
 1674SOL    HW216656   1.425   4.430   4.746  0.8407  1.3954 -0.2103
 1675SOL     OW16657   2.877   2.943  11.133  0.0923  0.0982 -0.1721
 1675SOL    HW116658   2.856   2.853  11.159 -0.9048  0.5000  0.4415
 1675SOL    HW216659   2.855   2.992  11.213 -0.2079 -1.5913  0.7815
 1676SOL     OW16660   3.498   2.130   7.730  1.0275  0.3261  0.8634
 1676SOL    HW116661   3.443   2.209   7.733 -0.8789 -0.8680 -1.6916
 1676SOL    HW216662   3.576   2.151   7.679  1.2176  2.2680  1.9473
 1677SOL     OW16663   4.243   1.017  10.506  0.6228 -0.2990  0.1507
 1677SOL    HW116664   4.205   0.932  10.528 -0.1570  0.2209  0.7922
 1677SOL    HW216665   4.223   1.060  10.589 -0.9325 -2.7007  1.0340
 1678SOL     OW16666   1.727   4.474  14.499 -0.5042 -0.2829 -0.0304
 1678SOL    HW116667   1.811   4.434  14.521 -1.7171 -2.3247  0.8523
 1678SOL    HW216668   1.668   4.398  14.504 -1.0215  0.1381  0.2944
 1679SOL     OW16669   1.122   1.171   2.034 -0.0121 -0.4413  0.5862
 1679SOL    HW116670   1.184   1.238   2.062 -2.2569  1.5588  0.8520
 1679SOL    HW216671   1.042   1.223   2.042 -0.0375 -0.3384 -0.4374
 1680SOL     OW16672   4.555   2.666  11.162  0.1252 -0.0598 -0.5476
 1680SOL    HW116673   4.515   2.611  11.094  1.3398 -0.7233 -0.7182
 1680SOL    HW216674   4.649   2.664  11.146  0.2682 -0.7322  0.3863
 1681SOL     OW16675   2.098   0.483   5.010  0.3392 -0.3882  0.8058
 1681SOL    HW116676   2.139   0.570   5.012  0.0185 -0.1992 -0.8706
 1681SOL    HW216677   2.024   0.489   5.069  0.0214  1.3682  0.2288
 1682SOL     OW16678   2.117   1.151   6.973 -0.6732  0.0633  0.2908
 1682SOL    HW116679   2.129   1.161   7.067 -2.2741  1.0725  0.3894
 1682SOL    HW216680   2.144   1.238   6.942 -0.7711 -0.6942 -1.9009
 1683SOL     OW16681   1.200   4.182   2.561  0.2977  0.3138  0.1831
 1683SOL    HW116682   1.256   4.104   2.566  1.3965  0.9460 -2.0662
 1683SOL    HW216683   1.145   4.161   2.636  0.0666 -2.5818 -0.7905
 1684SOL     OW16684   0.812   1.011   9.197 -0.0631  0.7241 -0.2068
 1684SOL    HW116685   0.741   1.073   9.214  1.6958  2.4125  0.9555
 1684SOL    HW216686   0.882   1.073   9.177 -1.5598  1.7306 -2.3972
 1685SOL     OW16687   4.153   3.030   0.181  0.0456 -0.5556  0.1602
 1685SOL    HW116688   4.239   3.048   0.221  0.6363 -1.3889 -0.7627
 1685SOL    HW216689   4.085   3.055   0.243 -0.0004  0.2172 -0.2012
 1686SOL     OW16690   3.053   3.288  11.025  0.1257  0.9435  0.1003
 1686SOL    HW116691   3.098   3.363  11.065 -1.8731  1.3177  1.6752
 1686SOL    HW216692   3.130   3.250  10.984 -0.9676 -1.0040 -0.1139
 1687SOL     OW16693   4.734   2.073  10.911 -0.2367  0.1449  0.4414
 1687SOL    HW116694   0.040   2.031  10.835  0.1503  1.7468 -0.2269
 1687SOL    HW216695   4.715   1.998  10.969 -2.0955  1.1789  1.1760
 1688SOL     OW16696   3.553   3.576  16.817 -0.5691 -0.7711  0.6537
 1688SOL    HW116697   3.521   3.534  16.736  1.0555  1.5552 -1.1675
 1688SOL    HW216698   3.575   3.660  16.776 -0.6089  0.1499  2.5460
 1689SOL     OW16699   3.733   2.883  13.574  0.2774 -0.3391  0.0232
 1689SOL    HW116700   3.654   2.905  13.525 -0.4875 -1.3713  0.8152
 1689SOL    HW216701   3.788   2.905  13.498 -0.6252 -2.5551 -1.2558
 1690SOL     OW16702   0.184   2.238   2.795  0.1558 -0.4476 -0.6714
 1690SOL    HW116703   0.227   2.153   2.793 -0.6492 -0.8165 -2.2034
 1690SOL    HW216704   0.258   2.296   2.774  0.9768 -0.8014  1.2615
 1691SOL     OW16705   2.543   0.795   1.605  0.0184  0.1067  0.8847
 1691SOL    HW116706   2.454   0.760   1.604 -0.1137  0.4706  0.0889
 1691SOL    HW216707   2.517   0.887   1.611 -1.3868 -0.1442 -1.4766
 1692SOL     OW16708   3.334   3.788   4.452 -0.4894  0.0008 -0.3299
 1692SOL    HW116709   3.418   3.747   4.433  0.4532  0.6906  2.3483
 1692SOL    HW216710   3.273   3.719   4.477 -0.2164 -0.7352 -1.6657
 1693SOL     OW16711   0.898   3.532   6.760 -0.4085 -0.5642 -0.0692
 1693SOL    HW116712   0.874   3.622   6.740  1.1658 -0.1763 -0.1715
 1693SOL    HW216713   0.901   3.489   6.674  0.2323 -0.0338 -0.3086
 1694SOL     OW16714   0.607   3.339   8.695 -0.2810  0.9954 -0.5013
 1694SOL    HW116715   0.670   3.290   8.746 -0.6547  1.7272  0.6700
 1694SOL    HW216716   0.567   3.267   8.646  1.7633  0.1894 -0.9897
 1695SOL     OW16717   3.154   4.225   4.271  0.1951 -0.5539 -0.3483
 1695SOL    HW116718   3.196   4.286   4.210  0.2512  0.2751  0.5211
 1695SOL    HW216719   3.223   4.210   4.336  0.9301  1.3051 -0.6906
 1696SOL     OW16720   2.083   1.557   4.343  0.0323 -0.1472 -0.0841
 1696SOL    HW116721   2.137   1.540   4.266  0.8785 -3.3567  1.2055
 1696SOL    HW216722   2.023   1.482   4.343 -0.5578  0.3325  2.7880
 1697SOL     OW16723   3.838   0.498  16.843 -0.0888 -0.3004 -0.2969
 1697SOL    HW116724   3.828   0.569  16.907 -0.1637  0.7158 -1.4401
 1697SOL    HW216725   3.822   0.547  16.762 -1.0345  1.6719  1.0691
 1698SOL     OW16726   2.707   1.089   4.290 -0.3717 -0.2511 -0.9695
 1698SOL    HW116727   2.624   1.129   4.312 -0.6990 -0.4525 -1.8208
 1698SOL    HW216728   2.684   0.996   4.298 -0.8661  0.1059  1.7353
 1699SOL     OW16729   1.619   1.181   2.473  0.1572 -0.3147  0.1135
 1699SOL    HW116730   1.650   1.177   2.383  0.9088  0.8700  0.3156
 1699SOL    HW216731   1.671   1.255   2.505  1.7062 -0.4114 -2.2431
 1700SOL     OW16732   0.722   4.625   7.480 -0.0326  0.0426  0.7458
 1700SOL    HW116733   0.802   4.664   7.443  0.5451 -0.1376  1.7893
 1700SOL    HW216734   0.706   4.555   7.417 -1.1684  2.5216 -1.6731
 1701SOL     OW16735   3.964   4.518   7.901  0.6619  0.0049 -0.8186
 1701SOL    HW116736   3.933   4.491   7.987  1.1965 -1.4100 -1.0680
 1701SOL    HW216737   3.880   4.534   7.858  1.0883 -0.1854 -1.7172
 1702SOL     OW16738   3.380   3.175  15.141  0.0801 -0.0640  0.2415
 1702SOL    HW116739   3.465   3.145  15.107 -0.2810  1.4019 -1.9428
 1702SOL    HW216740   3.416   3.209  15.223  1.9994  2.4431 -1.6451
 1703SOL     OW16741   0.603   2.105   0.770 -0.3219  0.0314  0.7834
 1703SOL    HW116742   0.693   2.089   0.797  0.0323  1.2356  0.3322
 1703SOL    HW216743   0.567   2.112   0.858  1.1983  1.1499  1.3017
 1704SOL     OW16744   1.659   2.431  12.738  0.3347  0.4991  0.3926
 1704SOL    HW116745   1.666   2.524  12.760  1.5949 -0.1877  3.0048
 1704SOL    HW216746   1.581   2.422  12.685  2.8074 -1.1537 -2.9561
 1705SOL     OW16747   3.587   0.844   2.370 -0.2469  0.1395  0.3956
 1705SOL    HW116748   3.538   0.921   2.399 -2.2538 -1.5284  1.4266
 1705SOL    HW216749   3.567   0.835   2.277  0.4210 -0.5676  0.3185
 1706SOL     OW16750   0.786   0.812   4.253  0.3706  0.1744 -0.5319
 1706SOL    HW116751   0.878   0.825   4.275  0.5372 -0.3935 -0.8770
 1706SOL    HW216752   0.794   0.735   4.196  1.3664  1.1713 -1.7270
 1707SOL     OW16753   2.780   0.655   1.585 -0.0433  0.3060 -0.3745
 1707SOL    HW116754   2.730   0.588   1.537 -0.4067  0.1123  0.2797
 1707SOL    HW216755   2.718   0.727   1.576 -0.4629  0.2015  1.7155
 1708SOL     OW16756   0.140   3.923   0.550 -0.4989 -0.3574  0.0241
 1708SOL    HW116757   0.116   3.981   0.622 -2.3327 -0.8636 -0.1725
 1708SOL    HW216758   0.051   3.898   0.525 -0.8094  0.7142  0.0613
 1709SOL     OW16759   3.324   0.964  11.379 -0.4214  0.0836 -0.0117
 1709SOL    HW116760   3.328   0.990  11.287  1.0274 -0.4108 -0.0858
 1709SOL    HW216761   3.304   1.052  11.411 -0.0257  0.3681 -0.5399
 1710SOL     OW16762   1.263   2.781   6.646 -0.0786  0.2269  0.5524
 1710SOL    HW116763   1.240   2.744   6.731 -1.9827 -0.0997 -0.1077
 1710SOL    HW216764   1.244   2.874   6.656  0.7722  0.0652  3.6799
 1711SOL     OW16765   1.280   3.947   7.655 -0.5876  0.9196 -0.5067
 1711SOL    HW116766   1.253   4.030   7.616 -2.7876 -0.3525 -1.6914
 1711SOL    HW216767   1.372   3.969   7.671 -0.4823  0.3999 -0.3945
 1712SOL     OW16768   3.771   4.342  13.778  0.0104 -0.1449  0.2140
 1712SOL    HW116769   3.745   4.418  13.726 -0.8555 -0.6449 -0.0879
 1712SOL    HW216770   3.866   4.335  13.770  0.0965  1.0108  0.2238
 1713SOL     OW16771   1.146   1.201   7.463 -0.6534 -0.2416  0.2030
 1713SOL    HW116772   1.059   1.215   7.426 -0.6621 -2.0001 -0.4157
 1713SOL    HW216773   1.172   1.289   7.434 -0.1908 -0.4512 -0.0139
 1714SOL     OW16774   3.829   0.658   1.370 -0.0858  0.0271  0.3059
 1714SOL    HW116775   3.903   0.699   1.415  0.0900 -2.8031  2.6088
 1714SOL    HW216776   3.881   0.586   1.334 -0.0722 -0.4185  1.2167
 1715SOL     OW16777   2.624   0.536   8.324  0.1523  0.0039 -0.1677
 1715SOL    HW116778   2.667   0.609   8.370 -1.2911  0.6514  0.1650
 1715SOL    HW216779   2.665   0.541   8.238 -0.4531 -3.0527 -0.6374
 1716SOL     OW16780   1.238   2.651  13.849 -0.1986  0.1850 -0.1676
 1716SOL    HW116781   1.220   2.706  13.926  4.2959 -0.2306  1.2068
 1716SOL    HW216782   1.302   2.588  13.883  1.1133  0.4745 -2.1153
 1717SOL     OW16783   0.598   2.989  12.880 -0.0827  0.0627  0.6267
 1717SOL    HW116784   0.511   3.019  12.906  0.5606  0.9105  1.7961
 1717SOL    HW216785   0.587   2.924  12.811 -2.7965  1.6540 -0.4177
 1718SOL     OW16786   3.135   0.629  11.751  0.0987  0.2161  0.1798
 1718SOL    HW116787   3.096   0.701  11.701 -0.8001 -1.1253 -1.0689
 1718SOL    HW216788   3.067   0.623  11.818  0.2577 -0.1954  0.3050
 1719SOL     OW16789   1.958   0.318   4.166  0.3488 -0.0609 -0.6074
 1719SOL    HW116790   1.925   0.249   4.109  2.8497 -2.3653  0.6911
 1719SOL    HW216791   1.887   0.377   4.141  3.7441  3.4159 -2.0029
 1720SOL     OW16792   2.420   0.322   8.517  1.0410  0.2945  0.0767
 1720SOL    HW116793   2.480   0.376   8.567  0.6663 -0.1526  1.0179
 1720SOL    HW216794   2.383   0.268   8.586  1.2842 -2.0359 -1.6173
 1721SOL     OW16795   1.766   4.451   6.270 -0.1898  0.2139  0.1144
 1721SOL    HW116796   1.785   4.415   6.357  1.6224 -0.0007 -0.3541
 1721SOL    HW216797   1.761   4.543   6.294 -0.0948 -0.5621  3.1275
 1722SOL     OW16798   3.947   1.271  14.775  0.2358 -0.3590 -0.3165
 1722SOL    HW116799   3.930   1.332  14.847 -0.3442  0.6678 -1.3266
 1722SOL    HW216800   4.034   1.240  14.801  0.0496 -1.1348 -0.6034
 1723SOL     OW16801   1.730   1.380   1.152 -0.5232  0.5335 -0.1574
 1723SOL    HW116802   1.662   1.447   1.149 -0.8996  0.2964  2.6144
 1723SOL    HW216803   1.810   1.425   1.179  0.0439 -1.1190  0.9270
 1724SOL     OW16804   2.129   1.940   6.843  0.0956 -0.6157 -0.0702
 1724SOL    HW116805   2.103   1.953   6.752 -1.6950 -0.7309  0.4255
 1724SOL    HW216806   2.150   2.028   6.874  0.4662 -1.0805  0.9955
 1725SOL     OW16807   2.023   1.882   3.993 -0.0065 -0.0605  0.4316
 1725SOL    HW116808   2.090   1.922   3.938  0.0365  0.6695  1.0021
 1725SOL    HW216809   1.979   1.826   3.930  0.9220  1.3521 -1.4558
 1726SOL     OW16810   4.219   0.913   2.566  0.1541  0.5669  0.6748
 1726SOL    HW116811   4.192   0.996   2.527 -0.4887 -1.1953 -2.6215
 1726SOL    HW216812   4.136   0.867   2.576 -0.2099  1.3649  1.2620
 1727SOL     OW16813   1.873   0.509   0.232 -0.0655 -0.1689 -0.1293
 1727SOL    HW116814   1.843   0.583   0.180 -1.1175 -0.8120 -0.4335
 1727SOL    HW216815   1.841   0.536   0.318 -2.1185  0.8456 -1.2160
 1728SOL     OW16816   1.357   2.913   4.448  0.2470 -0.1970 -0.6285
 1728SOL    HW116817   1.297   2.840   4.435  0.3018 -0.7795  2.3234
 1728SOL    HW216818   1.301   2.971   4.500 -0.8110 -1.8167  0.0523
 1729SOL     OW16819   0.528   2.773   3.235 -0.6053  0.2318 -0.0897
 1729SOL    HW116820   0.466   2.779   3.307 -0.1310  0.0190  0.3329
 1729SOL    HW216821   0.493   2.820   3.159 -1.9522  1.6599  1.4145
 1730SOL     OW16822   0.397   3.659  12.166 -0.6822 -1.0349 -0.3437
 1730SOL    HW116823   0.305   3.669  12.190 -0.9290 -1.3989 -1.1422
 1730SOL    HW216824   0.432   3.681  12.252 -0.8997  2.8536 -1.2476
 1731SOL     OW16825   2.030   2.856   8.681  0.1798 -0.0914  0.3896
 1731SOL    HW116826   2.095   2.919   8.711  1.0735 -0.0954 -1.5347
 1731SOL    HW216827   2.065   2.837   8.594 -2.9468 -3.1763 -0.2239
 1732SOL     OW16828   3.727   3.213   2.447 -0.1168 -0.4518  0.0915
 1732SOL    HW116829   3.682   3.253   2.373 -0.8152 -0.8797  0.2828
 1732SOL    HW216830   3.670   3.137   2.457  0.6643 -1.1744 -0.9950
 1733SOL     OW16831   3.164   1.125   5.398 -0.7969  0.3645 -0.4630
 1733SOL    HW116832   3.119   1.072   5.332  1.7256 -0.6701 -1.3760
 1733SOL    HW216833   3.239   1.144   5.341  0.0646 -2.0898 -0.1810
 1734SOL     OW16834   1.647   4.280  11.103 -0.1086  0.3800  0.1952
 1734SOL    HW116835   1.741   4.273  11.086 -0.1036  0.9794 -0.0183
 1734SOL    HW216836   1.608   4.230  11.032  0.9994 -0.1773 -0.0110
 1735SOL     OW16837   3.362   1.849   3.270  0.2783 -0.0286 -0.7620
 1735SOL    HW116838   3.400   1.935   3.252  2.6601 -0.8673  0.3970
 1735SOL    HW216839   3.422   1.798   3.324  1.0273  3.7423  1.9672
 1736SOL     OW16840   0.585   2.344   6.120  0.0074  0.5870  0.0750
 1736SOL    HW116841   0.563   2.306   6.205  0.3195  0.7144  0.2133
 1736SOL    HW216842   0.662   2.395   6.146  0.4286  0.1917 -0.3976
 1737SOL     OW16843   0.980   1.462  17.011 -0.3590 -0.3218  0.2958
 1737SOL    HW116844   1.001   1.482  16.920  1.3761  0.7459  0.9163
 1737SOL    HW216845   0.889   1.491  17.021 -0.1715  0.2958  0.2593
 1738SOL     OW16846   2.991   3.884   7.456 -0.0121  0.0032 -0.0550
 1738SOL    HW116847   2.934   3.913   7.385 -0.4128 -2.3975 -0.6940
 1738SOL    HW216848   2.953   3.936   7.527 -3.3538 -2.8406  0.2173
 1739SOL     OW16849   3.845   3.777  15.248  0.4319  0.2145 -0.2474
 1739SOL    HW116850   3.754   3.805  15.237 -0.0624 -1.0959  0.6271
 1739SOL    HW216851   3.860   3.823  15.331  0.6247 -0.4810  0.1057
 1740SOL     OW16852   2.424   3.055  16.862 -0.6233  0.6646 -0.4377
 1740SOL    HW116853   2.380   3.005  16.794  0.0872 -0.0436 -0.3846
 1740SOL    HW216854   2.429   2.995  16.936 -2.3758  0.8777 -0.1625
 1741SOL     OW16855   3.930   4.423   3.525 -0.6642  0.2498 -0.5289
 1741SOL    HW116856   3.991   4.367   3.476 -1.1013 -0.9165  0.2572
 1741SOL    HW216857   3.846   4.378   3.516 -0.0919 -0.5449 -1.8155
 1742SOL     OW16858   3.328   2.436   4.491  0.5147 -0.5079 -1.0403
 1742SOL    HW116859   3.400   2.481   4.447  1.0017  1.5997  1.8611
 1742SOL    HW216860   3.325   2.352   4.445  0.0083 -0.8469 -0.3988
 1743SOL     OW16861   1.483   0.013   8.366  0.5829 -0.1763  0.5689
 1743SOL    HW116862   1.405   0.061   8.338  0.3210 -1.9150 -1.7740
 1743SOL    HW216863   1.454   4.656   8.368  1.7815 -0.5536  0.7973
 1744SOL     OW16864   3.695   0.296   7.710 -0.7785 -0.4982 -0.3836
 1744SOL    HW116865   3.769   0.256   7.664  0.6144  0.1597  1.3083
 1744SOL    HW216866   3.677   0.372   7.654 -0.2808 -0.6657 -0.7691
 1745SOL     OW16867   1.522   2.387   8.669 -0.1503  0.1056  0.4717
 1745SOL    HW116868   1.570   2.450   8.615 -1.0840 -0.9851 -1.6609
 1745SOL    HW216869   1.577   2.309   8.670 -0.9098 -0.4051  1.6384
 1746SOL     OW16870   4.260   2.587   9.776  0.5549 -0.0944 -0.1602
 1746SOL    HW116871   4.279   2.615   9.686 -2.1149  0.7726 -0.4549
 1746SOL    HW216872   4.169   2.616   9.767  0.1407 -1.3275  0.1642
 1747SOL     OW16873   4.701   3.310  16.262  0.0128  0.4468 -0.3356
 1747SOL    HW116874   4.729   3.348  16.179 -2.0571 -0.9352 -1.6510
 1747SOL    HW216875   4.655   3.229  16.241  1.2667 -0.6185  1.0214
 1748SOL     OW16876   0.772   2.059   1.433 -0.1489  0.2560 -0.4773
 1748SOL    HW116877   0.796   2.148   1.458  2.3518 -0.6414  0.3093
 1748SOL    HW216878   0.733   2.082   1.348 -1.3119 -1.2743 -0.3697
 1749SOL     OW16879   1.433   3.388   1.856 -0.2631 -0.0224  0.0029
 1749SOL    HW116880   1.500   3.456   1.865 -0.2310  0.1540 -1.6780
 1749SOL    HW216881   1.463   3.340   1.779 -3.4446  0.6793 -1.6543
 1750SOL     OW16882   0.495   2.525  11.095 -0.3186  0.8773  0.4684
 1750SOL    HW116883   0.453   2.525  11.009  2.4932 -0.2617 -0.9108
 1750SOL    HW216884   0.561   2.594  11.081  0.2342  0.9745  3.5399
 1751SOL     OW16885   3.955   2.982   1.986  0.1730  0.2003 -0.3710
 1751SOL    HW116886   3.964   2.886   1.983 -0.0534  0.1300  1.6298
 1751SOL    HW216887   3.862   2.999   1.971 -0.1230  0.3359  1.7326
 1752SOL     OW16888   0.420   2.637   1.634 -0.4314  0.2469  0.7674
 1752SOL    HW116889   0.436   2.670   1.545 -1.6275  0.1511  0.5208
 1752SOL    HW216890   0.440   2.545   1.619 -1.6584  0.4877 -2.5270
 1753SOL     OW16891   3.911   2.442   7.734  0.0110 -1.3816 -0.8760
 1753SOL    HW116892   3.848   2.493   7.683 -0.1201  0.5113  1.1861
 1753SOL    HW216893   3.921   2.503   7.807  2.0775 -0.1901 -2.1634
 1754SOL     OW16894   2.680   0.048   5.809  0.5113  0.2396 -0.0466
 1754SOL    HW116895   2.738   0.083   5.876  2.6438 -0.4201 -1.5377
 1754SOL    HW216896   2.650   0.128   5.765  1.2986  0.9825  0.7762
 1755SOL     OW16897   3.579   1.390  12.651  0.6891  0.3622  0.0847
 1755SOL    HW116898   3.507   1.413  12.709 -0.4788 -1.4613 -0.6395
 1755SOL    HW216899   3.640   1.464  12.649  0.1711  0.7713 -0.4101
 1756SOL     OW16900   2.837   0.465   4.648 -0.1470  0.3965 -1.3917
 1756SOL    HW116901   2.814   0.402   4.580  0.4923 -1.2761 -0.0807
 1756SOL    HW216902   2.928   0.441   4.666 -0.6279 -0.9406 -0.7635
 1757SOL     OW16903   2.162   0.146   3.328  0.2309  0.4769 -0.1704
 1757SOL    HW116904   2.125   0.224   3.370 -1.3550 -0.3832  0.0264
 1757SOL    HW216905   2.232   0.122   3.388  0.6481  0.3749 -0.6945
 1758SOL     OW16906   0.021   0.676  12.733  0.1076 -0.4073  0.4275
 1758SOL    HW116907   4.705   0.753  12.705  1.2710 -0.5133 -1.9206
 1758SOL    HW216908   0.033   0.641  12.645 -0.0496  2.2924 -0.6655
 1759SOL     OW16909   0.473   3.625  15.052 -0.0740 -0.5078  0.0901
 1759SOL    HW116910   0.527   3.645  14.975 -1.5553  0.0278 -0.8210
 1759SOL    HW216911   0.510   3.538  15.066 -1.3031 -1.0692 -0.1779
 1760SOL     OW16912   1.460   2.940   5.430  0.2889 -0.7044  0.4265
 1760SOL    HW116913   1.435   2.894   5.350  4.4465 -1.8310 -0.2301
 1760SOL    HW216914   1.548   2.908   5.451  1.0049  0.4368 -0.7895
 1761SOL     OW16915   4.132   3.184  17.410 -0.0425  0.0693  0.1858
 1761SOL    HW116916   4.092   3.269  17.427 -1.1756 -0.1913 -1.2416
 1761SOL    HW216917   4.087   3.122  17.467 -0.0069 -0.1961 -0.0768
 1762SOL     OW16918   1.834   4.635   0.474 -0.0468  0.2413  0.2644
 1762SOL    HW116919   1.841   4.617   0.380 -1.7048 -0.2357  0.2420
 1762SOL    HW216920   1.823   4.546   0.507  0.8439  0.2061  0.4802
 1763SOL     OW16921   3.974   1.472  13.052  0.8399 -0.3984  0.5150
 1763SOL    HW116922   3.998   1.437  12.966  1.2612 -0.2247  0.5586
 1763SOL    HW216923   3.887   1.508  13.035  1.4636 -0.1955 -2.1014
 1764SOL     OW16924   0.194   2.808   9.571  0.5082  0.1271 -0.2793
 1764SOL    HW116925   0.211   2.857   9.651  2.0907 -0.8148 -0.0389
 1764SOL    HW216926   0.188   2.721   9.610 -0.0414 -0.7104 -2.2159
 1765SOL     OW16927   1.966   4.423   2.919 -0.3849 -0.3490  0.4370
 1765SOL    HW116928   1.941   4.493   2.978  1.2082  1.0195 -0.4990
 1765SOL    HW216929   2.036   4.459   2.864 -0.2657  0.3052  1.0246
 1766SOL     OW16930   0.743   1.149  17.610 -0.6376  0.4130  0.0006
 1766SOL    HW116931   0.830   1.111  17.624 -0.9657 -0.2699  0.1829
 1766SOL    HW216932   0.759   1.230  17.658  1.1483 -0.6541  1.2059
 1767SOL     OW16933   1.648   3.267  11.039  0.1356  0.3923  0.2383
 1767SOL    HW116934   1.627   3.264  11.132 -0.8373 -3.0020 -0.1051
 1767SOL    HW216935   1.562   3.268  10.998  0.2319  1.6993  0.0706
 1768SOL     OW16936   0.886   2.942   8.116 -0.3546 -0.2256 -0.1180
 1768SOL    HW116937   0.878   3.037   8.106 -0.1722 -0.3209 -1.1463
 1768SOL    HW216938   0.979   2.920   8.117 -0.2637  0.1651 -0.2526
 1769SOL     OW16939   0.111   0.069   8.492  0.1139  0.1910  0.0611
 1769SOL    HW116940   0.148   0.081   8.404 -1.5170  1.0326 -0.5045
 1769SOL    HW216941   0.156   4.725   8.524 -2.6757 -0.6479  1.9583
 1770SOL     OW16942   1.023   0.431   5.579 -0.3557 -0.3537  0.2049
 1770SOL    HW116943   0.968   0.498   5.620 -2.4039 -0.8235 -1.7545
 1770SOL    HW216944   1.092   0.482   5.537 -1.8620  2.7740  1.5015
 1771SOL     OW16945   4.444   1.623   2.477 -0.2849 -0.2236 -0.7495
 1771SOL    HW116946   4.539   1.616   2.469 -0.2689 -1.4010  0.4214
 1771SOL    HW216947   4.431   1.624   2.382  0.0426 -1.4969 -0.8072
 1772SOL     OW16948   1.864   3.470  15.642  0.0082  0.0502 -0.4852
 1772SOL    HW116949   1.798   3.402  15.659  2.5827 -2.3933 -0.3818
 1772SOL    HW216950   1.912   3.473  15.725 -1.4051 -3.0282  0.4392
 1773SOL     OW16951   4.358   3.735   3.151  0.4385 -0.0839 -0.1140
 1773SOL    HW116952   4.353   3.829   3.168 -2.5492 -0.2644  0.1059
 1773SOL    HW216953   4.283   3.727   3.092  1.0095  0.8830 -0.9689
 1774SOL     OW16954   3.708   2.668   2.740  0.3107  0.7875 -0.7091
 1774SOL    HW116955   3.685   2.622   2.659 -2.9323  0.8887  0.1830
 1774SOL    HW216956   3.667   2.753   2.726 -0.0475  0.4138 -1.9094
 1775SOL     OW16957   3.310   1.138   8.674 -0.2991  0.9236  0.0627
 1775SOL    HW116958   3.366   1.185   8.612  2.1095 -0.1159  1.4466
 1775SOL    HW216959   3.234   1.195   8.675  1.3059  3.0426  0.0983
 1776SOL     OW16960   3.261   3.521   9.535 -0.0479  0.0312 -0.3481
 1776SOL    HW116961   3.168   3.536   9.520 -0.3770  0.2205  1.7779
 1776SOL    HW216962   3.290   3.610   9.516  1.3999 -0.1096  1.2025
 1777SOL     OW16963   3.077   2.470   7.791 -0.0302  0.2440  0.4163
 1777SOL    HW116964   3.089   2.429   7.876  1.8750 -1.8215 -0.8362
 1777SOL    HW216965   3.024   2.545   7.819  1.3367  0.7507  1.6256
 1778SOL     OW16966   3.529   4.010   0.993 -0.0656  0.2181 -0.1316
 1778SOL    HW116967   3.588   4.043   1.061 -0.2355 -1.4699  0.8144
 1778SOL    HW216968   3.577   4.036   0.914 -0.7164 -0.1847 -0.6540
 1779SOL     OW16969   1.895   1.535   7.411  0.3351 -0.1360  0.6506
 1779SOL    HW116970   1.839   1.584   7.351  2.1951 -0.0130 -0.9697
 1779SOL    HW216971   1.941   1.475   7.353  0.8942  0.5891  0.3511
 1780SOL     OW16972   3.994   3.287  16.914  0.6774 -0.2648  0.7187
 1780SOL    HW116973   4.072   3.264  16.965  1.6732 -1.2878 -1.2647
 1780SOL    HW216974   3.929   3.291  16.984  1.1978 -0.0631  1.1892
 1781SOL     OW16975   1.147   1.042  15.023 -0.5495  0.3723 -0.2824
 1781SOL    HW116976   1.175   0.953  15.045  0.6484  0.4949 -1.3219
 1781SOL    HW216977   1.144   1.084  15.109  2.5226  0.8071 -0.3953
 1782SOL     OW16978   3.959   2.291   3.645  0.0477  0.2617  0.0142
 1782SOL    HW116979   3.978   2.281   3.552 -1.2752  1.0903 -0.3519
 1782SOL    HW216980   3.958   2.386   3.657 -0.9804  0.0745  1.3257
 1783SOL     OW16981   0.352   3.550   4.196 -0.1308  0.0232  0.2825
 1783SOL    HW116982   0.381   3.569   4.107 -1.7541  0.8524 -0.0646
 1783SOL    HW216983   0.358   3.635   4.240  3.6440  1.4967 -3.1615
 1784SOL     OW16984   3.268   0.773  10.800  0.0724 -0.3549  0.0342
 1784SOL    HW116985   3.347   0.816  10.835  0.1523  1.5884 -2.5075
 1784SOL    HW216986   3.242   0.833  10.730 -3.7229 -1.6313  0.3813
 1785SOL     OW16987   1.594   2.833   6.674 -0.1796 -0.1323 -0.1106
 1785SOL    HW116988   1.514   2.798   6.714 -1.0155  0.3962 -1.2995
 1785SOL    HW216989   1.557   2.916   6.644 -2.1344 -0.8640  0.2346
 1786SOL     OW16990   1.391   2.049   4.354 -0.4447  0.4497 -0.5039
 1786SOL    HW116991   1.386   2.012   4.266  1.5457 -2.5668  0.6394
 1786SOL    HW216992   1.479   2.023   4.381 -0.7597 -1.0369 -0.9195
 1787SOL     OW16993   1.549   4.411   6.674  0.1516  0.5707  0.3823
 1787SOL    HW116994   1.563   4.485   6.615 -0.6341 -1.1935 -2.0313
 1787SOL    HW216995   1.468   4.377   6.636  0.6191 -0.4749  0.3128
 1788SOL     OW16996   3.299   0.188  12.955 -0.4657  0.7843 -0.3694
 1788SOL    HW116997   3.322   0.101  12.987  1.9855  1.2270 -0.9056
 1788SOL    HW216998   3.204   0.187  12.966 -0.3582  0.8234  0.5817
 1789SOL     OW16999   2.855   1.884   7.396  0.1777 -0.2044 -0.1042
 1789SOL    HW117000   2.853   1.933   7.314  2.4758  0.3590  0.1868
 1789SOL    HW217001   2.913   1.812   7.370 -0.2378  0.0358 -1.6968
 1790SOL     OW17002   3.906   2.004   9.566 -0.4580  0.2892  0.2593
 1790SOL    HW117003   3.974   1.941   9.540 -0.7556 -0.7393  1.9790
 1790SOL    HW217004   3.931   2.047   9.647  0.2096 -1.1147  0.7979
 1791SOL     OW17005   1.414   2.603   6.454  0.1232  0.4629  0.4281
 1791SOL    HW117006   1.487   2.641   6.406  0.6561 -0.4451  0.5258
 1791SOL    HW217007   1.384   2.689   6.484 -1.6197  0.4597 -1.2941
 1792SOL     OW17008   1.509   4.639   4.557 -0.5026  0.0892 -0.2039
 1792SOL    HW117009   1.423   4.604   4.536 -0.9926  0.7202  0.7346
 1792SOL    HW217010   1.510   4.731   4.533  0.1044  0.5253  1.4447
 1793SOL     OW17011   0.929   1.162   4.371 -0.3760  0.3969  0.1197
 1793SOL    HW117012   1.007   1.164   4.427  0.4196 -0.9019 -0.9499
 1793SOL    HW217013   0.871   1.155   4.447  0.1152 -1.1241  0.3610
 1794SOL     OW17014   1.596   4.032  15.405 -0.0796 -0.0254  0.1725
 1794SOL    HW117015   1.587   3.997  15.317  3.1920 -1.9303  0.5645
 1794SOL    HW217016   1.560   4.121  15.400  2.9164  1.1660 -0.2307
 1795SOL     OW17017   4.304   1.133   4.149 -0.2063  0.5223  0.2869
 1795SOL    HW117018   4.340   1.207   4.100  0.5679 -0.4096 -0.5652
 1795SOL    HW217019   4.286   1.079   4.072 -2.1216  0.5568  0.7184
 1796SOL     OW17020   0.386   0.894   5.093  0.1550  0.9788 -0.3799
 1796SOL    HW117021   0.463   0.949   5.106  0.3837  0.2069  1.3848
 1796SOL    HW217022   0.323   0.909   5.164  0.1099 -0.1384 -0.1862
 1797SOL     OW17023   0.210   1.405   8.107  0.1067  0.6106 -0.1262
 1797SOL    HW117024   0.303   1.405   8.083  0.5364  1.3057  1.5546
 1797SOL    HW217025   0.179   1.487   8.069  1.9923  1.5188  0.3045
 1798SOL     OW17026   2.308   4.178   8.120  0.5694  0.0669  0.0993
 1798SOL    HW117027   2.383   4.227   8.153 -0.7887  2.7734 -0.8967
 1798SOL    HW217028   2.317   4.173   8.025 -0.2565  0.8877 -0.0073
 1799SOL     OW17029   0.077   4.339   8.731  0.2893 -0.2765  0.5834
 1799SOL    HW117030   0.098   4.362   8.821 -0.2078  0.2615  0.5564
 1799SOL    HW217031   0.127   4.410   8.690  0.1586  0.0058  0.9195
 1800SOL     OW17032   4.265   3.728  16.101  0.7714 -0.2917 -0.1143
 1800SOL    HW117033   4.214   3.806  16.121  1.2721  0.0503 -0.1682
 1800SOL    HW217034   4.254   3.728  16.006 -0.0346  2.0140 -0.0042
 1801SOL     OW17035   2.039   0.563   6.264  0.5803  0.0121  0.2957
 1801SOL    HW117036   1.948   0.565   6.234 -0.1987  0.2065  2.6304
 1801SOL    HW217037   2.072   0.488   6.214  1.0447 -1.2863  2.5323
 1802SOL     OW17038   2.369   0.919   9.435  0.1756  0.5122  0.3426
 1802SOL    HW117039   2.307   0.982   9.472 -0.9191 -0.6480  0.4778
 1802SOL    HW217040   2.307   0.853   9.405 -0.4836  0.7996  1.0649
 1803SOL     OW17041   2.388   4.365  17.124 -0.0368 -0.1878 -0.4587
 1803SOL    HW117042   2.408   4.272  17.125  1.5961  0.1391 -1.4345
 1803SOL    HW217043   2.293   4.370  17.132  0.3220  0.1908  3.6807
 1804SOL     OW17044   3.569   1.272   4.369  0.3001 -0.1788  0.2786
 1804SOL    HW117045   3.614   1.351   4.338 -1.6621  0.6107 -0.5609
 1804SOL    HW217046   3.581   1.209   4.298  3.2383  1.7967 -0.9454
 1805SOL     OW17047   4.525   3.293   7.480  0.0873  0.3338 -0.1391
 1805SOL    HW117048   4.499   3.201   7.472 -2.7452  1.1772 -0.8347
 1805SOL    HW217049   4.542   3.293   7.574  1.7561  1.2190 -0.4544
 1806SOL     OW17050   1.408   1.807   3.931 -0.1136  0.0390 -0.2043
 1806SOL    HW117051   1.461   1.799   3.852  0.5377  1.7855  0.0519
 1806SOL    HW217052   1.342   1.745   3.900 -0.3599 -0.7151  1.8189
 1807SOL     OW17053   1.185   0.112  17.309  0.2453 -0.1674 -0.2490
 1807SOL    HW117054   1.181   0.205  17.285 -1.3686  0.3025  1.8348
 1807SOL    HW217055   1.095   0.079  17.308  0.3656 -0.4870 -0.5565
 1808SOL     OW17056   0.533   2.838  10.890 -0.0547 -0.3514  0.1994
 1808SOL    HW117057   0.573   2.827  10.803  2.9154  0.4268  1.4518
 1808SOL    HW217058   0.590   2.783  10.943 -1.3397 -0.6069  1.3080
 1809SOL     OW17059   2.068   1.863   5.850 -0.2710  0.5543  0.3998
 1809SOL    HW117060   2.021   1.945   5.860 -1.5870  0.0092 -1.3417
 1809SOL    HW217061   1.998   1.800   5.871 -0.0206  0.1070 -0.1194
 1810SOL     OW17062   1.019   1.626   2.030 -0.0034  0.7966  0.0981
 1810SOL    HW117063   1.114   1.636   2.033 -0.1449  2.2100 -0.0698
 1810SOL    HW217064   0.995   1.714   2.060 -1.9259  0.5039 -0.5456
 1811SOL     OW17065   1.671   0.475  17.129 -0.0333  0.0565  0.5832
 1811SOL    HW117066   1.742   0.418  17.100 -1.2665 -1.2151  0.0977
 1811SOL    HW217067   1.637   0.514  17.048 -0.3511 -1.1646  0.1366
 1812SOL     OW17068   3.910   2.460  13.369 -0.2196  0.1565  0.2169
 1812SOL    HW117069   3.989   2.465  13.423 -0.7610  0.4140  0.9929
 1812SOL    HW217070   3.947   2.436  13.285  0.6437  1.3934  0.2495
 1813SOL     OW17071   3.381   0.806   5.412 -0.0625 -0.6145 -0.1573
 1813SOL    HW117072   3.452   0.829   5.352 -1.2327  0.2295 -1.2174
 1813SOL    HW217073   3.378   0.712   5.396  0.9565 -0.2591 -2.3887
 1814SOL     OW17074   1.752   3.479   8.017 -0.1746 -0.7715 -0.0193
 1814SOL    HW117075   1.680   3.518   7.969  2.3275  0.5876 -2.6947
 1814SOL    HW217076   1.719   3.473   8.107  0.9175 -0.0599  0.4327
 1815SOL     OW17077   0.434   0.637   2.849 -0.0470  0.0909 -0.6348
 1815SOL    HW117078   0.375   0.709   2.871  0.4821 -0.1627  1.5804
 1815SOL    HW217079   0.369   0.568   2.838  0.5043 -0.4211 -0.6671
 1816SOL     OW17080   3.257   4.509   8.379 -0.4116  0.6127  0.3168
 1816SOL    HW117081   3.316   4.546   8.445  1.9388 -0.0776 -1.3701
 1816SOL    HW217082   3.208   4.446   8.433  0.9003 -0.5449  0.1950
 1817SOL     OW17083   1.473   4.448   0.352 -0.0218 -0.4550  0.0347
 1817SOL    HW117084   1.494   4.542   0.348  0.1900 -0.6046 -2.5059
 1817SOL    HW217085   1.553   4.410   0.315 -0.3077  0.1749 -1.2411
 1818SOL     OW17086   4.539   3.989   5.144 -0.3414  0.0874  0.4134
 1818SOL    HW117087   4.630   3.981   5.115  0.0913 -0.9043  2.0464
 1818SOL    HW217088   4.553   3.965   5.236  0.4765 -2.1473 -0.2815
 1819SOL     OW17089   0.869   2.010   8.839  0.2426  0.1356 -0.7787
 1819SOL    HW117090   0.797   2.015   8.776 -0.6602 -0.5616  0.1927
 1819SOL    HW217091   0.940   1.993   8.778  0.1287 -2.7437 -0.1029
 1820SOL     OW17092   2.655   1.591  10.313 -0.1399 -0.5967 -0.0740
 1820SOL    HW117093   2.579   1.648  10.313 -0.7677 -1.4402 -2.4449
 1820SOL    HW217094   2.671   1.592  10.408  0.7741 -0.5754 -0.2246
 1821SOL     OW17095   2.876   3.485   7.729 -0.7796  0.2817 -0.1308
 1821SOL    HW117096   2.829   3.457   7.650 -0.0257  1.3277 -0.9371
 1821SOL    HW217097   2.863   3.580   7.737 -1.2896  0.0946  1.2666
 1822SOL     OW17098   2.796   2.837   8.843  0.0234 -0.6809  0.6143
 1822SOL    HW117099   2.712   2.823   8.800  0.9373 -0.1410 -1.3894
 1822SOL    HW217100   2.830   2.748   8.832  2.3991  0.0529  1.8865
 1823SOL     OW17101   2.193   1.348   1.611  0.7305  0.7383  0.2487
 1823SOL    HW117102   2.139   1.275   1.583  0.1166  2.1799 -2.3520
 1823SOL    HW217103   2.252   1.301   1.669 -0.7666 -3.8842 -2.0140
 1824SOL     OW17104   1.996   2.124  15.584 -0.9548  0.1572 -0.1464
 1824SOL    HW117105   1.932   2.170  15.638 -1.9050 -1.4209  0.0816
 1824SOL    HW217106   2.067   2.187  15.573 -0.4690 -0.2127  0.8548
 1825SOL     OW17107   0.385   2.804   2.583  0.3281 -0.4084  0.3836
 1825SOL    HW117108   0.344   2.826   2.499 -0.3531  2.0643  1.3378
 1825SOL    HW217109   0.423   2.720   2.559 -2.0720 -0.6044 -2.7004
 1826SOL     OW17110   1.043   0.588   6.831 -0.0742 -0.2192  0.4833
 1826SOL    HW117111   1.115   0.545   6.785 -0.0279 -2.1433  2.3698
 1826SOL    HW217112   1.093   0.638   6.895  2.1384  0.8922 -2.1434
 1827SOL     OW17113   0.695   3.948   8.024 -0.3723  0.2723 -0.7990
 1827SOL    HW117114   0.727   4.027   7.981 -0.4888  1.0386  0.5547
 1827SOL    HW217115   0.615   3.931   7.974 -0.2624 -1.4982 -0.3910
 1828SOL     OW17116   4.302   4.267   3.707  0.3933  0.4896  0.1965
 1828SOL    HW117117   4.299   4.204   3.778 -0.3227  1.5190  1.0828
 1828SOL    HW217118   4.393   4.299   3.701  1.3778 -2.4856 -0.4689
 1829SOL     OW17119   4.046   0.678   9.274 -0.3525 -0.6765  0.0716
 1829SOL    HW117120   3.974   0.616   9.287 -0.2151 -1.2163 -1.7185
 1829SOL    HW217121   4.013   0.757   9.230  1.2977  1.2865  2.3638
 1830SOL     OW17122   1.354   0.655   1.106 -0.4013  0.1910 -0.2482
 1830SOL    HW117123   1.413   0.639   1.033 -0.5739  2.1677 -0.8191
 1830SOL    HW217124   1.404   0.727   1.145  2.0798 -0.9735 -1.2929
 1831SOL     OW17125   1.749   2.228   7.793  0.0359  0.1304  0.4795
 1831SOL    HW117126   1.824   2.177   7.764 -0.1127 -1.7873  3.4259
 1831SOL    HW217127   1.731   2.279   7.714  1.1069 -0.0477  0.1283
 1832SOL     OW17128   4.594   1.485   5.866  0.0715 -0.1962 -0.2264
 1832SOL    HW117129   4.592   1.566   5.917 -0.7555  0.5033 -1.3715
 1832SOL    HW217130   4.626   1.429   5.936  1.5697  1.4129  0.4040
 1833SOL     OW17131   4.219   3.032   7.914  0.2777  0.3002 -0.4014
 1833SOL    HW117132   4.141   3.049   7.861  0.2096 -0.1113 -0.4312
 1833SOL    HW217133   4.274   2.994   7.846  0.3735  1.8891 -1.1975
 1834SOL     OW17134   0.275   1.022  10.155 -0.4395 -0.2850  0.3323
 1834SOL    HW117135   0.356   0.972  10.153 -1.2701 -1.6244  0.1574
 1834SOL    HW217136   0.244   1.015  10.064  0.1695  1.1480  0.0168
 1835SOL     OW17137   1.159   0.573   3.890 -0.0322 -0.1997 -0.0956
 1835SOL    HW117138   1.098   0.504   3.863  2.8565 -2.5578 -0.5318
 1835SOL    HW217139   1.216   0.513   3.938  0.2943  0.5164  0.4100
 1836SOL     OW17140   3.062   4.459   5.231  0.2160 -0.0983  0.0128
 1836SOL    HW117141   2.990   4.419   5.182  0.3707  0.1970 -0.4672
 1836SOL    HW217142   3.011   4.524   5.280  2.1339  0.2585  1.5169
 1837SOL     OW17143   2.681   2.507   7.880 -0.1235  0.2745 -0.2608
 1837SOL    HW117144   2.760   2.507   7.934 -0.5564  0.7286  0.3703
 1837SOL    HW217145   2.626   2.573   7.923  0.6765  0.4552  0.4647
 1838SOL     OW17146   0.944   2.803   3.630 -0.1998  0.4354 -0.1065
 1838SOL    HW117147   0.885   2.778   3.560 -2.2219  2.3599  0.8823
 1838SOL    HW217148   0.888   2.858   3.685 -0.0555  1.6610 -1.1895
 1839SOL     OW17149   4.445   1.057   4.374  0.2735  0.4663  0.1960
 1839SOL    HW117150   4.403   1.094   4.296 -0.8721 -2.6584 -0.6649
 1839SOL    HW217151   4.447   0.964   4.352  2.0292  1.0632 -2.3047
 1840SOL     OW17152   2.721   0.435   3.134 -1.4679 -0.4501 -0.4794
 1840SOL    HW117153   2.679   0.378   3.069 -1.2970 -1.3802  0.2235
 1840SOL    HW217154   2.758   0.495   3.069 -2.4014  0.3936 -0.2259
 1841SOL     OW17155   4.468   3.078   9.738 -0.8604  0.1930 -0.3290
 1841SOL    HW117156   4.377   3.083   9.708 -1.0270  1.0645  0.3468
 1841SOL    HW217157   4.480   3.151   9.797  1.5169 -0.2700 -0.2348
 1842SOL     OW17158   2.551   4.279   1.977 -0.1871 -0.3727 -0.1719
 1842SOL    HW117159   2.512   4.191   1.976 -0.3641 -0.2853 -1.2921
 1842SOL    HW217160   2.619   4.277   2.044  2.5935  3.8348 -2.8642
 1843SOL     OW17161   4.495   4.362   1.659 -0.0692 -0.3129 -0.4775
 1843SOL    HW117162   4.535   4.313   1.731  0.5347  2.4208  1.0662
 1843SOL    HW217163   4.432   4.304   1.619 -0.8750 -1.7883  2.9003
 1844SOL     OW17164   2.609   2.995  16.004 -0.0740 -0.5042 -0.0323
 1844SOL    HW117165   2.565   3.028  15.925 -1.0091 -1.9749 -0.1281
 1844SOL    HW217166   2.554   2.931  16.048  2.4161 -1.6123  1.4700
 1845SOL     OW17167   1.286   1.808   6.223  0.1119 -0.3940 -1.0403
 1845SOL    HW117168   1.351   1.765   6.167  2.9008  3.2443 -0.5236
 1845SOL    HW217169   1.342   1.835   6.295  1.3705 -1.8877 -1.4531
 1846SOL     OW17170   0.159   3.132   6.103 -0.4694  0.3385  0.1603
 1846SOL    HW117171   0.131   3.056   6.155  0.5605  0.0454  0.2974
 1846SOL    HW217172   0.127   3.115   6.015  3.0177 -1.0155 -0.8312
 1847SOL     OW17173   1.243   1.204  15.922 -0.5292 -0.0281  0.2887
 1847SOL    HW117174   1.222   1.192  16.014  0.0994 -0.2503  0.4091
 1847SOL    HW217175   1.283   1.117  15.909  0.0341  0.5491 -1.8347
 1848SOL     OW17176   3.503   2.801   8.909 -0.0104 -0.4142  0.3684
 1848SOL    HW117177   3.572   2.859   8.878 -0.3569 -0.3018 -0.1889
 1848SOL    HW217178   3.535   2.804   9.000 -0.6531  0.1155  0.5792
 1849SOL     OW17179   2.441   2.875   4.042  0.1995 -0.1681  0.1069
 1849SOL    HW117180   2.392   2.938   3.989 -1.9066 -0.9374  1.1616
 1849SOL    HW217181   2.454   2.931   4.118  0.0126 -1.0498  0.7804
 1850SOL     OW17182   4.041   2.892   3.702 -0.2440  0.3100 -0.3810
 1850SOL    HW117183   3.962   2.943   3.684 -1.0825 -0.7551  0.2669
 1850SOL    HW217184   4.060   2.880   3.609 -0.5791 -2.5530 -0.0626
 1851SOL     OW17185   0.536   1.438  10.436 -0.2343 -0.4510  0.3070
 1851SOL    HW117186   0.551   1.496  10.362  0.8909  2.2594  2.6352
 1851SOL    HW217187   0.510   1.353  10.400  1.9213 -1.0899  0.2959
 1852SOL     OW17188   1.909   4.494   3.400 -0.3441  0.1216  0.3141
 1852SOL    HW117189   2.001   4.515   3.415 -0.2203  0.7349 -1.2189
 1852SOL    HW217190   1.877   4.578   3.368 -0.2973  0.7704  1.9900
 1853SOL     OW17191   0.057   1.551   7.512  0.6095 -0.0696  0.3948
 1853SOL    HW117192   0.051   1.564   7.606  1.1424 -2.0027  0.7149
 1853SOL    HW217193   0.108   1.629   7.489 -0.4799  0.2421 -0.9560
 1854SOL     OW17194   4.419   1.212  17.406 -0.2068  0.1489  0.4748
 1854SOL    HW117195   4.514   1.226  17.409 -0.1300 -0.1898 -0.4177
 1854SOL    HW217196   4.394   1.304  17.414 -0.0712  0.5604 -3.5470
 1855SOL     OW17197   0.444   3.530  13.113  0.1124 -0.2516 -0.1956
 1855SOL    HW117198   0.432   3.454  13.171  1.1124  1.1982  1.8924
 1855SOL    HW217199   0.455   3.603  13.174  0.8379 -0.4630 -0.0660
 1856SOL     OW17200   3.218   3.068  13.821  0.3654 -0.5627  0.4664
 1856SOL    HW117201   3.159   3.009  13.868  0.3478 -2.6040 -2.0746
 1856SOL    HW217202   3.165   3.138  13.783 -0.5066 -0.8864  1.0939
 1857SOL     OW17203   4.647   1.839  11.616 -0.3632  0.1699  0.1539
 1857SOL    HW117204   4.722   1.824  11.674 -0.8843 -0.9152  0.5543
 1857SOL    HW217205   4.648   1.934  11.628 -1.2314  0.2982 -0.9087
 1858SOL     OW17206   2.628   1.269   9.135 -0.1042 -0.5349  0.1778
 1858SOL    HW117207   2.570   1.193   9.149 -1.4227  0.5766  0.7843
 1858SOL    HW217208   2.579   1.337   9.090  0.0417 -0.7562 -0.3126
 1859SOL     OW17209   3.096   2.731  17.103 -0.4431  0.3447 -0.6811
 1859SOL    HW117210   3.115   2.753  17.012  1.0981 -2.0722 -0.9401
 1859SOL    HW217211   3.000   2.734  17.103 -0.3908  1.8407  0.5499
 1860SOL     OW17212   0.851   1.534  11.281 -0.0013  0.4996 -0.5283
 1860SOL    HW117213   0.922   1.560  11.339 -1.8248  0.3887  1.7772
 1860SOL    HW217214   0.772   1.564  11.326 -0.1681 -1.1408  0.3005
 1861SOL     OW17215   0.057   2.770   1.774 -0.0012 -0.3872 -0.3281
 1861SOL    HW117216   0.122   2.810   1.716 -0.8347  1.3605 -0.0456
 1861SOL    HW217217   4.718   2.757   1.714 -0.3257  3.2421 -0.6984
 1862SOL     OW17218   1.199   3.343   8.650  0.4103  0.2921  0.1336
 1862SOL    HW117219   1.196   3.438   8.647  0.0916  0.3057  0.8583
 1862SOL    HW217220   1.150   3.324   8.569  0.9235 -1.2680  0.1915
 1863SOL     OW17221   2.262   4.414   5.290 -0.3385  0.1964 -0.0229
 1863SOL    HW117222   2.194   4.366   5.338  0.0614 -1.0977 -0.7302
 1863SOL    HW217223   2.332   4.421   5.354 -1.2924  3.4561  0.6591
 1864SOL     OW17224   2.140   4.215  15.460  0.0315 -0.5750  0.1406
 1864SOL    HW117225   2.074   4.263  15.509 -0.2140 -0.4674 -0.2906
 1864SOL    HW217226   2.094   4.184  15.382  0.1931  0.3502 -0.3247
 1865SOL     OW17227   0.640   4.134  17.088  0.0818  0.3493  0.1336
 1865SOL    HW117228   0.643   4.079  17.010  1.7011  2.4921 -1.3101
 1865SOL    HW217229   0.586   4.079  17.146  1.0205  1.1289  1.7470
 1866SOL     OW17230   2.720   4.086   3.548 -0.0635 -0.2097 -0.3996
 1866SOL    HW117231   2.777   4.113   3.619  0.2781  0.0991 -0.7898
 1866SOL    HW217232   2.676   4.009   3.585  1.3418 -0.5885  0.4846
 1867SOL     OW17233   0.446   0.379  15.134  0.6021  0.0621 -0.2689
 1867SOL    HW117234   0.501   0.331  15.072  0.3274 -1.7313  0.8799
 1867SOL    HW217235   0.411   0.305  15.184  0.1430  2.2525  2.5857
 1868SOL     OW17236   4.327   4.510   3.926  0.2072 -0.3966 -0.2881
 1868SOL    HW117237   4.265   4.461   3.872  0.6987  0.1850 -1.3818
 1868SOL    HW217238   4.271   4.521   4.003  0.1866 -0.5074 -0.2882
 1869SOL     OW17239   1.408   2.651  11.683  0.3384  0.2384 -0.2249
 1869SOL    HW117240   1.495   2.646  11.645  0.1352 -1.0152 -0.5070
 1869SOL    HW217241   1.382   2.560  11.668 -0.0663  0.1192  1.1758
 1870SOL     OW17242   1.187   2.986   6.421  0.3473  0.2700  0.0132
 1870SOL    HW117243   1.276   3.015   6.401  0.0614 -0.2155 -1.9915
 1870SOL    HW217244   1.143   3.046   6.481  0.0980  0.6905 -0.5885
 1871SOL     OW17245   2.258   3.689  14.726 -0.3746  0.0570 -0.1473
 1871SOL    HW117246   2.284   3.736  14.646 -0.4109 -0.4460 -0.4547
 1871SOL    HW217247   2.340   3.640  14.737  0.8413  1.6179 -2.1005
 1872SOL     OW17248   4.703   4.548   2.067 -0.5169 -0.5240  0.0479
 1872SOL    HW117249   4.710   4.555   1.972  0.3012 -1.0320  0.0699
 1872SOL    HW217250   0.003   4.634   2.093 -0.0456  0.2425 -3.1160
 1873SOL     OW17251   1.761   3.847   7.905 -0.0692  0.3965  0.2341
 1873SOL    HW117252   1.793   3.938   7.901  0.2984  0.2064 -1.2157
 1873SOL    HW217253   1.716   3.853   7.989 -3.3557 -0.5924 -1.4892
 1874SOL     OW17254   1.803   4.712   4.383 -0.0203  0.4102  0.3121
 1874SOL    HW117255   1.714   4.723   4.350  0.0992 -1.0662 -0.4675
 1874SOL    HW217256   1.808   4.619   4.405  0.1528  0.3177 -0.1227
 1875SOL     OW17257   2.036   0.665   9.538 -0.5325  0.1615  0.1905
 1875SOL    HW117258   1.945   0.678   9.511 -1.3649 -3.0124  1.4364
 1875SOL    HW217259   2.040   0.717   9.619  0.3208 -0.1783  0.3612
 1876SOL     OW17260   1.278   4.267  14.471  0.2153  0.3102 -0.3462
 1876SOL    HW117261   1.221   4.284  14.396  0.5400  1.1527 -0.3948
 1876SOL    HW217262   1.282   4.349  14.519  0.9623  1.3830 -2.2224
 1877SOL     OW17263   3.679   3.364  11.278 -0.7079 -0.7124 -0.8027
 1877SOL    HW117264   3.644   3.357  11.189 -1.0565 -0.1044 -0.7162
 1877SOL    HW217265   3.719   3.278  11.283  1.1304  0.2410  0.8472
 1878SOL     OW17266   3.707   3.446  16.996  0.0593 -0.3288 -0.2052
 1878SOL    HW117267   3.666   3.397  17.067  1.5975  0.6741  1.3765
 1878SOL    HW217268   3.637   3.494  16.951  0.3221 -0.3612 -0.6508
 1879SOL     OW17269   0.041   3.430   4.984 -0.6893 -0.2752  0.7990
 1879SOL    HW117270   0.032   3.400   5.075  0.4345 -1.2167  0.5957
 1879SOL    HW217271   0.030   3.524   4.993 -1.7796 -0.1504 -1.7679
 1880SOL     OW17272   0.965   0.810   8.958 -0.3043  0.4904  0.0843
 1880SOL    HW117273   0.951   0.719   8.983  2.0080  0.0702 -0.1092
 1880SOL    HW217274   1.008   0.792   8.875 -1.6679  0.6334 -0.6511
 1881SOL     OW17275   4.602   2.018   3.694  0.3611 -1.0142  0.2785
 1881SOL    HW117276   4.516   2.046   3.723  0.2948  1.5332 -2.3023
 1881SOL    HW217277   4.585   1.968   3.614  2.0683 -1.1784  0.0069
 1882SOL     OW17278   2.998   2.041   1.761  0.3607 -0.5509  0.4573
 1882SOL    HW117279   3.000   2.088   1.678  1.7355  0.4736  1.0767
 1882SOL    HW217280   2.988   1.950   1.733  0.5377  0.1586 -1.9583
 1883SOL     OW17281   2.600   4.418   7.468  0.5109 -0.3105 -0.6830
 1883SOL    HW117282   2.635   4.397   7.382 -1.0226  2.0333 -1.8974
 1883SOL    HW217283   2.542   4.489   7.439 -0.1900 -0.9662 -0.8568
 1884SOL     OW17284   1.104   0.235   0.270  0.0585  0.0345  0.0042
 1884SOL    HW117285   1.160   0.250   0.346 -0.3858  1.4166  0.0492
 1884SOL    HW217286   1.078   0.145   0.292  2.5673 -0.0685  2.4878
 1885SOL     OW17287   2.371   1.688   7.183  0.2200  0.0833 -0.4462
 1885SOL    HW117288   2.419   1.672   7.264 -1.9547 -0.4875  0.7056
 1885SOL    HW217289   2.442   1.726   7.131  2.1525 -1.0349  1.3717
 1886SOL     OW17290   3.764   1.107   3.221 -0.1718  0.2453  0.0804
 1886SOL    HW117291   3.790   1.018   3.243  0.4260  0.2432 -0.6152
 1886SOL    HW217292   3.685   1.087   3.172 -0.2353  0.0371  0.2692
 1887SOL     OW17293   3.208   0.469   3.791 -0.6822 -0.0231  0.1158
 1887SOL    HW117294   3.149   0.419   3.734  1.2929 -1.4693 -0.6906
 1887SOL    HW217295   3.155   0.498   3.864 -0.0720  2.6339 -0.4844
 1888SOL     OW17296   1.883   4.241   7.347  0.2598  0.2956 -0.0174
 1888SOL    HW117297   1.822   4.267   7.278 -2.0273  1.2203  2.3308
 1888SOL    HW217298   1.939   4.314   7.321  0.5591  0.8481  2.1282
 1889SOL     OW17299   2.272   0.932   1.812 -0.1205 -0.3491  0.0024
 1889SOL    HW117300   2.250   0.879   1.735 -0.0045  0.0358 -0.2912
 1889SOL    HW217301   2.191   0.919   1.861  0.7469  0.0747  1.5367
 1890SOL     OW17302   2.932   2.262  11.786  0.1235 -0.4201 -0.3296
 1890SOL    HW117303   3.016   2.301  11.760  0.0331  0.5797  0.8956
 1890SOL    HW217304   2.869   2.300  11.724  0.3064  0.4738  0.0355
 1891SOL     OW17305   4.675   0.122   4.742  0.0987 -0.2688 -0.3572
 1891SOL    HW117306   4.677   0.217   4.758 -1.2743 -0.1000 -1.1844
 1891SOL    HW217307   0.031   0.091   4.749  0.0296 -0.1911  0.9557
 1892SOL     OW17308   0.196   2.698   5.010  0.3578  0.2899 -0.2578
 1892SOL    HW117309   0.114   2.737   5.041 -0.0004 -0.8202  0.2017
 1892SOL    HW217310   0.199   2.701   4.915  1.6283  1.3306 -0.1896
 1893SOL     OW17311   4.019   0.099   1.661 -0.2780 -0.7165  0.5541
 1893SOL    HW117312   3.932   0.060   1.654 -0.8311  0.6414 -0.0396
 1893SOL    HW217313   4.068   0.027   1.620 -1.2539 -0.3207 -1.3213
 1894SOL     OW17314   1.546   0.882   5.923 -0.2947 -0.1114 -0.0688
 1894SOL    HW117315   1.577   0.837   5.845  1.3035  1.6287 -0.4376
 1894SOL    HW217316   1.553   0.806   5.980  2.1557  0.3041  0.1682
 1895SOL     OW17317   3.733   3.275   1.596  0.4687 -0.0502 -0.4342
 1895SOL    HW117318   3.713   3.330   1.521 -1.7267 -0.6756 -0.3292
 1895SOL    HW217319   3.813   3.225   1.578  0.4569 -0.2663  0.1122
 1896SOL     OW17320   2.432   2.708   7.661  0.4558 -0.3238  0.1115
 1896SOL    HW117321   2.491   2.774   7.623 -1.8603  2.0078  0.5995
 1896SOL    HW217322   2.472   2.628   7.628 -2.6427 -2.0458  0.5854
 1897SOL     OW17323   0.012   2.276   0.177  0.2454  0.2227  0.5870
 1897SOL    HW117324   4.729   2.191   0.219  0.7742 -0.1302  0.0926
 1897SOL    HW217325   4.691   2.257   0.102  1.3202 -1.4580  0.2118
 1898SOL     OW17326   0.927   3.359   7.781  0.0286 -0.3410 -0.8591
 1898SOL    HW117327   0.866   3.372   7.709  2.2200 -0.2704 -2.7088
 1898SOL    HW217328   0.998   3.304   7.748  1.3781  1.3109 -0.7022
 1899SOL     OW17329   0.709   4.403   6.865  0.5846  0.0251 -0.3035
 1899SOL    HW117330   0.801   4.405   6.891 -0.2913 -1.4920  2.9282
 1899SOL    HW217331   0.674   4.480   6.910  0.0150 -0.0329 -0.6465
 1900SOL     OW17332   3.041   0.068   0.345  0.3937  0.6442  0.0158
 1900SOL    HW117333   3.042   0.096   0.254  4.4182 -2.9149 -1.0442
 1900SOL    HW217334   3.127   0.102   0.369 -0.0779  0.3713  2.1460
 1901SOL     OW17335   2.528   2.603   2.681 -0.8047 -0.0162  0.4326
 1901SOL    HW117336   2.615   2.607   2.643 -1.3622  0.7692 -0.7602
 1901SOL    HW217337   2.505   2.696   2.689  1.2488  0.8529 -4.0623
 1902SOL     OW17338   0.438   0.377   1.524  0.0094  0.0901 -0.1182
 1902SOL    HW117339   0.506   0.345   1.465  0.8558 -0.4878  1.1678
 1902SOL    HW217340   0.480   0.455   1.560  0.6558 -0.5832  0.5882
 1903SOL     OW17341   3.420   1.521   6.912  0.1485  0.1889  0.2469
 1903SOL    HW117342   3.410   1.486   6.823 -0.5669  3.2252 -0.8721
 1903SOL    HW217343   3.329   1.503   6.937  0.8513 -1.0526  1.8498
 1904SOL     OW17344   1.754   2.594   4.672 -0.3560 -0.3248  0.1208
 1904SOL    HW117345   1.711   2.508   4.667  1.0684 -1.0366  0.0905
 1904SOL    HW217346   1.685   2.658   4.659 -0.4037 -0.8069 -1.9200
 1905SOL     OW17347   3.463   3.682   5.635  0.7096  0.4869  0.3769
 1905SOL    HW117348   3.383   3.653   5.590  1.2476 -0.9808  0.3695
 1905SOL    HW217349   3.435   3.682   5.727 -0.6250 -1.3062 -0.0279
 1906SOL     OW17350   1.250   0.884  10.085 -0.4648  0.7017 -0.0297
 1906SOL    HW117351   1.287   0.972  10.082  0.7924  0.1566 -0.6460
 1906SOL    HW217352   1.229   0.865  10.176  0.0386 -0.6115 -0.1828
 1907SOL     OW17353   2.005   4.178   8.684  0.5561  0.2468 -0.2170
 1907SOL    HW117354   2.095   4.157   8.659  1.2479  1.4649  1.2316
 1907SOL    HW217355   1.978   4.091   8.713 -3.0067  0.9117 -1.6215
 1908SOL     OW17356   0.187   4.095   3.993 -0.3736  0.2718  0.1062
 1908SOL    HW117357   0.282   4.094   3.987 -0.4039  0.2903 -0.3896
 1908SOL    HW217358   0.171   4.121   4.084 -1.0978  2.4578 -0.6310
 1909SOL     OW17359   4.124   1.278   4.852  0.0527 -0.2567 -0.2931
 1909SOL    HW117360   4.029   1.283   4.840 -0.2250 -0.5799  1.7485
 1909SOL    HW217361   4.138   1.361   4.899  3.1958 -1.3040  0.5756
 1910SOL     OW17362   1.278   2.966   3.224 -0.3458 -0.2369 -0.3433
 1910SOL    HW117363   1.199   3.006   3.189 -1.7151 -0.9910  1.9121
 1910SOL    HW217364   1.274   2.979   3.319 -0.4831 -3.5955  0.1004
 1911SOL     OW17365   2.108   2.991   6.931  0.1224  0.2878  1.0578
 1911SOL    HW117366   2.025   2.962   6.893  0.8833  0.3391 -0.6545
 1911SOL    HW217367   2.097   3.057   6.998  1.7799  1.4910  0.1395
 1912SOL     OW17368   4.432   3.466   4.131  0.7962  0.4132 -0.1955
 1912SOL    HW117369   4.369   3.397   4.109  0.0325  0.6980  1.1586
 1912SOL    HW217370   4.418   3.530   4.061 -1.5379  1.4024  1.2118
 1913SOL     OW17371   4.352   1.211   5.668 -0.3636  0.3378 -0.4079
 1913SOL    HW117372   4.441   1.246   5.659 -0.2885  0.2106 -0.1451
 1913SOL    HW217373   4.329   1.209   5.761 -1.0653 -0.0995 -0.5978
 1914SOL     OW17374   3.814   2.465   8.439  0.0756  0.7609  1.0646
 1914SOL    HW117375   3.756   2.501   8.371  1.8239  0.2890 -0.6866
 1914SOL    HW217376   3.872   2.539   8.457 -0.3641  1.0243  1.3849
 1915SOL     OW17377   0.995   1.128   4.101 -0.1552 -0.5971  0.3448
 1915SOL    HW117378   0.941   1.189   4.050 -0.4522 -0.0861  1.2809
 1915SOL    HW217379   0.983   1.165   4.188 -0.2275  0.0333  0.0701
 1916SOL     OW17380   0.579   0.796   2.296  0.2907 -0.2575 -0.1518
 1916SOL    HW117381   0.523   0.852   2.350  0.9781  0.9808 -0.7131
 1916SOL    HW217382   0.648   0.771   2.358  1.2829  1.8779 -0.3952
 1917SOL     OW17383   0.773   0.885   1.475  0.3190  0.1361 -0.2760
 1917SOL    HW117384   0.784   0.883   1.570 -4.5923 -0.6586  0.2545
 1917SOL    HW217385   0.686   0.848   1.463 -0.0152 -0.0492  2.6889
 1918SOL     OW17386   2.056   2.146   0.262 -0.2978  0.0992  0.4368
 1918SOL    HW117387   2.020   2.170   0.177  0.3434 -0.4838  0.0025
 1918SOL    HW217388   1.974   2.110   0.295 -1.5722  2.2672 -0.3921
 1919SOL     OW17389   1.264   4.541   0.029 -0.6696  0.3856  0.2755
 1919SOL    HW117390   1.298   4.553  17.677  2.0719 -1.1946  1.1085
 1919SOL    HW217391   1.315   4.602   0.082  0.6511 -0.9964  0.6164
 1920SOL     OW17392   0.763   1.359   2.873 -0.0935 -0.5646 -0.3812
 1920SOL    HW117393   0.676   1.340   2.907 -1.0541  0.2232 -2.4456
 1920SOL    HW217394   0.746   1.452   2.863 -1.2304 -0.5782  1.3308
 1921SOL     OW17395   0.368   2.666   1.249  0.2636 -0.2916  0.3356
 1921SOL    HW117396   0.365   2.757   1.218  0.7674 -0.3880  0.0167
 1921SOL    HW217397   0.300   2.656   1.316  0.0732  0.8948  0.3286
 1922SOL     OW17398   1.840   3.239   6.939  0.0237 -0.2448  0.0201
 1922SOL    HW117399   1.818   3.218   6.848  0.4263 -1.2265  0.1442
 1922SOL    HW217400   1.758   3.276   6.971 -0.4550 -0.2178 -1.2230
 1923SOL     OW17401   2.353   1.367   4.625  0.9480  0.3341  0.4041
 1923SOL    HW117402   2.412   1.315   4.571 -0.5475 -0.8790 -0.0825
 1923SOL    HW217403   2.355   1.453   4.582  0.9200  0.4659  0.6680
 1924SOL     OW17404   0.022   2.919   4.854  0.0727 -0.1393  0.1590
 1924SOL    HW117405   4.714   2.947   4.772  1.9211  1.2554 -0.3083
 1924SOL    HW217406   4.693   2.854   4.883 -0.4596  0.4823  0.3908
 1925SOL     OW17407   4.019   0.462  11.518  0.3119  0.5694 -0.2240
 1925SOL    HW117408   3.954   0.528  11.494  1.2669  0.8931 -1.8829
 1925SOL    HW217409   3.973   0.381  11.495  0.8261  0.7671 -1.9127
 1926SOL     OW17410   0.733   1.636   2.055 -0.2764  0.3859  0.1309
 1926SOL    HW117411   0.827   1.640   2.041 -0.1321 -1.8717  0.4715
 1926SOL    HW217412   0.706   1.678   1.973  0.2983 -1.9984 -1.2585
 1927SOL     OW17413   3.050   4.570   3.958  0.0313 -0.3956 -0.4381
 1927SOL    HW117414   3.082   4.576   3.868  2.7141 -1.6120  0.4117
 1927SOL    HW217415   2.955   4.562   3.948  0.0457  1.3535 -1.9696
 1928SOL     OW17416   2.157   0.542   8.526 -0.3562  0.3287 -0.1171
 1928SOL    HW117417   2.196   0.535   8.439  0.7753 -0.3888  0.4375
 1928SOL    HW217418   2.242   0.556   8.567 -0.6261  0.1370  0.5200
 1929SOL     OW17419   0.659   4.438   0.517  0.2597  0.3424 -0.0850
 1929SOL    HW117420   0.619   4.366   0.567  0.1209  0.2522 -0.3252
 1929SOL    HW217421   0.750   4.411   0.514  0.1400  0.3307 -2.7631
 1930SOL     OW17422   4.430   1.720   1.915  0.2066  0.1711  0.3177
 1930SOL    HW117423   4.422   1.802   1.866  0.7586  0.3771  0.5731
 1930SOL    HW217424   4.337   1.706   1.931 -0.0485  0.1292 -1.1957
 1931SOL     OW17425   3.292   2.871   7.880  0.0531 -1.0454 -0.2535
 1931SOL    HW117426   3.333   2.867   7.966  1.2598  1.3432 -0.7214
 1931SOL    HW217427   3.361   2.833   7.826  3.1092  2.7034  1.0290
 1932SOL     OW17428   4.430   2.334   2.829 -0.3901 -0.3784 -0.5826
 1932SOL    HW117429   4.512   2.286   2.821  0.5475  0.8620  1.6193
 1932SOL    HW217430   4.386   2.290   2.902  1.0340 -0.1455  0.4128
 1933SOL     OW17431   4.081   4.361  17.649  0.0797  0.5060  0.1620
 1933SOL    HW117432   4.107   4.422  17.717  0.5881 -0.0268  0.4459
 1933SOL    HW217433   4.098   4.415  17.571 -0.3599 -2.2838 -1.8886
 1934SOL     OW17434   1.640   4.040   5.802  0.1461 -0.2483  0.8532
 1934SOL    HW117435   1.730   4.037   5.837  0.0211  2.1155  1.3726
 1934SOL    HW217436   1.583   4.016   5.875 -2.7384  0.5337 -1.1381
 1935SOL     OW17437   2.370   2.014   3.609 -0.6468 -0.2759  0.0092
 1935SOL    HW117438   2.316   1.996   3.532  0.2965 -3.2178  0.0463
 1935SOL    HW217439   2.430   2.084   3.583  1.7394 -1.4944  2.2114
 1936SOL     OW17440   1.459   4.089   0.593 -0.1074 -0.2013  0.1198
 1936SOL    HW117441   1.433   4.176   0.622 -0.7924 -0.3748  0.0321
 1936SOL    HW217442   1.406   4.073   0.515 -1.2171 -0.9166  1.0366
 1937SOL     OW17443   1.574   1.623   5.692  0.0402  0.7941 -0.0803
 1937SOL    HW117444   1.598   1.597   5.781  0.8801 -3.1804 -1.5036
 1937SOL    HW217445   1.524   1.703   5.710  0.2530  0.6612  1.0849
 1938SOL     OW17446   1.333   3.211  14.242  0.3682  0.3866  0.6140
 1938SOL    HW117447   1.427   3.227  14.236  0.5311 -1.3502 -1.5100
 1938SOL    HW217448   1.293   3.298  14.243  1.0143  0.6750  1.3191
 1939SOL     OW17449   0.944   2.638   7.330  0.1395 -0.1904 -0.5838
 1939SOL    HW117450   0.887   2.580   7.381  0.9417 -0.3816  0.0868
 1939SOL    HW217451   1.013   2.580   7.298 -0.2948 -1.5510  0.9226
 1940SOL     OW17452   1.901   2.734   8.954 -0.5070 -0.2461 -0.2118
 1940SOL    HW117453   1.849   2.723   8.875 -2.4942 -0.0970  1.0825
 1940SOL    HW217454   1.981   2.756   8.906  0.1981 -1.5487  0.3616
 1941SOL     OW17455   1.769   0.489  12.776  0.7616 -0.3964  0.4738
 1941SOL    HW117456   1.737   0.521  12.860 -0.8958  1.1583 -0.7309
 1941SOL    HW217457   1.722   0.406  12.781  3.2160 -1.8716 -1.0186
 1942SOL     OW17458   2.809   3.177  10.990 -0.9077 -0.3193  0.2166
 1942SOL    HW117459   2.895   3.208  11.017  0.0422 -2.1922 -0.6243
 1942SOL    HW217460   2.811   3.089  11.030 -0.6789  0.0324  0.9768
 1943SOL     OW17461   2.913   3.055   5.320  0.0712 -0.1746  0.1635
 1943SOL    HW117462   2.938   3.134   5.368 -0.8576  0.0347  0.3107
 1943SOL    HW217463   2.832   3.049   5.372  1.1522 -1.1413  1.7352
 1944SOL     OW17464   1.801   0.819   6.798  0.0663  0.3158 -0.1605
 1944SOL    HW117465   1.732   0.834   6.862  0.6788  0.8375  0.3842
 1944SOL    HW217466   1.868   0.874   6.839  0.9920 -0.3086 -0.8012
 1945SOL     OW17467   4.524   2.894  10.178 -0.0411 -0.0411 -0.3200
 1945SOL    HW117468   4.470   2.864  10.105  1.0965 -0.9659 -0.7667
 1945SOL    HW217469   4.591   2.826  10.180 -1.3763 -1.3125  2.2138
 1946SOL     OW17470   3.865   2.214  11.049  0.4693 -0.3898  0.6520
 1946SOL    HW117471   3.806   2.277  11.091  1.2516  1.1913 -0.6396
 1946SOL    HW217472   3.942   2.271  11.048 -1.0380  1.7423  3.4561
 1947SOL     OW17473   0.603   1.749   3.157  0.3374 -0.5442 -0.3182
 1947SOL    HW117474   0.547   1.787   3.224  1.4914 -1.7012  1.3124
 1947SOL    HW217475   0.655   1.689   3.210  0.3723  0.9793  1.3734
 1948SOL     OW17476   1.974   1.153   5.821  0.4685  0.5495  0.1546
 1948SOL    HW117477   2.005   1.166   5.731 -1.2487 -1.8340 -0.7988
 1948SOL    HW217478   2.044   1.105   5.865 -0.4485 -2.1900 -1.3361
 1949SOL     OW17479   2.578   0.630  14.439 -0.2570  0.2873 -0.1859
 1949SOL    HW117480   2.509   0.648  14.504  1.7634 -0.6146  2.2086
 1949SOL    HW217481   2.588   0.536  14.453 -1.1304  0.3516  0.9240
 1950SOL     OW17482   0.306   4.034   5.649 -0.3892 -0.1114 -0.0755
 1950SOL    HW117483   0.259   3.952   5.637 -0.5341  0.3367 -2.6547
 1950SOL    HW217484   0.396   4.004   5.637 -0.6799 -1.1827  0.4616
 1951SOL     OW17485   0.187   0.898   4.907 -0.3113  0.0818 -0.0427
 1951SOL    HW117486   0.254   0.866   4.967  0.5580  1.1541 -0.4527
 1951SOL    HW217487   0.132   0.954   4.962 -0.9950 -1.2461  0.6270
 1952SOL     OW17488   0.238   1.616   5.767  0.2035 -0.2642 -0.0581
 1952SOL    HW117489   0.293   1.675   5.716  0.8409 -1.3307 -0.5935
 1952SOL    HW217490   0.256   1.650   5.855  3.6709 -0.6471 -0.6237
 1953SOL     OW17491   3.432   0.144  11.883 -0.1677  0.0113  0.5580
 1953SOL    HW117492   3.473   0.157  11.968 -0.6145 -2.6537  1.1840
 1953SOL    HW217493   3.386   0.062  11.900  0.0535  0.0852  1.4869
 1954SOL     OW17494   2.442   3.789   5.650 -0.1993 -0.7081 -0.4390
 1954SOL    HW117495   2.434   3.734   5.572  0.4221  1.0092 -1.7112
 1954SOL    HW217496   2.514   3.750   5.699 -1.1775  0.5445  1.9949
 1955SOL     OW17497   3.979   2.700   6.837 -0.6094 -0.9425  0.1124
 1955SOL    HW117498   3.993   2.684   6.930  0.0566 -1.8359 -0.1445
 1955SOL    HW217499   3.910   2.766   6.842 -1.2706 -1.8256  2.6498
 1956SOL     OW17500   3.079   0.939   7.715  0.0571 -0.0479  0.2040
 1956SOL    HW117501   3.054   1.010   7.655  0.3794 -0.1055  0.0013
 1956SOL    HW217502   3.018   0.872   7.685  0.0304  0.7728 -1.5602
 1957SOL     OW17503   0.556   1.760   7.394  0.2051  0.0217  0.0275
 1957SOL    HW117504   0.542   1.826   7.326  2.4449 -0.6234 -1.0416
 1957SOL    HW217505   0.551   1.678   7.344  0.9528 -0.6531  1.0622
 1958SOL     OW17506   3.235   2.709   3.972  0.7098  0.3402  0.3183
 1958SOL    HW117507   3.305   2.765   3.938  0.1928  1.7050  1.4601
 1958SOL    HW217508   3.275   2.670   4.050 -0.1751  0.2725  0.7429
 1959SOL     OW17509   3.773   1.775   2.625 -0.4720 -0.4345 -0.0109
 1959SOL    HW117510   3.721   1.718   2.568 -1.4624 -1.5174  1.9895
 1959SOL    HW217511   3.713   1.848   2.641  2.7883  2.3427 -0.2896
 1960SOL     OW17512   2.668   4.092   5.944  0.0538  0.1569 -0.1962
 1960SOL    HW117513   2.720   4.146   6.004 -2.1703  0.7421  1.2263
 1960SOL    HW217514   2.727   4.017   5.939 -0.9388 -0.5861 -0.7805
 1961SOL     OW17515   2.935   1.354   5.785  0.0551  0.2173  1.2442
 1961SOL    HW117516   2.959   1.324   5.872  1.4887  0.2935  0.8749
 1961SOL    HW217517   3.007   1.415   5.769  1.2385 -1.9434 -1.9953
 1962SOL     OW17518   3.218   1.334  16.395  0.0427 -0.1145  0.1959
 1962SOL    HW117519   3.297   1.281  16.384 -0.7008 -1.2850  0.5083
 1962SOL    HW217520   3.237   1.426  16.375  2.2022 -0.5491  0.3299
 1963SOL     OW17521   2.780   4.712   0.452 -0.2718 -0.0479 -0.1625
 1963SOL    HW117522   2.751   4.702   0.361  1.0309 -2.3938 -0.3140
 1963SOL    HW217523   2.862   0.027   0.449 -2.5825  3.8968  1.3762
 1964SOL     OW17524   2.106   1.936   5.213  0.6686  0.6716  0.1277
 1964SOL    HW117525   2.200   1.938   5.227  0.8166  0.8881 -0.8649
 1964SOL    HW217526   2.077   1.919   5.302 -1.0413 -0.3270 -0.6083
 1965SOL     OW17527   3.034   1.081  14.157  0.3877  0.2218  0.1730
 1965SOL    HW117528   3.005   1.121  14.075 -0.9352 -1.3102 -0.1081
 1965SOL    HW217529   2.951   1.055  14.198 -0.4623  3.1568  0.3424
 1966SOL     OW17530   2.249   2.374   7.861  0.1757  0.0218 -0.2622
 1966SOL    HW117531   2.274   2.371   7.769 -0.0091 -1.2603 -0.2738
 1966SOL    HW217532   2.166   2.422   7.859  0.2435 -0.0071 -2.9594
 1967SOL     OW17533   1.275   0.805   8.436 -0.7047  0.2137 -0.1345
 1967SOL    HW117534   1.246   0.876   8.494  2.1229  0.3780  1.0635
 1967SOL    HW217535   1.195   0.772   8.395  1.1565 -0.1586 -3.4784
 1968SOL     OW17536   2.218   0.163   0.583 -0.2917 -0.5327  0.4377
 1968SOL    HW117537   2.166   0.181   0.505  3.7109 -0.5098 -2.2588
 1968SOL    HW217538   2.245   0.075   0.554  0.7134 -0.4165  1.0185
 1969SOL     OW17539   4.641   2.906  13.639  0.2608 -0.3570 -0.1965
 1969SOL    HW117540   4.550   2.918  13.612  0.4224 -0.4236 -0.7685
 1969SOL    HW217541   4.672   2.997  13.647 -0.5743 -0.0899 -0.0145
 1970SOL     OW17542   2.327   4.531   5.041  0.0562  0.2296  0.3392
 1970SOL    HW117543   2.327   4.478   5.121 -0.6208 -0.6851 -0.2712
 1970SOL    HW217544   2.240   4.571   5.042 -0.0897 -0.0840  0.1937
 1971SOL     OW17545   1.445   3.446   0.662 -0.0759 -0.0456 -0.4195
 1971SOL    HW117546   1.441   3.448   0.758 -1.9268 -1.4422 -0.4700
 1971SOL    HW217547   1.366   3.396   0.641  0.6497 -1.0251 -0.8217
 1972SOL     OW17548   3.531   3.586   8.980 -0.3082  0.8729  0.6204
 1972SOL    HW117549   3.450   3.589   8.929  0.0651  0.4617  0.0064
 1972SOL    HW217550   3.597   3.585   8.911 -1.3578  0.3513 -0.3654
 1973SOL     OW17551   3.258   3.261  11.895 -0.2416  0.2669  0.1385
 1973SOL    HW117552   3.326   3.231  11.956 -0.9610  0.9261  1.2586
 1973SOL    HW217553   3.317   3.323  11.850 -0.8187  0.2496 -0.6392
 1974SOL     OW17554   3.982   3.119   9.507 -0.0601 -0.2567 -0.4892
 1974SOL    HW117555   3.999   3.070   9.426  0.4061 -2.9733  1.2410
 1974SOL    HW217556   3.906   3.072   9.542 -0.7508  1.0082 -0.2846
 1975SOL     OW17557   2.146   4.509  13.985 -0.4601  0.2745 -1.1490
 1975SOL    HW117558   2.101   4.585  13.949 -1.9640  0.4924  1.2303
 1975SOL    HW217559   2.076   4.448  14.008 -0.2677  0.1644 -0.8652
 1976SOL     OW17560   1.293   3.993  10.106 -0.1662 -0.9072 -0.4796
 1976SOL    HW117561   1.321   3.971  10.195 -2.2592  0.6644  0.5692
 1976SOL    HW217562   1.380   3.991  10.065  0.7153  2.6400  1.1765
 1977SOL     OW17563   2.169   1.872   4.258  0.2066 -0.3637  0.0592
 1977SOL    HW117564   2.164   1.902   4.167 -0.9363  0.4608  0.3940
 1977SOL    HW217565   2.112   1.795   4.268 -1.2628  0.8588  1.0851
 1978SOL     OW17566   4.541   3.609  10.028  0.4437  0.1432 -0.5391
 1978SOL    HW117567   4.498   3.592  10.112  0.5920 -1.4983 -0.7810
 1978SOL    HW217568   4.480   3.676   9.999 -0.3623 -0.7907 -0.9806
 1979SOL     OW17569   3.303   2.447   0.845  0.5153 -0.0463  0.0873
 1979SOL    HW117570   3.207   2.449   0.843  0.5564  1.0701 -0.5316
 1979SOL    HW217571   3.327   2.441   0.753  0.6056  0.5312  0.0760
 1980SOL     OW17572   4.611   4.000  10.374  0.0296  0.3057  0.1382
 1980SOL    HW117573   4.680   3.943  10.408 -0.1620  1.1583  1.9518
 1980SOL    HW217574   4.647   4.087  10.392 -0.1508  0.5841 -0.8359
 1981SOL     OW17575   2.978   3.566   5.418  0.2318 -0.0998 -0.1766
 1981SOL    HW117576   2.886   3.541   5.414  0.4658 -0.5637 -2.4584
 1981SOL    HW217577   2.985   3.661   5.419  0.3411 -0.1069 -0.3544
 1982SOL     OW17578   0.370   4.671  13.013  0.0167  0.6637  0.4206
 1982SOL    HW117579   0.310   4.618  12.960 -0.2457  0.1791  1.2109
 1982SOL    HW217580   0.320   0.016  13.035 -0.6953  0.2420  0.3377
 1983SOL     OW17581   2.560   4.132  11.879 -0.0368  0.0542  0.6784
 1983SOL    HW117582   2.604   4.048  11.867 -0.4036  0.0756 -0.7860
 1983SOL    HW217583   2.637   4.189  11.881 -1.2467  1.8057 -2.4320
 1984SOL     OW17584   3.102   4.633   9.527 -0.1984  0.1082 -0.1016
 1984SOL    HW117585   3.050   4.675   9.459  1.2208  0.6203 -0.8478
 1984SOL    HW217586   3.189   4.641   9.490  0.5564  0.2741  1.6896
 1985SOL     OW17587   1.720   1.271   7.563  0.1877 -0.0473  0.8907
 1985SOL    HW117588   1.765   1.355   7.565  0.6750 -0.2604 -0.3767
 1985SOL    HW217589   1.713   1.263   7.467  0.7154  2.1789  0.6822
 1986SOL     OW17590   1.163   4.176   2.281  0.1018 -0.2609 -0.4295
 1986SOL    HW117591   1.097   4.109   2.301  1.2016 -1.3012 -0.2482
 1986SOL    HW217592   1.188   4.218   2.363  2.1068 -0.5472 -0.8987
 1987SOL     OW17593   2.199   0.075  16.582  0.6743 -0.3742  0.6727
 1987SOL    HW117594   2.141   0.060  16.657  0.1643  0.2921  0.3994
 1987SOL    HW217595   2.215   0.169  16.591  0.2321 -0.1625 -0.9282
 1988SOL     OW17596   4.412   2.331  13.627 -0.0725 -0.0358 -0.5121
 1988SOL    HW117597   4.388   2.421  13.608  1.3294  0.9371  2.3541
 1988SOL    HW217598   4.495   2.340  13.675  0.5249  0.6203 -1.6829
 1989SOL     OW17599   3.631   1.458   5.436 -0.1158 -0.4245  0.1646
 1989SOL    HW117600   3.715   1.480   5.477  0.1644  1.4687 -1.4460
 1989SOL    HW217601   3.644   1.366   5.411  3.4387  0.3404 -0.8102
 1990SOL     OW17602   1.416   2.720   2.197  0.2944  0.7767  0.2463
 1990SOL    HW117603   1.449   2.768   2.121  1.6546  2.0903  1.6671
 1990SOL    HW217604   1.485   2.755   2.254 -1.4380  0.6364  2.4384
 1991SOL     OW17605   0.434   3.153   3.881  0.0160  0.0528 -0.0844
 1991SOL    HW117606   0.483   3.229   3.850 -1.0570 -0.0849 -2.0757
 1991SOL    HW217607   0.449   3.170   3.974 -1.4075  1.3049 -0.0909
 1992SOL     OW17608   3.149   2.434   9.195  0.5702 -0.2559  0.3494
 1992SOL    HW117609   3.186   2.429   9.107 -0.9589 -0.1147 -0.2868
 1992SOL    HW217610   3.068   2.483   9.185  0.2720 -0.9897 -0.7475
 1993SOL     OW17611   2.481   1.377   1.946  0.0665 -0.1304  0.0027
 1993SOL    HW117612   2.502   1.464   1.912  2.1457 -1.4607 -2.1316
 1993SOL    HW217613   2.426   1.337   1.878  0.8712 -0.2879 -0.5523
 1994SOL     OW17614   3.325   4.024   7.962  0.0949 -0.1037  0.1810
 1994SOL    HW117615   3.236   4.056   7.978  0.2977 -0.8289  2.8455
 1994SOL    HW217616   3.361   4.090   7.903  1.2320 -1.8041 -1.0067
 1995SOL     OW17617   0.210   1.363   2.880  0.4590  0.2532 -0.9380
 1995SOL    HW117618   0.124   1.402   2.863  0.8031  0.8121 -1.3539
 1995SOL    HW217619   0.179   1.299   2.945  0.2598 -0.9016 -2.1754
 1996SOL     OW17620   1.084   4.230   0.257  0.2170 -0.7369  0.5104
 1996SOL    HW117621   1.081   4.165   0.187  1.6046 -0.2999  0.0458
 1996SOL    HW217622   1.148   4.291   0.220 -0.7064 -0.4768 -0.6721
 1997SOL     OW17623   4.321   0.987  16.967 -0.1268 -0.2467  0.1766
 1997SOL    HW117624   4.342   1.019  16.879 -1.7461 -2.4283 -1.0088
 1997SOL    HW217625   4.401   0.939  16.987 -0.8346 -0.3833  2.6133
 1998SOL     OW17626   4.165   3.506  15.786  0.3626  0.3549 -0.4077
 1998SOL    HW117627   4.178   3.594  15.822 -0.6594  0.3932 -0.1345
 1998SOL    HW217628   4.256   3.486  15.768 -0.3742 -1.6092 -1.9788
 1999SOL     OW17629   0.650   1.593  11.445  0.1181  0.2847 -0.6040
 1999SOL    HW117630   0.590   1.665  11.425  1.0801  0.1123 -3.9411
 1999SOL    HW217631   0.583   1.533  11.479  0.7890  1.1149  2.2180
 2000SOL     OW17632   4.232   3.129   6.277  0.7074  0.2650 -0.6290
 2000SOL    HW117633   4.170   3.082   6.333  2.3836 -0.9123  0.2085
 2000SOL    HW217634   4.295   3.148   6.346  1.0114  0.9839 -1.1051
 2001SOL     OW17635   0.268   3.925   5.971  0.1518 -0.6156  0.5386
 2001SOL    HW117636   0.233   4.014   5.977  1.1460 -0.2213  0.6070
 2001SOL    HW217637   0.360   3.951   5.979  0.5065 -1.0900 -2.2317
 2002SOL     OW17638   4.223   1.519  13.541  0.0950 -0.0844  0.1881
 2002SOL    HW117639   4.134   1.542  13.569  0.3372 -0.0009  0.8867
 2002SOL    HW217640   4.222   1.540  13.448  2.5433 -0.5525  0.0566
 2003SOL     OW17641   0.539   3.273   0.909 -0.3782  0.3878 -0.6695
 2003SOL    HW117642   0.493   3.318   0.981 -0.8124 -0.5222 -0.3772
 2003SOL    HW217643   0.624   3.314   0.926  0.5823 -1.6017 -0.7000
 2004SOL     OW17644   0.526   2.944  11.269 -0.4123  0.0763 -0.0439
 2004SOL    HW117645   0.478   3.024  11.246 -1.2874 -0.3506  0.3128
 2004SOL    HW217646   0.461   2.876  11.252 -0.4055  0.0046  0.2138
 2005SOL     OW17647   3.573   3.746   2.221 -0.4692  0.2764  0.1216
 2005SOL    HW117648   3.591   3.834   2.255  0.5192  0.6350 -1.3079
 2005SOL    HW217649   3.618   3.699   2.291 -0.2188  0.4800  0.0973
 2006SOL     OW17650   1.012   1.069  17.692  0.0286  0.2249 -0.0279
 2006SOL    HW117651   1.088   1.020  17.661  1.1015  0.0450  2.8719
 2006SOL    HW217652   1.049   1.154  17.718  0.9114 -0.3437  0.5432
 2007SOL     OW17653   1.640   3.215   3.884 -0.0060 -0.3885  0.4886
 2007SOL    HW117654   1.706   3.257   3.940 -2.2283  2.3211  1.1028
 2007SOL    HW217655   1.703   3.163   3.834  1.7897  2.3998 -0.1346
 2008SOL     OW17656   2.636   2.639   6.645  0.3029  0.3208 -0.0878
 2008SOL    HW117657   2.541   2.632   6.652  0.3805 -1.2160 -0.6087
 2008SOL    HW217658   2.650   2.705   6.713 -0.2374  0.2965  0.0496
 2009SOL     OW17659   4.126   4.718   8.112 -0.2104 -0.2513 -0.0208
 2009SOL    HW117660   4.209   0.008   8.155  0.8300  0.4169 -2.3796
 2009SOL    HW217661   4.063   4.709   8.183 -0.0110 -1.1496  0.0438
 2010SOL     OW17662   2.063   2.419   1.388  0.2751  0.0819 -0.1902
 2010SOL    HW117663   1.969   2.433   1.399  1.0387  1.8878  3.8648
 2010SOL    HW217664   2.068   2.462   1.302  2.8368  0.7244  0.2550
 2011SOL     OW17665   4.419   1.161   6.919 -0.1504  0.1567 -0.0946
 2011SOL    HW117666   4.381   1.087   6.965 -0.6688 -0.4804 -1.5463
 2011SOL    HW217667   4.403   1.137   6.828  2.1674  0.3232 -0.5477
 2012SOL     OW17668   1.507   1.042   1.695  0.0866 -0.6659  0.1525
 2012SOL    HW117669   1.559   1.042   1.615 -2.0151  2.3345 -1.2445
 2012SOL    HW217670   1.420   1.023   1.659 -0.2805  1.0145  0.1261
 2013SOL     OW17671   3.753   1.232   8.215  0.1917  0.1692  0.2551
 2013SOL    HW117672   3.762   1.148   8.170  1.0095 -0.6718  1.9643
 2013SOL    HW217673   3.665   1.252   8.183  0.0010 -0.0787  0.6219
 2014SOL     OW17674   2.222   3.543  12.353  0.4012  0.0404  0.0396
 2014SOL    HW117675   2.227   3.582  12.440  1.8862 -0.1577  0.0472
 2014SOL    HW217676   2.157   3.474  12.366  0.3624  0.0696  0.0001
 2015SOL     OW17677   1.026   3.925   7.975  0.3111  0.9612  0.2441
 2015SOL    HW117678   0.969   3.999   7.999 -1.2183 -0.1456 -0.0087
 2015SOL    HW217679   1.015   3.874   8.055 -0.2704  0.8041  0.0703
 2016SOL     OW17680   1.710   0.404   2.075  0.3446  0.1120 -0.4426
 2016SOL    HW117681   1.630   0.409   2.023 -0.5602 -1.5630  0.8141
 2016SOL    HW217682   1.675   0.462   2.143 -2.8185 -1.2136 -0.9686
 2017SOL     OW17683   4.696   2.872   3.091 -0.3761 -0.0985 -0.2110
 2017SOL    HW117684   4.697   2.890   2.997 -0.5830  0.8947 -0.0181
 2017SOL    HW217685   4.608   2.837   3.102 -0.1434 -0.7345 -0.3751
 2018SOL     OW17686   0.927   3.942   0.964 -0.2260 -0.0782  0.2669
 2018SOL    HW117687   0.995   3.992   0.919  0.0683 -1.5141 -0.8651
 2018SOL    HW217688   0.910   3.985   1.048 -0.6336  0.1295  0.0752
 2019SOL     OW17689   4.478   1.944   7.389  0.0630 -0.0256 -0.4839
 2019SOL    HW117690   4.506   1.853   7.375 -0.6621 -0.2248 -0.6317
 2019SOL    HW217691   4.445   1.966   7.302  3.1872 -0.7589 -1.8576
 2020SOL     OW17692   0.409   3.241   8.502 -0.5720  0.4171  0.0055
 2020SOL    HW117693   0.382   3.333   8.499  1.2223  1.0942  3.8068
 2020SOL    HW217694   0.338   3.200   8.452  0.3907 -1.7163  0.4067
 2021SOL     OW17695   0.217   1.180   5.559 -0.9811 -0.1932 -0.2904
 2021SOL    HW117696   0.250   1.236   5.629 -1.1065  0.7067 -0.9534
 2021SOL    HW217697   0.178   1.257   5.517  0.0397 -1.0388 -2.8139
 2022SOL     OW17698   0.175   1.621   8.924  0.1335 -0.1593  0.3668
 2022SOL    HW117699   0.116   1.567   8.872  0.2263 -0.2399  0.3442
 2022SOL    HW217700   0.250   1.585   8.877  1.4678  2.5461  0.4703
 2023SOL     OW17701   1.183   3.266   1.927 -0.1743  0.1065 -0.6881
 2023SOL    HW117702   1.274   3.276   1.898  0.0229  1.5182  0.4392
 2023SOL    HW217703   1.203   3.235   2.016 -1.8530  0.0700 -0.3358
 2024SOL     OW17704   3.824   4.379   4.569 -0.6166 -0.0626  0.4845
 2024SOL    HW117705   3.892   4.439   4.599  1.6369 -2.2012 -0.3242
 2024SOL    HW217706   3.752   4.441   4.569 -1.4344 -1.0081 -0.4815
 2025SOL     OW17707   1.832   2.066  11.600  0.1920  0.2700 -0.4478
 2025SOL    HW117708   1.853   2.067  11.693 -0.0974  0.9837 -0.3948
 2025SOL    HW217709   1.740   2.044  11.612  1.3580 -4.4496 -0.0064
 2026SOL     OW17710   3.746   3.220  16.266  0.8133  0.2241 -0.2883
 2026SOL    HW117711   3.734   3.232  16.360 -1.9859  2.4852 -0.9024
 2026SOL    HW217712   3.680   3.154  16.244  0.0174  0.8911  0.0929
 2027SOL     OW17713   0.714   1.145   8.048  0.9857 -0.2376  0.0280
 2027SOL    HW117714   0.806   1.127   8.064  1.4164  0.4215 -1.6700
 2027SOL    HW217715   0.703   1.107   7.961  1.7344  0.5443 -0.4092
 2028SOL     OW17716   3.343   1.242   4.535  0.4718 -0.3199 -0.1018
 2028SOL    HW117717   3.310   1.305   4.599  1.1159  0.8038 -0.8696
 2028SOL    HW217718   3.427   1.276   4.503  0.2881  0.3714  0.1481
 2029SOL     OW17719   0.167   3.586  12.351  0.1763 -0.1682  0.7761
 2029SOL    HW117720   0.072   3.576  12.361  0.2861 -1.2660  0.6765
 2029SOL    HW217721   0.180   3.664  12.405  0.7924 -1.3474  2.2982
 2030SOL     OW17722   0.105   0.512   0.310 -0.2001 -0.3123  0.2899
 2030SOL    HW117723   0.138   0.524   0.221  3.8048  0.7892  1.9155
 2030SOL    HW217724   0.041   0.582   0.304  2.3179  1.9976  0.3968
 2031SOL     OW17725   3.952   2.439  11.741 -0.6254  0.5891  0.0175
 2031SOL    HW117726   3.860   2.455  11.718 -0.7637 -1.8494 -1.0981
 2031SOL    HW217727   3.951   2.417  11.835  0.5334  2.4226  0.4631
 2032SOL     OW17728   2.140   2.603   5.116 -1.0016  0.6820  0.7143
 2032SOL    HW117729   2.156   2.530   5.056  1.0067  1.0177  0.8666
 2032SOL    HW217730   2.223   2.648   5.101  0.5495 -2.6077 -0.5713
 2033SOL     OW17731   2.972   3.246   8.228 -0.1621 -0.0008  0.1892
 2033SOL    HW117732   2.882   3.280   8.230  1.1023  3.3531 -1.4558
 2033SOL    HW217733   2.975   3.179   8.160 -1.5198 -1.5305  1.6123
 2034SOL     OW17734   1.439   0.190   4.634  0.1781  0.1714  0.7124
 2034SOL    HW117735   1.401   0.267   4.592  0.3951 -1.0271 -1.6520
 2034SOL    HW217736   1.531   0.191   4.608  0.0570 -0.4615  0.2545
 2035SOL     OW17737   1.690   2.637  11.625 -0.0303  0.2354 -0.4202
 2035SOL    HW117738   1.739   2.655  11.705  0.8364 -1.0697 -0.6590
 2035SOL    HW217739   1.723   2.551  11.599 -2.2281 -1.2530  1.7004
 2036SOL     OW17740   3.770   0.553  15.535  0.2094  0.1580 -0.3028
 2036SOL    HW117741   3.702   0.593  15.481 -0.6057  0.1951  0.7702
 2036SOL    HW217742   3.727   0.554  15.620  1.0820  1.1791  0.1274
 2037SOL     OW17743   0.230   0.483  17.272  0.0294 -0.0300 -0.2196
 2037SOL    HW117744   0.177   0.563  17.266 -1.7374 -1.1696  0.1428
 2037SOL    HW217745   0.295   0.505  17.339  0.4407  2.5790 -1.4780
 2038SOL     OW17746   0.243   0.809   7.448 -0.0851  0.8905 -0.4367
 2038SOL    HW117747   0.244   0.826   7.542  1.9211  1.4034 -0.5459
 2038SOL    HW217748   0.279   0.891   7.414 -2.6029  1.7619 -0.9813
 2039SOL     OW17749   4.579   4.213   1.380 -0.2450 -0.7484 -0.0004
 2039SOL    HW117750   4.515   4.181   1.444  1.0898  0.2199  1.8374
 2039SOL    HW217751   4.616   4.282   1.436  1.0384  0.5506 -2.4697
 2040SOL     OW17752   1.901   0.613   1.477 -0.4059 -0.1502  0.1238
 2040SOL    HW117753   1.927   0.580   1.391  0.3868  1.3044 -0.2000
 2040SOL    HW217754   1.979   0.587   1.526  0.1071  0.4812 -0.3641
 2041SOL     OW17755   1.025   3.466  15.180  0.1913 -0.1611 -0.5206
 2041SOL    HW117756   1.004   3.555  15.208  0.8742  0.4065 -1.8192
 2041SOL    HW217757   1.085   3.456  15.255 -1.5787 -1.0798  0.7734
 2042SOL     OW17758   1.896   2.572  12.176  0.8620 -0.8781 -0.2246
 2042SOL    HW117759   1.939   2.584  12.261  0.3454  0.4675 -0.1443
 2042SOL    HW217760   1.906   2.655  12.130 -1.2347 -0.8007 -0.5530
 2043SOL     OW17761   1.125   3.678   1.777  0.5391 -0.6407  0.0681
 2043SOL    HW117762   1.036   3.651   1.802 -0.0481  1.0557 -0.1442
 2043SOL    HW217763   1.185   3.643   1.843  2.0810  1.4401 -0.2377
 2044SOL     OW17764   1.257   0.766   8.067  0.6435 -0.0033 -0.4231
 2044SOL    HW117765   1.307   0.847   8.076 -0.3200  0.3985  1.2066
 2044SOL    HW217766   1.190   0.773   8.136 -0.8353 -1.5117 -1.7033
 2045SOL     OW17767   2.570   0.366  15.663  0.2847  0.7805 -0.2257
 2045SOL    HW117768   2.561   0.424  15.587 -1.6485 -0.5161 -0.9932
 2045SOL    HW217769   2.613   0.294  15.618 -1.3642 -1.1257  1.2671
 2046SOL     OW17770   2.376   2.710   9.132 -0.0692 -0.1517 -0.4948
 2046SOL    HW117771   2.340   2.623   9.112 -0.4520 -0.2916  0.7685
 2046SOL    HW217772   2.306   2.769   9.108 -1.1220 -0.3792  2.0310
 2047SOL     OW17773   2.922   0.351   5.396 -0.1304 -0.1236  0.0792
 2047SOL    HW117774   2.923   0.314   5.485  0.2200  0.1428  0.1870
 2047SOL    HW217775   3.003   0.309   5.368  0.1982 -0.7317  1.9311
 2048SOL     OW17776   2.491   0.952  15.837 -0.0227  0.1894 -0.1718
 2048SOL    HW117777   2.545   1.018  15.794  1.5897 -1.3765 -0.5276
 2048SOL    HW217778   2.407   0.994  15.857 -1.6873 -2.6865 -1.1130
 2049SOL     OW17779   0.089   1.546  13.164 -0.1893  0.2134  0.7113
 2049SOL    HW117780   0.168   1.540  13.111 -0.0744 -0.7023  0.9724
 2049SOL    HW217781   0.079   1.640  13.177 -0.3693  0.2154  0.5556
 2050SOL     OW17782   2.201   3.089   4.154  0.2556 -0.1022  0.7043
 2050SOL    HW117783   2.270   3.128   4.100  1.5714  1.5669  3.5844
 2050SOL    HW217784   2.128   3.059   4.101  1.3463 -1.7666  0.1544
 2051SOL     OW17785   4.241   1.152   3.699  0.2984  0.2314  0.0657
 2051SOL    HW117786   4.264   1.113   3.783  0.5642  0.0887 -0.0740
 2051SOL    HW217787   4.161   1.199   3.721  0.4108 -0.6858  2.3843
 2052SOL     OW17788   4.380   4.022   2.480 -0.1349 -0.1553 -0.1656
 2052SOL    HW117789   4.467   3.989   2.504 -0.4766 -1.2111 -0.3520
 2052SOL    HW217790   4.400   4.094   2.421  1.8664 -0.9329 -0.4344
 2053SOL     OW17791   0.067   4.121   4.250  0.0925  0.6514  0.0135
 2053SOL    HW117792   4.731   4.147   4.309  0.3667 -2.1142  1.5146
 2053SOL    HW217793   0.051   4.027   4.247 -0.5188  0.6811  2.2415
 2054SOL     OW17794   4.345   2.761   6.470  0.3484 -0.0586 -0.2081
 2054SOL    HW117795   4.268   2.748   6.415 -0.3706  0.8636  0.5805
 2054SOL    HW217796   4.297   2.768   6.553  0.3448  0.0906 -0.2241
 2055SOL     OW17797   3.283   2.419   4.145 -0.6336 -0.1277 -0.7234
 2055SOL    HW117798   3.271   2.398   4.052 -0.2913 -0.4358 -0.7011
 2055SOL    HW217799   3.213   2.370   4.187 -0.0678 -1.4027 -1.2505
 2056SOL     OW17800   1.129   4.266   1.346 -0.2649 -0.0503  0.0426
 2056SOL    HW117801   1.109   4.355   1.372  0.1188  0.1737 -0.4230
 2056SOL    HW217802   1.225   4.270   1.337 -0.5457  1.1461 -2.3716
 2057SOL     OW17803   3.526   4.511   9.229  0.3227  0.2718 -0.3362
 2057SOL    HW117804   3.522   4.501   9.324 -1.1534  0.7840 -0.3386
 2057SOL    HW217805   3.573   4.593   9.217  1.0009 -0.1804 -0.7621
 2058SOL     OW17806   2.409   4.589   5.499 -0.0657  0.5651  0.0694
 2058SOL    HW117807   2.332   4.644   5.501 -0.6231 -0.1564 -1.2082
 2058SOL    HW217808   2.461   4.604   5.578  2.6376 -1.1832 -1.3546
 2059SOL     OW17809   0.299   2.399   8.276  0.3411  0.1492  0.0155
 2059SOL    HW117810   0.246   2.357   8.343  0.9691  0.6141  0.7913
 2059SOL    HW217811   0.232   2.418   8.210  0.1959  1.3472  0.5079
 2060SOL     OW17812   1.772   1.481   1.524  0.3486 -0.0968  0.0836
 2060SOL    HW117813   1.842   1.487   1.459  0.9810 -1.1985  0.6617
 2060SOL    HW217814   1.696   1.466   1.468  1.3357 -0.3581 -1.1764
 2061SOL     OW17815   3.545   1.536   6.553 -0.8306 -0.4603  0.7543
 2061SOL    HW117816   3.527   1.465   6.491  1.6398  0.4870 -1.0566
 2061SOL    HW217817   3.629   1.523   6.597 -0.5528 -0.1973  0.2979
 2062SOL     OW17818   4.704   3.339   3.395  0.8623  0.4027  0.3611
 2062SOL    HW117819   4.658   3.349   3.311 -1.0406 -0.6547  1.2717
 2062SOL    HW217820   4.632   3.339   3.458  1.4429 -0.1547  1.0202
 2063SOL     OW17821   4.011   1.016   3.008 -0.0926  0.4216 -0.3269
 2063SOL    HW117822   4.052   0.981   3.087 -1.2474 -1.2524 -0.4658
 2063SOL    HW217823   4.073   0.988   2.940 -2.3232 -2.4546 -1.1805
 2064SOL     OW17824   0.964   2.193   6.177 -0.2987  0.4902 -0.2005
 2064SOL    HW117825   0.984   2.191   6.271  0.2363  4.9411 -0.2202
 2064SOL    HW217826   1.020   2.265   6.149  2.1025 -1.2517  0.1725
 2065SOL     OW17827   1.482   1.800  16.216  0.8910  0.5259  0.4026
 2065SOL    HW117828   1.535   1.758  16.283  0.4324  0.3109  0.6309
 2065SOL    HW217829   1.526   1.755  16.144  0.4350  2.1129 -0.8617
 2066SOL     OW17830   2.611   2.264   5.027  0.0211  0.4970  0.0821
 2066SOL    HW117831   2.522   2.231   5.021 -0.2244  1.3973 -1.2566
 2066SOL    HW217832   2.631   2.289   4.936  3.3205  0.5591  0.7971
 2067SOL     OW17833   0.358   3.042  15.588 -0.1005 -0.4901  0.9899
 2067SOL    HW117834   0.303   3.105  15.542  0.5906 -0.2836  0.4439
 2067SOL    HW217835   0.443   3.083  15.575  0.0560 -2.0464 -2.9099
 2068SOL     OW17836   0.981   0.464  11.004  0.0239 -0.4553  0.1372
 2068SOL    HW117837   1.062   0.461  11.054 -0.4791  1.0768  1.0494
 2068SOL    HW217838   0.924   0.483  11.079  1.1599 -0.5094  1.0229
 2069SOL     OW17839   3.651   0.687   8.448  0.0954 -0.4134 -0.0894
 2069SOL    HW117840   3.566   0.716   8.480 -0.3921  0.7911 -2.4482
 2069SOL    HW217841   3.630   0.644   8.365  2.0093 -1.6954  0.0639
 2070SOL     OW17842   1.166   3.866  12.724  0.8420  0.5227 -0.0708
 2070SOL    HW117843   1.163   3.866  12.820  0.0984 -1.1159 -0.0976
 2070SOL    HW217844   1.162   3.772  12.707  0.4262  0.8559 -1.7821
 2071SOL     OW17845   4.469   2.304   4.619 -0.3131  0.3803 -0.4659
 2071SOL    HW117846   4.521   2.376   4.655  2.7611 -2.0909  0.0291
 2071SOL    HW217847   4.405   2.298   4.689 -0.3679 -1.0449 -0.6315
 2072SOL     OW17848   1.156   2.054   6.048  0.2982 -0.0517 -0.2578
 2072SOL    HW117849   1.169   1.972   6.096  1.2728  0.4256  0.3034
 2072SOL    HW217850   1.073   2.078   6.089  0.0692 -0.4375 -0.4936
 2073SOL     OW17851   0.135   3.188   4.071 -0.0030 -0.3457 -0.9221
 2073SOL    HW117852   0.220   3.147   4.088 -0.4395 -0.8381  0.0620
 2073SOL    HW217853   0.075   3.132   4.122 -0.2645 -2.0093 -3.0423
 2074SOL     OW17854   3.608   3.026   0.291  0.2558 -0.3747  0.0140
 2074SOL    HW117855   3.552   2.990   0.221  0.3939 -1.2235  0.3447
 2074SOL    HW217856   3.550   3.002   0.363 -0.0791  0.3531 -0.0111
 2075SOL     OW17857   2.695   3.470   1.404 -0.2860  0.1860 -0.0090
 2075SOL    HW117858   2.667   3.406   1.469  1.8645  0.9348  1.6727
 2075SOL    HW217859   2.786   3.492   1.427 -0.7228  1.6665  0.2887
 2076SOL     OW17860   3.082   0.559   6.868  0.4514  0.0570  0.4729
 2076SOL    HW117861   3.103   0.650   6.849 -1.2034  0.2018 -0.6529
 2076SOL    HW217862   3.090   0.520   6.781 -0.0834  0.6599  0.1529
 2077SOL     OW17863   0.973   0.170  11.597 -0.0183 -0.3750  0.0718
 2077SOL    HW117864   1.033   0.225  11.649 -1.5229  0.1173  1.2755
 2077SOL    HW217865   1.038   0.109  11.561  1.5473  0.3385  1.7079
 2078SOL     OW17866   0.131   0.212   1.824 -0.6243 -0.3024 -0.0890
 2078SOL    HW117867   0.176   0.152   1.765 -2.0759 -2.2204  0.7723
 2078SOL    HW217868   0.200   0.277   1.838  0.4527 -0.8877 -2.5918
 2079SOL     OW17869   4.231   1.892   6.671  0.2311 -0.0782 -0.1437
 2079SOL    HW117870   4.212   1.923   6.582  0.8248  0.4893 -0.0644
 2079SOL    HW217871   4.324   1.904   6.692 -0.5033  0.7205  2.6862
 2080SOL     OW17872   1.835   0.759   7.416 -0.6504  0.1911 -0.1279
 2080SOL    HW117873   1.785   0.678   7.402 -1.3422  0.8888 -1.7994
 2080SOL    HW217874   1.771   0.831   7.413 -0.7002  0.1105 -1.2110
 2081SOL     OW17875   1.277   1.375   2.143 -0.0519  0.4026  0.3545
 2081SOL    HW117876   1.266   1.470   2.150 -1.1674  0.2707  0.3277
 2081SOL    HW217877   1.370   1.370   2.118 -0.1469 -0.5210  0.1874
 2082SOL     OW17878   2.247   3.827   0.109 -0.0369  0.0492 -0.0914
 2082SOL    HW117879   2.180   3.762   0.087  2.0668 -2.3115  0.4646
 2082SOL    HW217880   2.309   3.793   0.044  0.6320  1.8883 -0.4039
 2083SOL     OW17881   1.750   2.782  12.472 -0.2013  0.4585  0.3049
 2083SOL    HW117882   1.710   2.749  12.392 -1.8837 -0.2636  1.4461
 2083SOL    HW217883   1.673   2.774  12.528 -1.0681  0.1393 -0.9316
 2084SOL     OW17884   4.312   4.180   6.642  0.0856  0.4815  0.6385
 2084SOL    HW117885   4.400   4.214   6.629  0.3856 -0.3107  0.5988
 2084SOL    HW217886   4.303   4.127   6.563 -0.7361  0.3053  0.8495
 2085SOL     OW17887   1.156   3.296   6.158  0.3851  0.1120  0.0936
 2085SOL    HW117888   1.135   3.350   6.234 -1.1732 -1.3716  0.7287
 2085SOL    HW217889   1.091   3.226   6.168  0.3515  0.3162  1.3105
 2086SOL     OW17890   2.397   3.334   4.437 -0.1251 -0.0210  0.4863
 2086SOL    HW117891   2.343   3.388   4.496  0.3890 -1.9236  2.6963
 2086SOL    HW217892   2.438   3.401   4.382 -0.2522 -1.7188 -1.6720
 2087SOL     OW17893   1.290   3.128  11.120 -0.2704 -0.5283 -0.0302
 2087SOL    HW117894   1.198   3.101  11.126  0.0616 -2.2461 -2.5232
 2087SOL    HW217895   1.301   3.167  11.206 -0.6753  0.7575 -0.5596
 2088SOL     OW17896   1.287   0.315   3.557 -0.3555 -0.5693 -0.4139
 2088SOL    HW117897   1.345   0.376   3.512  0.4356 -0.4743  0.7323
 2088SOL    HW217898   1.295   0.346   3.647 -0.5043 -0.4212 -0.4506
 2089SOL     OW17899   3.551   2.617   4.421 -0.0524  0.2911 -0.2087
 2089SOL    HW117900   3.622   2.597   4.361 -0.4328  1.9499 -1.2214
 2089SOL    HW217901   3.506   2.656   4.346 -0.5577 -0.1348 -0.1275
 2090SOL     OW17902   3.600   4.080  15.271 -0.2773 -0.6452 -0.5904
 2090SOL    HW117903   3.520   4.078  15.219 -1.6991  0.5818  1.6037
 2090SOL    HW217904   3.602   3.985  15.282  2.0099 -0.4106  0.9783
 2091SOL     OW17905   3.370   0.745   8.519  0.0258 -0.2641  0.2120
 2091SOL    HW117906   3.284   0.775   8.550 -0.1385 -0.3970 -0.1185
 2091SOL    HW217907   3.342   0.685   8.450  1.4576  0.6263 -1.1266
 2092SOL     OW17908   4.663   2.856   1.294  0.0571 -0.1356 -0.0034
 2092SOL    HW117909   4.612   2.937   1.302 -1.8555 -1.4742  1.1410
 2092SOL    HW217910   4.638   2.827   1.206 -0.1452 -0.0253  0.0182
 2093SOL     OW17911   3.555   0.864   2.104  0.3577 -0.3498  0.2659
 2093SOL    HW117912   3.605   0.796   2.058  0.9999  1.5302 -1.8288
 2093SOL    HW217913   3.545   0.937   2.043 -2.6168  0.2187  1.4202
 2094SOL     OW17914   3.257   1.365   4.773  0.3991 -0.1345  0.2932
 2094SOL    HW117915   3.191   1.328   4.832 -0.2613  0.6508  0.0478
 2094SOL    HW217916   3.231   1.456   4.762  0.7155 -0.1072 -0.2398
 2095SOL     OW17917   2.689   0.153   8.462  0.0040  0.2073  0.8052
 2095SOL    HW117918   2.619   0.213   8.488  2.0227  1.8941  2.3572
 2095SOL    HW217919   2.703   0.182   8.372  0.0778 -0.0559  0.7309
 2096SOL     OW17920   1.076   2.829  12.085 -0.3934 -0.1181  0.3363
 2096SOL    HW117921   1.000   2.774  12.070  0.2231 -0.8025 -0.3006
 2096SOL    HW217922   1.051   2.900  12.027  1.5883  1.1740  1.0786
 2097SOL     OW17923   1.711   2.472  16.416  0.6638 -0.1657 -0.1171
 2097SOL    HW117924   1.647   2.522  16.365  0.3301 -1.0263 -0.5481
 2097SOL    HW217925   1.721   2.528  16.493  1.8886 -0.2046 -0.2554
 2098SOL     OW17926   0.881   2.307   1.782 -0.0645 -0.9051 -0.0739
 2098SOL    HW117927   0.843   2.376   1.727 -1.4959 -1.0752  0.7224
 2098SOL    HW217928   0.958   2.351   1.819  0.6414 -0.9196 -1.5015
 2099SOL     OW17929   2.465   1.989  16.733 -0.3952  0.3520  0.4585
 2099SOL    HW117930   2.417   2.022  16.657  2.2007 -0.8185 -1.6617
 2099SOL    HW217931   2.549   1.954  16.704 -0.7855 -0.0312 -0.2180
 2100SOL     OW17932   3.273   0.273   7.447  0.2472 -0.8142 -0.4531
 2100SOL    HW117933   3.335   0.204   7.469 -0.5703 -1.7160 -1.0110
 2100SOL    HW217934   3.262   0.275   7.352 -0.9188 -0.5656 -0.3039
 2101SOL     OW17935   4.160   0.090  17.679 -0.2874  0.2420  0.3131
 2101SOL    HW117936   4.254   0.072  17.678 -0.8400 -2.4151 -2.6527
 2101SOL    HW217937   4.136   0.127  17.594  1.0083  1.3178  0.4153
 2102SOL     OW17938   1.850   3.410   3.731 -0.4610  0.0893 -0.2288
 2102SOL    HW117939   1.938   3.442   3.752  0.2349 -0.5383 -2.1447
 2102SOL    HW217940   1.862   3.317   3.749  4.0485  0.6507 -0.2511
 2103SOL     OW17941   3.045   2.244   6.517 -0.2663 -0.2631  0.2792
 2103SOL    HW117942   2.977   2.285   6.464  0.9506  1.1826 -0.1319
 2103SOL    HW217943   3.029   2.153   6.491 -2.4900 -0.4733  2.3374
 2104SOL     OW17944   3.669   4.526   4.849 -0.1945 -0.4560 -0.1113
 2104SOL    HW117945   3.655   4.437   4.815 -1.5568 -0.1746 -0.2764
 2104SOL    HW217946   3.748   4.507   4.900  0.0498  0.1528 -0.2673
 2105SOL     OW17947   1.234   1.305   3.166  0.2781  0.1227  0.2071
 2105SOL    HW117948   1.169   1.246   3.204  0.0168  1.2456  1.4925
 2105SOL    HW217949   1.210   1.286   3.075  1.6645  1.2462 -0.3900
 2106SOL     OW17950   1.712   1.717   7.292 -0.2529 -0.0590  0.7760
 2106SOL    HW117951   1.692   1.789   7.351  0.4096  1.1455 -0.4887
 2106SOL    HW217952   1.642   1.656   7.317 -0.1837 -0.8734 -1.0404
 2107SOL     OW17953   1.239   0.080   5.661  0.5317 -0.3201  0.4719
 2107SOL    HW117954   1.185   0.005   5.684  1.8624 -1.1819  0.7724
 2107SOL    HW217955   1.199   0.091   5.575  0.3885 -0.7872  0.4784
 2108SOL     OW17956   0.801   0.160   3.499  0.3030 -0.0336 -0.3782
 2108SOL    HW117957   0.870   0.219   3.469 -0.3162  0.3364 -1.0438
 2108SOL    HW217958   0.792   0.208   3.582 -2.0689 -2.4015  0.7503
 2109SOL     OW17959   3.121   4.420  13.688  0.2172 -0.1705  0.4453
 2109SOL    HW117960   3.195   4.360  13.681  0.5168  0.3632 -1.0370
 2109SOL    HW217961   3.063   4.385  13.620 -0.0734 -0.1550  0.6836
 2110SOL     OW17962   2.728   0.218  17.676  0.2631 -0.5237  0.3900
 2110SOL    HW117963   2.706   0.133  17.715  2.1426 -1.0376  0.3682
 2110SOL    HW217964   2.771   0.180  17.599  1.4222  1.1202  0.2287
 2111SOL     OW17965   4.270   1.661   4.093 -0.2913 -0.0087 -0.5723
 2111SOL    HW117966   4.322   1.682   4.171  0.1055 -2.9912 -0.0350
 2111SOL    HW217967   4.215   1.740   4.085 -1.8850 -1.1947 -1.2924
 2112SOL     OW17968   1.237   3.303  15.322  0.0514 -0.4142  0.5165
 2112SOL    HW117969   1.180   3.228  15.342  0.3147 -1.1196 -1.4016
 2112SOL    HW217970   1.227   3.355  15.402 -0.5562 -0.4163  0.4406
 2113SOL     OW17971   3.302   3.927  11.322 -0.0318  0.1078 -0.3107
 2113SOL    HW117972   3.227   3.965  11.367  1.6952  2.2070  0.7839
 2113SOL    HW217973   3.268   3.883  11.243  1.0526 -2.1195  0.4561
 2114SOL     OW17974   1.626   0.590   7.670  0.0091 -0.1131  0.1335
 2114SOL    HW117975   1.713   0.623   7.695 -0.2429  0.8977 -0.3296
 2114SOL    HW217976   1.624   0.517   7.732 -0.0280 -1.8333 -1.9157
 2115SOL     OW17977   1.766   0.029   5.964  0.0396 -0.0860 -0.5471
 2115SOL    HW117978   1.693   4.732   6.018 -0.2647 -0.2941 -1.0737
 2115SOL    HW217979   1.762   0.122   5.986  1.2033  0.2279 -1.7033
 2116SOL     OW17980   2.353   1.689   5.329  0.1691  0.2629  0.2307
 2116SOL    HW117981   2.375   1.613   5.383 -0.2367 -0.0619 -0.0582
 2116SOL    HW217982   2.409   1.670   5.254  1.2029  0.8343  0.8634
 2117SOL     OW17983   2.664   1.471  14.557 -0.0292 -0.1718  0.6910
 2117SOL    HW117984   2.749   1.506  14.530 -1.0212 -0.1221 -2.3736
 2117SOL    HW217985   2.674   1.455  14.651  0.7578 -0.2640  0.5866
 2118SOL     OW17986   1.262   0.137   1.994  0.3115  0.2165  0.9120
 2118SOL    HW117987   1.326   0.105   2.057  1.9198  1.5407 -0.0650
 2118SOL    HW217988   1.182   0.129   2.045 -0.0828 -1.7008 -0.0082
 2119SOL     OW17989   1.538   3.265   8.272  0.0783  0.0359 -0.4679
 2119SOL    HW117990   1.521   3.237   8.182  1.3880 -0.7148 -0.4843
 2119SOL    HW217991   1.530   3.181   8.319  2.0568 -0.4739 -1.0331
 2120SOL     OW17992   0.606   4.121   3.318  0.1127  0.2734  0.1337
 2120SOL    HW117993   0.666   4.089   3.251 -0.2606  0.4784 -0.2979
 2120SOL    HW217994   0.658   4.194   3.352  1.5233 -0.1378 -1.1732
 2121SOL     OW17995   1.415   3.549   5.948 -0.8751  0.1152  0.3778
 2121SOL    HW117996   1.440   3.458   5.932 -1.2677  0.1656 -0.4854
 2121SOL    HW217997   1.413   3.592   5.863 -0.4498 -0.8406 -0.1115
 2122SOL     OW17998   0.914   1.011  11.308  0.0999 -0.3409 -0.4802
 2122SOL    HW117999   0.878   0.994  11.221 -1.0374 -1.1499  0.1384
 2122SOL    HW218000   0.862   1.087  11.334 -0.3836 -1.6448  2.4863
 2123SOL     OW18001   4.356   2.620  13.634  0.0207  0.2824  0.6511
 2123SOL    HW118002   4.274   2.666  13.651 -1.3460 -0.8181 -2.8941
 2123SOL    HW218003   4.356   2.628  13.539 -0.7785 -0.9157  0.5428
 2124SOL     OW18004   0.827   0.777  14.332  0.6781  0.1391  0.6902
 2124SOL    HW118005   0.754   0.715  14.329 -0.1248  1.1930 -1.2692
 2124SOL    HW218006   0.808   0.828  14.411  2.7120  1.1448  0.5237
 2125SOL     OW18007   3.981   2.108   3.844 -0.6974 -0.3543 -0.3776
 2125SOL    HW118008   4.009   2.181   3.789  1.0295 -1.4688 -0.9851
 2125SOL    HW218009   3.949   2.144   3.926 -5.1334 -0.7849 -1.9118
 2126SOL     OW18010   4.138   1.549  13.254 -0.3344  0.8552 -0.4309
 2126SOL    HW118011   4.059   1.507  13.222  1.6142 -2.7337 -0.5772
 2126SOL    HW218012   4.131   1.635  13.213 -2.5390  0.7333 -0.2846
 2127SOL     OW18013   2.141   0.239   2.756 -0.0340 -0.4624  0.1840
 2127SOL    HW118014   2.102   0.230   2.669 -1.7477  2.4949  0.6559
 2127SOL    HW218015   2.068   0.268   2.810 -0.2323  0.2191 -0.4506
 2128SOL     OW18016   2.573   3.641   6.456 -0.3036 -0.1223 -0.0485
 2128SOL    HW118017   2.576   3.729   6.419 -0.6846  0.0898  0.4197
 2128SOL    HW218018   2.668   3.649   6.458 -0.4856  2.2867 -0.6689
 2129SOL     OW18019   1.587   0.452  11.412 -0.0357  0.1011 -0.2258
 2129SOL    HW118020   1.677   0.462  11.444  1.1155 -1.6713 -2.9182
 2129SOL    HW218021   1.604   0.390  11.341 -0.0660 -1.3927  1.0856
 2130SOL     OW18022   1.284   0.858   9.803 -0.5951  0.0578  0.2947
 2130SOL    HW118023   1.374   0.890   9.793 -0.5636 -0.2816 -0.4936
 2130SOL    HW218024   1.266   0.876   9.895  1.4332  3.2306  0.0853
 2131SOL     OW18025   4.172   0.465  12.313  0.1227 -0.0902  0.1135
 2131SOL    HW118026   4.255   0.502  12.343 -0.3261  1.4701 -0.6162
 2131SOL    HW218027   4.132   0.452  12.400 -0.8805 -2.5099 -0.6991
 2132SOL     OW18028   2.798   3.901  11.921 -0.1000 -0.4258  0.3344
 2132SOL    HW118029   2.855   3.862  11.987  0.7010  2.7358  1.4875
 2132SOL    HW218030   2.855   3.967  11.882 -0.9568 -0.1532 -0.4692
 2133SOL     OW18031   2.547   2.546   2.953 -0.8846 -0.4740 -0.2461
 2133SOL    HW118032   2.631   2.592   2.954 -0.7993 -0.6176 -1.0272
 2133SOL    HW218033   2.522   2.565   2.863  1.1499  1.0532 -0.4733
 2134SOL     OW18034   0.457   2.108  17.256  0.3841 -0.3498 -0.3105
 2134SOL    HW118035   0.543   2.148  17.244 -1.0659  2.1028 -2.6675
 2134SOL    HW218036   0.475   2.015  17.264 -0.4737 -0.4641  0.2215
 2135SOL     OW18037   4.732   2.734   2.524 -0.4774 -0.6182 -0.4727
 2135SOL    HW118038   4.683   2.802   2.477 -0.3896 -0.1388  0.1210
 2135SOL    HW218039   0.021   2.798   2.592  0.5716  0.5651 -1.9342
 2136SOL     OW18040   1.939   1.420   3.727 -0.2408  0.6537  0.4376
 2136SOL    HW118041   2.007   1.366   3.686 -0.8873 -2.0479  2.8814
 2136SOL    HW218042   1.876   1.425   3.655 -1.5825  1.0742  1.6456
 2137SOL     OW18043   2.113   4.375   6.682 -0.9388  0.2869 -0.0549
 2137SOL    HW118044   2.030   4.364   6.636  0.4165 -1.4294 -2.0654
 2137SOL    HW218045   2.107   4.334   6.768 -0.7743  0.7315  0.1718
 2138SOL     OW18046   3.049   4.534   6.408 -0.3828  0.0520  0.1372
 2138SOL    HW118047   3.112   4.478   6.454 -1.6133 -2.5497 -1.3102
 2138SOL    HW218048   3.010   4.462   6.359  2.4481 -0.2995 -1.6094
 2139SOL     OW18049   0.105   4.319   9.010  0.4982  0.1365  0.0935
 2139SOL    HW118050   0.022   4.270   9.007  0.0597  0.8799 -0.0907
 2139SOL    HW218051   0.074   4.397   9.056  3.1229  2.1960 -1.6306
 2140SOL     OW18052   3.188   3.438   4.473 -0.2881  0.2660 -0.3167
 2140SOL    HW118053   3.146   3.367   4.424  0.9933  1.3573 -3.0269
 2140SOL    HW218054   3.118   3.504   4.477 -0.3459  0.0267  2.6460
 2141SOL     OW18055   1.181   0.455   9.881 -0.0383 -0.0436 -0.3896
 2141SOL    HW118056   1.154   0.546   9.891 -0.9895 -0.3374 -0.2314
 2141SOL    HW218057   1.099   0.421   9.844  0.8237 -0.6059 -1.7664
 2142SOL     OW18058   3.222   4.317   7.680  0.2914  0.3126 -0.8526
 2142SOL    HW118059   3.311   4.282   7.691  0.0310 -0.1605 -0.2106
 2142SOL    HW218060   3.231   4.357   7.594 -1.5667  4.0514  0.7096
 2143SOL     OW18061   1.127   1.243  17.019 -0.5236  0.3062 -0.1987
 2143SOL    HW118062   1.048   1.296  17.027 -1.2728 -0.7968 -0.3276
 2143SOL    HW218063   1.186   1.275  17.088 -0.6435 -5.7354  2.7656
 2144SOL     OW18064   3.727   2.965   3.620 -0.2075  0.6670 -0.1359
 2144SOL    HW118065   3.687   3.047   3.649  0.2343  0.7576  0.2152
 2144SOL    HW218066   3.792   2.997   3.557 -1.7307 -2.1120 -3.1365
 2145SOL     OW18067   0.323   3.781   4.378  0.5087 -0.3494  0.0361
 2145SOL    HW118068   0.345   3.871   4.401 -0.3135 -0.1393 -0.0033
 2145SOL    HW218069   0.228   3.783   4.372  0.3459 -1.2782  2.4303
 2146SOL     OW18070   0.640   4.252   9.538 -0.4045 -0.5613 -0.4968
 2146SOL    HW118071   0.674   4.191   9.473 -2.1691 -0.4629 -1.5069
 2146SOL    HW218072   0.575   4.296   9.483  1.1545 -0.1656 -2.0216
 2147SOL     OW18073   4.556   0.715  14.227  0.0079  0.1765  0.1398
 2147SOL    HW118074   4.614   0.784  14.194  1.0448 -1.2571 -0.9949
 2147SOL    HW218075   4.575   0.725  14.321 -0.0599 -1.2094  0.2994
 2148SOL     OW18076   3.586   2.614   5.883 -0.2699 -0.5463  0.3532
 2148SOL    HW118077   3.549   2.527   5.891 -2.3196  0.5871  3.1209
 2148SOL    HW218078   3.563   2.658   5.800  0.4214  0.0679  0.4871
 2149SOL     OW18079   3.932   2.138   7.922 -0.2277  0.4724 -0.5433
 2149SOL    HW118080   4.013   2.089   7.935  0.4683  0.6861 -4.1008
 2149SOL    HW218081   3.961   2.224   7.891 -0.4653  0.2941 -1.2665
 2150SOL     OW18082   1.533   1.798   6.417 -0.4419  0.2351  0.1321
 2150SOL    HW118083   1.522   1.710   6.454  3.8702 -0.5812 -0.5568
 2150SOL    HW218084   1.610   1.834   6.461 -0.4740  0.9382 -0.4017
 2151SOL     OW18085   2.969   0.051   3.377 -0.8151 -0.0984  0.0727
 2151SOL    HW118086   2.924   0.134   3.358 -1.3018 -0.4009 -0.1088
 2151SOL    HW218087   3.039   0.045   3.312  0.5249  0.4682  1.4834
 2152SOL     OW18088   3.136   2.933   6.690 -1.3471  0.1986 -0.2439
 2152SOL    HW118089   3.171   2.878   6.761 -0.7808  0.7565 -0.0905
 2152SOL    HW218090   3.057   2.972   6.727 -0.8832  0.7977  0.1384
 2153SOL     OW18091   3.940   1.217  13.698 -0.3982 -0.2968  0.3678
 2153SOL    HW118092   3.903   1.274  13.766  2.1724 -0.0130  1.5070
 2153SOL    HW218093   4.023   1.203  13.743  0.0323 -1.7591 -0.8902
 2154SOL     OW18094   3.492   1.814  10.501 -0.3121 -0.3480 -0.1674
 2154SOL    HW118095   3.473   1.768  10.419 -0.3005 -1.6005  0.5259
 2154SOL    HW218096   3.498   1.901  10.462  2.1031  0.3812  1.8695
 2155SOL     OW18097   0.696   3.786  15.460  0.7660 -0.6025 -0.0513
 2155SOL    HW118098   0.713   3.878  15.440  0.7456 -0.0060  2.6665
 2155SOL    HW218099   0.776   3.757  15.505  0.2578 -0.0271  1.2312
 2156SOL     OW18100   1.010   2.631  13.662 -0.6366 -0.0191  0.2214
 2156SOL    HW118101   1.091   2.656  13.708 -0.1594  0.5417 -0.9387
 2156SOL    HW218102   1.042   2.569  13.597  2.8091  1.1042  0.8667
 2157SOL     OW18103   1.276   1.639   1.978  0.0541  0.2430 -0.8421
 2157SOL    HW118104   1.307   1.702   2.043  0.9720 -1.0385 -0.0168
 2157SOL    HW218105   1.354   1.583   1.971  0.8549  1.5095 -1.9166
 2158SOL     OW18106   2.426   1.317  14.642  0.2228 -0.0129  0.0718
 2158SOL    HW118107   2.480   1.340  14.566 -0.0028 -0.7261 -0.3055
 2158SOL    HW218108   2.440   1.223  14.646 -0.8066 -0.3405 -4.1573
 2159SOL     OW18109   0.395   1.480   0.548  0.4233 -0.3692 -0.2505
 2159SOL    HW118110   0.447   1.560   0.547 -0.4322  0.1827 -0.6485
 2159SOL    HW218111   0.389   1.435   0.464  0.4445 -0.0540 -0.4182
 2160SOL     OW18112   0.983   0.281   2.685 -0.0440  0.1421 -0.3526
 2160SOL    HW118113   0.909   0.221   2.673  1.8071 -2.3739  0.5790
 2160SOL    HW218114   0.946   0.367   2.702 -0.4997 -0.5292  2.0159
 2161SOL     OW18115   2.742   1.049   2.436 -0.2054 -0.0615 -0.0137
 2161SOL    HW118116   2.690   0.993   2.493 -1.5821 -0.0795 -1.2756
 2161SOL    HW218117   2.680   1.076   2.368  0.8181  0.2024 -0.8466
 2162SOL     OW18118   0.916   1.024   6.806  0.2462 -0.6014 -0.1899
 2162SOL    HW118119   0.973   0.972   6.750  0.2801 -1.1637  0.3736
 2162SOL    HW218120   0.840   1.050   6.754  0.1963 -1.6611 -0.6386
 2163SOL     OW18121   3.538   4.510  11.888  0.0153  0.6715  0.4424
 2163SOL    HW118122   3.572   4.528  11.976 -0.8834  0.4773  0.8329
 2163SOL    HW218123   3.490   4.428  11.900  0.4501  0.5821  1.5432
 2164SOL     OW18124   2.181   2.867   1.560 -1.0545 -0.1924 -0.7546
 2164SOL    HW118125   2.253   2.828   1.609 -0.4267  1.9516  0.0243
 2164SOL    HW218126   2.199   2.822   1.477  0.3776  0.3120 -0.7146
 2165SOL     OW18127   4.340   4.556   8.879 -0.3256  0.0640  0.4455
 2165SOL    HW118128   4.390   4.546   8.960  0.3804  2.4124  0.3199
 2165SOL    HW218129   4.410   4.566   8.815  0.2285  1.2219  1.2217
 2166SOL     OW18130   2.414   0.031   3.064  0.3760 -0.1617 -0.2083
 2166SOL    HW118131   2.500   4.727   3.081 -0.7671 -1.9933  1.3672
 2166SOL    HW218132   2.381   4.693   3.010  1.7764  0.9328 -2.5437
 2167SOL     OW18133   2.601   3.869   6.298  0.2330 -0.2556 -0.1344
 2167SOL    HW118134   2.650   3.952   6.300  1.1773 -0.8257  0.7678
 2167SOL    HW218135   2.615   3.841   6.208  2.0734 -0.7789  0.3120
 2168SOL     OW18136   0.756   3.541   8.509  0.1088  0.6782 -0.5825
 2168SOL    HW118137   0.760   3.446   8.518  3.1399  0.9210  0.5877
 2168SOL    HW218138   0.698   3.562   8.582  0.8289 -2.4429  0.8764
 2169SOL     OW18139   3.873   4.437   8.176  0.4756  0.0396 -0.4539
 2169SOL    HW118140   3.900   4.512   8.230  0.8072  0.2275 -0.8871
 2169SOL    HW218141   3.779   4.425   8.188  0.8154 -2.2360 -0.0662
 2170SOL     OW18142   4.053   1.024   4.290 -0.2286  0.1332  0.0861
 2170SOL    HW118143   4.093   0.953   4.341  2.6765  0.7913 -1.3030
 2170SOL    HW218144   4.127   1.056   4.238 -1.5379  0.5993 -1.4848
 2171SOL     OW18145   0.322   0.400   8.741 -0.1199  0.5261 -0.0087
 2171SOL    HW118146   0.343   0.440   8.657 -0.6000 -0.8354 -0.7790
 2171SOL    HW218147   0.245   0.349   8.717 -0.4099 -0.0801  2.2662
 2172SOL     OW18148   1.916   0.803   4.969 -0.1302 -0.7140  0.4764
 2172SOL    HW118149   1.962   0.885   4.955 -1.7029  0.3648  1.6274
 2172SOL    HW218150   1.869   0.794   4.886 -1.2222  3.1082  0.6986
 2173SOL     OW18151   0.917   4.618   8.773 -0.3307  0.3092 -0.5389
 2173SOL    HW118152   0.901   4.691   8.714  0.2207  0.9807  0.1413
 2173SOL    HW218153   0.827   4.585   8.773 -0.9071  1.8831  2.5093
 2174SOL     OW18154   4.111   1.100   8.824  0.1035 -0.0072 -0.2402
 2174SOL    HW118155   4.021   1.069   8.817  0.6349 -2.2169  2.8387
 2174SOL    HW218156   4.155   1.052   8.754  1.1667  1.0502 -0.3032
 2175SOL     OW18157   1.247   1.059   3.659  0.2138 -0.1639  0.6108
 2175SOL    HW118158   1.250   0.965   3.679  0.4483 -0.2520  0.1403
 2175SOL    HW218159   1.340   1.079   3.660 -0.0018  0.8606 -0.0616
 2176SOL     OW18160   2.766   2.273   0.283  0.0398 -0.5756  0.0262
 2176SOL    HW118161   2.820   2.333   0.334  0.9356 -1.2270 -0.1418
 2176SOL    HW218162   2.805   2.188   0.302  0.8301 -0.3612 -0.6022
 2177SOL     OW18163   3.367   3.650   2.942 -0.2970  0.3515  0.0860
 2177SOL    HW118164   3.302   3.632   2.874 -2.1996 -0.5025  2.0944
 2177SOL    HW218165   3.445   3.652   2.887 -0.1839  0.7258  0.2629
 2178SOL     OW18166   3.354   0.019  17.231  0.3300 -0.8729 -0.5402
 2178SOL    HW118167   3.384   0.092  17.177 -2.9219 -1.2089 -2.8022
 2178SOL    HW218168   3.266   0.003  17.197 -0.1703 -2.6425  1.5966
 2179SOL     OW18169   2.705   1.560  17.600 -0.0422  0.0258 -0.5078
 2179SOL    HW118170   2.684   1.467  17.593 -1.2545  0.2315  0.4684
 2179SOL    HW218171   2.639   1.605  17.547  1.7393  0.3658 -2.4199
 2180SOL     OW18172   1.347   1.871   9.017  0.0098  0.2005  0.0204
 2180SOL    HW118173   1.294   1.843   9.090  0.6739 -1.8532 -0.3009
 2180SOL    HW218174   1.296   1.927   8.958 -1.0595 -0.8023 -0.0022
 2181SOL     OW18175   3.436   1.127   8.940  0.4652 -0.3950  0.5442
 2181SOL    HW118176   3.404   1.128   8.850 -4.3700  1.4970  2.2808
 2181SOL    HW218177   3.347   1.138   8.972 -0.3837  0.9268 -2.2695
 2182SOL     OW18178   4.636   0.513   9.603  0.1426 -0.6609  0.3903
 2182SOL    HW118179   4.556   0.489   9.557 -0.8707  0.1545  1.7088
 2182SOL    HW218180   4.681   0.430   9.591  0.9283 -0.3685  1.3136
 2183SOL     OW18181   0.554   3.782   2.278 -0.3617  0.0043  0.7347
 2183SOL    HW118182   0.565   3.740   2.192 -0.8469 -1.3464  1.3298
 2183SOL    HW218183   0.582   3.713   2.337  3.0808 -0.8592 -1.8984
 2184SOL     OW18184   2.215   2.280   6.554  0.6641 -0.0045 -0.0954
 2184SOL    HW118185   2.239   2.343   6.486 -1.2962  0.9575  0.1182
 2184SOL    HW218186   2.305   2.249   6.568  0.9522  0.3464 -1.1910
 2185SOL     OW18187   4.363   2.850   3.443  0.4556  0.5118 -0.1959
 2185SOL    HW118188   4.446   2.894   3.425  0.0563  1.0755 -0.6597
 2185SOL    HW218189   4.307   2.867   3.367 -0.0267  1.7989  0.4438
 2186SOL     OW18190   3.926   3.485  15.266 -0.4087 -0.2523 -0.1661
 2186SOL    HW118191   3.939   3.540  15.189 -0.2032 -0.6427 -0.4084
 2186SOL    HW218192   3.873   3.411  15.238 -1.4089 -0.0984  1.2960
 2187SOL     OW18193   1.570   0.790   5.673  0.0432  0.2247  0.4107
 2187SOL    HW118194   1.627   0.778   5.597  2.5376  0.3706  2.2469
 2187SOL    HW218195   1.505   0.857   5.651 -0.1365 -0.2042 -0.3391
 2188SOL     OW18196   3.042   0.740   6.039  0.8413 -0.2529 -0.2590
 2188SOL    HW118197   2.991   0.798   5.982  1.3205  1.4404  1.0308
 2188SOL    HW218198   2.970   0.697   6.086  1.5003 -1.4193 -0.3050
 2189SOL     OW18199   0.040   3.601   6.915  0.4420  0.4374 -0.4429
 2189SOL    HW118200   0.018   3.693   6.927 -0.7768  0.2787 -1.5591
 2189SOL    HW218201   0.095   3.601   6.837  0.7077  1.1268 -0.2530
 2190SOL     OW18202   0.054   0.080  11.045 -0.4139  0.0794  0.3260
 2190SOL    HW118203   0.069   4.728  11.006  2.4795  1.0288 -0.6680
 2190SOL    HW218204   0.068   0.141  10.972 -1.4605 -2.6598 -2.1335
 2191SOL     OW18205   0.713   3.044   4.474 -0.0776 -0.0308  0.3827
 2191SOL    HW118206   0.728   3.116   4.535 -1.8834  1.4988 -0.9768
 2191SOL    HW218207   0.665   3.088   4.404  0.0694 -1.3140 -0.5265
 2192SOL     OW18208   2.877   1.729   1.759 -0.1501  0.3200  0.4384
 2192SOL    HW118209   2.803   1.669   1.752  0.5848 -0.3884 -1.4410
 2192SOL    HW218210   2.890   1.756   1.668 -1.4411 -1.2222 -0.1948
 2193SOL     OW18211   4.396   1.823   6.436 -0.3229 -0.6765 -0.7138
 2193SOL    HW118212   4.373   1.744   6.484  1.1297 -0.4191  0.4268
 2193SOL    HW218213   4.356   1.809   6.350  0.2728 -0.0256 -1.0987
 2194SOL     OW18214   0.652   2.112   7.404 -1.2470 -0.2656 -0.0877
 2194SOL    HW118215   0.620   2.196   7.372 -0.0835  0.0235 -0.5278
 2194SOL    HW218216   0.627   2.051   7.334 -1.6950  2.3451 -2.1862
 2195SOL     OW18217   3.633   2.061   4.536  0.2265 -0.9097 -0.4144
 2195SOL    HW118218   3.618   1.972   4.503  0.0837 -0.9846 -0.1546
 2195SOL    HW218219   3.638   2.040   4.630 -2.8288  0.1849  0.0014
 2196SOL     OW18220   0.439   2.512   3.059 -0.0118  0.3626  0.0934
 2196SOL    HW118221   0.466   2.422   3.040 -2.3032 -0.0841 -1.0930
 2196SOL    HW218222   0.509   2.549   3.005 -1.0163  3.0720  0.6306
 2197SOL     OW18223   3.012   0.857   9.079 -0.2830 -0.1613  0.1403
 2197SOL    HW118224   3.030   0.765   9.059 -0.0136 -0.0121 -0.3007
 2197SOL    HW218225   3.093   0.898   9.109  0.1647 -0.0176 -1.2876
 2198SOL     OW18226   0.368   4.491   5.431 -0.4842  0.4247  0.1768
 2198SOL    HW118227   0.417   4.569   5.458 -1.8350  1.2059  0.3903
 2198SOL    HW218228   0.409   4.431   5.493  1.0410  1.0826 -0.1949
 2199SOL     OW18229   4.412   4.191   9.762  0.0691  0.1946 -0.1473
 2199SOL    HW118230   4.502   4.178   9.732  0.7446 -0.4242  2.1200
 2199SOL    HW218231   4.419   4.131   9.837  1.0488 -0.0252 -0.4086
 2200SOL     OW18232   0.699   4.602  13.533  0.3022  0.1631  0.2895
 2200SOL    HW118233   0.738   4.568  13.453 -0.2366 -1.3201  0.6505
 2200SOL    HW218234   0.610   4.619  13.502  0.6746 -1.3552 -1.5844
 2201SOL     OW18235   1.612   2.074   6.789  0.3797 -0.3046 -0.0942
 2201SOL    HW118236   1.665   2.081   6.710  1.4054  0.9273  0.7198
 2201SOL    HW218237   1.670   2.058   6.863 -1.1201 -2.3777  0.6289
 2202SOL     OW18238   4.542   4.150   8.402  0.0050  0.0011  0.0666
 2202SOL    HW118239   4.580   4.065   8.422 -2.6195 -1.3027 -0.5865
 2202SOL    HW218240   4.549   4.195   8.487  2.9342  0.3704 -0.3544
 2203SOL     OW18241   4.066   0.184   5.256 -0.1023 -0.0156  0.2078
 2203SOL    HW118242   4.046   0.131   5.179 -2.8865 -0.9258  1.5632
 2203SOL    HW218243   4.082   0.273   5.224  0.1142 -0.4311 -0.8596
 2204SOL     OW18244   1.848   3.297  17.348 -0.5889  0.0226  0.0391
 2204SOL    HW118245   1.910   3.369  17.355 -0.3400 -0.0642 -1.2681
 2204SOL    HW218246   1.764   3.338  17.326 -0.5732 -0.6112 -1.2403
 2205SOL     OW18247   3.792   0.066   5.653 -0.7769 -0.3129  0.5426
 2205SOL    HW118248   3.775   0.028   5.567  1.2648  2.0418 -0.9307
 2205SOL    HW218249   3.844   0.142   5.625 -0.3737 -0.0308  2.0207
 2206SOL     OW18250   2.213   3.008   7.695 -0.4880  0.0272 -0.5552
 2206SOL    HW118251   2.142   2.944   7.695 -1.4115  1.0588 -0.5804
 2206SOL    HW218252   2.238   3.004   7.787  0.2331  3.5940 -0.6151
 2207SOL     OW18253   4.493   0.832  15.962 -0.3921 -0.3752 -0.1882
 2207SOL    HW118254   4.559   0.771  15.994 -0.2775  0.2710  0.8371
 2207SOL    HW218255   4.525   0.857  15.876 -0.5493 -2.5844 -0.8840
 2208SOL     OW18256   3.956   3.018   7.512 -0.0234 -0.0471 -0.5549
 2208SOL    HW118257   3.922   3.102   7.481 -0.4570  0.4114  1.1665
 2208SOL    HW218258   3.963   3.031   7.606 -0.1714  0.5476 -0.6238
 2209SOL     OW18259   1.135   2.179  13.654  0.0901  0.4195  0.2225
 2209SOL    HW118260   1.169   2.268  13.652  2.1728 -0.3955 -1.6154
 2209SOL    HW218261   1.201   2.128  13.606  0.8411 -0.4243  2.1523
 2210SOL     OW18262   1.259   1.577   3.135  0.1635  0.3713  0.8999
 2210SOL    HW118263   1.233   1.486   3.144  2.3249 -0.2098  1.3386
 2210SOL    HW218264   1.343   1.581   3.180  1.1038 -1.6248 -0.6752
 2211SOL     OW18265   2.190   4.080   5.084 -0.0603  0.3642 -0.6874
 2211SOL    HW118266   2.266   4.118   5.129 -0.2576 -0.8779  0.7033
 2211SOL    HW218267   2.123   4.086   5.152  1.0336  2.0173  0.2457
 2212SOL     OW18268   0.529   0.935   7.217 -0.2304 -0.1203 -0.3939
 2212SOL    HW118269   0.449   0.988   7.219  1.1747  1.9530  1.1657
 2212SOL    HW218270   0.535   0.929   7.312 -1.2593 -3.7743 -0.5731
 2213SOL     OW18271   2.929   1.176   7.582  0.1111 -0.0003 -0.3738
 2213SOL    HW118272   2.914   1.267   7.557  1.6615  0.6660  1.0956
 2213SOL    HW218273   2.843   1.150   7.614  0.3674 -0.8254 -0.3518
 2214SOL     OW18274   1.804   0.621   9.422 -0.1397 -0.5085 -0.6003
 2214SOL    HW118275   1.762   0.706   9.439 -1.6904 -1.2850 -0.6315
 2214SOL    HW218276   1.813   0.617   9.327 -0.1837  1.9376 -0.7120
 2215SOL     OW18277   0.086   0.990  10.911  0.1519 -0.3232  0.2939
 2215SOL    HW118278   0.079   0.895  10.902  1.5134 -0.3180 -0.8231
 2215SOL    HW218279   0.062   1.020  10.823  0.9674 -0.2698  0.0870
 2216SOL     OW18280   3.852   0.396   8.250  0.0220 -0.5972  0.0036
 2216SOL    HW118281   3.873   0.318   8.199 -0.6199 -1.1231  0.5565
 2216SOL    HW218282   3.905   0.400   8.330  0.8434 -1.8656 -0.4803
 2217SOL     OW18283   0.640   4.568   9.147 -0.9039  0.7039 -0.0309
 2217SOL    HW118284   0.704   4.497   9.150 -2.3647 -0.6709 -1.4892
 2217SOL    HW218285   0.578   4.535   9.212  1.4203 -1.2701  1.1889
 2218SOL     OW18286   3.471   2.821   4.891 -0.4836  0.2699  0.1392
 2218SOL    HW118287   3.544   2.871   4.929 -0.5226  1.7659 -1.7081
 2218SOL    HW218288   3.468   2.747   4.951 -0.1342  1.0536  1.1275
 2219SOL     OW18289   1.599   4.218   8.073 -0.2214  0.2575  0.1833
 2219SOL    HW118290   1.579   4.125   8.075 -3.2703  0.9025  0.1192
 2219SOL    HW218291   1.580   4.238   7.981  0.4176  0.1818  0.0327
 2220SOL     OW18292   2.133   0.163   1.456 -0.1279 -0.1304  0.2438
 2220SOL    HW118293   2.112   0.071   1.438 -2.5412  0.8587 -2.1875
 2220SOL    HW218294   2.226   0.161   1.478 -0.0055 -1.1492 -0.3779
 2221SOL     OW18295   4.004   2.380  13.127  0.4663 -0.0082  0.0178
 2221SOL    HW118296   4.014   2.405  13.035  2.1356 -0.5877  0.0340
 2221SOL    HW218297   3.955   2.299  13.119 -0.0186  0.2287  0.5906
 2222SOL     OW18298   4.450   3.599   3.891 -0.0498  0.4687 -0.2895
 2222SOL    HW118299   4.383   3.659   3.858  1.3389  1.7004 -0.8501
 2222SOL    HW218300   4.531   3.639   3.860  0.5356  0.4496  1.2201
 2223SOL     OW18301   3.139   2.076   7.847 -0.2623  0.3117 -0.1708
 2223SOL    HW118302   3.074   2.142   7.822  0.8900  1.5004 -0.0427
 2223SOL    HW218303   3.177   2.045   7.765  0.4860 -0.3494  0.4321
 2224SOL     OW18304   4.673   0.829   8.505  0.3894  0.0159 -0.3725
 2224SOL    HW118305   4.668   0.753   8.448 -0.4827 -0.1605 -0.0534
 2224SOL    HW218306   4.614   0.885   8.455  1.5873  0.1959 -1.5863
 2225SOL     OW18307   2.124   2.922   9.404  0.2480 -0.0274 -0.4519
 2225SOL    HW118308   2.142   2.953   9.492  0.2896 -0.8617 -0.1618
 2225SOL    HW218309   2.182   2.977   9.352  1.4865 -2.6797 -1.8721
 2226SOL     OW18310   0.608   0.667   2.623 -0.4202 -0.2870 -0.4232
 2226SOL    HW118311   0.584   0.675   2.715 -2.1656  0.7278 -0.9678
 2226SOL    HW218312   0.636   0.576   2.615  1.8266  0.3111  0.8480
 2227SOL     OW18313   1.599   1.360   7.133 -0.5415  0.4039 -0.2955
 2227SOL    HW118314   1.633   1.360   7.044  1.3716  0.8525  0.4288
 2227SOL    HW218315   1.670   1.308   7.173 -1.8378 -0.9934  0.1786
 2228SOL     OW18316   2.811   1.398   3.001 -0.0031 -0.3941  0.4274
 2228SOL    HW118317   2.776   1.420   3.087  2.0670  1.0654  0.9019
 2228SOL    HW218318   2.809   1.302   3.000 -1.4301 -0.3585 -0.6125
 2229SOL     OW18319   3.596   3.884  13.424 -0.1637  0.3963  0.4561
 2229SOL    HW118320   3.514   3.837  13.439  0.0774 -0.3883 -0.7341
 2229SOL    HW218321   3.602   3.894  13.329 -0.8744  1.4250  0.5215
 2230SOL     OW18322   1.473   3.216  13.006  0.3976  0.1363  0.1368
 2230SOL    HW118323   1.405   3.201  12.940  0.5539  1.3758 -0.2958
 2230SOL    HW218324   1.428   3.285  13.055 -3.2932 -2.7832  0.8508
 2231SOL     OW18325   1.526   4.716   6.119  0.1099  0.3928 -0.3512
 2231SOL    HW118326   1.460   0.035   6.074 -1.7253 -3.5063 -2.2121
 2231SOL    HW218327   1.481   4.638   6.150  1.1557  0.3761  1.1186
 2232SOL     OW18328   2.999   4.368  13.450  0.1182  0.0214  0.0357
 2232SOL    HW118329   3.025   4.430  13.381  0.1290 -0.4406 -0.3777
 2232SOL    HW218330   2.912   4.341  13.421  0.7502 -0.1414 -1.7268
 2233SOL     OW18331   2.717   3.424   6.241 -0.2036  0.0568  0.1024
 2233SOL    HW118332   2.782   3.361   6.209 -1.7427 -1.4062 -0.1488
 2233SOL    HW218333   2.758   3.461   6.319 -0.2063  0.0155  0.1234
 2234SOL     OW18334   1.628   0.477   9.885  0.2001  0.0713 -0.1080
 2234SOL    HW118335   1.668   0.452   9.802 -0.0849  1.8475 -0.7896
 2234SOL    HW218336   1.707   0.509   9.929 -0.1186 -2.2258  2.1060
 2235SOL     OW18337   0.398   0.080   1.985  0.1980 -0.2552 -0.3543
 2235SOL    HW118338   0.390   0.175   1.996 -1.8346 -0.5776  0.9091
 2235SOL    HW218339   0.362   0.062   2.071  1.1025  1.0867  0.3059
 2236SOL     OW18340   1.340   1.998   6.820 -0.1384  0.5641  0.3872
 2236SOL    HW118341   1.311   1.976   6.908  0.3598  1.2861  0.7286
 2236SOL    HW218342   1.433   2.011   6.836 -0.5448  2.8420  0.9897
 2237SOL     OW18343   0.795   4.086  13.959 -0.2515  0.1365  0.1790
 2237SOL    HW118344   0.729   4.017  13.962 -0.7102  0.5676 -0.0242
 2237SOL    HW218345   0.862   4.051  13.900 -0.5758  0.3570 -0.3275
 2238SOL     OW18346   3.335   2.088   8.969  0.6518 -0.6418 -0.0351
 2238SOL    HW118347   3.369   2.169   9.005 -1.6792  0.6883 -0.8181
 2238SOL    HW218348   3.390   2.023   9.014 -0.2340 -0.7886  0.8576
 2239SOL     OW18349   4.211   2.809   3.887  0.7593  0.1169 -0.5175
 2239SOL    HW118350   4.281   2.809   3.822  2.5615 -0.5953  1.4149
 2239SOL    HW218351   4.140   2.845   3.834 -1.0204 -0.9496  1.1493
 2240SOL     OW18352   3.054   3.021   3.043  0.2841  0.5293 -0.2345
 2240SOL    HW118353   3.085   3.091   2.985 -3.2635  1.5866 -0.8704
 2240SOL    HW218354   3.135   2.982   3.077  1.4038  1.8885 -1.3390
 2241SOL     OW18355   4.015   3.403   9.518  0.4215  0.0683  0.2778
 2241SOL    HW118356   4.011   3.307   9.522 -0.6230 -0.0141 -2.6106
 2241SOL    HW218357   3.921   3.419   9.506  0.8883  1.5975 -1.2285
 2242SOL     OW18358   3.028   3.780   9.689  0.5418  0.2582 -0.4468
 2242SOL    HW118359   2.999   3.699   9.646 -2.0840  0.3558  1.1028
 2242SOL    HW218360   3.071   3.732   9.760 -0.0631  5.3427  3.2872
 2243SOL     OW18361   3.025   3.535   9.808  0.2251  0.0903 -0.2123
 2243SOL    HW118362   3.054   3.453   9.767 -0.2444  0.0871 -0.5380
 2243SOL    HW218363   3.071   3.538   9.892  0.9078  0.1584 -0.5852
 2244SOL     OW18364   2.265   0.896   2.274  0.6655 -0.2724 -0.0826
 2244SOL    HW118365   2.222   0.810   2.272  2.4215 -1.1771  0.7845
 2244SOL    HW218366   2.193   0.955   2.298  2.0033  1.2730  0.1455
 2245SOL     OW18367   2.141   1.402   7.818 -0.2502 -0.0809  0.1302
 2245SOL    HW118368   2.094   1.394   7.735  2.1541  0.4049 -1.2893
 2245SOL    HW218369   2.219   1.349   7.803 -0.6600 -1.0422  1.4069
 2246SOL     OW18370   2.750   3.002   6.012  0.6344 -0.9790 -0.5165
 2246SOL    HW118371   2.729   3.044   5.929  1.1502 -2.1219 -1.2248
 2246SOL    HW218372   2.775   3.079   6.063 -0.4760 -1.4753  0.7675
 2247SOL     OW18373   2.637   3.985   1.346  0.2161  0.1327 -0.3109
 2247SOL    HW118374   2.626   4.070   1.390 -3.3675  0.3697 -1.6998
 2247SOL    HW218375   2.617   4.001   1.254 -1.0255  0.5136  0.0315
 2248SOL     OW18376   4.237   2.702  12.731  0.2356  0.1711 -0.6356
 2248SOL    HW118377   4.146   2.730  12.718  0.4329  0.9611 -0.2816
 2248SOL    HW218378   4.263   2.703  12.639 -0.8847  0.0721 -0.9618
 2249SOL     OW18379   1.054   4.652   8.346  0.4349 -0.0598 -1.1175
 2249SOL    HW118380   1.047   4.579   8.408 -1.1425 -0.8097 -2.1569
 2249SOL    HW218381   1.106   4.608   8.279 -0.1812 -0.7655 -1.1349
 2250SOL     OW18382   3.013   4.220  13.148  0.0262  0.0013  0.7394
 2250SOL    HW118383   3.059   4.303  13.163  1.8569 -0.4815 -2.3327
 2250SOL    HW218384   2.926   4.260  13.158 -0.8651 -1.9064  0.5545
 2251SOL     OW18385   1.741   4.588   5.768  0.6105  0.0080 -0.3636
 2251SOL    HW118386   1.747   4.655   5.835 -0.0349  2.2550 -2.5793
 2251SOL    HW218387   1.649   4.587   5.741  0.6586  2.1917 -0.5336
 2252SOL     OW18388   2.880   1.279   9.007  0.3727  0.7747  0.4085
 2252SOL    HW118389   2.798   1.277   9.055  0.3754  4.0442  0.5898
 2252SOL    HW218390   2.863   1.335   8.931  1.0219 -0.0583 -0.3541
 2253SOL     OW18391   3.935   2.125  16.642  0.2530  0.0257  1.0795
 2253SOL    HW118392   3.965   2.202  16.593 -0.8240  0.1083  0.5439
 2253SOL    HW218393   4.012   2.110  16.697  1.0166 -0.5616 -0.1671
 2254SOL     OW18394   3.673   2.563  10.203  0.5184  0.1355  0.0619
 2254SOL    HW118395   3.700   2.603  10.286  0.1185 -0.2687  0.3861
 2254SOL    HW218396   3.657   2.641  10.150  0.6538  1.1776  1.5321
 2255SOL     OW18397   4.040   2.371   2.475 -0.0258  0.1891 -0.5369
 2255SOL    HW118398   4.044   2.419   2.558 -1.0916 -0.5147 -0.0769
 2255SOL    HW218399   4.100   2.298   2.488  0.6383  0.2006 -3.6454
 2256SOL     OW18400   0.140   2.823   8.399 -0.3741 -0.1308  0.2135
 2256SOL    HW118401   0.127   2.831   8.494 -0.4376  1.9790  0.0346
 2256SOL    HW218402   0.056   2.833   8.354  0.1711 -2.8310 -1.3793
 2257SOL     OW18403   2.400   4.399  14.042 -0.1912  0.2383 -0.1025
 2257SOL    HW118404   2.314   4.432  14.016  0.4341  2.2548  0.4049
 2257SOL    HW218405   2.383   4.313  14.080 -0.7924 -0.1792 -1.3295
 2258SOL     OW18406   2.215   2.268   8.260  0.2298  0.2552 -1.5188
 2258SOL    HW118407   2.157   2.197   8.235  0.7278 -1.0484  1.1176
 2258SOL    HW218408   2.180   2.333   8.198 -0.2515 -1.1532 -2.7219
 2259SOL     OW18409   0.192   2.118   6.377 -0.1300 -0.0824  0.2413
 2259SOL    HW118410   0.099   2.129   6.358 -0.4767  1.3373  2.7064
 2259SOL    HW218411   0.216   2.127   6.285 -0.6950 -0.8767  0.0151
 2260SOL     OW18412   2.129   3.551   3.408 -0.3035 -0.2615 -0.5326
 2260SOL    HW118413   2.137   3.569   3.314  0.7308  2.5679  0.0938
 2260SOL    HW218414   2.082   3.469   3.393 -0.9544 -0.1588  0.9119
 2261SOL     OW18415   1.885   3.479  16.523  0.2694 -0.1620  0.3102
 2261SOL    HW118416   1.904   3.534  16.447  0.1055  0.1847  0.5245
 2261SOL    HW218417   1.960   3.422  16.543  1.1038  0.1385 -1.9486
 2262SOL     OW18418   0.452   2.653   4.473 -0.2284 -0.1767  0.6988
 2262SOL    HW118419   0.519   2.687   4.413 -0.0209  1.1346  1.6694
 2262SOL    HW218420   0.495   2.585   4.525  0.7633 -1.3827 -1.6947
 2263SOL     OW18421   0.772   3.468   9.184  0.9084  0.2136  0.0717
 2263SOL    HW118422   0.833   3.519   9.237 -0.3615  3.4018 -1.5317
 2263SOL    HW218423   0.812   3.383   9.202  3.7632  1.7628  1.0538
 2264SOL     OW18424   0.081   3.529   3.181 -0.2146 -0.5433  0.2584
 2264SOL    HW118425   4.723   3.537   3.159  0.1272  2.2584 -0.0869
 2264SOL    HW218426   0.083   3.486   3.267 -1.2974 -0.1497  0.4812
 2265SOL     OW18427   0.614   4.587  13.011  0.1497 -0.2746  0.4102
 2265SOL    HW118428   0.661   4.654  12.962 -0.0343  1.2846  2.3222
 2265SOL    HW218429   0.524   4.619  13.001  0.5280  0.9661  0.9478
 2266SOL     OW18430   3.710   0.594   5.675  0.2152 -0.3659  0.2299
 2266SOL    HW118431   3.781   0.559   5.729  2.1753  1.7357 -1.0043
 2266SOL    HW218432   3.755   0.651   5.613  1.8130 -1.7600  0.0973
 2267SOL     OW18433   4.364   2.992   4.804 -0.4541  0.6547 -0.4069
 2267SOL    HW118434   4.324   2.944   4.876  0.5994  1.6164  0.8279
 2267SOL    HW218435   4.296   3.052   4.772  2.5409  2.6885 -2.9518
 2268SOL     OW18436   2.027   0.864   1.887 -0.2727 -0.3912  0.1275
 2268SOL    HW118437   1.968   0.867   1.812 -0.1465 -1.9448 -0.0315
 2268SOL    HW218438   2.007   0.778   1.923 -0.6112 -0.5086 -0.3408
 2269SOL     OW18439   0.517   4.091   2.897  0.3241  0.5742  0.6264
 2269SOL    HW118440   0.588   4.155   2.892 -0.6012  1.6119  0.5455
 2269SOL    HW218441   0.457   4.144   2.950 -1.3601 -0.7745  0.0592
 2270SOL     OW18442   2.690   1.993   3.848 -0.0178  0.6194  0.0466
 2270SOL    HW118443   2.709   1.906   3.815  0.7104  0.6134  0.4828
 2270SOL    HW218444   2.664   2.049   3.775 -1.4897  0.0833  0.1623
 2271SOL     OW18445   1.523   0.472   2.248 -0.1539 -0.8068 -0.4940
 2271SOL    HW118446   1.541   0.540   2.313 -1.8235 -2.0661  1.3035
 2271SOL    HW218447   1.433   0.494   2.223 -0.1007  1.2617  1.0467
 2272SOL     OW18448   3.614   2.865   1.934 -0.3041  0.4164  0.3393
 2272SOL    HW118449   3.594   2.835   1.845 -2.0308 -0.3741  0.9842
 2272SOL    HW218450   3.648   2.949   1.903 -1.0161 -0.6503 -3.3643
 2273SOL     OW18451   0.528   0.936   2.065 -0.5580 -0.7145  0.3110
 2273SOL    HW118452   0.572   1.020   2.080 -0.0873 -0.9779  0.4174
 2273SOL    HW218453   0.552   0.888   2.144 -0.0758  2.7428  2.2432
 2274SOL     OW18454   0.904   0.710  11.211  0.2787  0.2386  0.6250
 2274SOL    HW118455   0.932   0.657  11.285  2.4266  0.0614 -0.3124
 2274SOL    HW218456   0.809   0.710  11.227  0.0247  0.7920 -0.8022
 2275SOL     OW18457   1.024   0.695   4.433  0.0591 -0.1139  0.3846
 2275SOL    HW118458   1.033   0.738   4.518  1.3030 -1.0893  0.7574
 2275SOL    HW218459   1.032   0.776   4.384 -1.6559  1.2318  2.3521
 2276SOL     OW18460   2.875   2.573   1.704 -0.4536 -0.3170 -0.3342
 2276SOL    HW118461   2.809   2.506   1.725  0.9206 -0.9946  1.8391
 2276SOL    HW218462   2.859   2.588   1.611 -1.0865 -0.3044 -0.2266
 2277SOL     OW18463   1.719   1.921   4.685  0.0199 -0.3531  0.0099
 2277SOL    HW118464   1.764   1.972   4.753  0.1648 -0.5514  0.0636
 2277SOL    HW218465   1.631   1.913   4.720  0.1449  1.5543  0.7829
 2278SOL     OW18466   1.948   1.840   3.239  0.5906 -0.4147  0.1903
 2278SOL    HW118467   1.958   1.771   3.305 -0.9592  0.4158  1.3133
 2278SOL    HW218468   1.869   1.817   3.191  0.7605  0.2870 -0.4267
 2279SOL     OW18469   1.223   1.656   2.871 -0.6309 -0.4218  1.3345
 2279SOL    HW118470   1.207   1.624   2.959 -0.3282  0.4654  1.7119
 2279SOL    HW218471   1.317   1.672   2.868 -0.3540 -2.2783 -0.4683
 2280SOL     OW18472   1.228   4.094   4.284  0.1297  0.6772 -0.0923
 2280SOL    HW118473   1.213   4.050   4.200  0.1831 -0.0644  0.2868
 2280SOL    HW218474   1.291   4.161   4.261  1.1781 -0.7950 -1.5024
 2281SOL     OW18475   3.125   0.804   8.595  0.3993  0.3937 -0.4148
 2281SOL    HW118476   3.086   0.880   8.640  2.4182 -0.0151  2.0301
 2281SOL    HW218477   3.096   0.735   8.654 -4.0440  2.7264  0.1940
 2282SOL     OW18478   3.034   1.583   1.553 -0.0202 -0.9015 -0.2037
 2282SOL    HW118479   3.007   1.608   1.465  0.8087  0.6153 -0.0117
 2282SOL    HW218480   3.007   1.491   1.558  0.3845 -1.0517 -0.8233
 2283SOL     OW18481   3.829   1.413  16.874 -0.1681 -0.6999  0.2789
 2283SOL    HW118482   3.801   1.393  16.963  1.1577  1.1732  1.1239
 2283SOL    HW218483   3.779   1.361  16.811 -1.3027  0.4436  0.2485
 2284SOL     OW18484   4.516   2.458  10.255 -0.3788 -0.2573  0.2547
 2284SOL    HW118485   4.540   2.376  10.212 -0.9560 -1.5146  2.3720
 2284SOL    HW218486   4.427   2.461  10.219 -0.0331  1.0993 -0.4966
 2285SOL     OW18487   1.408   0.626   1.667 -0.2776 -0.0050  0.6007
 2285SOL    HW118488   1.421   0.554   1.605  0.1065 -3.2219  4.4446
 2285SOL    HW218489   1.498   0.647   1.691  0.1676 -2.0048  0.6283
 2286SOL     OW18490   2.731   0.054   4.809  0.0647 -0.5185 -0.1194
 2286SOL    HW118491   2.702   0.047   4.718 -1.4126  1.5171  0.2013
 2286SOL    HW218492   2.653   0.025   4.858 -1.2801  0.9066 -1.4219
 2287SOL     OW18493   2.732   2.877   4.413 -0.1499 -0.5335  0.0870
 2287SOL    HW118494   2.726   2.794   4.365 -0.4162 -0.7971  0.5693
 2287SOL    HW218495   2.801   2.854   4.476  0.4196 -0.3271 -0.4541
 2288SOL     OW18496   4.028   4.083   5.819 -0.1265  0.0422 -0.4365
 2288SOL    HW118497   3.999   4.157   5.765  1.8820 -0.3592 -2.0712
 2288SOL    HW218498   4.061   4.121   5.900  0.8901 -0.5542 -0.5751
 2289SOL     OW18499   0.289   4.558   3.220  0.2076 -0.2994  0.4620
 2289SOL    HW118500   0.196   4.535   3.221  0.0812  0.2370  0.9540
 2289SOL    HW218501   0.275   4.651   3.205 -2.0325 -0.8295 -0.8634
 2290SOL     OW18502   1.413   1.662   2.240  0.1024 -0.1867 -0.3214
 2290SOL    HW118503   1.498   1.628   2.267  0.1399  0.7876  0.8107
 2290SOL    HW218504   1.356   1.635   2.312  0.5588 -1.6894 -0.5203
 2291SOL     OW18505   0.330   2.416  17.292  0.4017  0.2669 -0.1330
 2291SOL    HW118506   0.240   2.437  17.317  0.1069  0.2572 -1.2216
 2291SOL    HW218507   0.312   2.323  17.277  0.7419  0.1784 -0.0013
 2292SOL     OW18508   1.240   0.261   0.512 -0.3812  0.3339  0.0681
 2292SOL    HW118509   1.260   0.338   0.564  0.1355 -1.1009  1.9921
 2292SOL    HW218510   1.215   0.202   0.583  0.5744 -0.7540 -0.4851
 2293SOL     OW18511   4.015   2.380  10.025 -0.2129  0.2530 -0.3936
 2293SOL    HW118512   3.976   2.466  10.016 -1.0375  0.0317  0.9589
 2293SOL    HW218513   3.981   2.330   9.951 -0.3927 -1.3404  0.7598
 2294SOL     OW18514   1.217   3.151  10.861  0.0760  0.0199  0.4260
 2294SOL    HW118515   1.227   3.240  10.826  0.0062 -0.6550 -1.3442
 2294SOL    HW218516   1.256   3.165  10.947 -0.5183 -2.0106  1.0301
 2295SOL     OW18517   3.294   0.500  13.624 -0.5803 -1.2677  0.1501
 2295SOL    HW118518   3.301   0.451  13.706  0.8548 -0.5366  0.4825
 2295SOL    HW218519   3.387   0.519  13.608 -0.9780  1.5151  1.1128
 2296SOL     OW18520   3.898   3.980   2.303 -0.3079  0.3462 -0.1637
 2296SOL    HW118521   3.902   3.913   2.371  0.8082  0.5304 -0.0427
 2296SOL    HW218522   3.936   4.052   2.354 -0.5268 -0.9954  1.8768
 2297SOL     OW18523   1.130   3.590   3.333 -0.3930  0.3245 -0.1068
 2297SOL    HW118524   1.173   3.537   3.400 -1.2618  0.1151  0.2783
 2297SOL    HW218525   1.039   3.584   3.360 -0.7052 -0.1292 -1.2935
 2298SOL     OW18526   4.073   0.963   7.662 -0.4992 -0.3388 -0.1812
 2298SOL    HW118527   4.090   0.884   7.713 -1.2791 -0.1803  0.3350
 2298SOL    HW218528   4.072   1.041   7.718  1.7019 -1.2447  1.1336
 2299SOL     OW18529   2.800   0.101   4.194  0.3934 -0.0253 -0.5845
 2299SOL    HW118530   2.837   0.014   4.183  3.1088  1.0697 -0.0151
 2299SOL    HW218531   2.874   0.146   4.154  0.7377  0.6296  0.7536
 2300SOL     OW18532   0.143   3.837  14.745  0.0494 -0.1947 -0.8207
 2300SOL    HW118533   0.195   3.786  14.807  1.3749 -0.3951 -2.0888
 2300SOL    HW218534   0.060   3.831  14.794  1.1463 -0.7806  0.9566
 2301SOL     OW18535   1.435   2.609   3.888  0.1780  0.0345  0.4236
 2301SOL    HW118536   1.422   2.689   3.837 -1.2793  0.7454  1.9326
 2301SOL    HW218537   1.389   2.538   3.842  0.2587 -0.6541  1.4099
 2302SOL     OW18538   1.580   0.817   1.156 -0.5522  0.3628  0.1012
 2302SOL    HW118539   1.589   0.764   1.235  1.4397 -0.5584 -0.7553
 2302SOL    HW218540   1.673   0.827   1.139 -0.4820  0.8853  0.7850
 2303SOL     OW18541   1.464   2.314   4.343  0.2908 -0.6852 -0.3788
 2303SOL    HW118542   1.452   2.219   4.355 -2.0619 -0.6193 -2.4007
 2303SOL    HW218543   1.441   2.319   4.251 -1.3813  1.0948  0.1570
 2304SOL     OW18544   0.767   3.721   5.595 -0.5050  0.3515 -0.6890
 2304SOL    HW118545   0.683   3.675   5.586  0.5714 -2.1208  1.9975
 2304SOL    HW218546   0.805   3.708   5.509  1.7544  0.8243  0.2511
 2305SOL     OW18547   0.882   4.544   1.430 -0.2190  0.2171  0.3093
 2305SOL    HW118548   0.936   4.598   1.373 -2.3336  2.0599  0.0741
 2305SOL    HW218549   0.856   4.614   1.489  2.8814  1.1034  0.5736
 2306SOL     OW18550   3.851   0.936   7.456  0.4031  0.0482 -0.0054
 2306SOL    HW118551   3.929   0.935   7.512 -0.5475 -2.6042  1.2894
 2306SOL    HW218552   3.880   0.880   7.384 -0.2080 -1.0829  0.6254
 2307SOL     OW18553   1.298   0.937  15.905  0.0604 -0.3523 -0.2333
 2307SOL    HW118554   1.366   0.871  15.920  1.5920  0.6630 -2.5167
 2307SOL    HW218555   1.224   0.882  15.882 -0.5973 -0.1318  1.3718
 2308SOL     OW18556   2.497   3.722   8.356  0.4422  0.1209  0.3659
 2308SOL    HW118557   2.449   3.755   8.279 -0.4587  0.5532  1.1107
 2308SOL    HW218558   2.435   3.664   8.400  0.5145  1.5632  2.3644
 2309SOL     OW18559   3.578   0.720   4.186 -0.0524 -0.1974  0.2644
 2309SOL    HW118560   3.602   0.763   4.268 -0.3100  0.6961 -0.1196
 2309SOL    HW218561   3.483   0.716   4.190 -0.0365 -0.5853  0.2290
 2310SOL     OW18562   3.268   0.934   9.202 -0.5520 -0.0677  0.2395
 2310SOL    HW118563   3.279   0.853   9.253  1.7145  0.3755  0.4316
 2310SOL    HW218564   3.316   1.002   9.248  1.1914 -2.6852  2.3167
 2311SOL     OW18565   0.208   1.629  11.587  0.2903  0.1060 -0.6125
 2311SOL    HW118566   0.279   1.687  11.614 -1.2481  1.0308  1.4122
 2311SOL    HW218567   0.157   1.668  11.516  2.2936  1.8944 -1.0670
 2312SOL     OW18568   4.496   4.534   0.221 -0.2343 -0.2702 -0.3270
 2312SOL    HW118569   4.558   4.471   0.258 -0.8624 -1.1877 -0.8331
 2312SOL    HW218570   4.488   4.506   0.129  0.7487 -1.2805 -0.1009
 2313SOL     OW18571   2.357   2.975   3.715 -0.4159  0.2532 -0.1248
 2313SOL    HW118572   2.396   2.909   3.657  0.4431 -0.8953  1.7421
 2313SOL    HW218573   2.268   2.943   3.730  0.7757 -3.0195  0.1104
 2314SOL     OW18574   0.994   1.718  11.459  0.3934 -0.0538  0.0724
 2314SOL    HW118575   0.964   1.669  11.535  0.3564 -0.2752 -0.0854
 2314SOL    HW218576   1.088   1.730  11.474  0.3174  0.6604  0.0022
 2315SOL     OW18577   1.684   4.023  10.478 -0.4156  0.1876  0.2974
 2315SOL    HW118578   1.708   3.987  10.392  0.7166  1.9914 -0.1450
 2315SOL    HW218579   1.632   3.955  10.522 -1.1347 -0.6513 -1.8391
 2316SOL     OW18580   2.513   4.622  15.783 -0.2298  0.2533  0.8058
 2316SOL    HW118581   2.554   4.683  15.844  0.0885 -0.3848  1.2363
 2316SOL    HW218582   2.579   4.600  15.717 -1.8467 -0.9921 -0.3868
 2317SOL     OW18583   3.913   3.415  15.903  0.1730  1.2374  0.0987
 2317SOL    HW118584   3.903   3.445  15.993 -2.8368 -0.2585  0.2778
 2317SOL    HW218585   3.971   3.475  15.855  4.0000 -1.6383  1.1533
 2318SOL     OW18586   4.692   2.042   7.797  0.4038  0.1456 -0.3809
 2318SOL    HW118587   0.035   2.015   7.747  0.3358 -0.8449  0.0428
 2318SOL    HW218588   4.733   2.077   7.876  0.9979  1.0497 -1.1014
 2319SOL     OW18589   0.552   1.017   8.469  0.3486  0.4306 -0.3739
 2319SOL    HW118590   0.555   0.934   8.516 -0.6244  1.3726  1.3317
 2319SOL    HW218591   0.562   1.076   8.543 -1.0410  0.0190  0.1372
 2320SOL     OW18592   1.507   2.751   7.430 -0.1713 -0.4910 -0.2412
 2320SOL    HW118593   1.524   2.701   7.510 -0.2631 -2.5329 -1.4986
 2320SOL    HW218594   1.425   2.717   7.395  0.0822 -0.9191 -0.4078
 2321SOL     OW18595   3.941   4.327   5.255  0.2206 -0.3216  0.3108
 2321SOL    HW118596   4.014   4.389   5.252  1.1102 -1.4714 -1.4309
 2321SOL    HW218597   3.868   4.379   5.288  1.4831  1.5950  0.0952
 2322SOL     OW18598   1.903   1.393   7.982  0.0968  0.8647  0.4625
 2322SOL    HW118599   1.996   1.387   7.960 -0.2157 -2.6143  0.0009
 2322SOL    HW218600   1.892   1.327   8.052  3.1346 -0.3364 -0.1882
 2323SOL     OW18601   0.084   4.301  15.183 -0.3156 -0.1348  0.1119
 2323SOL    HW118602   0.053   4.228  15.130 -0.9314 -0.2004  0.5616
 2323SOL    HW218603   0.175   4.276  15.201 -0.6673 -1.0449  0.6763
 2324SOL     OW18604   0.170   0.723  14.380 -0.0442  0.6345 -0.5127
 2324SOL    HW118605   0.261   0.726  14.410  0.2164 -1.4198 -1.0528
 2324SOL    HW218606   0.163   0.628  14.373 -0.2043  0.7890 -2.3905
 2325SOL     OW18607   2.716   2.093   7.923 -0.0483 -0.6562 -0.6436
 2325SOL    HW118608   2.627   2.124   7.904  0.1602  0.4767  0.2924
 2325SOL    HW218609   2.714   2.131   8.011 -1.5596  0.5650 -1.1999
 2326SOL     OW18610   4.173   1.856  14.578 -0.4950 -0.7716 -0.7515
 2326SOL    HW118611   4.224   1.795  14.524 -0.8567 -0.2959 -1.6241
 2326SOL    HW218612   4.137   1.916  14.513  1.7507  0.0869 -1.2320
 2327SOL     OW18613   2.571   4.136   2.996 -0.7589 -0.6629 -0.2553
 2327SOL    HW118614   2.633   4.064   2.983  0.5826  0.1572  1.6569
 2327SOL    HW218615   2.499   4.086   3.033 -0.3151  0.1038  1.6674
 2328SOL     OW18616   3.460   4.156   0.370  0.1049  0.5105  0.5476
 2328SOL    HW118617   3.411   4.085   0.327  0.2673  1.1124 -0.6378
 2328SOL    HW218618   3.442   4.219   0.300 -1.6765 -0.7041 -0.0912
 2329SOL     OW18619   4.208   1.615   5.281  0.3614  0.1751  0.0938
 2329SOL    HW118620   4.255   1.542   5.321 -0.6163  1.0069  2.7374
 2329SOL    HW218621   4.183   1.663   5.360  0.1456 -1.5317  1.0718
 2330SOL     OW18622   2.119   2.575   5.427  0.0286  0.4276 -0.1671
 2330SOL    HW118623   2.024   2.572   5.434  0.0529  0.5200  0.2252
 2330SOL    HW218624   2.127   2.574   5.332  0.2161 -1.5597 -0.1302
 2331SOL     OW18625   3.044   1.630   6.560  0.3858 -0.2905  0.1864
 2331SOL    HW118626   2.981   1.569   6.599  1.4649 -0.4078  1.7373
 2331SOL    HW218627   3.055   1.604   6.468 -1.2923  2.8322 -0.8990
 2332SOL     OW18628   1.156   3.742  16.988  0.2868  0.1681  0.1103
 2332SOL    HW118629   1.132   3.650  17.004  2.4316 -0.2975  0.6823
 2332SOL    HW218630   1.165   3.773  17.078 -1.5258  0.9439  0.0171
 2333SOL     OW18631   3.924   1.260   5.616 -0.3051  0.1039 -0.3955
 2333SOL    HW118632   3.857   1.193   5.632  1.0428 -1.0817  0.3114
 2333SOL    HW218633   3.871   1.339   5.627 -0.8346 -0.4141  0.7735
 2334SOL     OW18634   2.630   4.049  17.139 -0.1605  1.0237 -0.2281
 2334SOL    HW118635   2.691   3.982  17.109  0.5909  1.1543  0.9972
 2334SOL    HW218636   2.567   4.067  17.069  0.8481  0.2999 -1.3275
 2335SOL     OW18637   0.977   1.925   7.518 -0.3433  0.2034 -0.1281
 2335SOL    HW118638   0.961   2.014   7.488  1.7858  0.2219 -1.2318
 2335SOL    HW218639   1.018   1.949   7.601  0.9558  1.8535 -1.2589
 2336SOL     OW18640   0.413   1.027  16.235 -0.1092  0.7050  0.1678
 2336SOL    HW118641   0.338   1.041  16.178 -0.4650  1.5685  0.8526
 2336SOL    HW218642   0.486   1.040  16.175  0.8237  0.8716  1.3339
 2337SOL     OW18643   3.044   3.165   4.395  0.0040 -0.0945 -0.0124
 2337SOL    HW118644   3.052   3.082   4.441 -2.1199 -0.3296 -0.0669
 2337SOL    HW218645   3.069   3.136   4.307  1.9584  0.8087  0.2356
 2338SOL     OW18646   0.726   3.795   3.172 -0.1110 -0.0386  0.2401
 2338SOL    HW118647   0.712   3.733   3.100 -1.0965  0.4196  0.0397
 2338SOL    HW218648   0.774   3.864   3.125 -0.9823  1.1016  1.0120
 2339SOL     OW18649   4.666   1.758   0.264 -0.3213  0.3209 -0.3333
 2339SOL    HW118650   4.653   1.704   0.185  0.2793 -2.5767  1.5537
 2339SOL    HW218651   0.014   1.725   0.300  0.8181  2.6573 -0.7645
 2340SOL     OW18652   1.702   4.311  16.288  0.1503  0.4629 -0.0581
 2340SOL    HW118653   1.728   4.375  16.222 -0.2939 -0.3090 -0.9912
 2340SOL    HW218654   1.768   4.340  16.350  0.1826 -0.4239  0.3202
 2341SOL     OW18655   2.517   1.876  10.641 -0.4996 -0.3885  0.1041
 2341SOL    HW118656   2.479   1.869  10.553 -0.7957  1.1680  0.1131
 2341SOL    HW218657   2.515   1.783  10.664 -2.5424 -0.3944 -0.1447
 2342SOL     OW18658   1.581   1.381  14.996 -0.3066  0.2505  0.1833
 2342SOL    HW118659   1.563   1.416  15.083  0.9988 -0.5824  0.7869
 2342SOL    HW218660   1.511   1.424  14.948 -0.5113  0.0577  0.3090
 2343SOL     OW18661   1.374   0.948   7.135  0.1598  0.3448  0.8828
 2343SOL    HW118662   1.350   1.041   7.137 -5.8285 -1.2073  0.0771
 2343SOL    HW218663   1.292   0.913   7.168 -1.3006  1.3388 -1.6694
 2344SOL     OW18664   0.830   4.700   3.871  0.0205  0.4272 -0.5202
 2344SOL    HW118665   0.898   4.644   3.908  0.3334  0.1270 -1.5429
 2344SOL    HW218666   0.858   0.052   3.901 -0.1116  0.6969 -1.1783
 2345SOL     OW18667   3.964   2.977  14.800  0.4967  0.5960  0.1458
 2345SOL    HW118668   4.008   2.948  14.879 -1.4841  1.9360  1.7329
 2345SOL    HW218669   3.927   3.053  14.845 -2.8472 -0.7646 -0.3444
 2346SOL     OW18670   3.369   4.214   4.451 -0.6084 -0.0024  0.1371
 2346SOL    HW118671   3.433   4.146   4.470 -0.3708  0.1989  0.0561
 2346SOL    HW218672   3.379   4.282   4.518 -1.1408 -1.6555  1.9039
 2347SOL     OW18673   3.884   3.143   3.156 -0.3546  0.1995 -0.0986
 2347SOL    HW118674   3.951   3.212   3.156  0.4410 -0.5623 -0.5995
 2347SOL    HW218675   3.814   3.196   3.117 -0.9772  0.7691  1.8209
 2348SOL     OW18676   0.114   0.394  14.079 -0.7264  0.5211  0.5113
 2348SOL    HW118677   0.023   0.390  14.108 -0.7013 -0.9070  0.3633
 2348SOL    HW218678   0.098   0.411  13.986  2.7002  0.1189 -0.1372
 2349SOL     OW18679   0.322   3.005   6.568 -0.1542  1.1563  0.4647
 2349SOL    HW118680   0.301   2.928   6.516 -1.4975  1.8655 -0.0490
 2349SOL    HW218681   0.408   2.980   6.603 -0.2015 -0.1848 -0.3877
 2350SOL     OW18682   1.983   3.737   6.241 -0.0815 -0.2073 -0.2159
 2350SOL    HW118683   1.943   3.666   6.192 -0.7849 -0.9411  1.4016
 2350SOL    HW218684   2.070   3.697   6.248  0.2572  0.5889  0.2567
 2351SOL     OW18685   2.448   0.635   0.101 -0.3421 -0.1849  0.5009
 2351SOL    HW118686   2.513   0.579   0.058 -1.7755 -2.0787  0.8216
 2351SOL    HW218687   2.376   0.597   0.051  0.0450  0.2075 -0.3395
 2352SOL     OW18688   0.038   1.420   2.320 -0.2581  0.3202 -0.2679
 2352SOL    HW118689   4.725   1.387   2.397 -0.7267 -1.3956 -1.2919
 2352SOL    HW218690   0.042   1.336   2.275 -2.2142 -0.8493  1.7101
 2353SOL     OW18691   4.434   3.887   6.350  0.0457 -0.2235 -0.1946
 2353SOL    HW118692   4.410   3.910   6.260  0.8787 -1.5417 -0.7501
 2353SOL    HW218693   4.370   3.942   6.396  1.2468  2.4276 -1.6575
 2354SOL     OW18694   2.713   4.065   1.739  0.5541 -0.5096  0.1434
 2354SOL    HW118695   2.757   3.990   1.699  0.3032 -0.8980  0.5970
 2354SOL    HW218696   2.665   4.106   1.667  1.4850  4.6687  2.4808
 2355SOL     OW18697   4.602   1.456   9.610 -0.5795  0.9498 -0.3319
 2355SOL    HW118698   4.646   1.386   9.658  0.5447  1.0352 -1.2417
 2355SOL    HW218699   4.644   1.451   9.524  2.3116  2.2502  1.0229
 2356SOL     OW18700   0.492   1.563  11.177 -0.6838  0.0606  0.3897
 2356SOL    HW118701   0.550   1.636  11.157  0.4211 -0.8626  0.1906
 2356SOL    HW218702   0.502   1.511  11.097  0.0518  0.3461  0.2960
 2357SOL     OW18703   0.839   1.009   2.123 -0.3487 -0.5264 -0.4139
 2357SOL    HW118704   0.899   0.972   2.059 -2.4298 -3.4034 -0.7082
 2357SOL    HW218705   0.782   1.071   2.077 -1.7381 -2.3491 -1.1466
 2358SOL     OW18706   1.306   3.520   7.474  0.3707  0.5168  0.6339
 2358SOL    HW118707   1.368   3.590   7.455 -1.4727  2.0041  0.1072
 2358SOL    HW218708   1.270   3.559   7.554  0.5818  1.4453  0.2702
 2359SOL     OW18709   1.801   0.862   5.218  0.9208  0.4206 -0.2109
 2359SOL    HW118710   1.850   0.855   5.136  1.1783  0.7393 -0.0863
 2359SOL    HW218711   1.784   0.956   5.229 -1.4890 -0.0552  0.1891
 2360SOL     OW18712   0.291   1.129   7.505 -0.0746  0.0531  0.6133
 2360SOL    HW118713   0.244   1.186   7.445  0.5812 -0.8585 -0.7549
 2360SOL    HW218714   0.379   1.166   7.502 -0.7535  1.7417  0.9359
 2361SOL     OW18715   0.389   1.000  10.836  0.4412  0.0809  0.1255
 2361SOL    HW118716   0.338   1.008  10.756 -1.0319  0.0075  1.0670
 2361SOL    HW218717   0.390   0.905  10.852 -0.3822  0.0971  0.2832
 2362SOL     OW18718   0.179   1.339  17.403  0.2979 -0.6012  0.0767
 2362SOL    HW118719   0.185   1.428  17.370  1.6276 -0.7241  0.0087
 2362SOL    HW218720   0.083   1.330  17.404  0.5180 -2.9730  0.4545
 2363SOL     OW18721   0.441   2.830   1.809  0.0223 -0.0776  0.3186
 2363SOL    HW118722   0.437   2.770   1.883 -1.1648 -0.4572 -0.0610
 2363SOL    HW218723   0.430   2.758   1.746 -2.3417  0.0174  0.6353
 2364SOL     OW18724   1.617   1.135  14.838  0.0665  0.0681 -0.2778
 2364SOL    HW118725   1.623   1.055  14.786 -0.9304  0.3541 -0.8350
 2364SOL    HW218726   1.524   1.128  14.858  0.8551 -0.6747  3.2534
 2365SOL     OW18727   3.132   4.708   9.228  0.0361  0.2467 -0.0786
 2365SOL    HW118728   3.103   0.036   9.161  3.1733  0.4635 -1.2370
 2365SOL    HW218729   3.186   4.646   9.178  1.0055  0.5196  0.6382
 2366SOL     OW18730   3.607   0.266   2.511 -0.0663 -0.4099 -0.2241
 2366SOL    HW118731   3.648   0.180   2.519 -1.6362 -1.2505 -1.2362
 2366SOL    HW218732   3.604   0.277   2.416  0.1846 -0.7348 -0.2713
 2367SOL     OW18733   3.261   4.447   7.051  0.1931 -0.4910  0.6272
 2367SOL    HW118734   3.214   4.471   6.971 -0.6251 -1.2673  0.8726
 2367SOL    HW218735   3.256   4.352   7.062 -1.0994 -0.5537 -0.4129
 2368SOL     OW18736   3.953   4.573   7.001  0.2445  0.4238 -0.3142
 2368SOL    HW118737   3.962   4.478   6.996  0.5846  0.3819  1.0605
 2368SOL    HW218738   3.875   4.575   7.056 -0.3118 -1.3462 -1.0312
 2369SOL     OW18739   3.372   4.561  11.330 -0.4055  0.1185 -0.2860
 2369SOL    HW118740   3.464   4.539  11.315 -0.0323  1.5967 -0.1426
 2369SOL    HW218741   3.384   4.604  11.415 -0.5969 -1.3319  0.4751
 2370SOL     OW18742   3.690   0.581   3.209  0.4892 -0.4027 -0.3565
 2370SOL    HW118743   3.631   0.541   3.146 -1.3982 -1.1054  1.8768
 2370SOL    HW218744   3.746   0.513   3.247  1.0961  0.6800  0.7002
 2371SOL     OW18745   3.039   2.298   4.891  0.1175  0.0672  0.3643
 2371SOL    HW118746   3.091   2.358   4.945 -2.4639  1.4917  1.2964
 2371SOL    HW218747   3.043   2.215   4.938 -1.1357  0.5401  1.3218
 2372SOL     OW18748   1.899   0.251   7.726 -0.0183 -0.0121  0.6786
 2372SOL    HW118749   1.956   0.221   7.796  1.6418  0.6676 -0.3801
 2372SOL    HW218750   1.962   0.279   7.659  2.7430 -2.0842  2.4196
 2373SOL     OW18751   0.636   1.051  16.067  0.2460  0.5048 -0.0317
 2373SOL    HW118752   0.598   1.003  15.993  1.3328  0.7423 -0.7437
 2373SOL    HW218753   0.693   1.112  16.020  0.3349  0.0281 -0.5376
 2374SOL     OW18754   0.097   1.277   7.749  0.4009 -0.4545 -1.2059
 2374SOL    HW118755   0.081   1.372   7.753 -0.5787 -0.7007  0.3381
 2374SOL    HW218756   0.124   1.272   7.657 -0.4261  2.7964 -1.6285
 2375SOL     OW18757   2.678   1.584  11.836  0.6974  0.1002  0.7028
 2375SOL    HW118758   2.663   1.633  11.917 -1.4042  0.4412  0.1108
 2375SOL    HW218759   2.695   1.655  11.774  1.7422 -0.0887  0.7680
 2376SOL     OW18760   2.088   2.909   7.249 -0.3523  0.1198 -0.3215
 2376SOL    HW118761   2.057   2.991   7.212  0.2948  0.7416  0.5186
 2376SOL    HW218762   2.156   2.944   7.306 -0.4361  3.5100 -2.3218
 2377SOL     OW18763   2.839   1.924  17.735  0.2732  0.2104  0.1062
 2377SOL    HW118764   2.803   1.913  17.647 -0.7966  2.3293  0.2792
 2377SOL    HW218765   2.759   1.924   0.052  0.4151 -2.2251  0.3490
 2378SOL     OW18766   2.455   2.798   1.162 -0.1106 -0.4613  0.0696
 2378SOL    HW118767   2.461   2.712   1.203  1.0367  0.7770  2.5369
 2378SOL    HW218768   2.419   2.856   1.229  1.9362 -2.0250  2.5059
 2379SOL     OW18769   2.303   2.937   7.415 -0.3819 -0.2532  0.0163
 2379SOL    HW118770   2.396   2.941   7.436  0.2164  1.7491 -3.0757
 2379SOL    HW218771   2.257   2.944   7.499  1.8769  0.7967  1.1674
 2380SOL     OW18772   3.887   3.520   2.996  0.6751 -0.0184 -0.3886
 2380SOL    HW118773   3.914   3.463   2.924 -1.0504 -1.6702  0.2654
 2380SOL    HW218774   3.838   3.446   3.031 -0.5311  0.6951 -0.5512
 2381SOL     OW18775   3.167   1.301   1.276  0.3228  0.0360  0.1535
 2381SOL    HW118776   3.123   1.346   1.204  1.2738  0.2608 -0.2947
 2381SOL    HW218777   3.124   1.217   1.258  1.5839 -0.8342  1.2281
 2382SOL     OW18778   4.246   1.501   4.944 -0.7499 -0.4449 -0.0485
 2382SOL    HW118779   4.325   1.463   4.984  0.6619  3.1251  0.5231
 2382SOL    HW218780   4.250   1.588   4.983 -0.5424 -0.6769  0.4469
 2383SOL     OW18781   3.131   4.534  11.236 -0.1016 -0.8946  0.3579
 2383SOL    HW118782   3.171   4.470  11.177  2.1460  0.2837  0.5722
 2383SOL    HW218783   3.208   4.549  11.291 -1.1159 -1.2425  1.8478
 2384SOL     OW18784   2.482   1.873   7.676 -0.0994  0.5113 -0.4051
 2384SOL    HW118785   2.443   1.813   7.613  0.5148 -1.1484  0.7884
 2384SOL    HW218786   2.572   1.841   7.688 -0.4766 -0.3012  0.2533
 2385SOL     OW18787   0.982   0.210   5.809  0.3665  0.3026 -0.4757
 2385SOL    HW118788   1.036   0.166   5.873 -1.5278 -0.4083  0.6319
 2385SOL    HW218789   1.055   0.241   5.755  1.2887 -1.0447  0.0194
 2386SOL     OW18790   2.251   1.913   7.971 -0.1099  0.1124  0.2430
 2386SOL    HW118791   2.193   1.837   7.965  1.5957 -1.4567  3.3772
 2386SOL    HW218792   2.330   1.861   7.966 -0.8181 -1.1996  2.6477
 2387SOL     OW18793   0.622   1.554   7.242  0.0800 -0.6674 -0.0101
 2387SOL    HW118794   0.713   1.580   7.256 -0.1508 -0.4784  1.1810
 2387SOL    HW218795   0.631   1.518   7.154 -0.4258 -0.0671 -0.3010
 2388SOL     OW18796   2.233   2.840   6.321 -0.2872 -0.0655  0.1917
 2388SOL    HW118797   2.253   2.930   6.293 -0.2913 -0.2182 -0.2979
 2388SOL    HW218798   2.267   2.785   6.251 -0.0782 -0.7113  0.8100
 2389SOL     OW18799   4.140   0.475   8.641  0.0341  0.5938  0.5455
 2389SOL    HW118800   4.066   0.530   8.614  0.0803  0.9354  1.1213
 2389SOL    HW218801   4.102   0.434   8.719 -2.0181  1.3084 -0.0621
 2390SOL     OW18802   0.614   2.146  16.742 -0.2390  0.2683  0.1398
 2390SOL    HW118803   0.639   2.238  16.743  1.3407 -0.1686  0.8279
 2390SOL    HW218804   0.579   2.126  16.829  0.5764  1.4879  0.7372
 2391SOL     OW18805   0.998   1.241   9.212  0.1001  0.5534  0.2045
 2391SOL    HW118806   1.044   1.285   9.141  0.3248  0.5814  0.3672
 2391SOL    HW218807   1.045   1.256   9.295 -2.1884 -0.6097  1.7194
 2392SOL     OW18808   3.982   0.407   1.257 -0.2214 -0.2820 -0.5997
 2392SOL    HW118809   4.052   0.360   1.303 -0.6603 -1.5297 -1.2223
 2392SOL    HW218810   3.974   0.362   1.173 -0.0683 -3.1571  0.9157
 2393SOL     OW18811   1.114   3.913  14.046  0.4185  0.7204  0.3612
 2393SOL    HW118812   1.146   3.829  14.013 -1.2398  1.4815 -3.1369
 2393SOL    HW218813   1.081   3.947  13.963 -1.6663 -1.5514  0.2676
 2394SOL     OW18814   2.032   1.462  13.358  0.2510  0.3475 -0.1350
 2394SOL    HW118815   2.064   1.373  13.372 -3.0993 -1.2728 -3.0329
 2394SOL    HW218816   2.066   1.468  13.268  2.1162  2.5686  0.7118
 2395SOL     OW18817   3.743   0.907  12.818  0.3228  0.1583  0.5768
 2395SOL    HW118818   3.772   0.909  12.727  0.1252  1.6762  0.5433
 2395SOL    HW218819   3.649   0.920  12.806  0.2630 -1.7704 -0.9157
 2396SOL     OW18820   4.610   2.955   8.216 -0.4375  0.2917 -0.1083
 2396SOL    HW118821   4.599   2.866   8.181 -0.0107  0.3895 -0.5038
 2396SOL    HW218822   4.534   2.968   8.272  0.9519  1.1521  1.5386
 2397SOL     OW18823   3.547   0.196  11.641  0.3876  0.0911 -0.9980
 2397SOL    HW118824   3.506   0.176  11.726  0.0129  0.2268 -1.1470
 2397SOL    HW218825   3.639   0.196  11.668  0.0050 -0.5187  0.3193
 2398SOL     OW18826   3.046   1.843   6.003  1.0101  0.1080 -0.1369
 2398SOL    HW118827   3.073   1.914   6.061  1.7050  0.2809 -0.6652
 2398SOL    HW218828   2.952   1.858   6.009  0.6551 -1.8738 -0.7907
 2399SOL     OW18829   1.684   0.147   7.509 -0.1424 -0.0252  0.5152
 2399SOL    HW118830   1.735   0.222   7.541 -0.1407 -0.5238  1.6797
 2399SOL    HW218831   1.754   0.082   7.514  0.6538  0.6629 -1.5268
 2400SOL     OW18832   1.691   3.740   1.682 -0.6569 -0.5070 -0.1433
 2400SOL    HW118833   1.683   3.668   1.744 -1.0230 -0.7074 -0.4251
 2400SOL    HW218834   1.599   3.763   1.673 -0.9649 -1.7214 -0.0450
 2401SOL     OW18835   2.626   3.240   9.018  0.3524 -0.1083  0.2660
 2401SOL    HW118836   2.627   3.335   9.033 -0.7256 -0.4937  2.7813
 2401SOL    HW218837   2.652   3.233   8.926  1.0963  1.3968  0.3577
 2402SOL     OW18838   4.296   0.786   7.198  0.2848 -0.3928 -0.4149
 2402SOL    HW118839   4.344   0.788   7.281  2.4459  0.9330 -1.6731
 2402SOL    HW218840   4.209   0.803   7.232  1.2625  1.1220  1.3152
 2403SOL     OW18841   1.646   4.025   7.251 -0.3790 -0.3702 -0.0711
 2403SOL    HW118842   1.638   4.119   7.231 -1.5457  0.0969  2.6682
 2403SOL    HW218843   1.731   4.001   7.214 -1.6435 -1.4751 -2.2309
 2404SOL     OW18844   3.346   1.328  17.309 -0.1907  0.7232 -0.0066
 2404SOL    HW118845   3.388   1.345  17.394  0.2191  1.9473 -0.4486
 2404SOL    HW218846   3.310   1.413  17.282  0.5219  0.9970 -0.1180
 2405SOL     OW18847   2.738   0.122  15.675 -0.1611  0.3139  0.0516
 2405SOL    HW118848   2.819   0.167  15.701 -0.8891  0.5729  1.8916
 2405SOL    HW218849   2.755   0.038  15.718 -1.2479 -0.0042 -0.1555
 2406SOL     OW18850   3.855   2.298   6.438 -0.1466  0.3912  0.3821
 2406SOL    HW118851   3.783   2.341   6.392  0.9438 -0.8911 -2.5267
 2406SOL    HW218852   3.909   2.377   6.443  1.8426 -0.8564 -1.4847
 2407SOL     OW18853   0.512   3.646   0.979 -0.3293 -0.4792 -0.2525
 2407SOL    HW118854   0.492   3.702   0.904  0.3443  0.7357  0.4814
 2407SOL    HW218855   0.432   3.594   0.991 -1.5287  0.7069 -3.1701
 2408SOL     OW18856   2.452   3.727   8.911  0.3367 -0.0050 -0.6272
 2408SOL    HW118857   2.530   3.780   8.897  1.4596 -1.8044 -1.2184
 2408SOL    HW218858   2.401   3.781   8.971  1.4104  2.5061 -1.9828
 2409SOL     OW18859   4.405   0.679   2.442 -0.2058  0.1642  0.0889
 2409SOL    HW118860   4.468   0.676   2.370  0.3727  1.7136  0.5339
 2409SOL    HW218861   4.396   0.774   2.446 -1.4256  0.0277  0.7603
 2410SOL     OW18862   1.153   3.807   8.925 -0.0321  0.0111  0.0671
 2410SOL    HW118863   1.237   3.848   8.904 -0.3507  0.6138 -0.0359
 2410SOL    HW218864   1.148   3.824   9.019 -0.1655 -1.6958  0.3828
 2411SOL     OW18865   1.626   2.418   6.254  0.1101  0.2394 -0.3437
 2411SOL    HW118866   1.548   2.446   6.206  1.0823 -0.6298 -2.4362
 2411SOL    HW218867   1.654   2.498   6.298  1.9014 -0.2314 -0.6407
 2412SOL     OW18868   0.580   2.357   7.326  0.1558  0.2686  0.1147
 2412SOL    HW118869   0.591   2.448   7.354 -1.5319  0.4976  0.0270
 2412SOL    HW218870   0.499   2.366   7.276  0.6449  2.1032 -0.3288
 2413SOL     OW18871   4.682   3.997  10.099  0.3837  0.1100  0.0378
 2413SOL    HW118872   4.733   3.925  10.062  0.8129  0.2520  0.3541
 2413SOL    HW218873   4.679   3.978  10.193  3.0618  1.0290  0.3177
 2414SOL     OW18874   1.851   4.588  16.500 -0.0525  0.6566  0.2727
 2414SOL    HW118875   1.889   4.500  16.509 -1.1632  0.3216  1.6306
 2414SOL    HW218876   1.844   4.602  16.594  1.3431 -1.9169  0.7806
 2415SOL     OW18877   2.977   3.590   7.452  0.2489 -0.0142  0.0645
 2415SOL    HW118878   3.003   3.674   7.489 -0.6813  0.6149 -0.7269
 2415SOL    HW218879   2.980   3.615   7.360 -1.4595 -0.5311 -0.1385
 2416SOL     OW18880   4.024   0.185   9.035  0.0833 -0.6012 -0.2190
 2416SOL    HW118881   4.042   0.271   8.999  0.8807 -0.7074 -0.0787
 2416SOL    HW218882   4.046   0.119   8.970  0.0696 -2.0824  1.2655
 2417SOL     OW18883   4.672   3.900   1.963 -0.6779 -0.0276 -0.5183
 2417SOL    HW118884   4.650   3.808   1.949  2.1262 -0.3592 -2.8140
 2417SOL    HW218885   4.598   3.933   2.013 -0.6654  1.0600 -1.2329
 2418SOL     OW18886   4.367   1.411   8.426  0.3488 -0.4645 -0.2624
 2418SOL    HW118887   4.355   1.503   8.402  1.6242 -0.0991  0.5295
 2418SOL    HW218888   4.310   1.418   8.504 -2.3432  0.4171 -2.2950
 2419SOL     OW18889   1.143   0.068   6.015 -0.6054 -0.0969  0.0574
 2419SOL    HW118890   1.109   0.150   6.049  0.7878  1.6214 -2.6892
 2419SOL    HW218891   1.231   0.093   5.988 -0.9723  1.1343  0.0291
 2420SOL     OW18892   3.935   4.208  11.838 -0.4031 -0.5255 -0.4300
 2420SOL    HW118893   3.841   4.192  11.849 -0.8631  1.7403 -1.0061
 2420SOL    HW218894   3.963   4.126  11.797  0.4074  0.6910 -2.3352
 2421SOL     OW18895   3.191   0.927   7.307 -0.3654 -0.0841  0.4163
 2421SOL    HW118896   3.209   0.940   7.214  0.3217  1.9994  0.8335
 2421SOL    HW218897   3.224   1.009   7.343  0.1057 -0.6244  1.2183
 2422SOL     OW18898   2.490   0.714   6.980  0.0502  0.1890  0.4743
 2422SOL    HW118899   2.574   0.694   6.938 -0.5040 -2.1256  0.4450
 2422SOL    HW218900   2.506   0.778   7.049  2.1210 -1.0323  1.1268
 2423SOL     OW18901   2.674   2.274  13.484  0.3879 -0.2821  0.0635
 2423SOL    HW118902   2.711   2.348  13.436  0.2642  0.7618  1.5786
 2423SOL    HW218903   2.580   2.289  13.472  0.6988  1.4715 -0.1595
 2424SOL     OW18904   2.859   4.059   6.513 -0.6347  0.2246  0.0851
 2424SOL    HW118905   2.868   4.151   6.536  1.2145 -0.5461  2.4301
 2424SOL    HW218906   2.898   4.058   6.425  0.0763 -0.3146  0.4094
 2425SOL     OW18907   2.566   0.568   6.540 -0.0533 -0.2244 -0.1197
 2425SOL    HW118908   2.516   0.613   6.472  1.3796 -0.4435 -1.3067
 2425SOL    HW218909   2.647   0.539   6.498 -0.1458  0.2666 -0.6298
 2426SOL     OW18910   3.879   2.244   4.086  0.9684  0.4825  0.1566
 2426SOL    HW118911   3.913   2.196   4.162 -1.2648 -1.7897 -0.2571
 2426SOL    HW218912   3.916   2.332   4.090  0.2454  0.6389  3.5556
 2427SOL     OW18913   0.842   3.620   3.343 -0.7001 -0.1255  0.7643
 2427SOL    HW118914   0.752   3.588   3.343 -1.4726  1.9851 -1.3735
 2427SOL    HW218915   0.820   3.699   3.293  2.1950  0.6937  0.7899
 2428SOL     OW18916   1.825   2.391   9.007  0.2255 -0.5150  0.5438
 2428SOL    HW118917   1.874   2.436   9.076 -2.7219  2.9304  0.3964
 2428SOL    HW218918   1.747   2.445   8.992  0.0658 -1.1846 -1.0583
 2429SOL     OW18919   1.117   0.796   7.527  0.1219 -0.0450 -0.3201
 2429SOL    HW118920   1.138   0.788   7.434  1.1432  0.2239 -0.1135
 2429SOL    HW218921   1.198   0.812   7.575 -0.8725 -0.2855  1.4348
 2430SOL     OW18922   2.051   2.222  17.383 -0.3040 -0.1926 -0.4779
 2430SOL    HW118923   1.970   2.172  17.387  0.1759 -0.8853  0.6370
 2430SOL    HW218924   2.038   2.298  17.440  0.2345 -0.7121  0.3353
 2431SOL     OW18925   2.631   0.151   6.913  0.3335  0.3589  0.0250
 2431SOL    HW118926   2.579   0.226   6.884 -0.8493 -1.0285 -1.4791
 2431SOL    HW218927   2.691   0.189   6.977 -0.1440 -1.8757  1.8144
 2432SOL     OW18928   2.096   1.039  10.242 -0.1932 -0.0378  0.4672
 2432SOL    HW118929   2.144   1.080  10.314  0.4300 -0.8347  0.5091
 2432SOL    HW218930   2.115   0.945  10.249  0.3409  0.1109  1.0996
 2433SOL     OW18931   3.941   1.912   5.218 -0.3482 -0.0462  0.2087
 2433SOL    HW118932   4.035   1.903   5.233 -0.3228  0.2071  0.2043
 2433SOL    HW218933   3.912   1.941   5.305 -0.5356  3.7041 -1.1392
 2434SOL     OW18934   0.007   2.922   2.213 -0.0138 -0.2445 -0.3189
 2434SOL    HW118935   0.052   2.840   2.233 -1.5424 -0.9209  0.4063
 2434SOL    HW218936   0.007   2.927   2.117 -2.9974 -1.3448 -0.3906
 2435SOL     OW18937   0.841   1.181   5.044  0.5865  0.4377 -0.1827
 2435SOL    HW118938   0.847   1.143   4.956 -0.7165 -2.9103  1.1778
 2435SOL    HW218939   0.773   1.247   5.027  0.6905  0.8993  1.1987
 2436SOL     OW18940   2.934   2.825  13.407 -0.2247 -0.1036  0.3417
 2436SOL    HW118941   2.987   2.830  13.328  0.4018 -1.5234  0.6667
 2436SOL    HW218942   2.956   2.738  13.440 -0.3675  0.6268  2.3934
 2437SOL     OW18943   0.375   3.091  14.282  0.4538  0.1493 -0.3238
 2437SOL    HW118944   0.329   3.086  14.365  2.2956 -0.7510  0.6448
 2437SOL    HW218945   0.352   3.007  14.242  1.2673 -0.4410  0.4555
 2438SOL     OW18946   1.590   3.326  14.191  0.0038 -0.9411  0.6927
 2438SOL    HW118947   1.620   3.249  14.142  2.1754  0.0480  0.4379
 2438SOL    HW218948   1.599   3.293  14.280 -0.1026 -2.1274  0.2622
 2439SOL     OW18949   0.112   3.990   7.638 -0.2585 -0.1398 -0.0876
 2439SOL    HW118950   0.059   4.017   7.713 -0.5493 -0.1846 -0.2765
 2439SOL    HW218951   0.096   3.897   7.622 -0.4960 -0.2536  0.8390
 2440SOL     OW18952   4.712   1.647   2.546  0.1734 -0.2242  1.0782
 2440SOL    HW118953   0.012   1.677   2.462  0.1187  1.0774  1.5230
 2440SOL    HW218954   4.705   1.727   2.598 -2.3778 -1.2697  2.3813
 2441SOL     OW18955   4.726   3.473  15.647 -0.2028 -0.1843  0.3063
 2441SOL    HW118956   0.016   3.566  15.648  0.9720 -0.4819 -0.4966
 2441SOL    HW218957   0.049   3.443  15.718 -0.3076  0.9862  0.8962
 2442SOL     OW18958   0.430   4.059   9.866 -0.4227 -0.6232  0.0078
 2442SOL    HW118959   0.461   4.019   9.947  1.8622 -0.8213 -0.9775
 2442SOL    HW218960   0.498   4.022   9.810 -2.0226 -0.7915 -1.8385
 2443SOL     OW18961   4.602   0.601   5.737 -0.5067 -0.1928 -0.1254
 2443SOL    HW118962   4.643   0.654   5.805  0.1287  1.1923 -1.5803
 2443SOL    HW218963   4.577   0.531   5.796 -2.2305  1.2584  0.8863
 2444SOL     OW18964   4.187   3.498   1.679  0.1814  0.5150 -0.2064
 2444SOL    HW118965   4.235   3.498   1.762 -0.2316 -0.5539  0.0277
 2444SOL    HW218966   4.095   3.512   1.698  0.5125 -0.8057  2.3141
 2445SOL     OW18967   2.020   4.690   2.371 -0.0566  0.2792 -0.5766
 2445SOL    HW118968   1.944   4.632   2.374  0.8626 -0.9551 -1.0514
 2445SOL    HW218969   2.060   4.650   2.294  0.8487  0.4173 -0.1801
 2446SOL     OW18970   0.343   2.061  10.132 -0.1409  0.0697  0.1182
 2446SOL    HW118971   0.355   2.141  10.183 -1.4590 -0.4153  1.2085
 2446SOL    HW218972   0.299   2.110  10.062  0.7828 -1.3876 -1.4728
 2447SOL     OW18973   4.473   0.179   2.749  0.6283 -0.1153 -0.0882
 2447SOL    HW118974   4.546   0.139   2.795 -0.7184 -4.5536 -1.8450
 2447SOL    HW218975   4.501   0.267   2.726  1.5717 -0.7176 -1.2219
 2448SOL     OW18976   3.305   2.824   6.501 -0.1076 -0.0973 -0.2310
 2448SOL    HW118977   3.250   2.861   6.569 -1.4862 -2.1601 -0.2293
 2448SOL    HW218978   3.271   2.869   6.424  0.0981 -0.8465 -0.7627
 2449SOL     OW18979   3.765   1.661   7.587  0.3496  0.0898  0.4094
 2449SOL    HW118980   3.745   1.675   7.679  0.8432  1.9313  0.2311
 2449SOL    HW218981   3.819   1.736   7.561 -0.6109 -0.3489 -2.8300
 2450SOL     OW18982   2.906   3.311  12.858 -0.0075  0.3349  0.5897
 2450SOL    HW118983   2.830   3.253  12.859  0.0046  0.3050 -0.5935
 2450SOL    HW218984   2.923   3.328  12.950  1.3737  0.5659  0.2837
 2451SOL     OW18985   2.089   0.833   8.296 -0.2687  0.2008 -0.3163
 2451SOL    HW118986   2.153   0.789   8.239 -1.7516  0.0374 -1.8710
 2451SOL    HW218987   2.144   0.887   8.352 -0.7636  1.1089 -0.7138
 2452SOL     OW18988   1.620   2.480   3.292  0.1074 -0.1523  0.4871
 2452SOL    HW118989   1.564   2.431   3.232  0.3921 -0.9466  0.8782
 2452SOL    HW218990   1.616   2.569   3.258  0.9321  0.9729  3.2852
 2453SOL     OW18991   0.349   2.450   9.210  0.1459 -0.4568  0.1631
 2453SOL    HW118992   0.290   2.467   9.137  0.9175 -0.3012 -0.4263
 2453SOL    HW218993   0.406   2.381   9.176  0.2727 -0.3720  0.2026
 2454SOL     OW18994   2.556   1.301   8.409  0.1397  0.0941  0.0575
 2454SOL    HW118995   2.548   1.351   8.490  2.3697  1.3508 -0.5019
 2454SOL    HW218996   2.611   1.363   8.361  1.7124 -1.2781  0.1074
 2455SOL     OW18997   4.412   3.664   4.987 -0.3042 -0.0609 -0.1377
 2455SOL    HW118998   4.419   3.584   4.934 -0.3260  0.5446 -1.0488
 2455SOL    HW218999   4.447   3.636   5.072 -0.1393 -0.6792 -0.4107
 2456SOL     OW19000   2.361   4.487   6.136 -0.3780 -0.4262 -0.0748
 2456SOL    HW119001   2.270   4.512   6.125 -0.2957  0.6436  1.7186
 2456SOL    HW219002   2.365   4.433   6.215 -1.1789 -3.2660 -1.9425
 2457SOL     OW19003   0.630   0.152   8.539 -0.5968 -0.1045 -0.2099
 2457SOL    HW119004   0.631   0.159   8.635 -2.1432  0.8206 -0.2479
 2457SOL    HW219005   0.610   0.242   8.514  0.5734 -0.6467 -3.0069
 2458SOL     OW19006   2.563   0.883  16.352  0.6071 -0.0296  0.2633
 2458SOL    HW119007   2.640   0.918  16.398 -0.5116  1.9607  0.6066
 2458SOL    HW219008   2.585   0.911  16.263 -1.7832  1.4035  0.1400
 2459SOL     OW19009   2.455   0.016   7.203  0.4709  0.0990  0.1832
 2459SOL    HW119010   2.423   0.106   7.191 -0.6858 -0.2341  0.8006
 2459SOL    HW219011   2.543   0.033   7.236  1.3785 -2.1682 -1.0778
 2460SOL     OW19012   4.342   3.548  13.017  0.5398 -0.0108 -0.1269
 2460SOL    HW119013   4.349   3.561  12.923 -0.0768 -1.1181 -0.3170
 2460SOL    HW219014   4.433   3.555  13.049  0.7774 -1.3352 -0.5413
 2461SOL     OW19015   3.526   0.810   4.860 -0.1491 -0.5613 -0.4608
 2461SOL    HW119016   3.483   0.789   4.777 -0.3501  0.7756 -0.6931
 2461SOL    HW219017   3.608   0.761   4.851  0.3240  0.0591  0.4314
 2462SOL     OW19018   2.281   4.473  16.704 -0.0536  0.3316  0.1071
 2462SOL    HW119019   2.261   4.487  16.612  1.1971  0.2502 -0.1747
 2462SOL    HW219020   2.377   4.470  16.700 -0.1082  0.7035 -1.3115
 2463SOL     OW19021   2.988   0.025   6.844  0.5706  0.2211  0.2286
 2463SOL    HW119022   3.056   0.091   6.857 -0.9584  1.5115  1.6124
 2463SOL    HW219023   3.032   4.698   6.784  1.5603  0.3541  0.8213
 2464SOL     OW19024   1.255   0.001   7.003  0.2623  0.4734  0.2043
 2464SOL    HW119025   1.231   4.670   6.938 -0.6729  0.1445  0.8809
 2464SOL    HW219026   1.269   4.677   7.078 -0.3560 -3.1713 -2.5473
 2465SOL     OW19027   3.672   2.286  15.621  0.2950  0.3592 -0.0401
 2465SOL    HW119028   3.752   2.314  15.578  0.1110  0.5735 -0.2445
 2465SOL    HW219029   3.649   2.360  15.677  1.4438 -0.1953  1.1525
 2466SOL     OW19030   4.464   2.656   1.825 -0.2533  0.3315 -0.0805
 2466SOL    HW119031   4.499   2.586   1.880 -2.0340 -0.3902  0.1221
 2466SOL    HW219032   4.456   2.618   1.738  0.1469  1.2948 -0.5393
 2467SOL     OW19033   2.639   0.630   5.078  0.2183  0.4101 -0.6696
 2467SOL    HW119034   2.558   0.612   5.030  0.9468 -0.1999 -1.6613
 2467SOL    HW219035   2.704   0.623   5.008 -1.8466 -0.4410 -2.4967
 2468SOL     OW19036   3.597   4.528   4.474  0.7526 -0.5261 -0.1178
 2468SOL    HW119037   3.552   4.518   4.390  1.0596  1.5284 -0.5348
 2468SOL    HW219038   3.550   4.462   4.525  1.7223 -0.4277  0.9085
 2469SOL     OW19039   0.174   3.517   2.707  0.3550 -0.1090  0.4696
 2469SOL    HW119040   0.169   3.507   2.612  1.3406 -1.9304  0.6058
 2469SOL    HW219041   0.224   3.597   2.725  0.8688 -0.6883  1.6338
 2470SOL     OW19042   3.231   1.895   4.872 -0.1086  0.2112  0.2245
 2470SOL    HW119043   3.181   1.819   4.902  1.8174 -1.1115  0.0862
 2470SOL    HW219044   3.317   1.874   4.910  1.5843  1.4017 -2.9437
 2471SOL     OW19045   4.420   4.430   5.393  0.4053 -0.1564 -0.2144
 2471SOL    HW119046   4.487   4.458   5.455  1.0341 -0.4137 -0.7736
 2471SOL    HW219047   4.392   4.348   5.436  2.5772  0.6480  2.7959
 2472SOL     OW19048   2.233   4.165   9.868 -0.6286  0.3359  0.9364
 2472SOL    HW119049   2.204   4.082   9.830  2.2299 -1.1825  2.0455
 2472SOL    HW219050   2.152   4.216   9.870 -0.1969  1.1045 -0.8593
 2473SOL     OW19051   1.739   0.157   3.955 -0.2217 -0.3850  0.1473
 2473SOL    HW119052   1.705   0.221   4.017  2.3090 -0.7558  1.9180
 2473SOL    HW219053   1.709   0.216   3.885  0.3729  0.1269  0.3219
 2474SOL     OW19054   1.654   2.241   5.856  0.4092 -0.0104 -0.2293
 2474SOL    HW119055   1.564   2.208   5.863  0.0570  0.4541 -2.4429
 2474SOL    HW219056   1.628   2.333   5.849  0.4977 -0.0435 -0.9818
 2475SOL     OW19057   3.302   4.526   9.075  0.9151 -0.1446  0.2028
 2475SOL    HW119058   3.244   4.461   9.036  1.5292 -0.6082  0.0629
 2475SOL    HW219059   3.354   4.471   9.133  0.6402 -1.0050 -0.3590
 2476SOL     OW19060   0.120   0.329  13.668  0.0500  0.1377 -0.6380
 2476SOL    HW119061   0.055   0.354  13.733 -2.5188 -0.8744 -2.8484
 2476SOL    HW219062   0.078   0.346  13.584  0.6829  2.4877 -0.4867
 2477SOL     OW19063   4.534   2.611  13.841  0.1771 -0.5713 -0.0075
 2477SOL    HW119064   4.489   2.615  13.757  0.1543 -1.5649 -0.0369
 2477SOL    HW219065   4.468   2.630  13.908 -1.2228 -0.4580 -1.4229
 2478SOL     OW19066   0.191   3.355   9.380  0.1387  0.4328 -0.1132
 2478SOL    HW119067   0.180   3.266   9.348  2.9533  0.8682 -2.3095
 2478SOL    HW219068   0.101   3.384   9.395  0.3678  0.2132  1.6302
 2479SOL     OW19069   2.805   1.570   8.337  0.2215 -0.1150 -0.2215
 2479SOL    HW119070   2.717   1.609   8.337 -0.4511 -1.6468  1.2631
 2479SOL    HW219071   2.836   1.599   8.252 -1.3026  0.3203 -0.6354
 2480SOL     OW19072   0.080   2.882   9.360 -0.0867 -0.1506 -0.4884
 2480SOL    HW119073   0.107   2.859   9.449 -1.3851 -1.9731 -0.5699
 2480SOL    HW219074   0.048   2.971   9.376  0.6923  0.2764 -1.2831
 2481SOL     OW19075   1.363   0.820  11.364  0.4746  0.0351  0.3607
 2481SOL    HW119076   1.269   0.812  11.382  0.5065 -0.3965  0.3323
 2481SOL    HW219077   1.358   0.905  11.320 -2.7654 -0.1894  0.2780
 2482SOL     OW19078   0.424   1.676   8.473  0.2097 -0.1355  0.1155
 2482SOL    HW119079   0.481   1.640   8.405  2.6976  1.9425  1.0849
 2482SOL    HW219080   0.484   1.717   8.535 -0.3036  1.3355 -0.3585
 2483SOL     OW19081   2.541   0.047   4.571  0.3169 -0.1729 -0.2947
 2483SOL    HW119082   2.514   4.689   4.563 -0.4165 -0.0132  0.4351
 2483SOL    HW219083   2.532   0.068   4.478 -0.3536 -3.6784 -1.0588
 2484SOL     OW19084   1.616   2.465  11.872 -0.8931  0.1953  0.1238
 2484SOL    HW119085   1.593   2.375  11.848 -1.4764  0.1823  0.7362
 2484SOL    HW219086   1.623   2.516  11.791  2.0849  0.4642  0.5688
 2485SOL     OW19087   0.972   1.474   4.938  0.2594 -0.0099 -0.0043
 2485SOL    HW119088   1.027   1.406   4.976 -0.2821 -0.1503  0.5227
 2485SOL    HW219089   1.024   1.554   4.947 -2.0281  1.4978 -0.2677
 2486SOL     OW19090   0.124   2.064   8.605  0.2059  0.3089 -0.3784
 2486SOL    HW119091   0.156   1.991   8.658  0.5608  0.8844  0.1911
 2486SOL    HW219092   0.202   2.120   8.609 -0.0513  0.5807  0.8593
 2487SOL     OW19093   4.397   3.106  14.552  0.0552 -0.4258 -0.1343
 2487SOL    HW119094   4.364   3.017  14.558 -0.3801 -0.4554 -2.8973
 2487SOL    HW219095   4.345   3.124  14.474  0.8151  0.2564 -0.4846
 2488SOL     OW19096   3.503   0.316   1.727 -0.3085  0.1655  0.7038
 2488SOL    HW119097   3.444   0.272   1.665  1.0301 -0.4758 -0.1090
 2488SOL    HW219098   3.453   0.340   1.805 -1.0197  1.5472 -0.1598
 2489SOL     OW19099   3.701   3.846   0.163  0.2212 -0.3157 -0.4771
 2489SOL    HW119100   3.628   3.881   0.112 -0.0977 -0.6271 -0.2332
 2489SOL    HW219101   3.743   3.930   0.180  1.1485 -0.8479 -0.1316
 2490SOL     OW19102   2.843   2.050   5.046 -0.0447 -0.1642 -0.4704
 2490SOL    HW119103   2.920   2.088   5.089 -0.7221 -0.0365  0.6273
 2490SOL    HW219104   2.774   2.115   5.035 -0.0075  0.3165  2.0392
 2491SOL     OW19105   1.675   3.385   5.467 -0.7074  0.4922  0.0461
 2491SOL    HW119106   1.749   3.441   5.489 -0.7744  1.1627 -1.4090
 2491SOL    HW219107   1.677   3.387   5.371 -0.8978 -1.3229 -0.0109
 2492SOL     OW19108   3.170   4.468  14.595 -0.1410  0.1695 -0.5908
 2492SOL    HW119109   3.143   4.376  14.592  0.9713 -0.2769  3.4029
 2492SOL    HW219110   3.229   4.455  14.521 -2.1582 -0.0622 -2.1375
 2493SOL     OW19111   3.640   2.794  10.059  0.6810 -0.2316 -0.1195
 2493SOL    HW119112   3.655   2.874  10.109  0.8416 -1.0642  1.1625
 2493SOL    HW219113   3.640   2.829   9.969  1.3974 -0.0947 -0.0706
 2494SOL     OW19114   3.492   2.719   7.740  0.0232 -0.0415 -0.2828
 2494SOL    HW119115   3.466   2.676   7.821  0.1140  1.5731  0.5933
 2494SOL    HW219116   3.422   2.678   7.688  0.6695 -2.1475  0.5165
 2495SOL     OW19117   0.976   1.751   2.479  0.3778 -0.5006  0.6675
 2495SOL    HW119118   0.892   1.746   2.433  0.8239  0.9992 -0.3062
 2495SOL    HW219119   0.959   1.708   2.563  1.1570  0.6488  1.4047
 2496SOL     OW19120   2.677   3.784  11.077 -0.1302 -0.4849 -0.3711
 2496SOL    HW119121   2.761   3.773  11.121  0.1533  1.1663 -0.4906
 2496SOL    HW219122   2.686   3.863  11.024  0.7928 -1.4692 -1.6783
 2497SOL     OW19123   0.831   3.153   5.732 -0.1691  0.3177  0.0496
 2497SOL    HW119124   0.833   3.230   5.675 -0.2863  0.1964 -0.1198
 2497SOL    HW219125   0.803   3.204   5.807  0.1287 -0.0018  0.3738
 2498SOL     OW19126   4.646   3.280   2.941 -0.2510  0.0811  0.2313
 2498SOL    HW119127   4.714   3.219   2.912  1.1208  1.1719  1.1930
 2498SOL    HW219128   4.573   3.223   2.915 -0.4594  1.3397 -1.9998
 2499SOL     OW19129   1.854   4.350   5.717 -0.3436 -0.0763 -0.4510
 2499SOL    HW119130   1.829   4.441   5.735 -1.0153 -0.6539  1.5559
 2499SOL    HW219131   1.890   4.317   5.799  0.8896 -1.7056 -1.6497
 2500SOL     OW19132   0.896   4.293   6.051  0.2729 -1.1713  0.6941
 2500SOL    HW119133   0.902   4.332   6.138  1.1631 -1.8559  0.9423
 2500SOL    HW219134   0.889   4.206   6.091  0.2898 -2.3801 -1.9323
 2501SOL     OW19135   4.335   4.109   7.537  0.6539 -0.7421 -0.6110
 2501SOL    HW119136   4.391   4.131   7.612 -0.0793  0.3524 -0.3864
 2501SOL    HW219137   4.269   4.056   7.581 -0.1359  0.0997 -0.7992
 2502SOL     OW19138   3.717   3.549   2.431 -0.2468  0.1737  0.6164
 2502SOL    HW119139   3.627   3.538   2.462 -1.5624  0.1182 -3.1352
 2502SOL    HW219140   3.724   3.488   2.357 -1.4693 -0.9855  1.4666
 2503SOL     OW19141   2.634   2.705   4.610  0.3176  0.1403 -0.7571
 2503SOL    HW119142   2.628   2.783   4.554 -3.2245 -1.3833 -2.4946
 2503SOL    HW219143   2.558   2.651   4.590 -1.9790  2.8363  0.6786
 2504SOL     OW19144   1.842   4.017   2.175 -0.1508 -1.0444 -0.3174
 2504SOL    HW119145   1.854   3.967   2.256 -3.3043 -1.7722 -0.3132
 2504SOL    HW219146   1.778   3.954   2.141 -2.2504  0.7990  0.2023
 2505SOL     OW19147   4.183   0.534   2.598  0.4552 -0.3669 -0.3301
 2505SOL    HW119148   4.246   0.573   2.537 -0.1432 -1.7382 -1.8448
 2505SOL    HW219149   4.128   0.609   2.623  0.9835  0.5971 -2.0744
 2506SOL     OW19150   0.444   4.576   4.113 -0.2728 -0.4952 -0.2470
 2506SOL    HW119151   0.387   4.499   4.110  2.1061 -2.2678 -0.5050
 2506SOL    HW219152   0.513   4.557   4.049 -1.7564 -2.1346 -1.3671
 2507SOL     OW19153   0.875   1.854  11.259  0.1696  0.1588  0.3486
 2507SOL    HW119154   0.938   1.906  11.209  2.6330 -3.2642 -0.1604
 2507SOL    HW219155   0.917   1.811  11.334  1.8749  1.8933  0.3788
 2508SOL     OW19156   2.191   1.270   4.813 -0.6292 -0.3482 -0.0881
 2508SOL    HW119157   2.255   1.204   4.838 -1.4308 -0.6842  1.0686
 2508SOL    HW219158   2.224   1.300   4.728 -2.9100  0.6192 -0.6476
 2509SOL     OW19159   0.617   3.723  14.846  0.0532  0.3909 -0.4032
 2509SOL    HW119160   0.628   3.699  14.754  2.0670 -0.3494  0.0317
 2509SOL    HW219161   0.567   3.804  14.835  1.7538  1.3149 -1.3554
 2510SOL     OW19162   1.695   1.555   8.479 -0.2689  0.6190  1.0332
 2510SOL    HW119163   1.673   1.514   8.395 -2.7524  2.5875  0.7140
 2510SOL    HW219164   1.776   1.599   8.453  1.1456 -2.2316  0.6151
 2511SOL     OW19165   1.943   2.482  15.932  0.2696  0.7764 -0.0768
 2511SOL    HW119166   1.937   2.448  16.021 -0.3385 -1.1699 -0.8497
 2511SOL    HW219167   1.886   2.558  15.930  0.4174  0.8474 -1.8133
 2512SOL     OW19168   3.765   3.882   3.444 -0.8441  0.3426  0.1441
 2512SOL    HW119169   3.762   3.912   3.353 -0.7017 -0.0823  0.0001
 2512SOL    HW219170   3.852   3.909   3.473  0.1302 -2.9035  0.2579
 2513SOL     OW19171   0.238   0.886   0.147  0.1141  0.2742 -0.0358
 2513SOL    HW119172   0.153   0.872   0.107  0.0069 -1.3283  0.7540
 2513SOL    HW219173   0.261   0.973   0.115 -3.8070  0.1243 -3.1869
 2514SOL     OW19174   3.936   0.634  12.759 -0.0779 -0.1198  0.4853
 2514SOL    HW119175   3.916   0.674  12.844 -0.0405 -1.8363  1.3016
 2514SOL    HW219176   3.893   0.549  12.767  0.0336 -0.1911  0.3190
 2515SOL     OW19177   1.412   3.202   5.118  0.1798  0.1137  0.3235
 2515SOL    HW119178   1.505   3.181   5.117  0.2354  0.4449 -0.6086
 2515SOL    HW219179   1.419   3.292   5.151  2.4158 -0.1599  0.5810
 2516SOL     OW19180   0.972   4.388   6.274 -0.2373 -0.0470  0.1006
 2516SOL    HW119181   0.949   4.477   6.300  0.2425  0.9177 -2.7877
 2516SOL    HW219182   0.964   4.351   6.362  1.4932  1.1877  0.7727
 2517SOL     OW19183   2.956   2.764   2.379 -0.9000  0.3949 -0.3307
 2517SOL    HW119184   3.045   2.771   2.414  0.1164 -0.6894 -2.7134
 2517SOL    HW219185   2.972   2.736   2.289 -0.3247  1.0291 -0.4264
 2518SOL     OW19186   2.416   1.366  17.340  0.6616 -0.8508  0.5281
 2518SOL    HW119187   2.383   1.374  17.251  0.2755  0.4485  0.7940
 2518SOL    HW219188   2.467   1.446  17.353 -1.2193  0.3556  0.4100
 2519SOL     OW19189   3.611   2.215   7.465  0.6396 -0.0735  0.0161
 2519SOL    HW119190   3.580   2.281   7.527  0.5602 -0.4408  0.3664
 2519SOL    HW219191   3.705   2.225   7.482  1.2217 -2.7102 -1.6303
 2520SOL     OW19192   0.748   4.085   8.802  0.0044 -0.3029  0.0865
 2520SOL    HW119193   0.755   4.099   8.707 -0.3709  2.2564  0.4535
 2520SOL    HW219194   0.831   4.127   8.823  0.4607 -0.9197 -0.4641
 2521SOL     OW19195   0.282   0.254  10.795  0.7797  0.0637  0.4727
 2521SOL    HW119196   0.270   0.313  10.721  2.9848 -0.6288 -0.4357
 2521SOL    HW219197   0.286   0.171  10.746 -3.6600  2.2432 -3.6183
 2522SOL     OW19198   4.285   2.064  17.661 -0.4381  0.4846 -0.3413
 2522SOL    HW119199   4.231   2.029  17.590  0.0168 -2.7156  0.8816
 2522SOL    HW219200   4.254   2.153  17.676  1.9374  1.3603 -0.6081
 2523SOL     OW19201   0.403   0.635  12.046 -0.1216  0.0714  0.2610
 2523SOL    HW119202   0.490   0.626  12.086  0.8623  0.0044 -1.8848
 2523SOL    HW219203   0.384   0.548  12.012  1.4728 -1.4324  3.2277
 2524SOL     OW19204   1.929   0.574  10.176 -0.2352 -0.6066  0.5683
 2524SOL    HW119205   1.923   0.589  10.081  0.0614  1.0850  0.8224
 2524SOL    HW219206   1.847   0.608  10.211  0.3398  0.7812  0.5632
 2525SOL     OW19207   2.557   0.485  17.657  0.8143  0.2424  0.1604
 2525SOL    HW119208   2.580   0.406  17.706 -0.0398 -0.4661 -0.5530
 2525SOL    HW219209   2.479   0.449  17.614  1.0069 -0.1791  0.1602
 2526SOL     OW19210   0.458   4.515   0.768 -0.4243 -0.3054  0.3872
 2526SOL    HW119211   0.396   4.564   0.823 -0.0944 -0.2732  0.7319
 2526SOL    HW219212   0.451   4.560   0.685  0.6097 -0.8182  0.0280
 2527SOL     OW19213   1.881   2.845   4.447  0.4389 -0.0272  0.4469
 2527SOL    HW119214   1.795   2.804   4.456 -0.1931  1.5800  1.7034
 2527SOL    HW219215   1.902   2.845   4.354  0.6754 -1.4402  0.5001
 2528SOL     OW19216   2.591   2.113   1.732  0.2948  0.3263  0.3989
 2528SOL    HW119217   2.614   2.074   1.648  1.0042 -3.3395  2.2967
 2528SOL    HW219218   2.519   2.053   1.754  0.5098 -0.3539 -0.7657
 2529SOL     OW19219   3.517   2.836   9.454  0.0142  0.1088  0.4867
 2529SOL    HW119220   3.469   2.907   9.496 -0.8683 -0.2649  0.1107
 2529SOL    HW219221   3.447   2.775   9.432  1.5395 -0.6304 -2.3134
 2530SOL     OW19222   2.324   1.767   9.940  0.5296 -0.1070 -0.4747
 2530SOL    HW119223   2.293   1.781   9.851  0.0187  2.6052  0.1107
 2530SOL    HW219224   2.264   1.706   9.981  1.7049 -1.4819 -0.7832
 2531SOL     OW19225   3.146   0.176   6.373  0.0433 -0.1588  0.3665
 2531SOL    HW119226   3.196   0.099   6.401 -1.2869 -0.7935  1.0160
 2531SOL    HW219227   3.191   0.189   6.289 -1.1979 -1.1281 -0.4505
 2532SOL     OW19228   3.955   3.602   1.769  0.1919  0.3409 -0.1954
 2532SOL    HW119229   3.863   3.577   1.771  0.4280 -0.5110  0.0321
 2532SOL    HW219230   3.951   3.698   1.767  1.2972  0.3865 -0.8530
 2533SOL     OW19231   3.292   0.328  14.841  0.3044  0.1119  0.3927
 2533SOL    HW119232   3.371   0.381  14.856 -1.1620  2.0752  1.0587
 2533SOL    HW219233   3.217   0.377  14.872  0.5932  1.1490 -0.5173
 2534SOL     OW19234   2.970   3.439   0.957 -0.1287  0.1157  0.0747
 2534SOL    HW119235   3.021   3.518   0.978 -0.7547  0.5705 -0.1129
 2534SOL    HW219236   3.035   3.370   0.968 -0.0696 -0.1390 -1.8927
 2535SOL     OW19237   4.388   3.930   6.712 -0.8245  0.4264 -0.6474
 2535SOL    HW119238   4.368   3.980   6.791  1.6070  1.0601 -0.4431
 2535SOL    HW219239   4.314   3.964   6.661 -2.0328 -1.9663 -0.5215
 2536SOL     OW19240   1.742   1.865   3.641  0.2143 -0.5279 -0.4902
 2536SOL    HW119241   1.785   1.921   3.577  0.3366 -0.5705 -0.4472
 2536SOL    HW219242   1.760   1.919   3.718 -1.5636 -1.4439  0.5647
 2537SOL     OW19243   0.272   4.414  13.156  0.3677  0.2466  0.0929
 2537SOL    HW119244   0.189   4.405  13.110 -1.7817 -1.5345  4.3102
 2537SOL    HW219245   0.331   4.379  13.089 -0.7682  0.0998 -0.8239
 2538SOL     OW19246   4.132   1.550   7.721 -0.0622 -0.3160 -0.1932
 2538SOL    HW119247   4.105   1.471   7.675 -2.2480  0.1377  0.2807
 2538SOL    HW219248   4.172   1.512   7.798  0.2824  1.6898  0.6218
 2539SOL     OW19249   0.684   3.910  16.286  0.0624 -0.0925 -0.0613
 2539SOL    HW119250   0.662   3.899  16.194  1.5093 -0.6239 -0.3366
 2539SOL    HW219251   0.647   3.996  16.307 -1.8300 -1.1277  0.9108
 2540SOL     OW19252   4.640   1.897   2.634 -0.3306 -0.5074  0.1690
 2540SOL    HW119253   4.709   1.963   2.643 -0.9115 -0.0165  1.1300
 2540SOL    HW219254   4.605   1.908   2.723  1.6995  3.7311  0.4652
 2541SOL     OW19255   1.839   0.869   1.135  0.6283  0.0484 -0.0214
 2541SOL    HW119256   1.839   0.952   1.184 -0.1963 -0.3156  0.5860
 2541SOL    HW219257   1.932   0.874   1.111  0.7878  1.7404  0.9178
 2542SOL     OW19258   2.175   2.104  15.882  0.3687 -0.4060  0.1749
 2542SOL    HW119259   2.264   2.083  15.853  0.2427 -1.1037  0.2801
 2542SOL    HW219260   2.123   2.034  15.841  1.3665 -0.6085 -0.7471
 2543SOL     OW19261   2.989   2.750   7.824 -0.1964 -0.7789  0.1977
 2543SOL    HW119262   3.055   2.812   7.791  0.8339 -1.1780  1.5259
 2543SOL    HW219263   2.969   2.792   7.907  1.4649 -0.6870  0.5455
 2544SOL     OW19264   1.514   2.926  11.096 -0.0400 -0.3467  1.0166
 2544SOL    HW119265   1.432   2.972  11.115 -1.3438 -2.2137 -0.1014
 2544SOL    HW219266   1.574   3.001  11.090 -1.1870  0.4220 -0.8988
 2545SOL     OW19267   2.798   3.679   3.572 -0.2613  0.5232  0.2933
 2545SOL    HW119268   2.710   3.706   3.546 -0.0854  1.3321  0.5265
 2545SOL    HW219269   2.814   3.587   3.552  3.2482  0.9055  1.3587
 2546SOL     OW19270   4.009   0.804   8.957  0.3805 -0.4116  0.3605
 2546SOL    HW119271   4.004   0.880   9.014  1.1845  0.1484 -0.3154
 2546SOL    HW219272   3.934   0.750   8.981  2.4278 -2.5651  1.8998
 2547SOL     OW19273   2.133   0.060   7.476  0.1605  0.1959  0.0530
 2547SOL    HW119274   2.139   0.154   7.496 -1.7556  0.3834 -0.2432
 2547SOL    HW219275   2.156   0.068   7.384  3.9029 -0.8334  0.8872
 2548SOL     OW19276   1.752   0.259   8.057 -0.1337 -0.3404 -0.2762
 2548SOL    HW119277   1.701   0.315   8.116 -1.3951 -0.7939 -0.9392
 2548SOL    HW219278   1.726   0.178   8.101 -1.5709 -0.3646 -1.1661
 2549SOL     OW19279   0.347   0.750   3.888 -0.2400 -0.2774  0.2666
 2549SOL    HW119280   0.358   0.828   3.942 -0.8107 -0.0630  0.0630
 2549SOL    HW219281   0.435   0.727   3.858 -0.4516  0.3983 -0.8574
 2550SOL     OW19282   2.121   0.551   2.831  0.2992  0.0227  0.2527
 2550SOL    HW119283   2.055   0.482   2.832  1.0095 -0.6292  1.0862
 2550SOL    HW219284   2.063   0.627   2.839 -0.9967 -0.6368 -2.7410
 2551SOL     OW19285   2.106   0.952   5.415 -1.0076 -0.5073 -0.4771
 2551SOL    HW119286   2.173   0.887   5.395  2.2296  2.2227  1.4092
 2551SOL    HW219287   2.092   0.992   5.330 -2.3631 -1.0462 -0.4952
 2552SOL     OW19288   2.038   2.918   1.777 -0.3290 -0.0692  0.4398
 2552SOL    HW119289   2.048   2.823   1.767  1.8296  0.0828  1.2005
 2552SOL    HW219290   2.054   2.939   1.685 -2.8793 -0.2174 -0.0435
 2553SOL     OW19291   1.404   4.004  15.212 -0.2468  0.4678 -0.3884
 2553SOL    HW119292   1.360   4.085  15.186 -2.4814 -0.8545 -0.7095
 2553SOL    HW219293   1.428   3.974  15.125  0.6794 -4.8178  1.6655
 2554SOL     OW19294   4.619   2.512   5.949  0.1004 -0.1013  0.0097
 2554SOL    HW119295   4.655   2.594   5.982  1.7606 -0.8773  0.1299
 2554SOL    HW219296   4.686   2.489   5.884  0.3393  0.7213 -0.0342
 2555SOL     OW19297   1.442   1.226   6.841  0.5887  0.0994  0.3697
 2555SOL    HW119298   1.416   1.229   6.933 -3.1298 -1.2658 -0.6427
 2555SOL    HW219299   1.521   1.173   6.846 -0.1507 -1.1500 -0.9746
 2556SOL     OW19300   2.311   4.070  13.477 -0.0965 -0.2879 -0.0296
 2556SOL    HW119301   2.391   4.121  13.485 -0.8733  0.9479 -0.0764
 2556SOL    HW219302   2.340   4.017  13.404  2.3828 -0.4514  1.0670
 2557SOL     OW19303   1.642   3.767   7.663  0.8357 -1.1529 -0.1571
 2557SOL    HW119304   1.601   3.850   7.638  2.6459  0.0813  0.9322
 2557SOL    HW219305   1.688   3.810   7.735 -1.1434  0.8677 -0.1112
 2558SOL     OW19306   1.222   4.504   9.034 -0.2146 -0.2219 -0.4351
 2558SOL    HW119307   1.270   4.586   9.047  0.5463 -0.7235 -0.1248
 2558SOL    HW219308   1.188   4.529   8.948 -0.4159 -0.9934 -0.5794
 2559SOL     OW19309   0.179   3.434  15.882  0.3986 -0.2368  0.1757
 2559SOL    HW119310   0.240   3.495  15.924 -0.7910  1.4872 -0.6107
 2559SOL    HW219311   0.104   3.454  15.939  0.0105 -1.0910 -0.0374
 2560SOL     OW19312   3.394   0.476  15.624  0.0305  0.3793  0.6029
 2560SOL    HW119313   3.373   0.518  15.707  1.4231 -0.4600  1.3870
 2560SOL    HW219314   3.342   0.521  15.558 -0.0385  1.8047  1.6328
 2561SOL     OW19315   4.722   4.016   1.617 -0.0609  0.2095 -0.2122
 2561SOL    HW119316   4.665   4.057   1.553  0.7958 -1.0871 -1.8120
 2561SOL    HW219317   0.059   4.077   1.637 -1.3352  1.3820  0.7930
 2562SOL     OW19318   2.540   0.041  16.848 -0.6258 -0.3805  0.1668
 2562SOL    HW119319   2.538   4.720  16.926 -0.2974  0.1711  0.5648
 2562SOL    HW219320   2.601   0.108  16.878 -0.8637  0.2019 -0.6434
 2563SOL     OW19321   2.741   1.472   7.190 -0.0007 -0.3277 -0.8669
 2563SOL    HW119322   2.826   1.427   7.187  0.4773  0.5115  0.1007
 2563SOL    HW219323   2.790   1.554   7.188 -0.6801  0.1077  0.6743
 2564SOL     OW19324   2.244   3.061   5.355 -0.7134  0.1277  0.3731
 2564SOL    HW119325   2.234   3.101   5.269 -2.7816  1.6237  1.2857
 2564SOL    HW219326   2.318   3.005   5.332 -0.2935  0.7580  0.1951
 2565SOL     OW19327   1.989   2.180   9.001  0.5180  0.3475  0.7374
 2565SOL    HW119328   1.932   2.257   9.002  0.9987  0.7055  0.6889
 2565SOL    HW219329   1.922   2.119   9.032 -1.5509  1.6233 -1.2489
 2566SOL     OW19330   3.452   4.531   7.224 -0.1199  0.2464  0.5223
 2566SOL    HW119331   3.397   4.485   7.160  1.3475  0.1716 -0.6848
 2566SOL    HW219332   3.530   4.547   7.170 -0.3702  1.4524  0.5238
 2567SOL     OW19333   4.632   4.531  15.251  0.3701 -0.1941  0.0518
 2567SOL    HW119334   4.706   4.473  15.231  0.1651 -0.8393  1.1683
 2567SOL    HW219335   4.566   4.464  15.266 -0.5073  1.1397  2.2087
 2568SOL     OW19336   2.157   1.099   5.167 -0.1707 -0.4696  0.9301
 2568SOL    HW119337   2.244   1.067   5.194  0.2923  2.1628  2.5586
 2568SOL    HW219338   2.152   1.189   5.197 -1.3352 -0.2694  0.1297
 2569SOL     OW19339   0.178   1.315  13.616 -0.5327 -0.0275  0.2011
 2569SOL    HW119340   0.140   1.329  13.529  2.1276  1.2703 -0.7567
 2569SOL    HW219341   0.173   1.219  13.616  2.2608 -0.1478  1.4297
 2570SOL     OW19342   1.777   0.683   0.019 -0.6742  0.4098 -0.0357
 2570SOL    HW119343   1.700   0.676   0.075  1.4060 -0.3871  2.7654
 2570SOL    HW219344   1.752   0.765  17.712 -1.1164  0.7968  0.9570
 2571SOL     OW19345   3.512   2.574   6.412 -0.1246  0.1705  0.1382
 2571SOL    HW119346   3.474   2.662   6.407 -0.9835 -0.1935  0.1678
 2571SOL    HW219347   3.529   2.564   6.506  0.9329 -0.6011 -0.1413
 2572SOL     OW19348   0.643   1.195   9.231  0.0412  0.0435 -0.8297
 2572SOL    HW119349   0.569   1.160   9.181 -0.3916 -0.7173  0.3495
 2572SOL    HW219350   0.648   1.282   9.193 -0.7695 -0.7429 -2.7517
 2573SOL     OW19351   2.604   2.274   4.715 -0.5474  0.3813  0.0801
 2573SOL    HW119352   2.562   2.192   4.686  0.3372  0.5846 -1.7741
 2573SOL    HW219353   2.687   2.260   4.670  0.8253  0.1904  2.6596
 2574SOL     OW19354   4.033   4.074   7.919 -0.0003  0.7461 -0.4247
 2574SOL    HW119355   4.006   4.053   8.008  1.6955  0.5220  0.0391
 2574SOL    HW219356   4.096   4.143   7.938  1.0615 -0.3561  0.0785
 2575SOL     OW19357   2.784   1.280   4.540  0.1909 -0.1965  0.2322
 2575SOL    HW119358   2.741   1.285   4.455 -0.0244  0.9046  0.4164
 2575SOL    HW219359   2.848   1.351   4.541  0.6371 -0.6087  0.9406
 2576SOL     OW19360   0.494   1.445  17.263  0.1664 -0.4065  0.3959
 2576SOL    HW119361   0.506   1.386  17.338 -1.2937 -0.8459  0.2829
 2576SOL    HW219362   0.426   1.504  17.295  0.3844  0.2958 -0.4623
 2577SOL     OW19363   1.586   1.727   5.963  0.2851  0.7284 -0.0085
 2577SOL    HW119364   1.665   1.685   5.996 -1.0589 -0.7020  1.4575
 2577SOL    HW219365   1.582   1.810   6.012 -0.1851  0.0520  1.1023
 2578SOL     OW19366   1.010   1.491   7.594 -0.1014  0.2432 -0.1727
 2578SOL    HW119367   1.064   1.559   7.636 -0.7961 -0.3087  1.5879
 2578SOL    HW219368   0.969   1.542   7.524  1.4658 -0.6729 -1.7750
 2579SOL     OW19369   0.026   0.743   3.148  0.4332  0.4284 -0.0297
 2579SOL    HW119370   4.669   0.733   3.172  0.5797  1.7439  1.0899
 2579SOL    HW219371   0.036   0.838   3.140 -0.0631  0.3923 -1.1144
 2580SOL     OW19372   2.598   3.287  10.656 -0.2366 -0.0627  0.6703
 2580SOL    HW119373   2.567   3.322  10.740  0.5907  1.3528  0.3784
 2580SOL    HW219374   2.621   3.367  10.609 -1.1117 -1.5786 -2.3370
 2581SOL     OW19375   2.349   2.055   1.149  0.0188  0.3084 -0.2949
 2581SOL    HW119376   2.354   2.100   1.064 -2.4040  1.8487  0.3641
 2581SOL    HW219377   2.440   2.063   1.178  0.1706  0.1632 -0.7202
 2582SOL     OW19378   3.916   4.101   2.899 -0.4981  0.4213 -0.2326
 2582SOL    HW119379   3.978   4.052   2.954 -0.9564  1.0403  0.8395
 2582SOL    HW219380   3.907   4.184   2.946 -1.7970 -0.9710  1.9742
 2583SOL     OW19381   0.383   0.666  16.047  0.1345 -0.4201  0.0523
 2583SOL    HW119382   0.364   0.599  16.113  3.9528  0.0237  1.5599
 2583SOL    HW219383   0.303   0.718  16.041  0.8465  0.4634 -1.9198
 2584SOL     OW19384   4.508   3.246   3.204  0.3711  0.0433  0.1681
 2584SOL    HW119385   4.546   3.266   3.119 -1.0075  1.4918 -0.0996
 2584SOL    HW219386   4.430   3.299   3.189 -1.1270 -2.7031 -1.8304
 2585SOL     OW19387   2.056   1.176   1.209  0.4167 -0.6150  0.0591
 2585SOL    HW119388   2.123   1.122   1.167 -0.8364 -1.7954 -0.4189
 2585SOL    HW219389   2.073   1.247   1.148  1.3999  1.4914  2.7666
 2586SOL     OW19390   2.238   3.245   2.902 -0.3207  0.2630  0.5178
 2586SOL    HW119391   2.295   3.169   2.916 -0.4767 -0.1205 -0.9274
 2586SOL    HW219392   2.296   3.303   2.853  1.1319  0.0185  1.9333
 2587SOL     OW19393   1.473   1.859   4.844 -0.3067  0.2045 -0.0645
 2587SOL    HW119394   1.481   1.864   4.939  2.8611  1.7529 -0.4133
 2587SOL    HW219395   1.437   1.772   4.833 -0.5376  0.2817  0.0841
 2588SOL     OW19396   1.069   0.149   0.759  0.2039  0.2717 -0.0997
 2588SOL    HW119397   1.072   0.053   0.757 -2.7738  0.2239 -2.0835
 2588SOL    HW219398   0.979   0.165   0.731  0.2558 -0.9725 -0.9960
 2589SOL     OW19399   1.059   2.933  16.275  0.2522 -0.3590 -0.2087
 2589SOL    HW119400   1.063   3.006  16.336 -0.4774 -1.7381  1.4766
 2589SOL    HW219401   0.964   2.928  16.269  0.2914 -0.1376 -1.1047
 2590SOL     OW19402   1.816   1.860   2.390  0.3977  0.0061  0.4297
 2590SOL    HW119403   1.805   1.949   2.423  1.5326  0.3889 -0.2128
 2590SOL    HW219404   1.796   1.809   2.468 -1.0890 -2.1657 -1.3493
 2591SOL     OW19405   0.088   1.731   1.806  0.3362 -0.2676 -0.0027
 2591SOL    HW119406   0.020   1.747   1.872  0.2413  1.3986 -0.5056
 2591SOL    HW219407   0.105   1.820   1.774 -3.7544  0.1140 -1.2102
 2592SOL     OW19408   1.859   4.042   6.190  0.2425  0.2248  0.5953
 2592SOL    HW119409   1.881   4.131   6.163 -1.8697  0.7298  0.5384
 2592SOL    HW219410   1.926   4.030   6.257  1.1495  0.2425 -0.3031
 2593SOL     OW19411   3.228   4.135   3.660  0.5813  0.0091  0.6156
 2593SOL    HW119412   3.274   4.054   3.681  1.4691  0.4599  0.4196
 2593SOL    HW219413   3.290   4.192   3.706  0.4877  1.6077 -1.2241
 2594SOL     OW19414   0.098   0.516   9.912  0.1849 -0.7706 -0.4113
 2594SOL    HW119415   0.056   0.548   9.832  0.8966  2.2009  0.4180
 2594SOL    HW219416   0.181   0.559   9.931 -1.0676  1.8167 -0.7203
 2595SOL     OW19417   0.543   0.844   9.005 -0.4075 -0.6259 -0.1981
 2595SOL    HW119418   0.492   0.762   9.004 -2.4922  0.6572  1.0572
 2595SOL    HW219419   0.625   0.813   9.042  0.2321 -0.3352 -1.3914
 2596SOL     OW19420   2.996   1.344   7.091  0.5636 -0.2532  0.1310
 2596SOL    HW119421   2.948   1.312   7.015  0.8159 -0.1457 -0.0732
 2596SOL    HW219422   2.969   1.282   7.159  0.5070 -1.9640 -1.4656
 2597SOL     OW19423   2.524   4.206   0.030  0.1614 -0.5098  0.4588
 2597SOL    HW119424   2.599   4.205   0.089  0.3294 -0.9245  0.2475
 2597SOL    HW219425   2.446   4.219   0.083 -0.2922  0.3174 -0.4120
 2598SOL     OW19426   1.098   0.805   4.969 -0.3164  0.0903 -0.1361
 2598SOL    HW119427   1.027   0.767   5.020 -0.3698  1.9097  1.1764
 2598SOL    HW219428   1.150   0.860   5.028  0.8300  1.4521 -2.4040
 2599SOL     OW19429   2.683   3.886   9.449  0.3115  0.6424  0.4670
 2599SOL    HW119430   2.609   3.833   9.419  2.3786 -0.8714 -1.9549
 2599SOL    HW219431   2.648   3.972   9.425 -2.4531 -0.6039 -0.0089
 2600SOL     OW19432   4.651   2.755   4.094 -0.1658  0.5982  0.1012
 2600SOL    HW119433   4.708   2.726   4.022  0.7923  1.4187  0.5342
 2600SOL    HW219434   4.587   2.684   4.098  1.0333 -0.4454  0.4212
 2601SOL     OW19435   1.412   1.550  14.841  0.0806 -0.3777 -0.4034
 2601SOL    HW119436   1.446   1.625  14.792 -2.6707  1.2798  0.2399
 2601SOL    HW219437   1.330   1.594  14.862  0.0923 -1.1148  1.1876
 2602SOL     OW19438   3.387   1.832   9.133  0.3568  0.0147 -0.1089
 2602SOL    HW119439   3.363   1.834   9.041  2.4128  0.8328 -0.6356
 2602SOL    HW219440   3.365   1.742   9.157  1.2357 -0.1310  0.1608
 2603SOL     OW19441   2.213   2.987   0.870  0.5047  0.1447 -0.2772
 2603SOL    HW119442   2.268   3.019   0.942  2.1309  3.9461 -3.2114
 2603SOL    HW219443   2.211   2.894   0.890  0.0349 -0.2259 -2.1326
 2604SOL     OW19444   3.770   3.458   4.859  0.2751  0.4012 -0.5315
 2604SOL    HW119445   3.674   3.463   4.857  0.3813  1.4858 -3.2421
 2604SOL    HW219446   3.781   3.492   4.770 -0.3956  1.2250 -0.3072
 2605SOL     OW19447   3.847   0.872  10.446 -0.2070  0.3758  0.1945
 2605SOL    HW119448   3.834   0.837  10.535  0.0277  1.7503  0.7705
 2605SOL    HW219449   3.761   0.844  10.414 -0.4174 -0.9212  1.8635
 2606SOL     OW19450   2.243   4.597   0.045 -0.0090  0.6718 -0.8141
 2606SOL    HW119451   2.291   4.532   0.096  0.0725  0.4806 -1.1388
 2606SOL    HW219452   2.150   4.578   0.052  0.5575 -1.6762  0.3906
 2607SOL     OW19453   2.303   1.531  14.718  0.6901  0.1477  0.4405
 2607SOL    HW119454   2.361   1.467  14.676  0.5221 -1.6258  2.8895
 2607SOL    HW219455   2.357   1.592  14.768  2.0510 -2.2206  1.8592
 2608SOL     OW19456   1.713   1.525  10.318 -0.0900 -0.6162  0.1342
 2608SOL    HW119457   1.777   1.454  10.307 -0.3166 -1.0894  1.8665
 2608SOL    HW219458   1.761   1.602  10.287  1.8305 -0.6118  3.0872
 2609SOL     OW19459   0.626   0.190  13.071  0.4849 -0.2959  0.7058
 2609SOL    HW119460   0.694   0.258  13.074  0.0175  0.2455 -1.5440
 2609SOL    HW219461   0.615   0.171  12.978 -3.8471 -0.5182  1.2615
 2610SOL     OW19462   3.152   3.193   2.850  0.0839  0.2632 -0.1207
 2610SOL    HW119463   3.099   3.260   2.807 -1.3705 -0.3054  0.8004
 2610SOL    HW219464   3.240   3.221   2.824 -0.2456 -0.3720 -1.9378
 2611SOL     OW19465   1.033   4.386   2.461  0.2127 -0.8572  0.5027
 2611SOL    HW119466   0.954   4.335   2.478 -0.4795 -0.0008 -0.1348
 2611SOL    HW219467   1.096   4.327   2.503  1.6041  0.7942  0.7321
 2612SOL     OW19468   3.321   2.133   3.553  0.4529  0.2040  0.1858
 2612SOL    HW119469   3.336   2.146   3.647  0.8417  0.2769  0.1162
 2612SOL    HW219470   3.344   2.040   3.547  0.6916  0.1950  1.1656
 2613SOL     OW19471   4.136   4.567   5.607 -0.1411  0.4076 -0.1614
 2613SOL    HW119472   4.145   4.661   5.590 -1.0652 -0.4033 -5.2600
 2613SOL    HW219473   4.053   4.552   5.562  1.3457 -0.5814 -2.5953
 2614SOL     OW19474   4.513   2.735   7.184 -0.0596  0.7329 -0.1314
 2614SOL    HW119475   4.501   2.652   7.231  0.7105  0.8295  0.2402
 2614SOL    HW219476   4.606   2.755   7.198  0.0613  0.6477 -0.7907
 2615SOL     OW19477   3.386   2.605   7.970  0.3126  0.1301 -0.4296
 2615SOL    HW119478   3.332   2.659   8.027 -1.4055  0.6404 -2.5402
 2615SOL    HW219479   3.361   2.516   7.997  3.4208 -0.5976  0.1306
 2616SOL     OW19480   4.326   3.652   3.624 -0.3608 -0.1201  0.1552
 2616SOL    HW119481   4.273   3.589   3.672  0.7178 -0.1546  1.2866
 2616SOL    HW219482   4.370   3.596   3.560  0.2536 -1.0771  1.4148
 2617SOL     OW19483   3.134   0.882   4.992  0.1862  0.1740  0.2581
 2617SOL    HW119484   3.103   0.947   5.055 -1.8789  0.0990 -0.6927
 2617SOL    HW219485   3.047   0.855   4.963  0.5855  0.4570 -1.2026
 2618SOL     OW19486   0.334   1.212   2.278  0.5891  0.0965 -0.1668
 2618SOL    HW119487   0.241   1.207   2.298  0.4896  4.3350  0.4704
 2618SOL    HW219488   0.340   1.182   2.187  0.3321 -0.0021 -0.1519
 2619SOL     OW19489   2.188   0.596   0.840  0.7723  0.3848 -0.0722
 2619SOL    HW119490   2.173   0.562   0.751 -0.6171 -2.8568  1.3967
 2619SOL    HW219491   2.124   0.550   0.894  1.0033  1.3096  0.9731
 2620SOL     OW19492   2.869   4.478   7.609 -0.2622 -0.3854 -0.2119
 2620SOL    HW119493   2.883   4.528   7.528 -1.4406 -0.0168 -0.1822
 2620SOL    HW219494   2.778   4.450   7.602 -0.8218  1.5125 -0.5579
 2621SOL     OW19495   2.034   3.416  15.869 -0.1932 -0.1696  0.3760
 2621SOL    HW119496   2.062   3.325  15.874  1.0135  0.3236  2.7812
 2621SOL    HW219497   1.984   3.427  15.950 -0.0888  1.6761  0.1842
 2622SOL     OW19498   1.275   0.195   9.402  0.3168 -0.8716  0.0761
 2622SOL    HW119499   1.276   0.188   9.498  2.2184 -2.4625 -0.0643
 2622SOL    HW219500   1.236   0.283   9.403  0.2787 -0.9014  1.3257
 2623SOL     OW19501   1.845   2.692   2.697  0.4602  0.6891  0.4367
 2623SOL    HW119502   1.814   2.655   2.615  0.3534 -0.1697  0.8674
 2623SOL    HW219503   1.759   2.703   2.737  0.0277 -0.8980 -0.0520
 2624SOL     OW19504   4.407   0.551   8.677  0.5788  0.1914  0.2281
 2624SOL    HW119505   4.422   0.554   8.583 -1.4988 -0.6241 -0.1473
 2624SOL    HW219506   4.312   0.542   8.666  0.8351 -1.9094 -0.2079
 2625SOL     OW19507   0.485   0.756   6.430  0.0448 -0.2136  0.3945
 2625SOL    HW119508   0.530   0.816   6.371  0.3693 -1.7186 -0.8970
 2625SOL    HW219509   0.449   0.821   6.489  1.5930 -0.1564  1.2726
 2626SOL     OW19510   2.858   0.805   4.307  0.2921  0.1781 -0.0131
 2626SOL    HW119511   2.870   0.845   4.392 -1.7264  1.2614 -0.2379
 2626SOL    HW219512   2.762   0.799   4.306  0.2566  0.3613  2.9993
 2627SOL     OW19513   3.265   2.986  17.735 -0.5084 -0.0012  1.1025
 2627SOL    HW119514   3.340   2.946   0.041 -0.5512 -0.5683  0.6346
 2627SOL    HW219515   3.220   2.917  17.687 -0.9839  1.0020  0.0871
 2628SOL     OW19516   3.153   3.107   5.605  0.5403 -0.1040  0.0201
 2628SOL    HW119517   3.091   3.154   5.550 -1.5506 -0.7881  1.8073
 2628SOL    HW219518   3.103   3.078   5.681  2.0765 -2.3340  0.2052
 2629SOL     OW19519   3.102   3.562   2.381 -0.3922 -0.1958  0.0045
 2629SOL    HW119520   3.106   3.583   2.474  1.5984  0.1836 -0.1684
 2629SOL    HW219521   3.182   3.600   2.345 -0.8666  0.5897 -0.2016
 2630SOL     OW19522   0.801   3.658   9.637 -0.0362 -0.4851 -0.5099
 2630SOL    HW119523   0.886   3.615   9.628  0.7019  0.9323 -0.2556
 2630SOL    HW219524   0.743   3.589   9.605 -1.8972  0.0289  1.7710
 2631SOL     OW19525   3.794   3.993   1.171  0.4173  0.4549  0.2747
 2631SOL    HW119526   3.808   3.901   1.149 -2.3853 -0.9928  4.3617
 2631SOL    HW219527   3.811   3.986   1.265  2.5006  1.8121 -0.0129
 2632SOL     OW19528   1.775   2.066  13.288 -0.4368 -0.3564 -0.0254
 2632SOL    HW119529   1.801   2.063  13.196 -2.2722  0.2659 -0.5701
 2632SOL    HW219530   1.691   2.112  13.288  0.0888  0.6000 -1.3905
 2633SOL     OW19531   4.627   0.036   2.330 -0.0540 -0.7480  0.0561
 2633SOL    HW119532   4.591   0.085   2.256 -1.9579 -0.6866  1.0344
 2633SOL    HW219533   4.641   0.119   2.376 -1.8824 -0.0860 -0.5968
 2634SOL     OW19534   4.066   2.490   6.427 -0.5966 -0.0156 -0.1208
 2634SOL    HW119535   4.077   2.544   6.349 -1.8336  1.3360  0.6319
 2634SOL    HW219536   4.022   2.548   6.490  0.2430  1.7234 -1.1513
 2635SOL     OW19537   2.928   4.114   3.769  0.2486 -0.2756  0.3451
 2635SOL    HW119538   2.973   4.111   3.853 -1.0319  1.7239  1.0998
 2635SOL    HW219539   2.994   4.139   3.704  2.0688  0.4906  2.5147
 2636SOL     OW19540   4.597   0.591   5.196 -0.2768  0.4943  0.1937
 2636SOL    HW119541   4.616   0.500   5.171  0.9056  1.3788 -2.1182
 2636SOL    HW219542   4.612   0.633   5.111 -2.9537 -0.2892 -0.6862
 2637SOL     OW19543   3.984   1.279  12.835  0.0231  0.0024 -0.1497
 2637SOL    HW119544   3.900   1.259  12.793  0.9279 -0.8789 -1.5317
 2637SOL    HW219545   4.018   1.189  12.835  1.7190  0.6572 -1.7459
 2638SOL     OW19546   0.690   0.325   1.451 -0.7658 -0.2944  0.0344
 2638SOL    HW119547   0.783   0.345   1.460 -1.0581  1.0959 -0.0150
 2638SOL    HW219548   0.678   0.268   1.527  0.3912 -0.8372 -0.1785
 2639SOL     OW19549   1.187   1.162   2.745 -0.0399  0.1404  0.2060
 2639SOL    HW119550   1.242   1.221   2.693  1.6883 -1.0180  0.7125
 2639SOL    HW219551   1.149   1.112   2.673 -0.0614 -1.5978  1.3968
 2640SOL     OW19552   2.022   4.416   8.135 -0.6419  0.3030 -0.5083
 2640SOL    HW119553   2.067   4.343   8.177 -0.3187 -0.0053 -1.3848
 2640SOL    HW219554   1.942   4.415   8.187 -1.1556 -1.2123 -1.3488
 2641SOL     OW19555   1.183   1.240  13.251 -0.1159 -0.3021 -0.0171
 2641SOL    HW119556   1.199   1.335  13.243 -2.4455 -0.0063 -1.0544
 2641SOL    HW219557   1.088   1.248  13.252 -0.2306 -1.8571  0.4222
 2642SOL     OW19558   4.088   1.839   7.441 -0.5012 -0.1893  0.0480
 2642SOL    HW119559   4.048   1.755   7.417 -1.7138  0.3632  0.1420
 2642SOL    HW219560   4.178   1.806   7.442 -0.3306  0.2630 -0.1758
 2643SOL     OW19561   2.014   4.673   6.184  0.5137  0.2733  0.1825
 2643SOL    HW119562   1.925   4.656   6.215 -0.1323 -1.9397 -2.8097
 2643SOL    HW219563   2.069   4.629   6.249 -0.1098  0.3647  0.7678
 2644SOL     OW19564   0.700   2.666   7.563  0.4983  0.6496  0.2665
 2644SOL    HW119565   0.633   2.677   7.631  0.1087 -0.8413  0.1119
 2644SOL    HW219566   0.671   2.729   7.497  0.8603 -0.0496 -0.5564
 2645SOL     OW19567   0.528   2.990   6.863  0.3275 -0.0776  0.1014
 2645SOL    HW119568   0.493   3.059   6.919 -2.8963 -1.5103 -0.1322
 2645SOL    HW219569   0.458   2.926   6.881 -1.1302  1.2257 -0.9295
 2646SOL     OW19570   3.340   1.837   2.241  0.3769 -0.1809 -0.2196
 2646SOL    HW119571   3.253   1.832   2.281  0.9888 -1.7249  0.9015
 2646SOL    HW219572   3.358   1.744   2.228 -0.9972 -0.9861  3.6704
 2647SOL     OW19573   2.791   0.494  12.709  0.5367 -0.0025  0.0317
 2647SOL    HW119574   2.848   0.571  12.704 -2.6925  2.3399 -0.2678
 2647SOL    HW219575   2.704   0.528  12.689  0.7271 -0.2837 -1.2910
 2648SOL     OW19576   2.881   3.722   5.705  0.1544 -0.7337 -0.5964
 2648SOL    HW119577   2.974   3.702   5.697  0.5391  0.0077  1.9345
 2648SOL    HW219578   2.866   3.800   5.651 -0.0430 -0.2501  0.1582
 2649SOL     OW19579   4.343   1.423   2.647  0.2539  0.6258  0.1106
 2649SOL    HW119580   4.373   1.501   2.600 -1.3572  1.4954  0.5200
 2649SOL    HW219581   4.370   1.458   2.733  1.3781 -1.1186  0.4574
 2650SOL     OW19582   1.698   0.507  10.507  0.3127  0.7081 -0.4259
 2650SOL    HW119583   1.667   0.569  10.573  0.6298 -0.9319  1.2708
 2650SOL    HW219584   1.681   0.553  10.425  2.1029  0.0135 -1.1686
 2651SOL     OW19585   0.023   2.700   7.345  0.7188 -0.4363  0.3369
 2651SOL    HW119586   4.703   2.691   7.423  1.0154  0.0554  0.6011
 2651SOL    HW219587   0.104   2.654   7.367  0.2686 -0.4530  1.9768
 2652SOL     OW19588   2.921   3.517  13.668  0.3992  0.5748 -0.1279
 2652SOL    HW119589   2.841   3.551  13.708 -0.4379 -0.1983 -1.1418
 2652SOL    HW219590   2.958   3.472  13.744  0.1926  0.3902 -0.1387
 2653SOL     OW19591   2.878   0.604  15.079  0.4814  0.2933 -0.2245
 2653SOL    HW119592   2.835   0.660  15.144  2.4950  0.4436  0.9636
 2653SOL    HW219593   2.803   0.555  15.045  0.7059 -0.3085  0.1504
 2654SOL     OW19594   3.217   0.303   2.341  0.3079  0.1654 -0.0927
 2654SOL    HW119595   3.152   0.243   2.376  0.9373  0.6762  1.9431
 2654SOL    HW219596   3.184   0.391   2.358 -0.0210 -0.2043  1.1347
 2655SOL     OW19597   3.160   4.374  10.650 -0.2670  1.0717  0.4282
 2655SOL    HW119598   3.079   4.355  10.698  0.5371 -1.2962  0.8203
 2655SOL    HW219599   3.126   4.453  10.608 -0.7371 -0.7591 -2.5935
 2656SOL     OW19600   4.416   3.984   7.064 -0.1666  0.3998  0.1382
 2656SOL    HW119601   4.391   4.068   7.025  0.6509  0.9024  0.6947
 2656SOL    HW219602   4.502   3.963   7.030 -0.1547 -0.7654  0.8925
 2657SOL     OW19603   3.511   2.881  10.303 -0.0039  0.1942  0.0876
 2657SOL    HW119604   3.479   2.796  10.333  0.5097  0.0625  0.2633
 2657SOL    HW219605   3.586   2.893  10.361  1.6430  0.0088 -1.9961
 2658SOL     OW19606   0.132   4.701   1.618 -0.1080  0.2411 -0.5015
 2658SOL    HW119607   0.095   4.692   1.530  0.5812  1.0451 -0.8692
 2658SOL    HW219608   0.198   0.035   1.614 -0.2333  0.3975  0.1414
 2659SOL     OW19609   0.321   2.777   6.838 -0.4192 -0.1258  0.0182
 2659SOL    HW119610   0.237   2.822   6.828  0.2608  1.0488 -0.4071
 2659SOL    HW219611   0.323   2.719   6.761  2.3316  0.1971 -0.1488
 2660SOL     OW19612   2.899   1.325   1.490 -0.2657  0.4433 -0.8955
 2660SOL    HW119613   2.971   1.267   1.467 -0.8898  0.1112 -2.0066
 2660SOL    HW219614   2.829   1.289   1.436 -1.8392 -1.1288  2.2173
 2661SOL     OW19615   0.193   4.127   6.683 -0.0242 -0.2378  0.5369
 2661SOL    HW119616   0.104   4.146   6.655  0.8158  2.6682 -0.0920
 2661SOL    HW219617   0.224   4.211   6.717 -0.6566  0.4934 -0.7213
 2662SOL     OW19618   1.560   1.841   2.106  0.3748  0.0998 -0.1430
 2662SOL    HW119619   1.511   1.776   2.157  0.2735 -0.7067 -1.2691
 2662SOL    HW219620   1.578   1.911   2.169 -0.4995 -0.5757  0.8618
 2663SOL     OW19621   2.397   3.466  11.793  0.0649  0.3612 -0.0688
 2663SOL    HW119622   2.302   3.470  11.793  0.2689  4.8466 -1.0647
 2663SOL    HW219623   2.428   3.451  11.704 -0.8538  0.0066 -0.3224
 2664SOL     OW19624   2.942   0.600   3.896 -0.5748 -0.5153 -0.1323
 2664SOL    HW119625   2.916   0.684   3.933  0.0477  0.0920 -1.0526
 2664SOL    HW219626   2.903   0.528   3.946 -1.7361  0.0811 -0.1949
 2665SOL     OW19627   4.177   3.736   3.931 -0.0129 -0.1430 -0.2333
 2665SOL    HW119628   4.196   3.806   3.994  0.2791 -1.6198  1.3088
 2665SOL    HW219629   4.123   3.786   3.869 -1.1684  0.0254  0.9242
 2666SOL     OW19630   2.219   1.071   7.685 -0.1426 -0.0915  0.4880
 2666SOL    HW119631   2.179   1.000   7.635 -0.0443  0.4092 -0.3157
 2666SOL    HW219632   2.141   1.084   7.740 -0.9154 -4.4728  0.3875
 2667SOL     OW19633   2.944   3.680   0.739  0.5484  0.0656  0.2539
 2667SOL    HW119634   3.014   3.688   0.674 -0.1832  1.1585 -0.3962
 2667SOL    HW219635   2.908   3.591   0.731  3.9131 -0.9178 -3.4684
 2668SOL     OW19636   0.888   2.341  14.568  0.3924 -0.4733  0.0733
 2668SOL    HW119637   0.953   2.374  14.506  0.2608 -2.3049 -1.0366
 2668SOL    HW219638   0.801   2.362  14.532  0.8197  3.7699  1.4789
 2669SOL     OW19639   1.836   2.102  14.859 -0.1193  0.0777 -0.2397
 2669SOL    HW119640   1.760   2.061  14.900 -0.5766  1.8808  0.7402
 2669SOL    HW219641   1.795   2.188  14.844 -0.7373 -0.3054 -0.7623
 2670SOL     OW19642   3.719   3.741   5.933 -0.3443  0.4024 -0.8153
 2670SOL    HW119643   3.636   3.771   5.970  0.4750  0.0024  1.3990
 2670SOL    HW219644   3.784   3.800   5.971  1.0231 -0.7667 -1.3484
 2671SOL     OW19645   0.304   3.453  10.330 -0.0556 -0.1557  0.5372
 2671SOL    HW119646   0.331   3.540  10.302  2.1815 -1.0209 -0.0152
 2671SOL    HW219647   0.334   3.397  10.258  1.4009 -1.5247  2.2180
 2672SOL     OW19648   0.334   2.416   9.723 -0.1092  1.2528  0.4220
 2672SOL    HW119649   0.405   2.480   9.717 -1.3924  2.6564  0.1508
 2672SOL    HW219650   0.300   2.406   9.634 -1.2786  0.7347  0.9298
 2673SOL     OW19651   0.157   3.465   4.361  0.4021 -0.5551  0.3618
 2673SOL    HW119652   0.225   3.476   4.427 -0.6067  1.1183  1.1393
 2673SOL    HW219653   0.200   3.470   4.276 -0.9688 -1.0612 -0.3527
 2674SOL     OW19654   1.501   0.966   2.357  0.1332 -0.0190 -0.9357
 2674SOL    HW119655   1.572   1.019   2.393 -0.6808  0.0446  0.5533
 2674SOL    HW219656   1.416   1.006   2.372 -1.3507 -3.0181 -1.2388
 2675SOL     OW19657   1.325   0.981   2.040 -0.6099  0.4532 -0.4454
 2675SOL    HW119658   1.245   1.032   2.054 -1.8962 -1.5431 -0.5080
 2675SOL    HW219659   1.351   0.954   2.128 -0.5675 -1.1511 -0.9407
 2676SOL     OW19660   4.620   3.964   1.253 -0.3592  0.1940  0.1676
 2676SOL    HW119661   4.590   4.053   1.272 -1.9824  0.0398 -1.6762
 2676SOL    HW219662   4.681   3.980   1.181 -1.4574  0.0721 -0.7835
 2677SOL     OW19663   0.736   4.617   6.193 -0.1037 -0.1768 -0.2184
 2677SOL    HW119664   0.792   4.570   6.130  1.0250  1.9243 -0.8140
 2677SOL    HW219665   0.722   4.701   6.149 -0.4332 -0.0657  0.1063
 2678SOL     OW19666   3.419   1.795  10.229  0.4774  0.6493  0.3635
 2678SOL    HW119667   3.361   1.731  10.188  0.0284 -0.4617  2.7593
 2678SOL    HW219668   3.493   1.807  10.169  2.4512 -1.6707  2.3639
 2679SOL     OW19669   0.257   4.303   9.259  0.2992 -0.0552  0.1594
 2679SOL    HW119670   0.242   4.298   9.165 -1.5202  1.2999  0.3919
 2679SOL    HW219671   0.311   4.223   9.262 -0.9485 -0.9696 -1.6391
 2680SOL     OW19672   4.197   2.107   8.359 -0.7704 -0.2710 -0.1429
 2680SOL    HW119673   4.201   2.156   8.440  0.1874  0.6708 -0.7490
 2680SOL    HW219674   4.145   2.163   8.302 -0.7856 -0.7084 -0.5641
 2681SOL     OW19675   0.472   3.532   1.495 -0.1818 -0.0898  0.3138
 2681SOL    HW119676   0.442   3.615   1.531  2.3562  1.7181 -1.7593
 2681SOL    HW219677   0.567   3.545   1.486 -0.3925  1.7350  0.7620
 2682SOL     OW19678   0.706   3.001   7.598  0.3493  0.4149 -0.5804
 2682SOL    HW119679   0.642   3.036   7.660  1.2429  0.8407  0.0999
 2682SOL    HW219680   0.766   2.951   7.653 -1.5166 -1.6865 -0.4436
 2683SOL     OW19681   0.459   0.386  11.875  0.0966 -0.1189 -0.1624
 2683SOL    HW119682   0.439   0.299  11.908 -3.6349  0.9512  0.4200
 2683SOL    HW219683   0.405   0.372  11.798  0.6660  0.6095 -0.6954
 2684SOL     OW19684   1.365   3.442   6.972  0.4813  0.2493  0.8156
 2684SOL    HW119685   1.276   3.471   6.948  1.6625  1.7125 -1.7980
 2684SOL    HW219686   1.353   3.348   6.980  0.4314  0.3360  1.7840
 2685SOL     OW19687   1.843   2.498   7.322  1.0118  0.3067 -0.1749
 2685SOL    HW119688   1.919   2.467   7.273  0.8109  0.3823 -0.5363
 2685SOL    HW219689   1.873   2.577   7.366  1.0044 -0.3189  0.9524
 2686SOL     OW19690   1.147   3.640   5.164 -0.0571  0.3732 -0.3102
 2686SOL    HW119691   1.151   3.569   5.229  0.7994  0.2962 -0.4463
 2686SOL    HW219692   1.188   3.598   5.089 -0.4525 -3.4145  1.6053
 2687SOL     OW19693   2.841   2.364   7.474 -0.3570  0.3861 -0.1124
 2687SOL    HW119694   2.844   2.448   7.520 -0.3264  0.2209  0.1895
 2687SOL    HW219695   2.785   2.312   7.532  0.3922  0.5142  0.7348
 2688SOL     OW19696   4.453   2.040   9.460  0.4105  0.1663 -0.0754
 2688SOL    HW119697   4.457   2.011   9.369  0.6217  0.2383 -0.0901
 2688SOL    HW219698   4.537   2.087   9.462  0.3417  0.1897  2.7633
 2689SOL     OW19699   0.048   3.209   6.851  0.1575  0.3073 -0.0186
 2689SOL    HW119700   4.689   3.228   6.847  0.3335  1.1335 -0.3523
 2689SOL    HW219701   0.062   3.240   6.940 -0.3888  1.0265 -0.1799
 2690SOL     OW19702   0.804   3.447   3.730 -0.4126 -0.3433 -0.3202
 2690SOL    HW119703   0.788   3.386   3.659 -1.5530 -3.0377  2.2418
 2690SOL    HW219704   0.892   3.473   3.702 -0.2534 -0.9549 -0.3784
 2691SOL     OW19705   3.274   0.584  11.546 -0.4076 -0.1090 -0.1477
 2691SOL    HW119706   3.226   0.594  11.628 -0.2354  0.6769 -0.1446
 2691SOL    HW219707   3.305   0.493  11.536  2.1200  0.2732  4.0778
 2692SOL     OW19708   1.870   3.217   8.837  0.2926 -0.3114 -0.7289
 2692SOL    HW119709   1.819   3.276   8.891  2.2542  1.2131 -0.5375
 2692SOL    HW219710   1.956   3.227   8.879 -0.0568  0.0044 -0.1019
 2693SOL     OW19711   3.194   4.111   8.707 -0.2878  0.2074  0.5772
 2693SOL    HW119712   3.268   4.124   8.648 -0.8084 -1.1067 -0.3461
 2693SOL    HW219713   3.137   4.055   8.655  0.0592  0.7088 -0.3254
 2694SOL     OW19714   1.426   4.696   9.449  0.1910 -0.0288  0.0521
 2694SOL    HW119715   1.372   4.619   9.428  0.3114  0.2635 -1.3563
 2694SOL    HW219716   1.364   0.026   9.416 -3.2391 -3.8780 -1.0850
 2695SOL     OW19717   2.727   3.172   3.920 -0.3974  0.5059 -0.1552
 2695SOL    HW119718   2.663   3.236   3.952 -0.6478 -0.4503  1.2247
 2695SOL    HW219719   2.786   3.168   3.995 -1.2166  1.3742  0.5342
 2696SOL     OW19720   1.875   3.589  11.536 -0.2148 -1.1145 -0.4650
 2696SOL    HW119721   1.929   3.625  11.607 -0.5682 -2.0600  0.2712
 2696SOL    HW219722   1.937   3.584  11.463  3.1660 -1.5797  2.4020
 2697SOL     OW19723   4.612   3.474   9.766  0.3720  0.4087  0.1428
 2697SOL    HW119724   4.592   3.543   9.703 -2.9176 -0.9748 -0.3303
 2697SOL    HW219725   4.551   3.495   9.837  0.3544 -1.1164  0.5804
 2698SOL     OW19726   4.045   2.181  10.183 -0.2832  0.0815 -0.1436
 2698SOL    HW119727   4.052   2.245  10.112 -3.3429 -1.5531 -1.9218
 2698SOL    HW219728   4.094   2.110  10.140  1.1989  2.2583 -2.0759
 2699SOL     OW19729   1.402   2.680  15.859 -0.8501 -0.1290  0.4709
 2699SOL    HW119730   1.307   2.681  15.851 -0.6506  0.3957 -1.6187
 2699SOL    HW219731   1.412   2.618  15.932 -0.5948 -0.0818  0.4782
 2700SOL     OW19732   0.246   0.665  12.870  0.0787  0.1795 -0.3254
 2700SOL    HW119733   0.172   0.680  12.811 -1.4980  0.1555  1.6671
 2700SOL    HW219734   0.274   0.756  12.874  2.1476 -0.4962  0.3007
 2701SOL     OW19735   2.715   2.293   5.863  0.4176  0.1796 -0.1219
 2701SOL    HW119736   2.692   2.370   5.915  0.5048  0.5079 -0.5658
 2701SOL    HW219737   2.700   2.218   5.920  0.7213  0.5413  0.4327
 2702SOL     OW19738   0.768   4.088  15.936 -0.3330  0.3112 -0.1810
 2702SOL    HW119739   0.680   4.109  15.907 -0.9393  1.0316  2.1773
 2702SOL    HW219740   0.759   3.994  15.948 -0.2761  0.5204  1.5688
 2703SOL     OW19741   3.646   3.458   5.618 -0.7578 -0.1270 -0.0691
 2703SOL    HW119742   3.718   3.508   5.657 -1.2287 -0.5291  1.3475
 2703SOL    HW219743   3.589   3.529   5.589 -1.6565 -0.6651  0.3716
 2704SOL     OW19744   2.502   0.776   3.334 -0.4096  0.0468  0.0334
 2704SOL    HW119745   2.506   0.685   3.306  0.0176  0.2410 -0.5518
 2704SOL    HW219746   2.595   0.798   3.345 -0.4200 -0.5118  1.1764
 2705SOL     OW19747   0.695   3.216  10.694 -0.2477  0.1770 -0.3877
 2705SOL    HW119748   0.677   3.168  10.613  1.0357  0.7724 -1.0240
 2705SOL    HW219749   0.638   3.178  10.761  0.2180  0.5922  0.2393
 2706SOL     OW19750   2.061   1.658  14.078 -0.6713  0.5048  0.4107
 2706SOL    HW119751   2.035   1.575  14.039  0.2363  0.7680 -0.7669
 2706SOL    HW219752   2.043   1.650  14.171 -0.1870  1.3702  0.5863
 2707SOL     OW19753   0.210   2.705   2.227  0.2222 -0.6166 -0.2508
 2707SOL    HW119754   0.258   2.782   2.259 -0.2011  0.5823 -2.4741
 2707SOL    HW219755   0.248   2.696   2.140  1.4410  0.7030  0.1332
 2708SOL     OW19756   1.642   2.371   1.700 -0.0245  0.1718  0.0590
 2708SOL    HW119757   1.573   2.434   1.722  1.6185  1.7762  0.6411
 2708SOL    HW219758   1.687   2.374   1.785  0.2723  3.5974 -0.1984
 2709SOL     OW19759   4.539   2.688   7.520  0.0563  0.1417  0.6605
 2709SOL    HW119760   4.492   2.606   7.501 -0.7516  0.4197  1.4856
 2709SOL    HW219761   4.573   2.670   7.607  1.9763  0.1839 -0.0845
 2710SOL     OW19762   2.625   3.003   7.872  0.4110  0.1913  0.5926
 2710SOL    HW119763   2.589   2.927   7.826  1.9729 -0.5165  0.5624
 2710SOL    HW219764   2.575   2.998   7.954 -0.0631 -1.0507  0.2337
 2711SOL     OW19765   4.690   3.393   4.042 -0.3362 -0.0436  0.1931
 2711SOL    HW119766   4.611   3.388   4.096 -0.3441  1.8321  0.3592
 2711SOL    HW219767   0.012   3.322   4.073  0.0861  0.1726 -0.0799
 2712SOL     OW19768   4.428   0.075   5.786  0.0972 -0.0542 -0.5149
 2712SOL    HW119769   4.423   4.719   5.755  3.0365  0.1564 -1.6075
 2712SOL    HW219770   4.473   0.062   5.869  1.4755 -0.2531 -1.2858
 2713SOL     OW19771   4.111   2.276  15.938  0.4157 -0.3207 -0.3364
 2713SOL    HW119772   4.127   2.184  15.961  0.0513 -0.5805 -1.1134
 2713SOL    HW219773   4.116   2.272  15.843 -1.0458  0.6742 -0.4464
 2714SOL     OW19774   3.916   1.422   1.630 -0.1290 -0.3730 -0.1095
 2714SOL    HW119775   3.841   1.414   1.571  1.5695 -1.3105 -2.0963
 2714SOL    HW219776   3.960   1.499   1.594 -1.6300  0.3635 -0.3666
 2715SOL     OW19777   0.166   3.784   5.647 -0.1894  0.1035 -0.2883
 2715SOL    HW119778   0.073   3.763   5.643 -0.0837  0.0742 -2.2230
 2715SOL    HW219779   0.181   3.752   5.736  0.4884  0.1512 -0.3854
 2716SOL     OW19780   1.775   1.650   8.119 -0.2584 -0.1688  0.5513
 2716SOL    HW119781   1.815   1.615   8.040  0.7084  3.2104 -0.4647
 2716SOL    HW219782   1.820   1.606   8.191 -0.5159  1.8450  1.9833
 2717SOL     OW19783   3.106   0.027  13.131 -0.1933  0.4993 -0.6193
 2717SOL    HW119784   3.111   0.099  13.193  0.4196 -1.2720  1.4092
 2717SOL    HW219785   3.047   0.068  13.068 -1.1655 -0.4100 -0.3046
 2718SOL     OW19786   4.296   3.550   8.978  0.1531 -0.0596  0.0851
 2718SOL    HW119787   4.274   3.640   9.001 -0.1391  0.2328 -1.3376
 2718SOL    HW219788   4.391   3.547   8.975  0.1198 -2.8843  2.3577
 2719SOL     OW19789   3.603   2.704  17.639 -0.3611  0.4516  0.3071
 2719SOL    HW119790   3.536   2.744  17.583 -1.0499  0.1613  0.9248
 2719SOL    HW219791   3.671   2.688  17.574 -2.2188 -0.8811 -1.3312
 2720SOL     OW19792   1.634   4.475  17.505 -0.0994  0.7272 -0.0889
 2720SOL    HW119793   1.690   4.434  17.439 -1.0530 -0.6369 -0.0531
 2720SOL    HW219794   1.640   4.408  17.573  0.1208  0.7939 -0.0417
 2721SOL     OW19795   0.436   1.779   6.605  0.3146  0.6365 -0.5230
 2721SOL    HW119796   0.400   1.861   6.640 -0.4283  0.4978 -0.9552
 2721SOL    HW219797   0.415   1.785   6.512 -2.3863  1.2354  0.1350
 2722SOL     OW19798   2.536   3.447   7.620  0.4070 -0.1399  0.0630
 2722SOL    HW119799   2.477   3.494   7.562  0.3478 -1.2984 -0.8066
 2722SOL    HW219800   2.614   3.441   7.564  0.8193 -0.3942  0.6530
 2723SOL     OW19801   0.321   2.224   5.634 -0.1372  0.9875 -0.0475
 2723SOL    HW119802   0.364   2.299   5.675 -0.4985  1.6175 -0.8052
 2723SOL    HW219803   0.338   2.153   5.696 -2.0847  0.1198 -0.5123
 2724SOL     OW19804   2.305   2.872   3.113  0.1838  0.1030  0.2039
 2724SOL    HW119805   2.395   2.845   3.131 -0.2270 -0.8859  0.7719
 2724SOL    HW219806   2.312   2.959   3.153 -2.2945  1.7113 -2.8450
 2725SOL     OW19807   2.385   1.491   6.358  0.3554 -0.3148 -0.5244
 2725SOL    HW119808   2.426   1.412   6.393 -0.8482 -1.0375 -0.7518
 2725SOL    HW219809   2.442   1.562   6.387 -0.7943  2.0759 -3.9710
 2726SOL     OW19810   1.509   4.397   2.900  0.6608  0.0783 -0.2737
 2726SOL    HW119811   1.538   4.376   2.989  0.4033 -1.0619 -0.4564
 2726SOL    HW219812   1.595   4.400   2.859  0.4726 -0.4135 -0.7110
 2727SOL     OW19813   4.478   3.238   8.929  0.0785  0.4619  0.1569
 2727SOL    HW119814   4.470   3.333   8.919  0.1419  0.3920 -0.5287
 2727SOL    HW219815   4.527   3.207   8.853  1.3746  0.4248  0.9905
 2728SOL     OW19816   2.758   2.215  13.737 -0.2313  0.3417 -0.0983
 2728SOL    HW119817   2.678   2.264  13.756 -0.0533  1.5159 -2.2670
 2728SOL    HW219818   2.751   2.221  13.641 -1.9557  2.2516  0.1549
 2729SOL     OW19819   2.974   4.579   1.135  0.2878 -0.6949 -0.1341
 2729SOL    HW119820   2.976   4.548   1.044 -1.1432 -0.5117 -0.2396
 2729SOL    HW219821   2.910   4.518   1.171  0.1276 -0.2842  0.2788
 2730SOL     OW19822   3.221   0.975   4.610  0.5010  0.1592  0.0944
 2730SOL    HW119823   3.293   1.039   4.606 -0.9355  1.8173  0.9883
 2730SOL    HW219824   3.162   1.010   4.676  1.2943  0.2504  0.7613
 2731SOL     OW19825   3.995   2.794   3.404 -0.0879 -0.3621  0.4706
 2731SOL    HW119826   3.913   2.764   3.362  1.1495 -2.0321 -0.7787
 2731SOL    HW219827   4.048   2.715   3.394  2.1695  1.1928  0.2466
 2732SOL     OW19828   4.230   0.570   7.500  0.3508 -0.2491  0.2330
 2732SOL    HW119829   4.275   0.652   7.481 -1.4628  0.5391 -0.6815
 2732SOL    HW219830   4.273   0.552   7.584 -0.6169  0.5045  0.8880
 2733SOL     OW19831   3.425   1.184  11.756  0.9519  0.0082  0.8489
 2733SOL    HW119832   3.370   1.182  11.678  0.6167 -1.6367  1.1244
 2733SOL    HW219833   3.430   1.280  11.762 -1.2875  0.2431 -0.9438
 2734SOL     OW19834   2.064   1.983   4.855 -0.2642  0.3574  0.0654
 2734SOL    HW119835   2.101   1.914   4.910 -0.0097 -1.7640 -2.7829
 2734SOL    HW219836   2.033   2.041   4.925 -1.7761 -0.5484  0.1386
 2735SOL     OW19837   3.956   1.349  13.449 -0.7780 -0.3326 -0.0340
 2735SOL    HW119838   3.963   1.326  13.542 -1.6364  1.6555  0.5352
 2735SOL    HW219839   3.874   1.400  13.451 -0.5675 -0.0022  0.3473
 2736SOL     OW19840   4.246   3.998   7.295  0.2297 -0.1782  0.6200
 2736SOL    HW119841   4.275   4.074   7.345 -0.4691  2.7559 -3.4336
 2736SOL    HW219842   4.317   3.992   7.231 -1.0341  0.3899 -0.8415
 2737SOL     OW19843   2.336   0.667  12.616 -0.2286 -0.4040  0.2797
 2737SOL    HW119844   2.250   0.643  12.581 -0.8509 -1.4522  2.5233
 2737SOL    HW219845   2.308   0.755  12.641  0.9613 -0.4751  1.8659
 2738SOL     OW19846   3.766   0.155   4.958 -0.3248 -0.1528 -0.1226
 2738SOL    HW119847   3.736   0.245   4.971 -0.2646  0.3111 -3.2918
 2738SOL    HW219848   3.720   0.123   4.881  1.0931 -1.4787 -0.4224
 2739SOL     OW19849   0.724   3.048   2.809  0.2426 -0.0235 -0.5572
 2739SOL    HW119850   0.704   3.133   2.846  0.6777  0.5239 -1.5908
 2739SOL    HW219851   0.793   3.018   2.869  0.0653 -4.4705 -2.5365
 2740SOL     OW19852   4.082   4.669   6.396  0.4327 -0.7917  0.3617
 2740SOL    HW119853   3.988   4.686   6.385  0.4697 -0.9080 -0.1217
 2740SOL    HW219854   4.080   4.624   6.481  0.6059 -2.7550 -0.6954
 2741SOL     OW19855   2.048   2.848  10.726  0.1478 -0.3019  0.4189
 2741SOL    HW119856   2.053   2.786  10.799 -1.6094 -0.6218  0.2650
 2741SOL    HW219857   2.035   2.786  10.654 -0.0596 -0.2639  0.4227
 2742SOL     OW19858   2.863   1.847   4.637  0.0108 -0.3432 -0.6454
 2742SOL    HW119859   2.945   1.889   4.610  1.3382 -1.4051  1.7157
 2742SOL    HW219860   2.868   1.767   4.584  3.6998 -0.6053  0.1144
 2743SOL     OW19861   1.068   0.230  17.583  0.1812  0.9285  0.1613
 2743SOL    HW119862   1.146   0.174  17.582 -0.8955 -0.5415 -1.2265
 2743SOL    HW219863   1.101   0.315  17.556  0.7928 -0.3582 -3.0763
 2744SOL     OW19864   0.588   3.042  10.084 -0.0519  0.0337 -0.5955
 2744SOL    HW119865   0.650   3.103  10.124  1.6537 -1.5019 -0.9013
 2744SOL    HW219866   0.588   3.075   9.994  0.0967 -0.2169 -0.6899
 2745SOL     OW19867   0.506   0.657   7.780  0.2815 -0.0079 -0.8848
 2745SOL    HW119868   0.584   0.712   7.785  0.3535 -0.2107  0.0885
 2745SOL    HW219869   0.483   0.644   7.872  2.7694 -1.8826 -0.5304
 2746SOL     OW19870   3.780   3.202   0.333 -0.1587 -0.4227  0.2338
 2746SOL    HW119871   3.826   3.208   0.249 -1.9287 -2.9536 -0.9314
 2746SOL    HW219872   3.713   3.133   0.326  0.1987 -0.8953  1.3512
 2747SOL     OW19873   0.480   3.266   6.710 -0.1349  0.5601  0.3669
 2747SOL    HW119874   0.396   3.252   6.666  0.3841  0.5154 -0.6055
 2747SOL    HW219875   0.465   3.215   6.790 -0.7923 -0.9060 -0.6854
 2748SOL     OW19876   3.559   0.582  13.533  1.1459 -0.0042 -0.3234
 2748SOL    HW119877   3.532   0.674  13.539 -0.1761 -0.4359  0.3957
 2748SOL    HW219878   3.653   0.580  13.549  0.7700 -0.7014  1.8409
 2749SOL     OW19879   1.725   0.449  15.376  0.4808 -0.4866  0.4888
 2749SOL    HW119880   1.721   0.489  15.288 -0.0553 -0.1848  0.6469
 2749SOL    HW219881   1.729   0.355  15.358  0.3419 -0.6196  1.1700
 2750SOL     OW19882   2.362   3.893   5.918  0.2384  0.2406 -0.7634
 2750SOL    HW119883   2.420   3.965   5.896  1.6701 -0.2242  1.4647
 2750SOL    HW219884   2.365   3.852   5.832 -2.0652  1.0634 -1.2385
 2751SOL     OW19885   2.085   0.956   8.045 -0.2241 -0.4606  0.4231
 2751SOL    HW119886   2.075   0.927   8.136  0.9964  0.1812  0.7603
 2751SOL    HW219887   2.147   1.027   8.065 -1.7966  1.4141 -1.4133
 2752SOL     OW19888   0.070   2.595   5.726 -0.2451 -0.0723  0.5447
 2752SOL    HW119889   0.143   2.627   5.674  0.3832 -1.8936  0.3374
 2752SOL    HW219890   0.021   2.564   5.650  0.4382 -0.0660  0.1020
 2753SOL     OW19891   1.809   2.169   5.483  0.1171 -0.1500 -0.1052
 2753SOL    HW119892   1.840   2.236   5.543 -1.3659 -1.3756  2.0323
 2753SOL    HW219893   1.796   2.091   5.537 -0.6644 -0.6709 -1.0471
 2754SOL     OW19894   2.471   1.414   7.225 -0.1758 -0.2410 -0.1063
 2754SOL    HW119895   2.564   1.402   7.204 -0.4326 -0.2626 -1.2079
 2754SOL    HW219896   2.478   1.443   7.316  0.9587  2.2878 -0.9766
 2755SOL     OW19897   3.782   0.209   3.423 -0.1217  0.3247 -0.0023
 2755SOL    HW119898   3.783   0.114   3.433 -0.6238  0.4552  1.2627
 2755SOL    HW219899   3.866   0.226   3.465  0.7285  0.5488 -1.7860
 2756SOL     OW19900   0.897   1.852   1.819  0.4037  0.4215  0.0970
 2756SOL    HW119901   0.905   1.866   1.913  3.1657  1.9731 -0.3804
 2756SOL    HW219902   0.965   1.788   1.795 -0.6974 -0.3362 -1.0062
 2757SOL     OW19903   3.786   0.650   8.694  0.5625  0.0355 -0.1736
 2757SOL    HW119904   3.787   0.689   8.781 -0.5846  1.6666 -0.8874
 2757SOL    HW219905   3.695   0.662   8.666  0.5713 -0.8416 -0.5884
 2758SOL     OW19906   1.468   3.453   0.919  0.6398  0.4842 -0.0405
 2758SOL    HW119907   1.480   3.513   0.992 -2.7329  0.9686  0.1081
 2758SOL    HW219908   1.415   3.385   0.958  0.0158  0.4154 -1.0046
 2759SOL     OW19909   4.714   2.494   2.265 -0.2705 -0.2428 -0.5248
 2759SOL    HW119910   4.723   2.500   2.360  0.7874  0.1624 -0.6528
 2759SOL    HW219911   0.060   2.542   2.244 -0.4596  0.6992  0.9375
 2760SOL     OW19912   3.961   3.172   9.007  0.0732  0.1621  0.4195
 2760SOL    HW119913   3.976   3.266   8.999  0.0095 -0.1324 -2.9794
 2760SOL    HW219914   3.902   3.154   8.934 -0.1261  0.5905  0.4747
 2761SOL     OW19915   3.843   3.201  10.068 -0.2405 -0.0078 -0.3798
 2761SOL    HW119916   3.809   3.276  10.116 -0.9556 -0.5581 -0.0362
 2761SOL    HW219917   3.812   3.220   9.979 -2.3497  1.2047  0.6144
 2762SOL     OW19918   1.428   2.491   1.851  0.6914  0.0715 -0.3594
 2762SOL    HW119919   1.485   2.434   1.903 -0.7200 -2.5240 -1.6291
 2762SOL    HW219920   1.358   2.500   1.916  2.8826 -0.8954  2.1629
 2763SOL     OW19921   3.072   2.637   8.730  0.1789  0.1510 -0.1804
 2763SOL    HW119922   3.049   2.626   8.822  1.1191  0.1161  0.0451
 2763SOL    HW219923   3.146   2.577   8.728 -1.4959 -1.8882 -1.6403
 2764SOL     OW19924   1.230   4.077   3.520  0.1641 -0.8639 -0.4334
 2764SOL    HW119925   1.235   4.163   3.479  1.3731 -1.5428 -1.7064
 2764SOL    HW219926   1.315   4.036   3.505 -0.3563 -1.5356 -1.5280
 2765SOL     OW19927   0.850   0.299  12.725 -0.5370 -0.1066  0.1822
 2765SOL    HW119928   0.901   0.294  12.806  0.6493  1.3860 -0.4719
 2765SOL    HW219929   0.776   0.343  12.768 -0.8849 -1.0637  0.5575
 2766SOL     OW19930   3.022   3.791   3.958  0.4785 -0.5825 -0.1045
 2766SOL    HW119931   3.056   3.707   3.987 -0.6277 -0.6641  0.9735
 2766SOL    HW219932   3.099   3.846   3.971 -0.9204  0.8147  2.3997
 2767SOL     OW19933   3.958   0.903   8.695  0.2822 -0.3448 -0.1543
 2767SOL    HW119934   4.004   0.845   8.755 -0.8890 -0.2392  0.8358
 2767SOL    HW219935   3.892   0.843   8.661 -0.2702  1.5133 -2.3982
 2768SOL     OW19936   1.317   0.899   6.445  0.3919  0.0875  0.2231
 2768SOL    HW119937   1.268   0.858   6.516 -1.6842  0.2156 -1.1267
 2768SOL    HW219938   1.389   0.938   6.494  0.7379  1.6455 -1.5350
 2769SOL     OW19939   4.208   3.072   7.491 -0.0121  0.3776  0.3530
 2769SOL    HW119940   4.123   3.027   7.495  0.7212 -1.3770 -3.9852
 2769SOL    HW219941   4.257   3.003   7.446 -1.5080 -1.7914  2.0000
 2770SOL     OW19942   4.360   3.816   9.970 -0.3445  0.6082 -0.0997
 2770SOL    HW119943   4.267   3.814   9.992 -0.1553 -0.8220  0.5823
 2770SOL    HW219944   4.382   3.909   9.980 -0.9728  0.6072  1.2719
 2771SOL     OW19945   1.818   2.305   3.990 -0.3006 -0.0988  0.0748
 2771SOL    HW119946   1.893   2.346   4.031  2.5119 -4.0129 -1.1406
 2771SOL    HW219947   1.779   2.269   4.070 -0.7429  0.5324  0.1397
 2772SOL     OW19948   1.560   2.894   2.013 -0.3782 -0.4207 -0.2682
 2772SOL    HW119949   1.622   2.934   1.953 -0.1599  1.5508  1.2433
 2772SOL    HW219950   1.496   2.962   2.036 -0.8539 -0.9239 -0.1105
 2773SOL     OW19951   3.938   4.303   9.151  0.5972 -0.3986 -0.6381
 2773SOL    HW119952   3.848   4.301   9.119 -0.4279 -3.0631  2.4003
 2773SOL    HW219953   3.944   4.227   9.209 -3.9188  0.2356  0.6457
 2774SOL     OW19954   0.816   0.274   8.818 -0.3841  0.1320 -0.1054
 2774SOL    HW119955   0.889   0.335   8.826  0.5155 -0.6944 -1.9976
 2774SOL    HW219956   0.846   0.205   8.878  0.6976  1.4288  0.8421
 2775SOL     OW19957   0.344   0.341   6.280  0.3823  0.5154 -0.3569
 2775SOL    HW119958   0.362   0.281   6.209 -1.5749  0.5248 -0.8685
 2775SOL    HW219959   0.395   0.415   6.248  0.4993  0.5192 -0.1666
 2776SOL     OW19960   2.032   4.655   1.378  0.2449  0.1964 -0.0368
 2776SOL    HW119961   2.016   4.561   1.384  2.5208 -0.2978 -1.8118
 2776SOL    HW219962   1.946   4.685   1.407  1.3908  3.7573 -0.2611
 2777SOL     OW19963   1.230   1.371   6.603 -0.0688 -0.2733  0.0960
 2777SOL    HW119964   1.269   1.338   6.522 -0.7948 -0.9794  0.0248
 2777SOL    HW219965   1.274   1.314   6.666  0.2173  0.3581  0.4557
 2778SOL     OW19966   2.310   4.223  12.770 -0.5928 -0.3011 -0.0508
 2778SOL    HW119967   2.380   4.211  12.706  0.3972 -0.3573  1.0421
 2778SOL    HW219968   2.239   4.216  12.706  1.6285  1.7885 -2.7049
 2779SOL     OW19969   0.301   1.812   6.312 -0.2276 -0.0376  0.4762
 2779SOL    HW119970   0.240   1.863   6.365  1.2004  3.7689 -1.5347
 2779SOL    HW219971   0.246   1.782   6.240  2.3967 -0.8771 -1.1687
 2780SOL     OW19972   3.118   3.933   2.888  0.4165 -0.2176 -0.4514
 2780SOL    HW119973   3.199   3.967   2.928  0.5307 -2.3774  1.1512
 2780SOL    HW219974   3.069   3.908   2.966 -2.7962  0.0013 -2.4233
 2781SOL     OW19975   4.486   2.459  10.711 -0.2391 -0.5476  0.1416
 2781SOL    HW119976   4.407   2.427  10.668 -0.9397  1.5889 -0.1658
 2781SOL    HW219977   4.517   2.507  10.634  1.5655 -1.2892  0.3858
 2782SOL     OW19978   0.627   1.725   5.431 -0.6255  0.0836 -0.0127
 2782SOL    HW119979   0.613   1.807   5.384  2.7169  1.2400  0.9843
 2782SOL    HW219980   0.702   1.693   5.382 -1.7015 -4.0304  1.0597
 2783SOL     OW19981   1.661   1.441  17.246 -0.2925 -0.2147 -0.1229
 2783SOL    HW119982   1.578   1.395  17.234 -0.1944  0.5755 -3.9090
 2783SOL    HW219983   1.679   1.412  17.336 -0.5259 -1.0865 -0.3555
 2784SOL     OW19984   2.019   2.308   3.737 -0.7244  0.2475  0.2661
 2784SOL    HW119985   1.959   2.311   3.811 -1.0744 -0.3274  0.0099
 2784SOL    HW219986   2.102   2.336   3.775  0.4883 -1.9091 -0.7887
 2785SOL     OW19987   3.843   3.939   4.095 -0.4157  0.1312  0.6566
 2785SOL    HW119988   3.796   4.019   4.120 -0.3762 -0.0855  1.4407
 2785SOL    HW219989   3.827   3.900   4.181  1.0931 -1.4657  0.2138
 2786SOL     OW19990   1.968   1.469   2.317 -0.4121  0.0739 -0.2313
 2786SOL    HW119991   1.981   1.399   2.252 -0.4351  0.5694 -0.7653
 2786SOL    HW219992   1.975   1.548   2.264 -1.1356  0.4344  0.2117
 2787SOL     OW19993   0.012   2.003   7.431 -0.4442 -0.0302 -0.8397
 2787SOL    HW119994   0.031   1.980   7.522  3.0410 -0.8895 -1.7848
 2787SOL    HW219995   4.651   1.999   7.425 -0.4154 -0.1007 -1.2598
 2788SOL     OW19996   0.007   0.648   4.910 -0.0663 -0.3888  0.6773
 2788SOL    HW119997   4.653   0.668   4.879  0.3777  0.1650 -0.2374
 2788SOL    HW219998   0.054   0.716   4.861  0.9053 -1.0794  0.6638
 2789SOL     OW19999   1.296   1.341  14.704  0.0280  0.5397  0.0437
 2789SOL    HW120000   1.311   1.429  14.739 -0.9325  0.7069  0.0095
 2789SOL    HW220001   1.300   1.355  14.609  3.6343 -1.9277 -0.1680
 2790SOL     OW20002   1.161   2.833   3.805 -0.6256  0.2759 -0.1554
 2790SOL    HW120003   1.069   2.855   3.821 -0.4061 -0.0970  1.6362
 2790SOL    HW220004   1.161   2.843   3.710  2.0812  2.0688  0.0351
 2791SOL     OW20005   0.946   0.160   4.956  0.4613  0.1025  0.1334
 2791SOL    HW120006   1.022   0.159   4.898  0.4405  0.7678  0.0959
 2791SOL    HW220007   0.885   0.106   4.905  0.8912 -2.5640  2.4874
 2792SOL     OW20008   0.548   3.736   5.050  0.0803  0.4660 -0.8472
 2792SOL    HW120009   0.565   3.817   5.001  2.8626  0.3220 -0.1106
 2792SOL    HW220010   0.635   3.696   5.054 -0.2235 -0.3514 -2.5452
 2793SOL     OW20011   1.782   2.341   2.955  0.1132 -0.0590 -0.3608
 2793SOL    HW120012   1.875   2.344   2.933  0.1046  0.4491 -0.3219
 2793SOL    HW220013   1.756   2.433   2.963  1.0903  0.2020 -0.1754
 2794SOL     OW20014   2.606   0.298  12.327 -0.4756  0.2164 -0.2142
 2794SOL    HW120015   2.636   0.385  12.352  0.5759 -0.5961  1.3212
 2794SOL    HW220016   2.573   0.267  12.412  0.7842 -0.4240  0.0353
 2795SOL     OW20017   3.781   1.441   6.642  0.1358  0.1896  0.8740
 2795SOL    HW120018   3.845   1.446   6.571 -1.5994 -0.6018 -0.7589
 2795SOL    HW220019   3.821   1.481   6.719 -2.7141 -0.1934  2.5604
 2796SOL     OW20020   2.732   0.548   7.612  0.0528 -0.2436  0.2991
 2796SOL    HW120021   2.765   0.537   7.701 -0.8765 -0.3148  0.6312
 2796SOL    HW220022   2.639   0.564   7.622  0.4319  1.3587  1.2013
 2797SOL     OW20023   1.641   0.688   1.392 -0.6143 -0.2022 -0.3239
 2797SOL    HW120024   1.618   0.601   1.362 -0.4790 -0.7958  1.2785
 2797SOL    HW220025   1.735   0.683   1.410 -0.4162  1.6361 -0.8132
 2798SOL     OW20026   1.067   4.570   4.825  0.5041  0.4096  0.0452
 2798SOL    HW120027   1.119   4.622   4.886  0.6698  0.8978 -0.5227
 2798SOL    HW220028   1.134   4.536   4.766 -0.8584 -0.7400 -0.8325
 2799SOL     OW20029   1.011   4.542  17.632 -0.1878  0.1947  0.2680
 2799SOL    HW120030   1.077   4.547  17.701 -0.1258 -2.2356  0.3625
 2799SOL    HW220031   1.052   4.489  17.563 -0.1659 -2.0426  2.0066
 2800SOL     OW20032   0.716   4.259   2.951  0.5163 -0.1351 -0.5134
 2800SOL    HW120033   0.789   4.247   3.011  0.7204  1.1857 -0.4991
 2800SOL    HW220034   0.663   4.323   2.999  1.1921 -0.6171  0.8560
 2801SOL     OW20035   3.104   1.436   9.952 -0.4075  0.1795  0.2663
 2801SOL    HW120036   3.048   1.365   9.981 -0.9996 -0.4124 -2.3547
 2801SOL    HW220037   3.053   1.481   9.885 -1.2123 -1.1293  0.0175
 2802SOL     OW20038   1.683   4.626  10.772  0.1083 -0.1429 -0.0917
 2802SOL    HW120039   1.773   4.605  10.796  0.1207 -1.5370 -1.3559
 2802SOL    HW220040   1.637   4.544  10.790  0.7052 -1.0208 -2.4819
 2803SOL     OW20041   2.640   0.902   8.812  0.1294 -0.0741 -0.5428
 2803SOL    HW120042   2.683   0.818   8.793  0.7912  0.0965  0.1614
 2803SOL    HW220043   2.717   0.958   8.824 -0.5653 -0.0418  3.7461
 2804SOL     OW20044   0.538   3.981   6.484 -0.0935  0.2694  0.1725
 2804SOL    HW120045   0.447   3.964   6.463  0.0547 -0.2699 -0.0451
 2804SOL    HW220046   0.536   4.018   6.572  1.2809  0.1881  0.2446
 2805SOL     OW20047   2.068   0.822   5.654  0.0522  0.1979 -0.3528
 2805SOL    HW120048   2.065   0.856   5.565 -0.7595  0.2615 -0.3056
 2805SOL    HW220049   2.039   0.904   5.694 -0.0364  0.8334 -1.7184
 2806SOL     OW20050   0.175   2.611   3.032 -0.2310 -0.5030 -0.0392
 2806SOL    HW120051   0.263   2.576   3.046 -0.3414 -1.2004 -1.0695
 2806SOL    HW220052   0.197   2.685   2.976 -2.2179  1.1007  1.3102
 2807SOL     OW20053   2.756   4.363   6.500  0.0364 -0.2188  0.0412
 2807SOL    HW120054   2.793   4.370   6.413  1.7794 -0.0054  0.8015
 2807SOL    HW220055   2.665   4.338   6.483  0.1847  0.0028 -1.0597
 2808SOL     OW20056   1.699   4.559   4.748  0.0905  0.5595 -0.0298
 2808SOL    HW120057   1.729   4.480   4.702  0.5534 -1.3111  3.4922
 2808SOL    HW220058   1.648   4.597   4.676  1.3463 -0.2215 -1.3580
 2809SOL     OW20059   2.446   2.213   7.961  0.1572 -0.4113  0.1438
 2809SOL    HW120060   2.373   2.265   7.927 -1.1356 -1.5415  1.1670
 2809SOL    HW220061   2.407   2.126   7.967 -2.0271  0.6267  1.1490
 2810SOL     OW20062   4.446   4.291  11.615 -0.5322  0.0106  0.3422
 2810SOL    HW120063   4.373   4.258  11.563  0.4809 -0.1592 -0.9663
 2810SOL    HW220064   4.488   4.211  11.647  0.1013 -0.0018 -0.5425
 2811SOL     OW20065   0.796   0.337   9.115  0.1857  0.2027  0.4499
 2811SOL    HW120066   0.855   0.267   9.085  0.7670  1.2931 -0.9482
 2811SOL    HW220067   0.726   0.289   9.158  0.0581  0.2489  0.2943
 2812SOL     OW20068   4.141   4.489   3.694  0.5950  0.5030  0.1661
 2812SOL    HW120069   4.194   4.414   3.720 -2.3401 -1.7639 -0.3962
 2812SOL    HW220070   4.065   4.447   3.654  0.6126  0.5695  0.0640
 2813SOL     OW20071   1.317   3.859   2.509  0.1676  0.7285  0.5938
 2813SOL    HW120072   1.236   3.814   2.533  1.2520 -1.0830  0.8039
 2813SOL    HW220073   1.386   3.826   2.567 -1.2986 -0.1981  1.8180
 2814SOL     OW20074   1.134   2.965   3.489  0.5845  0.1874  0.8699
 2814SOL    HW120075   1.074   3.035   3.462  2.1634  1.6330  1.0795
 2814SOL    HW220076   1.067   2.905   3.521  1.5844 -0.2043  2.2369
 2815SOL     OW20077   1.022   0.280  14.128 -0.1301 -0.1431 -0.1878
 2815SOL    HW120078   1.107   0.251  14.094  0.2440  0.7243  0.0141
 2815SOL    HW220079   1.047   0.306  14.216  2.3802  1.6697 -1.4336
 2816SOL     OW20080   3.346   4.472  10.886 -0.0138  0.5021 -0.2484
 2816SOL    HW120081   3.337   4.567  10.886 -1.5529  0.3585 -0.3504
 2816SOL    HW220082   3.300   4.442  10.807 -1.1740 -1.0241  0.9986
 2817SOL     OW20083   2.353   2.344   9.366  0.0408 -0.2074  0.2346
 2817SOL    HW120084   2.396   2.261   9.390 -2.3569 -1.7225 -0.7643
 2817SOL    HW220085   2.298   2.312   9.295  1.4123  1.0591 -1.4067
 2818SOL     OW20086   1.786   0.748   6.294  0.3629 -0.1924 -0.6932
 2818SOL    HW120087   1.858   0.809   6.309  1.5515 -1.5374 -0.9287
 2818SOL    HW220088   1.712   0.808   6.286 -1.3324 -2.0844  0.5065
 2819SOL     OW20089   4.063   0.920   8.249 -0.3446 -0.2429  0.7079
 2819SOL    HW120090   3.967   0.923   8.256 -0.4651  1.0892 -1.5705
 2819SOL    HW220091   4.087   0.885   8.335 -0.6243 -1.5420  0.2520
 2820SOL     OW20092   2.038   1.123   7.318 -0.5083  0.3741 -0.0982
 2820SOL    HW120093   2.061   1.037   7.351  0.5897  0.5124 -0.5088
 2820SOL    HW220094   2.122   1.167   7.332 -0.6639  0.8502 -0.6335
 2821SOL     OW20095   0.981   2.421   5.361  0.3414  0.7696  0.5018
 2821SOL    HW120096   0.922   2.346   5.362  0.5091  0.6218 -0.5717
 2821SOL    HW220097   1.051   2.414   5.426  1.5714 -1.7022 -1.0578
 2822SOL     OW20098   3.685   2.383  13.106  0.4346  0.5999  0.2827
 2822SOL    HW120099   3.705   2.294  13.078 -1.0013  1.1842 -2.5264
 2822SOL    HW220100   3.670   2.427  13.022 -1.8724 -2.2174 -0.7413
 2823SOL     OW20101   4.442   4.025  16.263  0.1162 -0.1535 -0.0091
 2823SOL    HW120102   4.489   4.083  16.323 -0.7556 -1.7565  2.2449
 2823SOL    HW220103   4.471   4.059  16.178  0.5120  0.1607  0.2513
 2824SOL     OW20104   4.092   3.561  10.598  0.5882 -0.4971 -0.0030
 2824SOL    HW120105   4.067   3.642  10.644  3.3673  0.7582 -0.6841
 2824SOL    HW220106   4.037   3.493  10.636  0.2520  0.4770  1.2733
 2825SOL     OW20107   0.106   4.262   6.178  0.0065  0.7211 -0.1247
 2825SOL    HW120108   0.172   4.306   6.231  0.2559 -0.7295  0.7842
 2825SOL    HW220109   0.158   4.259   6.097  0.2962  2.3459  0.0155
 2826SOL     OW20110   0.695   2.728   4.704  0.2443 -0.1124  0.2740
 2826SOL    HW120111   0.775   2.689   4.740 -0.0855  0.0462  1.1920
 2826SOL    HW220112   0.632   2.702   4.771 -1.2654 -0.4442 -1.2921
 2827SOL     OW20113   2.235   1.469  17.154 -0.2273 -0.1474  0.1575
 2827SOL    HW120114   2.189   1.474  17.238  1.4909 -2.1771  1.2096
 2827SOL    HW220115   2.179   1.416  17.098 -0.8091 -0.7211  1.2738
 2828SOL     OW20116   0.459   4.440   4.493  0.6172  0.7735 -0.3561
 2828SOL    HW120117   0.406   4.491   4.555  0.5777  1.3150 -0.8370
 2828SOL    HW220118   0.487   4.363   4.541  1.7140  0.9767 -0.6763
 2829SOL     OW20119   2.952   3.057   3.480  0.0568  0.1487 -0.5365
 2829SOL    HW120120   3.036   3.018   3.460  0.1574 -1.0411  2.1500
 2829SOL    HW220121   2.924   3.085   3.393  0.8340  0.7262 -0.6008
 2830SOL     OW20122   1.449   3.054   4.823 -0.2096  0.0538  0.2451
 2830SOL    HW120123   1.400   3.074   4.903 -1.1401 -0.9410 -0.0808
 2830SOL    HW220124   1.452   3.139   4.779  0.5607 -0.0736  0.0476
 2831SOL     OW20125   3.313   2.162   6.278  0.3558  0.0075  0.2053
 2831SOL    HW120126   3.400   2.153   6.237 -0.8932 -1.6107 -2.0835
 2831SOL    HW220127   3.304   2.255   6.298 -0.6236 -0.4625  1.9210
 2832SOL     OW20128   1.425   1.082   7.489 -0.1856  0.6082  0.4010
 2832SOL    HW120129   1.386   1.097   7.575 -1.2867  0.2384 -0.0317
 2832SOL    HW220130   1.357   1.123   7.436  1.1158  2.1532 -0.0789
 2833SOL     OW20131   2.311   4.179   0.515  0.4211 -0.4942  0.3946
 2833SOL    HW120132   2.392   4.228   0.527  0.5897 -1.1488  2.0145
 2833SOL    HW220133   2.248   4.249   0.502  0.6528 -0.1112  1.3566
 2834SOL     OW20134   1.021   4.372  13.959  0.0965 -0.9006  0.2535
 2834SOL    HW120135   0.938   4.420  13.961  0.1434 -0.9017  2.1511
 2834SOL    HW220136   1.040   4.368  13.865 -0.0749  2.6110  0.0718
 2835SOL     OW20137   2.400   3.334   3.438 -0.9838 -0.2676 -0.1049
 2835SOL    HW120138   2.496   3.338   3.435 -1.0075  1.4412  0.9339
 2835SOL    HW220139   2.373   3.419   3.404  1.0753  0.1161 -0.7837
 2836SOL     OW20140   3.521   2.669  13.957 -0.0767  0.0879 -0.4540
 2836SOL    HW120141   3.446   2.613  13.938 -1.2266  1.2001  0.7271
 2836SOL    HW220142   3.491   2.744  13.905 -0.0378  0.5472  0.1921
 2837SOL     OW20143   2.104   3.990   6.060 -0.4051  0.0625  0.1326
 2837SOL    HW120144   2.061   3.968   6.143  0.1896  1.2155  0.7425
 2837SOL    HW220145   2.024   4.007   6.010  1.3032 -0.7194 -2.8222
 2838SOL     OW20146   1.322   2.444  15.764  0.2218 -0.2430 -0.0189
 2838SOL    HW120147   1.407   2.460  15.722 -0.2663  1.1872 -0.4737
 2838SOL    HW220148   1.351   2.422  15.853 -2.8130 -0.4863  0.9097
 2839SOL     OW20149   4.437   4.727   5.400 -0.0125  0.1883 -0.2663
 2839SOL    HW120150   4.375   4.655   5.392  1.5314 -1.1211 -0.4559
 2839SOL    HW220151   4.457   4.718   5.493 -0.0295  0.9078 -0.1884
 2840SOL     OW20152   3.919   2.186   1.506  0.1578  0.2510 -0.1680
 2840SOL    HW120153   3.955   2.105   1.469 -1.0571  0.2205 -1.2932
 2840SOL    HW220154   3.833   2.147   1.522  0.3780 -0.8882 -1.6648
 2841SOL     OW20155   4.495   3.865   3.673 -0.4239 -0.1033 -0.3200
 2841SOL    HW120156   4.451   3.938   3.630 -0.5272  1.4622  2.4399
 2841SOL    HW220157   4.432   3.794   3.673 -0.6310  0.0787 -1.4198
 2842SOL     OW20158   3.657   1.597   4.964  0.0626 -0.3442 -0.1732
 2842SOL    HW120159   3.747   1.593   4.998 -0.6561  0.6647  1.8193
 2842SOL    HW220160   3.638   1.504   4.950 -0.0485 -0.0508 -2.0420
 2843SOL     OW20161   4.005   0.296   3.545  0.5375 -0.6507  0.4925
 2843SOL    HW120162   4.098   0.305   3.527  0.1973  3.0648  0.6511
 2843SOL    HW220163   3.997   0.348   3.625  0.1711  0.0065  0.0258
 2844SOL     OW20164   2.766   2.750  16.328  0.0961 -0.1299 -0.1462
 2844SOL    HW120165   2.759   2.836  16.370  1.5249  0.8015 -1.7746
 2844SOL    HW220166   2.748   2.693  16.402  1.7394 -0.9183 -0.3553
 2845SOL     OW20167   1.500   1.969  10.308  0.0956 -0.0899 -0.1966
 2845SOL    HW120168   1.595   1.984  10.301  0.2766 -0.1344  2.2163
 2845SOL    HW220169   1.503   1.876  10.284  0.9248 -0.2448  0.5118
 2846SOL     OW20170   4.100   2.314   4.999  0.2599  0.6358 -0.1894
 2846SOL    HW120171   4.024   2.324   5.056 -0.2888  1.6628 -1.0926
 2846SOL    HW220172   4.063   2.257   4.931  1.4383 -1.7266  1.1595
 2847SOL     OW20173   1.825   0.151   0.632 -0.3078 -0.2805 -0.0029
 2847SOL    HW120174   1.842   0.078   0.572  2.3384  0.8717 -0.6532
 2847SOL    HW220175   1.873   0.220   0.587 -1.5104 -0.9296 -2.2664
 2848SOL     OW20176   2.260   0.813  14.788 -0.4905 -0.1410  0.3369
 2848SOL    HW120177   2.270   0.765  14.870  2.0297  0.1883  0.2256
 2848SOL    HW220178   2.239   0.893  14.837  1.5334  1.3288 -1.1932
 2849SOL     OW20179   0.860   4.673   4.223 -0.0111  0.4944 -0.0387
 2849SOL    HW120180   0.851   4.578   4.217  1.8607  0.4525 -2.0350
 2849SOL    HW220181   0.953   4.681   4.204  0.2941 -1.2023  0.7432
 2850SOL     OW20182   2.305   2.072   9.278 -0.1794  0.2592 -0.0942
 2850SOL    HW120183   2.218   2.109   9.265 -0.5050 -0.8984 -1.2252
 2850SOL    HW220184   2.292   1.996   9.335  0.7129 -0.6844 -1.1363
 2851SOL     OW20185   3.882   3.907   8.543  0.1055 -0.0478  0.0364
 2851SOL    HW120186   3.954   3.970   8.547 -0.3467  0.4181  0.5889
 2851SOL    HW220187   3.819   3.939   8.607 -1.7464 -1.9803 -0.7938
 2852SOL     OW20188   2.778   1.976   8.183 -0.0680 -0.0675 -0.4026
 2852SOL    HW120189   2.684   1.960   8.190  0.1265  0.0030  2.3715
 2852SOL    HW220190   2.808   1.889   8.154  0.6980  0.5777 -1.5256
 2853SOL     OW20191   2.333   0.797  10.363  0.1322 -0.2705  0.4712
 2853SOL    HW120192   2.371   0.713  10.388 -0.3464 -0.5289  0.3442
 2853SOL    HW220193   2.332   0.843  10.447  0.3657 -0.7492  0.7367
 2854SOL     OW20194   2.166   2.290   1.099 -0.1230 -0.7854  0.0913
 2854SOL    HW120195   2.119   2.373   1.104 -1.0406 -1.3440  0.8395
 2854SOL    HW220196   2.100   2.223   1.119 -1.8440  0.8017 -0.3161
 2855SOL     OW20197   2.827   0.585   0.102 -0.0269  0.0182 -0.1815
 2855SOL    HW120198   2.854   0.590   0.194 -0.6731  1.7037 -0.0726
 2855SOL    HW220199   2.757   0.521   0.108  0.9306 -0.9982  0.1778
 2856SOL     OW20200   4.417   1.347   6.265 -0.1992  0.5105 -0.1042
 2856SOL    HW120201   4.347   1.390   6.314  3.4438  3.8624  2.1784
 2856SOL    HW220202   4.490   1.409   6.259 -0.5965  1.0411  0.4707
 2857SOL     OW20203   1.958   3.545  17.347 -0.1546  0.4696 -0.7733
 2857SOL    HW120204   1.901   3.592  17.408 -1.6251 -0.8555 -1.1121
 2857SOL    HW220205   1.981   3.617  17.289  0.8858 -1.7037 -3.0521
 2858SOL     OW20206   0.317   1.943   3.568  0.5119 -0.6923  0.7483
 2858SOL    HW120207   0.228   1.960   3.539  0.9422  0.3704  0.0480
 2858SOL    HW220208   0.308   1.957   3.662  0.5975  0.5614  0.5746
 2859SOL     OW20209   4.443   1.221  12.813  0.1760 -0.0735 -0.1417
 2859SOL    HW120210   4.421   1.270  12.734  1.1588 -2.7537 -2.0961
 2859SOL    HW220211   4.380   1.253  12.877  0.2956  1.5795 -0.8573
 2860SOL     OW20212   1.312   2.972   6.110  0.3289  0.1484 -0.0692
 2860SOL    HW120213   1.245   2.906   6.127 -0.0712  1.0219  1.7709
 2860SOL    HW220214   1.262   3.027   6.050 -0.7789 -1.0260 -0.2195
 2861SOL     OW20215   1.958   1.274   4.439 -0.3257 -1.0175  0.5198
 2861SOL    HW120216   1.915   1.327   4.506  0.3536 -1.7823  1.5352
 2861SOL    HW220217   1.993   1.198   4.486  0.8893 -1.3777 -0.9692
 2862SOL     OW20218   0.299   0.738   5.953  0.4706  0.5196 -0.4400
 2862SOL    HW120219   0.342   0.809   5.906 -0.4145  0.0620 -1.9122
 2862SOL    HW220220   0.379   0.691   5.977 -0.8294 -1.4789  0.0710
 2863SOL     OW20221   0.512   1.928   3.359  0.2552 -0.2644  0.0201
 2863SOL    HW120222   0.462   1.962   3.434 -1.2945 -0.5501 -0.8652
 2863SOL    HW220223   0.464   1.968   3.286  0.5436 -0.4200 -0.2517
 2864SOL     OW20224   2.388   4.099  16.530 -0.3574 -0.1637 -0.1427
 2864SOL    HW120225   2.320   4.125  16.469 -0.0211 -0.7063 -0.7504
 2864SOL    HW220226   2.424   4.033  16.470 -3.3507 -1.3367 -0.6188
 2865SOL     OW20227   4.394   3.096   0.359 -0.2464  0.1782  0.9742
 2865SOL    HW120228   4.484   3.064   0.360 -0.0585  0.6603 -0.5962
 2865SOL    HW220229   4.398   3.153   0.436 -1.3277  1.0007  0.4224
 2866SOL     OW20230   2.825   0.289   7.883 -0.5258  0.1188 -0.0762
 2866SOL    HW120231   2.808   0.218   7.822 -0.8626  1.1169 -1.1435
 2866SOL    HW220232   2.875   0.357   7.837 -0.0196 -0.9294 -1.0652
 2867SOL     OW20233   2.600   4.280   0.541  0.6133  0.5128  0.0274
 2867SOL    HW120234   2.573   4.366   0.575 -0.6311 -0.3629  1.2718
 2867SOL    HW220235   2.668   4.264   0.606 -0.0098  1.3599  0.8972
 2868SOL     OW20236   1.883   3.761   4.170 -0.2510 -0.3113 -0.1895
 2868SOL    HW120237   1.827   3.688   4.143 -1.0913  0.5857 -0.8326
 2868SOL    HW220238   1.897   3.813   4.092  1.0057 -2.4690 -1.4101
 2869SOL     OW20239   0.060   0.964   9.107 -0.6696 -0.5775  0.0479
 2869SOL    HW120240   0.110   0.984   9.186 -2.4008 -0.2527  1.0667
 2869SOL    HW220241   0.020   0.879   9.127 -0.5602 -0.9799 -1.4337
 2870SOL     OW20242   3.634   3.594   7.897 -0.1122  0.1669  0.0918
 2870SOL    HW120243   3.636   3.572   7.990  1.9953  1.1651  0.2799
 2870SOL    HW220244   3.570   3.666   7.893  0.8477  1.0938  1.3615
 2871SOL     OW20245   0.744   3.538   0.111 -0.9490  0.0384 -0.1746
 2871SOL    HW120246   0.697   3.454   0.112  0.9342 -0.9838  1.8685
 2871SOL    HW220247   0.730   3.568   0.201  1.1957 -1.3054  0.5991
 2872SOL     OW20248   2.623   0.214  12.646 -0.2890  0.1078 -0.2476
 2872SOL    HW120249   2.547   0.272  12.647 -0.6560 -0.3707 -0.1837
 2872SOL    HW220250   2.599   0.146  12.583  0.9548  0.8760 -1.5491
 2873SOL     OW20251   2.183   3.212   0.736 -0.1118  0.1582 -0.0619
 2873SOL    HW120252   2.088   3.205   0.741 -0.1161  0.5678  0.4675
 2873SOL    HW220253   2.208   3.132   0.783 -2.6204 -1.4001 -1.4021
 2874SOL     OW20254   0.159   4.070   1.299 -0.2377  0.5391 -0.1677
 2874SOL    HW120255   0.170   4.162   1.325  1.6721  0.2849 -0.0987
 2874SOL    HW220256   0.103   4.035   1.368  0.8548  2.3479  1.6299
 2875SOL     OW20257   0.963   2.497   8.235 -0.4574 -0.0975 -0.0352
 2875SOL    HW120258   1.016   2.501   8.315  1.8052 -1.4936 -1.4616
 2875SOL    HW220259   0.876   2.474   8.266 -0.9375  0.3259 -1.1126
 2876SOL     OW20260   2.727   3.662  15.682  0.3675 -0.1698  0.1601
 2876SOL    HW120261   2.735   3.572  15.714 -1.3121  0.0900  1.2837
 2876SOL    HW220262   2.805   3.675  15.628  0.1306 -2.6847 -0.7652
 2877SOL     OW20263   1.181   0.341   1.551 -0.1681 -0.9269  0.3386
 2877SOL    HW120264   1.241   0.363   1.479 -0.5140  1.1164  0.6749
 2877SOL    HW220265   1.246   0.313   1.615  0.5459 -1.3728 -0.5729
 2878SOL     OW20266   1.849   3.690  16.698  0.1894  0.6995 -0.6034
 2878SOL    HW120267   1.870   3.623  16.632  0.0100  1.5620 -1.5367
 2878SOL    HW220268   1.801   3.758  16.652 -0.4871 -0.4363 -1.5798
 2879SOL     OW20269   2.488   1.568   5.069 -0.3649  0.6666  0.2536
 2879SOL    HW120270   2.435   1.495   5.102  0.7612  0.7410  2.1972
 2879SOL    HW220271   2.485   1.559   4.974 -0.3221  0.2115  0.2937
 2880SOL     OW20272   1.592   3.502  10.633  0.3164 -0.2072 -0.0161
 2880SOL    HW120273   1.666   3.542  10.679  0.5498 -1.7095  0.9116
 2880SOL    HW220274   1.640   3.458  10.563  0.2876 -1.8015  0.9521
 2881SOL     OW20275   1.481   3.924  14.446 -0.0287  0.2435  0.0866
 2881SOL    HW120276   1.409   3.966  14.493 -0.2680  0.6255 -0.6202
 2881SOL    HW220277   1.454   3.918  14.355 -1.3637 -0.9796  0.5680
 2882SOL     OW20278   0.397   0.885  16.482 -0.4042 -0.4140 -0.3123
 2882SOL    HW120279   0.379   0.801  16.439 -4.2988  0.9426 -1.3423
 2882SOL    HW220280   0.397   0.937  16.402  0.2003  1.0033  0.6206
 2883SOL     OW20281   0.076   1.432  11.779  0.3980 -0.0628  0.2017
 2883SOL    HW120282   0.094   1.509  11.725  1.8765 -0.8198 -0.3899
 2883SOL    HW220283   0.142   1.442  11.847  2.0207 -0.4830 -1.2900
 2884SOL     OW20284   4.409   0.634   0.063 -0.3669  0.0221  0.4098
 2884SOL    HW120285   4.351   0.558   0.064 -1.3209  0.7364 -0.4109
 2884SOL    HW220286   4.394   0.661  17.708 -2.1844  0.6030  0.8836
 2885SOL     OW20287   4.655   4.347   8.211  0.1656 -0.2767 -0.1139
 2885SOL    HW120288   4.622   4.267   8.251  0.7326  0.3194  1.5286
 2885SOL    HW220289   4.602   4.418   8.246 -1.4694 -0.6524 -1.8271
 2886SOL     OW20290   2.479   1.274  15.832 -0.6320  0.4391  0.1279
 2886SOL    HW120291   2.435   1.296  15.915 -0.1119  0.2708  0.4437
 2886SOL    HW220292   2.569   1.283  15.862 -0.1063 -0.8877 -1.0391
 2887SOL     OW20293   0.247   2.853   7.174  0.0215  0.3034  0.5599
 2887SOL    HW120294   0.293   2.797   7.236  2.0193 -0.2571 -1.4342
 2887SOL    HW220295   0.281   2.802   7.101 -2.7688 -0.0947 -0.4617
 2888SOL     OW20296   2.347   4.308   6.987 -0.1717 -0.5440 -0.3399
 2888SOL    HW120297   2.436   4.273   6.996  0.6326  1.4520 -0.7581
 2888SOL    HW220298   2.365   4.396   6.956 -2.7106 -0.4323 -1.4608
 2889SOL     OW20299   3.954   4.638  10.643 -0.0623 -0.5726  0.0613
 2889SOL    HW120300   3.941   4.641  10.548 -0.3115 -1.3382  0.0727
 2889SOL    HW220301   4.045   4.611  10.654  0.2851  0.5414 -0.0508
 2890SOL     OW20302   1.180   1.685   6.871  0.1524 -0.2261 -0.2387
 2890SOL    HW120303   1.218   1.773   6.870 -0.0266 -0.1193  2.7600
 2890SOL    HW220304   1.254   1.626   6.858  0.2605 -0.4511  1.4554
 2891SOL     OW20305   0.739   0.395   2.034  0.0060 -0.1073  0.5357
 2891SOL    HW120306   0.673   0.458   2.065 -0.1742 -0.0974  0.1317
 2891SOL    HW220307   0.811   0.456   2.024  0.3757 -0.6935 -0.3034
 2892SOL     OW20308   3.548   3.997   4.506 -0.0864 -0.7236 -0.3501
 2892SOL    HW120309   3.513   3.910   4.485  0.4118 -0.9898 -0.0713
 2892SOL    HW220310   3.556   4.003   4.601 -1.9728 -1.4022 -0.1369
 2893SOL     OW20311   3.172   2.038   2.435  0.0702 -0.0272  0.3791
 2893SOL    HW120312   3.257   2.046   2.392 -0.1327 -2.4852 -0.4892
 2893SOL    HW220313   3.162   1.950   2.471 -0.8343  0.1895  0.6549
 2894SOL     OW20314   0.663   1.149   9.516  0.3274  0.2831  0.1748
 2894SOL    HW120315   0.645   1.169   9.424  2.5953  0.1586 -0.2943
 2894SOL    HW220316   0.624   1.061   9.522  0.5146  0.4618  3.6262
 2895SOL     OW20317   3.667   1.518  10.548  0.0648  0.6278 -0.0432
 2895SOL    HW120318   3.679   1.476  10.633 -1.3266  0.9001  0.2838
 2895SOL    HW220319   3.760   1.508  10.526 -0.1258  0.3648 -0.7087
 2896SOL     OW20320   0.056   0.488   6.098  0.2193  0.7752 -0.1405
 2896SOL    HW120321   0.050   0.416   6.160 -1.2134  1.4808  0.5389
 2896SOL    HW220322   4.697   0.504   6.080  0.3930  0.7304 -1.0885
 2897SOL     OW20323   1.109   4.477   3.450  0.0916 -0.1628  0.1705
 2897SOL    HW120324   1.172   4.408   3.473  2.9543  2.1181 -0.7250
 2897SOL    HW220325   1.074   4.504   3.535 -1.8630 -0.6497 -0.5014
 2898SOL     OW20326   3.714   4.583  11.687 -0.7780  0.7207  0.2813
 2898SOL    HW120327   3.798   4.582  11.733  0.6206 -0.8831 -2.3247
 2898SOL    HW220328   3.669   4.525  11.748 -1.5937  1.9274  0.8394
 2899SOL     OW20329   1.388   3.979  10.363  0.1554 -0.6267 -0.2272
 2899SOL    HW120330   1.346   4.045  10.419 -0.0372  1.0938 -2.4344
 2899SOL    HW220331   1.463   3.948  10.413  0.3868 -0.8836 -0.7391
 2900SOL     OW20332   4.278   0.996  11.826 -0.2045 -0.2746  0.0693
 2900SOL    HW120333   4.304   0.922  11.771  0.9903 -0.0605  0.3278
 2900SOL    HW220334   4.218   0.950  11.884 -0.4084 -1.4018 -1.0568
 2901SOL     OW20335   1.434   1.237  16.414  0.1480  0.2223  0.6410
 2901SOL    HW120336   1.407   1.324  16.384  0.3433  0.2071  0.4266
 2901SOL    HW220337   1.459   1.253  16.505 -0.0307  0.5831  0.6264
 2902SOL     OW20338   3.066   2.302   6.086  0.1657 -0.0890 -0.2751
 2902SOL    HW120339   3.135   2.236   6.091 -2.1368 -2.3706  1.9161
 2902SOL    HW220340   3.054   2.317   5.993  0.1529  0.7909 -0.1319
 2903SOL     OW20341   4.100   1.352   6.839  0.2282  0.3437 -0.2631
 2903SOL    HW120342   4.136   1.418   6.779 -1.0788 -1.3645 -2.9497
 2903SOL    HW220343   4.142   1.275   6.801 -1.4578  0.0782 -1.6009
 2904SOL     OW20344   3.483   2.430   2.083 -0.1653 -0.3018 -0.1732
 2904SOL    HW120345   3.407   2.375   2.103  0.3888 -0.9524  0.1603
 2904SOL    HW220346   3.441   2.515   2.095  1.7508  0.8061 -1.4947
 2905SOL     OW20347   4.215   1.972   0.199  0.0197 -0.4934  0.3549
 2905SOL    HW120348   4.166   2.052   0.182 -3.3637 -2.6211  0.1789
 2905SOL    HW220349   4.254   2.001   0.282 -0.6844 -0.0899  0.5387
 2906SOL     OW20350   3.570   2.075  10.374  0.2300 -0.2995  0.4290
 2906SOL    HW120351   3.578   2.166  10.346  0.2243  0.1460  1.9040
 2906SOL    HW220352   3.633   2.096  10.443 -0.4825  1.4314  0.5386
 2907SOL     OW20353   4.422   3.491   3.433 -0.1434 -0.3909 -0.2455
 2907SOL    HW120354   4.458   3.515   3.348  0.5257  0.6363  0.3198
 2907SOL    HW220355   4.334   3.455   3.419 -1.5726  2.9884 -0.0587
 2908SOL     OW20356   2.727   1.319   4.072  0.0452  0.3461  0.0689
 2908SOL    HW120357   2.791   1.298   4.004  0.6551  1.3998  0.3037
 2908SOL    HW220358   2.770   1.272   4.143 -0.3080 -0.0181  0.0384
 2909SOL     OW20359   3.314   3.346  13.669  0.5946  0.2646  0.1645
 2909SOL    HW120360   3.380   3.296  13.717  1.5612  0.6230 -0.8140
 2909SOL    HW220361   3.359   3.428  13.648  0.5931  0.5302  1.1794
 2910SOL     OW20362   3.061   2.251   4.254  0.0398 -1.1033  0.1618
 2910SOL    HW120363   2.975   2.268   4.217  0.0658  0.6191  0.9067
 2910SOL    HW220364   3.074   2.158   4.233  2.3419 -0.1710 -2.5832
 2911SOL     OW20365   0.169   3.477   3.882 -0.3597  0.1679 -0.5474
 2911SOL    HW120366   0.083   3.471   3.925  0.1813 -0.8998  0.4074
 2911SOL    HW220367   0.201   3.387   3.885 -0.4541  0.1249 -0.9567
 2912SOL     OW20368   2.416   0.803  15.474 -0.4615 -0.8153 -0.1410
 2912SOL    HW120369   2.323   0.794  15.492 -0.1209 -1.2055  1.3750
 2912SOL    HW220370   2.456   0.785  15.559  0.1660 -0.8538 -0.4380
 2913SOL     OW20371   2.204   4.119   6.562  0.5089 -0.2573 -0.4733
 2913SOL    HW120372   2.195   4.197   6.617 -1.6122 -0.7454 -0.1646
 2913SOL    HW220373   2.270   4.072   6.613  0.2553 -1.6038 -1.3792
 2914SOL     OW20374   3.696   3.396   2.682  1.0073 -0.1534  0.2809
 2914SOL    HW120375   3.712   3.313   2.637 -1.0964 -0.6288  0.4359
 2914SOL    HW220376   3.752   3.455   2.631  1.1247  0.0666  0.6663
 2915SOL     OW20377   0.462   1.199  10.346 -0.3162 -0.3506 -0.5895
 2915SOL    HW120378   0.408   1.179  10.270 -1.0590 -1.1029  0.1264
 2915SOL    HW220379   0.472   1.117  10.395 -0.0430 -1.1600 -2.0208
 2916SOL     OW20380   1.382   1.222   9.148 -0.3305  0.2508  0.7504
 2916SOL    HW120381   1.302   1.208   9.199 -1.5325  2.3098 -0.5311
 2916SOL    HW220382   1.351   1.178   9.068 -0.0018 -0.6023  1.0950
 2917SOL     OW20383   1.318   3.450  15.914 -0.1762  0.4702  0.0606
 2917SOL    HW120384   1.296   3.414  16.000  1.8919  1.7067  1.1178
 2917SOL    HW220385   1.409   3.475  15.932  0.8102 -2.3391 -1.1469
 2918SOL     OW20386   2.536   4.092   4.628 -0.0850  0.0486  0.2524
 2918SOL    HW120387   2.456   4.126   4.668 -0.3410  1.1168 -1.1675
 2918SOL    HW220388   2.583   4.057   4.704 -0.1381 -0.7499 -0.0758
 2919SOL     OW20389   0.959   0.292   6.562  0.0715  0.5060  0.1149
 2919SOL    HW120390   1.011   0.249   6.630  1.0242 -1.2419 -1.7660
 2919SOL    HW220391   0.922   0.358   6.621 -1.6880  0.8315 -1.3649
 2920SOL     OW20392   1.111   0.833  16.259  0.3266 -0.4022  0.2777
 2920SOL    HW120393   1.116   0.870  16.347 -1.4576  1.2549 -0.3402
 2920SOL    HW220394   1.106   0.741  16.285 -0.1209 -0.8507 -1.3676
 2921SOL     OW20395   2.472   1.915  17.664  0.5730 -0.7645 -0.3121
 2921SOL    HW120396   2.458   1.979  17.594  1.5204 -0.1813  0.0248
 2921SOL    HW220397   2.396   1.858  17.660 -0.8845  1.1761 -0.4149
 2922SOL     OW20398   1.156   2.281   8.796  0.2117  0.9896  0.0095
 2922SOL    HW120399   1.184   2.367   8.764  1.4607  0.5392 -0.1180
 2922SOL    HW220400   1.097   2.252   8.727 -0.5821  3.8742 -0.5317
 2923SOL     OW20401   0.195   0.096   2.879 -0.0498 -0.3185 -0.0816
 2923SOL    HW120402   0.187   0.158   2.952  2.5580  1.4206 -1.2722
 2923SOL    HW220403   0.286   0.067   2.889 -0.2109 -0.5469  0.7105
 2924SOL     OW20404   1.591   3.317   4.805  0.0499  0.5367  0.6063
 2924SOL    HW120405   1.513   3.334   4.751  0.6183 -0.8999 -0.6542
 2924SOL    HW220406   1.602   3.406   4.839 -2.4379  1.0836 -0.0097
 2925SOL     OW20407   4.656   2.180   5.296 -0.9997 -0.3962 -0.9141
 2925SOL    HW120408   4.623   2.099   5.336 -0.2968  0.3952  1.2495
 2925SOL    HW220409   4.721   2.218   5.355  1.0157 -0.8906 -2.8070
 2926SOL     OW20410   0.444   4.094   3.902  0.5384 -0.0905  0.5624
 2926SOL    HW120411   0.408   4.166   3.851  0.6786  0.8226  1.7547
 2926SOL    HW220412   0.536   4.119   3.909  1.7613 -4.2408 -0.5874
 2927SOL     OW20413   1.273   2.169   3.003 -0.3569 -0.4289  0.5606
 2927SOL    HW120414   1.238   2.080   3.004  4.0583 -2.1505 -0.4057
 2927SOL    HW220415   1.330   2.179   2.927 -0.1328 -1.6874  0.5720
 2928SOL     OW20416   4.132   4.511  12.080  0.1292  0.2627 -0.3296
 2928SOL    HW120417   4.205   4.567  12.105 -0.3355  0.0516  1.4522
 2928SOL    HW220418   4.174   4.440  12.030 -0.6286  0.7332 -1.6508
 2929SOL     OW20419   4.733   1.996  17.588  0.1304 -0.1569  0.0644
 2929SOL    HW120420   4.659   1.989  17.529 -0.9303 -1.4706  1.5324
 2929SOL    HW220421   4.678   1.989  17.666 -3.4343 -0.2458 -2.4708
 2930SOL     OW20422   2.695   0.277   8.212 -0.4762 -0.5995  0.0067
 2930SOL    HW120423   2.702   0.316   8.125  0.7913  1.1790  0.9121
 2930SOL    HW220424   2.711   0.356   8.263 -0.9689 -0.3019 -0.2904
 2931SOL     OW20425   4.322   3.067   9.299 -0.2618  0.0654 -0.0423
 2931SOL    HW120426   4.404   3.070   9.251  0.8304  0.4618  1.8632
 2931SOL    HW220427   4.363   3.055   9.384  1.1275 -0.4265 -0.7841
 2932SOL     OW20428   0.084   0.713  10.578  0.3400  0.1883 -0.0433
 2932SOL    HW120429   0.130   0.772  10.518 -0.7995  2.1245  0.9753
 2932SOL    HW220430   4.731   0.712  10.539 -0.7372  1.7101  2.3033
 2933SOL     OW20431   1.533   0.954  13.958  0.4109  0.1902  0.6605
 2933SOL    HW120432   1.513   1.044  13.930  0.8338 -0.6295 -2.2453
 2933SOL    HW220433   1.517   0.903  13.878  2.9818  0.2050  0.1308
 2934SOL     OW20434   1.749   4.081   0.564 -0.1754  0.1819 -0.2371
 2934SOL    HW120435   1.654   4.085   0.572 -0.1554  4.0205 -1.6307
 2934SOL    HW220436   1.759   4.007   0.504  1.4668  1.0684 -1.0564
 2935SOL     OW20437   0.456   0.179   3.969 -0.2195  0.2163 -0.0294
 2935SOL    HW120438   0.544   0.189   4.005 -0.2685  1.5395 -0.2604
 2935SOL    HW220439   0.450   0.084   3.964  1.2213  0.1293 -0.1298
 2936SOL     OW20440   4.473   0.709   9.393  0.6573 -0.0470  0.4254
 2936SOL    HW120441   4.524   0.770   9.447  0.5879  0.7636 -0.4230
 2936SOL    HW220442   4.448   0.638   9.452  1.7622 -1.4071 -0.7208
 2937SOL     OW20443   4.297   1.690   7.282 -0.1264  0.3132 -0.1852
 2937SOL    HW120444   4.392   1.695   7.284 -0.0737  0.6883 -2.9166
 2937SOL    HW220445   4.272   1.739   7.204 -0.9668  2.8446  1.6663
 2938SOL     OW20446   0.447   4.374   7.500 -0.1563  0.2643  0.0384
 2938SOL    HW120447   0.360   4.412   7.487 -0.3667 -0.0829  0.4347
 2938SOL    HW220448   0.423   4.297   7.552 -2.8607  1.0877  0.0211
 2939SOL     OW20449   2.337   3.933   1.251 -0.5232 -0.0771 -0.1042
 2939SOL    HW120450   2.283   3.869   1.298  0.1614  0.3678  1.3057
 2939SOL    HW220451   2.422   3.913   1.290 -1.0928 -1.4386  0.4403
 2940SOL     OW20452   1.054   0.072   2.136 -0.1373  0.3261 -0.3689
 2940SOL    HW120453   1.062   4.716   2.167  0.7501  0.9419  1.1535
 2940SOL    HW220454   1.015   0.115   2.212 -0.5661  0.0809 -0.4510
 2941SOL     OW20455   0.769   1.169  15.227 -0.0521 -0.6267  0.3845
 2941SOL    HW120456   0.711   1.121  15.286 -0.6051  0.1459  0.4698
 2941SOL    HW220457   0.728   1.253  15.246  0.1984 -0.6607  1.0838
 2942SOL     OW20458   2.977   0.303   8.406 -0.2067  0.0628  0.1933
 2942SOL    HW120459   2.901   0.259   8.443 -1.5654  1.8920 -0.4358
 2942SOL    HW220460   2.996   0.252   8.327 -1.6988 -0.5531  0.2440
 2943SOL     OW20461   0.215   4.002   1.976  0.7359  0.3869 -0.1330
 2943SOL    HW120462   0.193   4.095   1.978  0.0512  0.2745 -1.8105
 2943SOL    HW220463   0.128   3.966   1.958  0.7035 -1.2248  3.3690
 2944SOL     OW20464   2.459   2.162   6.569  0.6718  0.3071  0.4387
 2944SOL    HW120465   2.540   2.185   6.523  0.3074 -1.4309 -1.0792
 2944SOL    HW220466   2.447   2.074   6.532  1.8438 -0.5835  2.2022
 2945SOL     OW20467   3.326   4.271   9.243 -0.7217  0.1152 -0.6670
 2945SOL    HW120468   3.247   4.295   9.196 -1.1752  0.8189  0.4384
 2945SOL    HW220469   3.298   4.290   9.333 -0.3103 -1.8759 -0.1107
 2946SOL     OW20470   0.386   0.147   0.747 -0.0957  0.9026 -0.7262
 2946SOL    HW120471   0.400   0.083   0.677 -0.3881  1.3050 -1.1524
 2946SOL    HW220472   0.315   0.103   0.794  0.7497  1.0110  0.6640
 2947SOL     OW20473   2.412   0.929   8.135 -0.3744 -0.9859  0.4699
 2947SOL    HW120474   2.473   0.946   8.207  0.0933 -0.2324 -0.1110
 2947SOL    HW220475   2.354   1.004   8.142  0.2896 -0.5128  0.8914
 2948SOL     OW20476   4.018   1.536   3.053 -0.5141 -0.3263  0.6700
 2948SOL    HW120477   4.092   1.484   3.022  1.3766  2.4561  0.5341
 2948SOL    HW220478   3.977   1.458   3.092 -0.5217  0.6517  2.6165
 2949SOL     OW20479   2.170   4.547   0.567 -0.1265  0.5489 -0.6734
 2949SOL    HW120480   2.215   4.501   0.638  0.7752 -0.1123 -1.6721
 2949SOL    HW220481   2.102   4.595   0.615  2.7867  3.6003  0.4373
 2950SOL     OW20482   2.657   4.065  17.563 -0.5097  0.2794 -0.8526
 2950SOL    HW120483   2.602   4.091  17.489 -1.5706 -0.6173 -0.3799
 2950SOL    HW220484   2.598   4.102  17.629  1.1789 -0.3119  1.0030
 2951SOL     OW20485   2.453   2.224   6.845  0.5148  0.1384  0.0172
 2951SOL    HW120486   2.388   2.291   6.867  0.2370 -0.6394  1.5936
 2951SOL    HW220487   2.447   2.197   6.754 -0.2161  1.4532 -0.3274
 2952SOL     OW20488   4.633   3.413   0.434 -0.2712  0.2355 -0.5117
 2952SOL    HW120489   4.569   3.366   0.486 -0.4809  1.1759  0.0785
 2952SOL    HW220490   4.607   3.501   0.460  3.0484  1.0498  0.0147
 2953SOL     OW20491   2.976   1.282   3.316  0.3216  0.4152  0.0512
 2953SOL    HW120492   2.986   1.230   3.237 -0.2957 -1.6025  1.3022
 2953SOL    HW220493   2.901   1.245   3.362  0.3392 -0.6760 -0.8174
 2954SOL     OW20494   0.266   1.443  11.966 -0.4320 -0.3554  1.0278
 2954SOL    HW120495   0.326   1.380  12.006 -2.3068 -2.7444  0.0764
 2954SOL    HW220496   0.260   1.509  12.035  1.4325 -0.7082  1.5180
 2955SOL     OW20497   1.977   0.101   5.733 -0.2784 -0.4124  0.0983
 2955SOL    HW120498   2.006   0.013   5.758 -2.0531 -1.3660 -1.2300
 2955SOL    HW220499   1.917   0.104   5.807  0.6805 -0.8444  0.8934
 2956SOL     OW20500   0.652   4.339   9.793  0.2812  0.1396  0.0508
 2956SOL    HW120501   0.658   4.265   9.854  1.2714  0.4383  0.3153
 2956SOL    HW220502   0.657   4.299   9.706 -0.2464 -2.8395  1.4053
 2957SOL     OW20503   3.297   1.127  10.868  0.2629  0.1256 -0.3941
 2957SOL    HW120504   3.273   1.217  10.888 -0.6726  0.0568 -1.2139
 2957SOL    HW220505   3.261   1.113  10.780 -1.4006  0.3652  0.2542
 2958SOL     OW20506   2.401   0.577   4.997  0.0379 -0.4769 -0.2225
 2958SOL    HW120507   2.389   0.614   4.909  2.3070 -0.3852 -0.4949
 2958SOL    HW220508   2.348   0.634   5.051 -1.1479  0.0428 -1.9250
 2959SOL     OW20509   0.205   4.350  11.712  0.1164  0.3438 -0.6206
 2959SOL    HW120510   0.122   4.391  11.735 -0.7570 -0.7917 -1.7371
 2959SOL    HW220511   0.266   4.423  11.719  1.3111 -0.7559  0.4399
 2960SOL     OW20512   1.727   2.386   7.588  0.2336 -0.1511  0.2938
 2960SOL    HW120513   1.759   2.390   7.498 -2.0012 -1.4647 -0.5460
 2960SOL    HW220514   1.677   2.467   7.593  0.2574 -0.0933 -0.3759
 2961SOL     OW20515   4.064   4.279   4.242 -0.2658 -0.6147  0.0928
 2961SOL    HW120516   4.059   4.290   4.337 -3.6929 -0.2697 -0.1094
 2961SOL    HW220517   4.157   4.265   4.229 -0.0786  0.3043  0.4317
 2962SOL     OW20518   3.159   3.266   7.719 -0.5237 -0.1556 -0.2912
 2962SOL    HW120519   3.098   3.198   7.746 -0.2429 -0.5364 -0.6185
 2962SOL    HW220520   3.136   3.273   7.626 -1.2250 -3.5935 -0.3624
 2963SOL     OW20521   2.966   2.449   3.524 -0.2547  0.5439 -0.3730
 2963SOL    HW120522   2.912   2.528   3.522 -1.8038 -0.4972  0.8564
 2963SOL    HW220523   3.050   2.486   3.550  0.3394 -0.1658 -1.2696
 2964SOL     OW20524   1.848   3.135   3.730 -0.2293 -0.3016  0.1591
 2964SOL    HW120525   1.933   3.097   3.752 -0.1506  0.2659  0.8257
 2964SOL    HW220526   1.836   3.111   3.638 -3.7251 -1.3216  0.8954
 2965SOL     OW20527   3.241   4.555   7.876  0.0426  0.5154  0.4546
 2965SOL    HW120528   3.222   4.487   7.941 -1.4924  0.7314  0.2267
 2965SOL    HW220529   3.179   4.540   7.804  1.2544 -0.8400 -0.3107
 2966SOL     OW20530   4.231   3.920   3.386 -0.2311  0.7458 -0.1583
 2966SOL    HW120531   4.310   3.973   3.376  0.6191 -0.7012 -1.0860
 2966SOL    HW220532   4.270   3.836   3.407 -1.8325  0.5535  2.0756
 2967SOL     OW20533   0.800   3.641   7.705  0.1091  0.2831  0.2738
 2967SOL    HW120534   0.854   3.719   7.715  1.6310 -0.9312  1.5964
 2967SOL    HW220535   0.782   3.613   7.795  2.3218  0.2507  0.6910
 2968SOL     OW20536   2.613   0.832   4.382  0.1946 -0.2561  0.1017
 2968SOL    HW120537   2.633   0.832   4.475  0.0596 -1.4792  0.1284
 2968SOL    HW220538   2.522   0.805   4.371  0.2308  0.4066 -1.9200
 2969SOL     OW20539   4.550   4.004   3.999  0.1530  0.0599 -0.4356
 2969SOL    HW120540   4.560   3.910   4.013  0.8623  0.3817  1.2487
 2969SOL    HW220541   4.575   4.047   4.081 -0.3652 -3.0699  1.3659
 2970SOL     OW20542   0.953   1.541  17.545  0.2461  0.4115 -0.0305
 2970SOL    HW120543   0.982   1.488  17.471 -1.6463  1.4860 -1.5360
 2970SOL    HW220544   1.026   1.603  17.552 -0.5941  1.3958 -0.0394
 2971SOL     OW20545   4.509   4.525   9.098  0.1103  0.3860 -0.1585
 2971SOL    HW120546   4.474   4.588   9.161 -0.7348  0.4031 -0.6530
 2971SOL    HW220547   4.601   4.512   9.121 -0.0962 -1.2522 -0.2581
 2972SOL     OW20548   4.673   2.202   6.055  0.3537  0.2308 -0.4609
 2972SOL    HW120549   4.720   2.254   6.120 -0.1617  1.0920 -0.7648
 2972SOL    HW220550   4.646   2.257   5.981 -0.2047 -0.0449 -0.4629
 2973SOL     OW20551   2.670   3.591   4.773  0.3957 -0.0983 -0.4218
 2973SOL    HW120552   2.701   3.504   4.797  2.6518  0.8958  0.2195
 2973SOL    HW220553   2.697   3.601   4.682  0.4738 -2.1490 -0.6262
 2974SOL     OW20554   1.405   4.586  15.162 -0.0840 -0.0533  0.0107
 2974SOL    HW120555   1.370   4.621  15.243 -0.0133 -0.0049  0.0211
 2974SOL    HW220556   1.337   4.613  15.101  0.5951 -1.6544 -1.4555
 2975SOL     OW20557   2.072   1.598   7.600  0.4524 -0.1282 -0.7059
 2975SOL    HW120558   2.034   1.546   7.529  0.2732 -3.3945  1.7719
 2975SOL    HW220559   2.006   1.575   7.665  1.5968 -1.4197  0.0233
 2976SOL     OW20560   2.268   2.083   7.620 -0.4240  0.8609  0.3933
 2976SOL    HW120561   2.194   2.039   7.578  1.4967 -1.9340 -0.0709
 2976SOL    HW220562   2.333   2.013   7.624  1.1163  2.2617 -0.7798
 2977SOL     OW20563   3.440   4.527   2.323  0.1560 -0.2507  0.3446
 2977SOL    HW120564   3.489   4.597   2.367 -3.5048  2.5369 -0.0976
 2977SOL    HW220565   3.430   4.465   2.396 -1.0183  0.0974  0.4749
 2978SOL     OW20566   2.278   2.840   4.818 -0.0087 -0.2682 -0.6029
 2978SOL    HW120567   2.214   2.812   4.753  0.4938 -2.8764  0.0116
 2978SOL    HW220568   2.343   2.877   4.758 -0.4913  2.0032  0.3161
 2979SOL     OW20569   1.207   1.397   6.084  0.0624 -0.2860 -0.5322
 2979SOL    HW120570   1.192   1.344   6.006  1.0234 -1.7372  0.2669
 2979SOL    HW220571   1.244   1.473   6.039 -3.7008  0.4767 -2.3104
 2980SOL     OW20572   1.675   0.705   1.818  0.3735  0.0636 -0.7414
 2980SOL    HW120573   1.625   0.772   1.866  1.1890  2.0999 -2.7368
 2980SOL    HW220574   1.717   0.677   1.899 -0.7530  0.0373 -0.1690
 2981SOL     OW20575   3.808   4.688   3.910  0.0540 -0.0110  0.0052
 2981SOL    HW120576   3.721   4.688   3.951  0.6341  3.1780  1.1659
 2981SOL    HW220577   3.840   4.604   3.944  0.1721 -0.0453 -0.1936
 2982SOL     OW20578   0.504   3.848   7.481 -0.2741  0.5525  0.6766
 2982SOL    HW120579   0.488   3.872   7.389  2.6417 -2.6461 -0.6909
 2982SOL    HW220580   0.581   3.900   7.500  0.2389 -0.0924  0.3589
 2983SOL     OW20581   3.243   2.746   6.891  0.0284  0.2086  0.1465
 2983SOL    HW120582   3.314   2.691   6.857  0.5860  2.3326 -2.1457
 2983SOL    HW220583   3.172   2.689   6.863  0.6480 -0.3260 -0.3375
 2984SOL     OW20584   3.948   3.155   4.594  0.0044  0.1179  0.1510
 2984SOL    HW120585   3.951   3.141   4.500 -1.4531  0.2934  0.0751
 2984SOL    HW220586   3.882   3.223   4.584 -1.9009 -1.5667  1.1391
 2985SOL     OW20587   0.532   2.829   5.657 -0.4157  0.2023 -0.2164
 2985SOL    HW120588   0.625   2.808   5.647 -0.9908 -2.2937 -0.2307
 2985SOL    HW220589   0.535   2.884   5.735  0.3268 -2.5079  1.6491
 2986SOL     OW20590   2.280   1.756  17.098 -0.1266 -0.5834 -0.0769
 2986SOL    HW120591   2.267   1.661  17.093  0.3189 -0.5941 -1.0804
 2986SOL    HW220592   2.264   1.781  17.007  0.1723  0.8998  0.2755
 2987SOL     OW20593   1.823   3.254   2.807 -0.0062 -0.2278  0.2211
 2987SOL    HW120594   1.884   3.287   2.741  0.5958 -0.9644  0.4189
 2987SOL    HW220595   1.835   3.160   2.803  4.0257  0.3466 -0.9025
 2988SOL     OW20596   3.961   3.315   6.321 -0.3249 -0.3996 -0.1211
 2988SOL    HW120597   3.959   3.344   6.230 -0.3421 -0.6524 -0.2015
 2988SOL    HW220598   3.936   3.223   6.318  1.0015 -0.7945  0.8483
 2989SOL     OW20599   2.678   3.769  16.686  0.5088 -0.1095  0.0895
 2989SOL    HW120600   2.739   3.814  16.628 -0.1937  0.1444 -0.4559
 2989SOL    HW220601   2.717   3.682  16.677  0.1990 -0.2961  0.5769
 2990SOL     OW20602   0.142   1.166   7.983  0.4909  0.0509  0.1767
 2990SOL    HW120603   0.147   1.169   7.888  2.6524 -1.0709  0.2447
 2990SOL    HW220604   0.142   1.260   8.001 -1.4778  0.1341 -0.3287
 2991SOL     OW20605   3.512   3.771  11.418 -0.6488  0.4223  0.2915
 2991SOL    HW120606   3.439   3.820  11.381 -1.0895  0.0173  0.6387
 2991SOL    HW220607   3.545   3.822  11.492  2.5182  0.0527 -0.8346
 2992SOL     OW20608   1.928   3.525   5.437  0.2223 -0.0622 -0.5135
 2992SOL    HW120609   2.000   3.492   5.384  0.0502  2.0764 -2.0574
 2992SOL    HW220610   1.941   3.495   5.527 -0.4007 -0.2251 -0.4789
 2993SOL     OW20611   4.258   3.887   8.748  0.2335 -0.1833 -0.3749
 2993SOL    HW120612   4.338   3.873   8.696 -1.2873  0.3381 -2.8680
 2993SOL    HW220613   4.284   3.857   8.835 -0.2462 -2.4639 -1.0322
 2994SOL     OW20614   2.369   0.259   2.907  0.0783  0.2123  0.6719
 2994SOL    HW120615   2.292   0.240   2.854  0.5638  0.6212 -0.1834
 2994SOL    HW220616   2.384   0.176   2.952 -0.1794  0.2994  0.9117
 2995SOL     OW20617   1.744   0.079   1.694  0.0871 -0.3078  1.1260
 2995SOL    HW120618   1.712   4.730   1.659  0.8201 -0.4373  0.7641
 2995SOL    HW220619   1.789   0.039   1.769  0.9055  3.6399  2.7378
 2996SOL     OW20620   1.672   3.048   1.769  0.0970 -0.0962 -0.3326
 2996SOL    HW120621   1.724   3.095   1.834 -1.4302  0.7439  0.2553
 2996SOL    HW220622   1.635   3.118   1.715 -0.1004 -0.0092 -0.0801
 2997SOL     OW20623   1.950   4.477  13.710 -0.6307 -0.3158  0.2512
 2997SOL    HW120624   1.966   4.558  13.758 -2.5845  0.2166 -0.0187
 2997SOL    HW220625   1.920   4.418  13.779  1.2389  0.1781  1.4786
 2998SOL     OW20626   0.634   0.304   7.988  0.2118  0.1149 -0.6442
 2998SOL    HW120627   0.690   0.257   7.926  0.0251  0.1958 -0.8775
 2998SOL    HW220628   0.703   0.338   8.044 -1.2713  1.2079  0.5078
 2999SOL     OW20629   4.169   3.064   2.266 -0.6594 -0.0662 -0.7057
 2999SOL    HW120630   4.130   3.007   2.200  1.0517 -1.7673 -0.2440
 2999SOL    HW220631   4.183   3.002   2.337  2.6571  0.0387 -1.3043
 3000SOL     OW20632   1.258   0.598   4.310  0.9231  0.4539 -0.0830
 3000SOL    HW120633   1.314   0.676   4.310 -0.9231  1.7889 -0.3873
 3000SOL    HW220634   1.175   0.643   4.324  0.0620 -1.1934  0.0037
 3001SOL     OW20635   1.934   3.151   7.568  0.5041  0.4584  0.0442
 3001SOL    HW120636   1.985   3.214   7.619  2.0175 -0.5138 -0.2563
 3001SOL    HW220637   1.911   3.196   7.487  2.5603 -0.9327 -1.3215
 3002SOL     OW20638   4.654   3.169   8.040 -0.0002  0.0235  0.5398
 3002SOL    HW120639   4.661   3.143   7.948  0.6234  2.5704 -0.1149
 3002SOL    HW220640   4.681   3.093   8.092  1.7736 -1.2001 -2.1697
 3003SOL     OW20641   4.138   4.248   6.034  0.0296  0.1156  0.1122
 3003SOL    HW120642   4.230   4.276   6.035  0.1982 -0.4748  0.6145
 3003SOL    HW220643   4.090   4.321   6.072  1.1414  0.8702  0.0836
 3004SOL     OW20644   3.702   0.824  11.828 -0.1852 -0.5262 -0.1768
 3004SOL    HW120645   3.711   0.757  11.761 -3.2945 -0.2915 -0.8371
 3004SOL    HW220646   3.775   0.802  11.886  0.6278  2.2417 -0.1526
 3005SOL     OW20647   1.629   3.407   2.466  0.4392 -0.2100 -0.2282
 3005SOL    HW120648   1.541   3.412   2.504  0.2960 -1.6521 -0.3616
 3005SOL    HW220649   1.671   3.463   2.531 -0.8089  1.1897 -0.6471
 3006SOL     OW20650   4.219   2.669   8.738 -0.1473  0.3188 -0.6019
 3006SOL    HW120651   4.277   2.735   8.776  1.3206 -1.0364 -0.4559
 3006SOL    HW220652   4.279   2.627   8.676  1.8311  0.7784  0.9622
 3007SOL     OW20653   1.098   2.875   1.877  0.3026 -0.0149  0.0578
 3007SOL    HW120654   1.069   2.859   1.967 -0.0820 -3.2116 -0.6492
 3007SOL    HW220655   1.185   2.836   1.865 -0.7316 -1.3589 -3.1042
 3008SOL     OW20656   0.816   4.321  11.725  0.6276 -0.3390  0.3765
 3008SOL    HW120657   0.814   4.226  11.742 -0.8618 -0.7466 -2.1458
 3008SOL    HW220658   0.736   4.338  11.676  0.5403  2.2810  1.4548
 3009SOL     OW20659   0.977   0.686   2.500  0.2548  0.1778  0.2808
 3009SOL    HW120660   0.940   0.702   2.413 -2.6598  0.0403  1.5020
 3009SOL    HW220661   0.929   0.753   2.548  1.9197  0.7566  1.0967
 3010SOL     OW20662   2.908   4.481   1.769 -0.1997 -0.1765  0.0172
 3010SOL    HW120663   2.966   4.477   1.845  0.9384  2.8372 -0.7275
 3010SOL    HW220664   2.930   4.561   1.722  2.2161 -0.6873  0.2899
 3011SOL     OW20665   3.848   1.306   4.816  0.1833 -0.4147 -0.1493
 3011SOL    HW120666   3.841   1.237   4.750 -0.1048 -0.7615  0.2485
 3011SOL    HW220667   3.821   1.385   4.768 -1.5023 -1.3223 -0.6831
 3012SOL     OW20668   2.345   0.467   8.310  0.0299  0.3441  0.2241
 3012SOL    HW120669   2.367   0.399   8.374  0.8675  0.5058  0.1142
 3012SOL    HW220670   2.435   0.490   8.286 -0.4858  1.2057 -0.8909
 3013SOL     OW20671   1.966   0.318   3.846  0.0168 -0.1921 -0.6037
 3013SOL    HW120672   1.979   0.399   3.796 -1.7095  1.0917  1.0443
 3013SOL    HW220673   2.055   0.317   3.883 -0.5175 -0.8240  0.6310
 3014SOL     OW20674   1.284   2.661   4.377  0.0649 -0.0324 -0.5986
 3014SOL    HW120675   1.219   2.592   4.363  0.8182 -1.1191  1.2697
 3014SOL    HW220676   1.338   2.668   4.298 -0.4159  0.7465 -0.8599
 3015SOL     OW20677   4.572   2.464   2.012 -0.2977 -0.3282  0.1639
 3015SOL    HW120678   4.539   2.375   2.015  0.5673 -0.6782 -0.6255
 3015SOL    HW220679   4.592   2.493   2.101 -1.4383  0.1405  0.2700
 3016SOL     OW20680   0.144   0.637   2.265  0.0911 -0.1565 -0.3115
 3016SOL    HW120681   0.180   0.579   2.198  2.1182 -0.0156  0.6654
 3016SOL    HW220682   0.059   0.597   2.287  0.0530 -0.0072 -0.1823
 3017SOL     OW20683   2.191   4.007  15.615  0.7613  0.2292  0.2775
 3017SOL    HW120684   2.181   4.070  15.543  0.9834  0.5352  0.5134
 3017SOL    HW220685   2.261   4.056  15.658  0.1664 -0.3559  1.8851
 3018SOL     OW20686   1.396   3.400   5.323 -0.1238 -0.2643 -0.1737
 3018SOL    HW120687   1.487   3.398   5.294 -0.0289 -1.2991  0.1807
 3018SOL    HW220688   1.395   3.343   5.400 -1.5052  0.3173  0.2493
 3019SOL     OW20689   2.291   0.872   6.535 -0.1151 -0.3104  0.8720
 3019SOL    HW120690   2.288   0.876   6.631  2.0413  0.3036  0.9144
 3019SOL    HW220691   2.329   0.959   6.522 -0.5727 -0.2792 -0.2958
 3020SOL     OW20692   2.224   0.315   4.008  0.3754 -0.4251 -0.6432
 3020SOL    HW120693   2.270   0.395   4.031 -0.0578  0.1782 -1.8762
 3020SOL    HW220694   2.176   0.307   4.090  1.6933  0.6643  0.2108
 3021SOL     OW20695   1.687   3.250  15.623  0.1099  0.0195  0.1866
 3021SOL    HW120696   1.756   3.185  15.637  0.1233 -0.5158 -2.3253
 3021SOL    HW220697   1.684   3.250  15.528 -1.6184 -1.5678  0.2322
 3022SOL     OW20698   3.794   3.406   3.506  0.0242  0.0333  0.3710
 3022SOL    HW120699   3.777   3.359   3.588 -0.6954  1.4859  1.0468
 3022SOL    HW220700   3.705   3.424   3.475 -0.3645  1.6683  2.4116
 3023SOL     OW20701   3.319   2.182   4.381  0.4100 -0.3431  0.0600
 3023SOL    HW120702   3.231   2.150   4.359 -0.9146  2.4153  1.3651
 3023SOL    HW220703   3.357   2.095   4.396 -1.5872 -0.9398  1.6468
 3024SOL     OW20704   3.192   1.510   7.287 -0.2984  0.5323  0.2678
 3024SOL    HW120705   3.278   1.504   7.328 -1.4678 -1.5459  2.3594
 3024SOL    HW220706   3.200   1.450   7.212  0.4328  0.0612  0.7206
 3025SOL     OW20707   3.954   0.051   7.338  0.1236 -0.2395 -0.5410
 3025SOL    HW120708   4.028   4.725   7.348 -2.0043 -2.9143 -1.1618
 3025SOL    HW220709   3.977   0.081   7.250  1.3352 -0.9393 -0.4660
 3026SOL     OW20710   3.847   2.484   9.152 -0.1193 -0.1570 -0.3070
 3026SOL    HW120711   3.846   2.389   9.136  1.1355 -0.1535 -0.4072
 3026SOL    HW220712   3.809   2.514   9.069 -1.6223 -1.9092 -0.2646
 3027SOL     OW20713   4.553   1.883   2.878  0.5426 -0.5208  0.0983
 3027SOL    HW120714   4.533   1.862   2.969  1.1144  0.3861  0.4344
 3027SOL    HW220715   4.589   1.971   2.890  1.5317 -0.7154 -1.4186
 3028SOL     OW20716   2.338   0.851  17.715 -0.4087 -0.1207  0.0287
 3028SOL    HW120717   2.387   0.930   0.000  0.2913 -0.9138  1.4096
 3028SOL    HW220718   2.372   0.797   0.051 -0.0348  1.5838  1.1405
 3029SOL     OW20719   4.494   0.050   3.083  0.0090  0.1509 -0.2246
 3029SOL    HW120720   4.559   0.099   3.134  1.0445 -1.8518  0.3533
 3029SOL    HW220721   4.548   0.057   3.004 -0.9319  1.3276 -0.7780
 3030SOL     OW20722   2.599   3.027   8.330 -0.1509  0.2412 -0.5196
 3030SOL    HW120723   2.617   2.997   8.419 -0.8951  0.5077 -0.2817
 3030SOL    HW220724   2.644   3.111   8.321  0.4653  0.1198  1.5003
 3031SOL     OW20725   3.065   1.516   0.546  0.1608  0.0441 -0.1467
 3031SOL    HW120726   3.021   1.477   0.622  1.3437 -0.2327  0.3940
 3031SOL    HW220727   3.003   1.583   0.518 -0.3726 -0.7031 -0.7582
 3032SOL     OW20728   2.862   2.344   6.257 -0.1278  0.4897 -0.2315
 3032SOL    HW120729   2.871   2.439   6.252  2.7554  0.4101  3.1306
 3032SOL    HW220730   2.936   2.322   6.199  0.6835 -0.2841  1.1020
 3033SOL     OW20731   0.626   1.926  11.366 -0.2682 -0.4877 -0.7706
 3033SOL    HW120732   0.575   1.928  11.285 -2.2795 -0.7086  0.5092
 3033SOL    HW220733   0.716   1.902  11.344  0.6091  0.8265  1.3089
 3034SOL     OW20734   3.154   1.779   7.062  0.3416  0.1888 -0.5869
 3034SOL    HW120735   3.182   1.868   7.039 -1.6303  1.1092  0.5553
 3034SOL    HW220736   3.220   1.733   7.010  1.9226  1.3983  0.3339
 3035SOL     OW20737   0.761   3.584  15.286 -0.4096 -0.0562 -0.3108
 3035SOL    HW120738   0.852   3.596  15.315 -0.1597  0.2099 -1.2207
 3035SOL    HW220739   0.713   3.633  15.352  2.6234  0.3991  1.5611
 3036SOL     OW20740   2.346   0.959   4.453 -0.0856  0.7247  0.1374
 3036SOL    HW120741   2.266   0.947   4.401  1.4484 -3.0270 -1.3539
 3036SOL    HW220742   2.307   0.955   4.541  0.7552  0.4546  0.4907
 3037SOL     OW20743   3.372   4.140   8.225  0.0958  0.1935  0.1964
 3037SOL    HW120744   3.300   4.082   8.253  1.1844 -0.9488  0.6335
 3037SOL    HW220745   3.377   4.110   8.135  0.8810  0.0946  0.2756
 3038SOL     OW20746   2.764   2.579   1.410 -0.4241  0.0016  0.7074
 3038SOL    HW120747   2.743   2.511   1.347  1.4744 -1.2336  1.4247
 3038SOL    HW220748   2.698   2.563   1.478  0.3235 -2.5748  0.8289
 3039SOL     OW20749   1.731   2.289   3.480  0.1197  0.5645 -0.1803
 3039SOL    HW120750   1.670   2.346   3.434  1.2555  1.1633 -0.9386
 3039SOL    HW220751   1.724   2.321   3.570  0.7515  0.7844 -0.2063
 3040SOL     OW20752   2.692   3.754   8.006  0.1283  0.3868 -0.1191
 3040SOL    HW120753   2.645   3.836   8.017  0.9685  1.1337 -2.1047
 3040SOL    HW220754   2.719   3.755   7.914 -2.0337  2.3697 -0.7130
 3041SOL     OW20755   3.300   2.130   2.884 -0.3318 -0.3988 -0.7852
 3041SOL    HW120756   3.319   2.036   2.886  2.0872  0.1198  0.7035
 3041SOL    HW220757   3.356   2.170   2.817 -0.3679 -0.6462 -0.9641
 3042SOL     OW20758   1.356   4.512   8.407  0.0927  0.3916 -0.3768
 3042SOL    HW120759   1.310   4.524   8.324 -0.4477  0.1211 -0.1164
 3042SOL    HW220760   1.422   4.446   8.386 -1.4934 -1.5178  0.5960
 3043SOL     OW20761   2.963   3.934   1.100  0.8126  0.1326  0.0263
 3043SOL    HW120762   2.912   3.997   1.049  1.4425  0.0617 -0.6988
 3043SOL    HW220763   3.047   3.980   1.111  0.7950 -0.0386  0.8512
 3044SOL     OW20764   2.157   1.090  15.515 -0.0167 -0.1932  0.0207
 3044SOL    HW120765   2.170   1.018  15.577 -1.7536  0.1546  0.8025
 3044SOL    HW220766   2.211   1.159  15.556  1.2763 -0.3230 -1.4914
 3045SOL     OW20767   3.233   2.976   5.310 -0.0759  0.1914  0.0295
 3045SOL    HW120768   3.141   2.954   5.325 -0.1882  1.7662  1.6750
 3045SOL    HW220769   3.232   3.001   5.217  0.8620 -1.8051 -0.5125
 3046SOL     OW20770   1.072   4.389   2.822  0.3658 -0.0994 -0.4624
 3046SOL    HW120771   1.155   4.341   2.825 -1.9853 -4.1069  0.4892
 3046SOL    HW220772   1.015   4.313   2.813 -1.4023  1.1621  0.0071
 3047SOL     OW20773   2.241   2.727   7.879 -0.3825 -0.3765 -0.2811
 3047SOL    HW120774   2.161   2.696   7.835 -0.7464 -0.7811  0.6735
 3047SOL    HW220775   2.303   2.732   7.806 -0.0412 -1.0471 -0.0415
 3048SOL     OW20776   3.342   3.246   3.665 -0.1273 -0.0100 -0.2704
 3048SOL    HW120777   3.290   3.199   3.599 -1.5394 -1.3927  1.8381
 3048SOL    HW220778   3.365   3.332   3.628 -0.3918  0.0642 -0.2574
 3049SOL     OW20779   0.735   4.641   8.223  0.1931  0.6098  0.5974
 3049SOL    HW120780   0.786   4.719   8.201  1.0185 -0.7850 -2.4510
 3049SOL    HW220781   0.672   4.642   8.150  0.9765  1.1436 -0.0659
 3050SOL     OW20782   0.789   4.582  11.826  0.1103 -0.2554 -0.6437
 3050SOL    HW120783   0.792   4.500  11.776 -1.2689 -0.0903 -0.9946
 3050SOL    HW220784   0.882   4.591  11.845 -0.2752 -2.8445  2.5505
 3051SOL     OW20785   3.329   3.019  10.965 -0.3862 -0.2007  0.3220
 3051SOL    HW120786   3.376   3.086  10.915 -0.6579 -0.7633 -0.6883
 3051SOL    HW220787   3.388   3.011  11.041  3.1403 -2.8168 -2.6860
 3052SOL     OW20788   2.984   0.895   6.955 -0.2166 -0.0329  0.1185
 3052SOL    HW120789   3.021   0.983   6.956 -0.7915  0.2210 -1.0022
 3052SOL    HW220790   2.981   0.877   7.049 -0.3374 -1.4495 -0.1532
 3053SOL     OW20791   1.375   1.478  16.280  0.4742  0.4727  0.0483
 3053SOL    HW120792   1.426   1.552  16.312  0.6507 -0.4578  1.9731
 3053SOL    HW220793   1.291   1.522  16.265 -0.0027 -0.7703 -0.9152
 3054SOL     OW20794   4.014   1.212   2.783 -0.7272  0.6057  0.7803
 3054SOL    HW120795   3.933   1.166   2.805 -0.1648  0.4009  2.3759
 3054SOL    HW220796   3.977   1.263   2.711 -2.7076  0.3866  1.6401
 3055SOL     OW20797   2.696   3.627   2.325  0.5203  0.5197  0.5968
 3055SOL    HW120798   2.693   3.539   2.287 -3.0002  0.9311 -0.1196
 3055SOL    HW220799   2.605   3.655   2.313  1.1101  2.6648  1.1562
 3056SOL     OW20800   3.582   2.124   6.200 -0.1647 -0.0934  0.8527
 3056SOL    HW120801   3.624   2.199   6.241  1.8884 -0.5490 -0.4324
 3056SOL    HW220802   3.582   2.156   6.110  3.4930 -1.0224  0.5274
 3057SOL     OW20803   1.597   3.109   3.302  0.0061  0.0027 -0.0277
 3057SOL    HW120804   1.637   3.139   3.220  3.8574 -0.7556  1.5355
 3057SOL    HW220805   1.505   3.118   3.279  0.4224  1.3627 -1.1848
 3058SOL     OW20806   2.864   1.677   3.905  0.1168  0.7433  0.2483
 3058SOL    HW120807   2.949   1.685   3.861 -0.3829  2.9500 -0.3123
 3058SOL    HW220808   2.881   1.748   3.967  0.6748  0.5862  0.2702
 3059SOL     OW20809   2.855   4.325   8.169 -0.2094  0.3172 -0.3475
 3059SOL    HW120810   2.801   4.386   8.119 -2.0728 -1.6169 -0.7211
 3059SOL    HW220811   2.824   4.250   8.118 -0.0057  0.0097 -0.0190
 3060SOL     OW20812   0.077   2.567  13.900 -0.4832  0.3583 -0.1102
 3060SOL    HW120813   4.716   2.579  13.899 -0.5380 -0.3418 -2.2764
 3060SOL    HW220814   0.107   2.594  13.813  1.4316  0.5508  0.6098
 3061SOL     OW20815   3.065   4.721  14.507  0.1576  0.1744 -0.2982
 3061SOL    HW120816   3.085   4.641  14.556  2.5055  1.6340  1.1438
 3061SOL    HW220817   3.123   4.714  14.431 -0.0704 -2.6628 -0.2260
 3062SOL     OW20818   4.245   1.308  15.450 -0.7927  0.3478 -0.0739
 3062SOL    HW120819   4.159   1.294  15.410 -0.6007 -1.6194  0.2316
 3062SOL    HW220820   4.299   1.234  15.425  0.6090  0.8140  1.5616
 3063SOL     OW20821   4.641   0.708   7.493  0.2956  0.4811  0.9464
 3063SOL    HW120822   4.621   0.752   7.411 -0.8808 -0.9196  0.4757
 3063SOL    HW220823   4.555   0.726   7.531 -0.4656 -2.4981  0.6333
 3064SOL     OW20824   3.961   1.564   1.990 -0.3629 -0.0212 -0.2099
 3064SOL    HW120825   3.889   1.509   1.959  0.2314 -2.3308  2.5526
 3064SOL    HW220826   3.975   1.521   2.074 -0.2957 -0.3411 -0.3861
 3065SOL     OW20827   4.421   4.700  10.160  0.2582  0.0453  0.6942
 3065SOL    HW120828   4.464   4.624  10.121 -0.6489  0.8795 -1.9505
 3065SOL    HW220829   4.471   0.041  10.128 -0.3164  0.9109  1.8278
 3066SOL     OW20830   4.591   1.701   7.283 -0.4772 -0.1767 -0.2514
 3066SOL    HW120831   4.626   1.613   7.272  0.9891  0.6540 -2.1938
 3066SOL    HW220832   4.674   1.742   7.260 -2.0728  2.6798 -0.8769
 3067SOL     OW20833   0.692   1.491   6.426 -0.4425  0.2207  0.3449
 3067SOL    HW120834   0.715   1.564   6.484 -0.1761 -0.1322  0.6805
 3067SOL    HW220835   0.736   1.515   6.344  0.9168 -0.6035  0.8258
 3068SOL     OW20836   1.689   2.487  15.470 -0.8015 -0.3727 -0.2755
 3068SOL    HW120837   1.659   2.497  15.561  0.5039 -0.2051  0.1271
 3068SOL    HW220838   1.599   2.491  15.437 -0.2617 -1.1492 -1.7762
 3069SOL     OW20839   3.391   1.513   5.636 -0.3176  0.0808  0.0601
 3069SOL    HW120840   3.367   1.422   5.615 -1.2227 -0.1357  2.0918
 3069SOL    HW220841   3.484   1.514   5.615 -0.8653 -0.8771 -2.4714
 3070SOL     OW20842   3.067   2.038   6.179 -0.5451 -0.3939 -0.5115
 3070SOL    HW120843   3.023   2.065   6.259 -3.1304 -1.0080 -1.7008
 3070SOL    HW220844   3.156   2.063   6.201 -1.8936  3.6348  0.2713
 3071SOL     OW20845   0.936   0.892  16.837 -0.3017 -0.5589  0.3591
 3071SOL    HW120846   0.952   0.806  16.798 -1.1653  0.0890 -1.3863
 3071SOL    HW220847   0.841   0.903  16.832 -0.1853  0.0543 -0.4478
 3072SOL     OW20848   0.533   3.942   8.245 -0.5028 -0.0263  0.2389
 3072SOL    HW120849   0.450   3.920   8.202  1.3568 -2.4736 -2.1084
 3072SOL    HW220850   0.603   3.919   8.183 -1.3403  0.8031 -1.0306
 3073SOL     OW20851   2.444   1.801   2.227 -0.1846  0.1598  0.0306
 3073SOL    HW120852   2.536   1.781   2.245 -0.6951 -2.2125 -0.0134
 3073SOL    HW220853   2.446   1.896   2.235 -1.1182  0.0069  2.1049
 3074SOL     OW20854   3.432   0.820   3.135  0.3544 -0.1667 -0.0117
 3074SOL    HW120855   3.422   0.730   3.105 -0.8246 -0.2542  0.6308
 3074SOL    HW220856   3.483   0.807   3.214 -0.1312  1.2483  0.5328
 3075SOL     OW20857   1.161   3.522   7.733 -0.0673 -0.0093 -0.3080
 3075SOL    HW120858   1.207   3.593   7.777 -0.0209  1.1764 -2.2656
 3075SOL    HW220859   1.092   3.491   7.792 -0.3773 -1.1772 -1.2872
 3076SOL     OW20860   2.993   1.093   4.720  0.2931  0.2088  0.4121
 3076SOL    HW120861   2.988   1.161   4.788  2.7058  0.5413  0.2777
 3076SOL    HW220862   2.980   1.010   4.767  1.1891 -0.0811  0.1557
 3077SOL     OW20863   3.947   1.895   6.268 -0.0351 -0.1499  0.2845
 3077SOL    HW120864   4.005   1.832   6.227  0.9511  0.7056  0.3706
 3077SOL    HW220865   3.892   1.909   6.191  0.9446 -0.9961 -0.5664
 3078SOL     OW20866   4.718   1.975   0.597  0.0724  0.2914  0.3776
 3078SOL    HW120867   4.722   1.884   0.626  0.2043 -0.8676 -3.2480
 3078SOL    HW220868   0.073   2.007   0.607 -0.5412  1.3312  2.4470
 3079SOL     OW20869   1.220   1.126   7.689  0.0732  0.0066  0.0709
 3079SOL    HW120870   1.150   1.152   7.748  1.1135  0.9811  0.8811
 3079SOL    HW220871   1.173   1.142   7.608  1.7425 -0.9736 -1.0837
 3080SOL     OW20872   1.721   0.115  10.980 -0.0108 -0.8760 -0.2373
 3080SOL    HW120873   1.643   0.126  11.035 -0.1499  1.8044 -0.9991
 3080SOL    HW220874   1.727   0.019  10.984 -0.9009 -0.7923  3.4140
 3081SOL     OW20875   1.862   4.050  16.816  0.1156 -0.0052  0.6895
 3081SOL    HW120876   1.787   4.008  16.857  0.9850 -0.3655  1.9230
 3081SOL    HW220877   1.832   4.069  16.727  1.6248  1.3326  0.4596
 3082SOL     OW20878   2.015   2.766   2.869 -0.3823  0.2840 -0.0429
 3082SOL    HW120879   1.994   2.712   2.945  3.0546 -0.8048  0.1140
 3082SOL    HW220880   1.950   2.723   2.812 -0.4109 -0.6964  0.7343
 3083SOL     OW20881   1.161   3.781   5.556  0.0074 -0.1748 -0.1803
 3083SOL    HW120882   1.185   3.873   5.552  0.2395 -0.3285 -2.8362
 3083SOL    HW220883   1.232   3.741   5.505 -0.2801 -0.3692 -0.4356
 3084SOL     OW20884   4.541   2.050   0.054 -0.3858  0.0503  0.3826
 3084SOL    HW120885   4.460   2.064   0.005  0.1723 -0.9333 -0.8246
 3084SOL    HW220886   4.515   1.985   0.119 -0.9954  0.9667  1.0636
 3085SOL     OW20887   2.879   0.702   8.411  0.0310 -0.4021  0.4860
 3085SOL    HW120888   2.932   0.736   8.339  0.6371  1.1310  1.6544
 3085SOL    HW220889   2.952   0.689   8.471  1.4261 -1.4318 -1.4230
 3086SOL     OW20890   3.726   3.393   0.512 -0.1628 -0.4580 -0.0761
 3086SOL    HW120891   3.737   3.304   0.477  0.8743 -0.1335 -0.5688
 3086SOL    HW220892   3.702   3.426   0.426 -0.7388  1.5215  0.8686
 3087SOL     OW20893   3.309   4.213   6.785 -0.1937 -0.0368 -0.2930
 3087SOL    HW120894   3.245   4.247   6.721  0.5151 -0.2017 -1.0878
 3087SOL    HW220895   3.323   4.119   6.778 -0.6545 -0.0557 -1.0062
 3088SOL     OW20896   4.685   3.623   9.316 -0.3833  0.3343  0.1254
 3088SOL    HW120897   0.032   3.633   9.266  0.1134  1.2733  1.1232
 3088SOL    HW220898   4.633   3.698   9.286 -1.0702 -0.0243  0.4158
 3089SOL     OW20899   3.870   1.829   9.320 -0.1089 -0.3882 -0.4101
 3089SOL    HW120900   3.801   1.809   9.257  0.0942  1.2768 -1.1668
 3089SOL    HW220901   3.897   1.912   9.280  0.2407  0.6192  1.9391
 3090SOL     OW20902   4.356   3.512   8.518  0.1013  0.3668  0.0271
 3090SOL    HW120903   4.384   3.591   8.563 -1.1482  0.0858  1.2906
 3090SOL    HW220904   4.443   3.475   8.503 -0.2646 -1.0203  1.3047
 3091SOL     OW20905   1.623   3.498   3.818  0.6560 -0.3752 -0.5631
 3091SOL    HW120906   1.713   3.492   3.786  0.0868 -0.4417 -2.1582
 3091SOL    HW220907   1.598   3.407   3.833 -0.2745 -0.3728 -2.1043
 3092SOL     OW20908   1.293   0.258   9.001 -0.1822  0.1685  0.8422
 3092SOL    HW120909   1.272   0.351   9.012 -0.7884  0.1133  0.1442
 3092SOL    HW220910   1.369   0.272   8.945 -1.2070  1.0843 -0.3231
 3093SOL     OW20911   3.159   3.111  13.003 -0.0228  0.5334  0.2583
 3093SOL    HW120912   3.116   3.059  13.071 -1.7417  0.6084 -0.7472
 3093SOL    HW220913   3.114   3.194  13.017 -0.6446  0.2729 -0.1915
 3094SOL     OW20914   4.647   1.957   2.372 -0.2607  0.0071  0.1993
 3094SOL    HW120915   4.627   1.903   2.448 -3.9193 -1.5428 -1.8853
 3094SOL    HW220916   4.698   2.030   2.406  0.9779 -0.8721  0.2337
 3095SOL     OW20917   3.374   1.962   3.890 -0.4366 -0.0363 -0.1167
 3095SOL    HW120918   3.394   1.886   3.944  0.3365  1.9114  2.3038
 3095SOL    HW220919   3.278   1.964   3.890 -0.4146 -0.3217  3.4423
 3096SOL     OW20920   1.042   0.901   4.278  0.4841  0.2821  0.3335
 3096SOL    HW120921   1.020   0.994   4.289 -1.6337 -0.4058  1.9957
 3096SOL    HW220922   1.042   0.892   4.183 -2.8864 -2.3091  0.5832
 3097SOL     OW20923   1.530   0.503  16.165  0.2726  0.7264 -0.3577
 3097SOL    HW120924   1.517   0.450  16.243  4.1081 -0.9063 -0.8434
 3097SOL    HW220925   1.614   0.543  16.186  0.3715  0.0480  0.5113
 3098SOL     OW20926   0.644   3.149   4.223  0.0468 -0.2523  0.0542
 3098SOL    HW120927   0.673   3.239   4.242 -0.3958 -0.0759 -0.0994
 3098SOL    HW220928   0.558   3.171   4.188  0.0214  0.4056  0.5175
 3099SOL     OW20929   2.609   3.406   4.069  1.0945 -0.0260 -0.7896
 3099SOL    HW120930   2.608   3.455   4.152 -2.7998 -0.9124 -0.3365
 3099SOL    HW220931   2.660   3.466   4.014 -0.2444  3.6863  1.9698
 3100SOL     OW20932   1.503   1.691   7.017  0.0754 -0.2753  0.1713
 3100SOL    HW120933   1.578   1.650   7.060  0.2081  0.0142  0.2128
 3100SOL    HW220934   1.494   1.651   6.930 -1.5481 -0.9144  0.6435
 3101SOL     OW20935   0.102   1.362  13.369  0.1476 -0.7920 -0.4124
 3101SOL    HW120936   0.080   1.322  13.285  2.3176 -1.6496 -0.5644
 3101SOL    HW220937   0.119   1.453  13.344 -0.4070 -0.5189  0.1937
 3102SOL     OW20938   4.540   1.477   5.029  0.3350 -0.3952 -0.0818
 3102SOL    HW120939   4.534   1.386   5.057 -1.0812 -0.1951  0.2939
 3102SOL    HW220940   4.516   1.463   4.937 -1.1697 -0.4996  0.3243
 3103SOL     OW20941   2.886   4.577  11.773 -0.2898  0.7197  0.4081
 3103SOL    HW120942   2.868   4.667  11.799 -1.0298  0.3416  1.2000
 3103SOL    HW220943   2.889   4.578  11.677  1.5348  0.2844  0.4605
 3104SOL     OW20944   3.166   1.420   2.113  0.7405  0.2173 -0.4440
 3104SOL    HW120945   3.101   1.462   2.169 -0.6931 -0.2666 -1.7429
 3104SOL    HW220946   3.113   1.419   2.033 -0.1910  2.1349  0.1653
 3105SOL     OW20947   3.527   0.073   7.851  0.3489 -0.0806  0.0043
 3105SOL    HW120948   3.497   0.028   7.772  0.9301  0.6314 -0.6107
 3105SOL    HW220949   3.606   0.118   7.824 -0.7113  1.3911 -0.6296
 3106SOL     OW20950   2.433   3.429   6.563 -0.4395  0.1159  0.8862
 3106SOL    HW120951   2.354   3.449   6.614  0.3008 -0.6513  2.3396
 3106SOL    HW220952   2.462   3.517   6.537  0.8157 -1.2928 -2.4200
 3107SOL     OW20953   4.189   3.717   6.627  0.1194 -0.2539 -0.4306
 3107SOL    HW120954   4.204   3.795   6.681  0.6139  0.1149 -1.0908
 3107SOL    HW220955   4.175   3.655   6.698  1.1953  0.1099  0.1030
 3108SOL     OW20956   0.302   3.638  13.868 -0.1968  0.1418  0.6726
 3108SOL    HW120957   0.260   3.712  13.824 -2.0039 -0.0455  2.1191
 3108SOL    HW220958   0.243   3.632  13.943  0.9741  1.3881  1.7084
 3109SOL     OW20959   3.315   3.941   9.635 -0.3073 -0.6100  0.2367
 3109SOL    HW120960   3.243   3.912   9.691  0.2340 -1.2977  0.5793
 3109SOL    HW220961   3.299   3.905   9.548  0.9138 -3.3358  1.1243
 3110SOL     OW20962   0.543   0.902   9.915  0.2668  0.1008  0.0806
 3110SOL    HW120963   0.605   0.855   9.860  1.5848  2.2434 -0.2693
 3110SOL    HW220964   0.587   0.981   9.945 -0.9282  0.3815  1.1044
 3111SOL     OW20965   2.831   1.092  12.184  0.2863 -0.4549 -0.0615
 3111SOL    HW120966   2.887   1.025  12.222 -1.2210 -1.2475  0.7760
 3111SOL    HW220967   2.759   1.105  12.246  1.3432 -1.7826  1.4010
 3112SOL     OW20968   0.890   1.328  11.120 -0.3823 -0.0790 -0.3666
 3112SOL    HW120969   0.911   1.355  11.031  0.8167 -4.1298 -1.2904
 3112SOL    HW220970   0.861   1.408  11.165 -0.3307 -0.1963 -0.1234
 3113SOL     OW20971   3.535   0.674   7.908  0.9481  0.4048  0.5392
 3113SOL    HW120972   3.550   0.737   7.838 -0.0047 -0.0606 -0.0923
 3113SOL    HW220973   3.543   0.591   7.861 -0.8128 -0.3516  1.5610
 3114SOL     OW20974   4.574   2.957   5.173  0.5429  0.4451 -0.3592
 3114SOL    HW120975   4.486   2.954   5.212  0.6541 -1.1184 -0.2229
 3114SOL    HW220976   4.611   2.869   5.162 -0.1398  0.1494 -0.3012
 3115SOL     OW20977   3.990   0.687   6.208 -0.0399  0.2200  0.5277
 3115SOL    HW120978   4.074   0.663   6.168 -1.0682 -0.5063 -1.2336
 3115SOL    HW220979   3.968   0.764   6.155 -0.0755 -0.9217 -1.1185
 3116SOL     OW20980   0.146   2.079   3.724  0.2789  0.1812  0.1431
 3116SOL    HW120981   0.141   2.106   3.816  1.7035  2.2414 -0.3696
 3116SOL    HW220982   0.068   2.025   3.711  0.6401 -0.3927  0.3722
 3117SOL     OW20983   0.930   0.477   4.297 -0.4586  0.4990 -0.5199
 3117SOL    HW120984   0.973   0.548   4.345  1.8516 -0.3775 -1.3343
 3117SOL    HW220985   0.900   0.430   4.375 -2.0056  3.2223  0.5476
 3118SOL     OW20986   4.499   2.645   2.796  0.5594 -0.1729 -0.7531
 3118SOL    HW120987   4.577   2.589   2.796  0.4531 -0.3199  0.2246
 3118SOL    HW220988   4.443   2.596   2.736  1.5133  0.2257 -1.9600
 3119SOL     OW20989   2.458   0.046   8.152  0.1897 -0.4525 -0.2703
 3119SOL    HW120990   2.549   0.054   8.180 -0.3092 -1.1148  1.5269
 3119SOL    HW220991   2.464   0.101   8.075 -0.9018 -0.5461 -0.4222
 3120SOL     OW20992   3.839   1.247   6.946  0.0113  0.7575 -0.2736
 3120SOL    HW120993   3.857   1.298   7.025 -0.4997  1.0333 -0.3315
 3120SOL    HW220994   3.902   1.281   6.883  1.0683  0.3113  0.5420
 3121SOL     OW20995   3.705   4.501   2.223 -0.0546 -0.0106 -0.5687
 3121SOL    HW120996   3.749   4.570   2.273 -0.7543 -0.6217  0.8583
 3121SOL    HW220997   3.616   4.508   2.257  0.1823 -0.4818  0.1331
 3122SOL     OW20998   0.785   0.485  14.172 -0.2632  0.0024 -0.1952
 3122SOL    HW120999   0.793   0.488  14.077  2.0946  5.1048  0.1875
 3122SOL    HW221000   0.837   0.410  14.200 -0.8435 -0.3279  0.0166
 3123SOL     OW21001   2.700   1.585  10.589 -0.2887 -0.0730  0.0963
 3123SOL    HW121002   2.765   1.652  10.609 -0.7679  0.8882 -1.5255
 3123SOL    HW221003   2.641   1.604  10.661  0.6421  2.1671  0.2518
 3124SOL     OW21004   2.235   1.023  14.933  0.3711  0.5794 -0.3658
 3124SOL    HW121005   2.247   1.045  15.025 -0.0552  0.3862 -0.2628
 3124SOL    HW221006   2.213   1.115  14.915  1.3997  0.5530 -1.7246
 3125SOL     OW21007   4.093   2.015  14.381 -0.3283  0.2446 -0.8210
 3125SOL    HW121008   4.165   2.077  14.377 -2.4090  2.7177 -0.2267
 3125SOL    HW221009   4.020   2.076  14.397  0.6956  0.9907  0.9214
 3126SOL     OW21010   2.584   2.754  12.159  0.4790 -0.7479  0.1347
 3126SOL    HW121011   2.671   2.793  12.146  0.2859  0.2823  1.9463
 3126SOL    HW221012   2.617   2.669  12.188 -2.3291 -1.3018  1.6469
 3127SOL     OW21013   0.795   3.961   7.507  0.2451 -0.5807 -0.2188
 3127SOL    HW121014   0.864   3.926   7.450  0.2553 -0.7071 -0.1288
 3127SOL    HW221015   0.847   3.939   7.584  0.0899 -0.6853 -0.1443
 3128SOL     OW21016   2.681   0.558  12.373  0.0577 -0.3388  0.7295
 3128SOL    HW121017   2.672   0.608  12.454 -0.4148  1.0595 -0.2002
 3128SOL    HW221018   2.652   0.629  12.316 -3.1120 -1.7820  0.5244
 3129SOL     OW21019   0.322   2.949   3.081  0.2350  0.1223  0.1065
 3129SOL    HW121020   0.253   2.973   3.142  0.6524  1.2846  0.1323
 3129SOL    HW221021   0.279   2.887   3.023 -2.3623 -0.4023  2.6313
 3130SOL     OW21022   0.125   3.676  15.243 -0.3775  0.2922 -0.4430
 3130SOL    HW121023   0.045   3.722  15.214 -0.1331  0.6065 -0.6234
 3130SOL    HW221024   0.164   3.737  15.305  0.7618 -3.3051  2.3810
 3131SOL     OW21025   1.035   4.083  10.085  0.3811 -0.0707  0.1431
 3131SOL    HW121026   1.029   4.101  10.179  0.7532  1.5895 -0.1582
 3131SOL    HW221027   1.122   4.045  10.080  0.7704  0.7968  0.4644
 3132SOL     OW21028   0.559   1.909   9.196 -0.2811 -0.1277 -0.8902
 3132SOL    HW121029   0.642   1.917   9.149 -0.3616 -0.0270 -1.0162
 3132SOL    HW221030   0.586   1.906   9.288  0.8446  1.1025 -1.1809
 3133SOL     OW21031   0.117   2.311  14.244  0.2510 -0.4117 -0.0962
 3133SOL    HW121032   0.115   2.258  14.324 -1.8644 -1.3238 -0.7272
 3133SOL    HW221033   0.051   2.272  14.186  0.3649 -1.3088  0.3824
 3134SOL     OW21034   3.541   3.808   6.620  0.7455  0.2412  0.4977
 3134SOL    HW121035   3.609   3.867   6.588 -1.5377  1.0325 -2.8599
 3134SOL    HW221036   3.573   3.735   6.568 -1.6487 -1.1672  0.9948
 3135SOL     OW21037   3.319   1.918   8.599  0.5525 -0.1033  0.0520
 3135SOL    HW121038   3.365   1.893   8.519  0.1848 -0.4360 -0.0570
 3135SOL    HW221039   3.240   1.865   8.607 -0.3012  1.2488  0.6056
 3136SOL     OW21040   3.807   0.500   6.312  0.3515 -0.0948  0.0786
 3136SOL    HW121041   3.760   0.467   6.236  1.5088 -0.9339 -0.2682
 3136SOL    HW221042   3.891   0.533   6.280  0.2226 -3.7228 -4.0079
 3137SOL     OW21043   2.924   3.380   6.484  1.0203 -0.1396 -0.0005
 3137SOL    HW121044   2.871   3.377   6.564  0.5663 -0.2659 -0.3086
 3137SOL    HW221045   2.933   3.474   6.472 -0.6273  0.1543  1.0636
 3138SOL     OW21046   2.975   1.179  12.630  0.6705 -0.0686  0.3782
 3138SOL    HW121047   2.987   1.085  12.622  1.4069  0.1997 -1.7886
 3138SOL    HW221048   2.977   1.209  12.539  0.6619  1.1996  0.7836
 3139SOL     OW21049   3.206   1.556   0.335 -0.1795 -0.3239 -0.0756
 3139SOL    HW121050   3.150   1.555   0.413 -1.7178 -0.0054 -1.1653
 3139SOL    HW221051   3.279   1.606   0.371 -0.3066 -0.4255  0.3230
 3140SOL     OW21052   3.073   3.152   9.132 -0.7525 -0.0307  0.7543
 3140SOL    HW121053   3.006   3.181   9.195 -1.6320  0.6788 -0.4937
 3140SOL    HW221054   3.131   3.102   9.188 -0.1409 -1.7219 -1.3946
 3141SOL     OW21055   3.922   4.307   2.139 -0.1148  0.4208  0.1403
 3141SOL    HW121056   3.939   4.259   2.220  0.1674 -0.6141 -0.5321
 3141SOL    HW221057   3.841   4.355   2.158 -2.5619 -3.1048 -1.4399
 3142SOL     OW21058   2.609   4.627  14.869  0.4481 -0.1230 -0.3272
 3142SOL    HW121059   2.648   4.555  14.820  3.1648  0.7174  0.5742
 3142SOL    HW221060   2.584   4.678  14.792 -0.5004 -0.8948 -0.5165
 3143SOL     OW21061   0.480   1.259  10.070 -0.8548 -0.2585  0.3745
 3143SOL    HW121062   0.497   1.332  10.010 -0.7447 -1.3927 -0.9783
 3143SOL    HW221063   0.557   1.267  10.127 -1.6371 -0.9663  1.5347
 3144SOL     OW21064   0.731   4.520   0.201 -0.6242  0.5461 -0.6092
 3144SOL    HW121065   0.660   4.549   0.143 -1.5680 -0.7242 -0.0841
 3144SOL    HW221066   0.804   4.560   0.154 -0.2092 -0.9979 -1.2872
 3145SOL     OW21067   3.439   3.308   6.357  0.4218 -0.1083 -0.1328
 3145SOL    HW121068   3.385   3.280   6.432  0.1451 -0.2672 -0.3928
 3145SOL    HW221069   3.382   3.376   6.321  1.0521  0.4092 -0.1402
 3146SOL     OW21070   1.048   0.069   7.189  0.1574  0.1599 -0.8046
 3146SOL    HW121071   1.083   0.113   7.267 -0.4981  0.1158 -0.4854
 3146SOL    HW221072   1.104   0.107   7.121 -0.3898  1.4709 -0.5271
 3147SOL     OW21073   0.528   1.349  16.657  0.4696  0.2124 -0.7527
 3147SOL    HW121074   0.505   1.442  16.659  0.8736  0.2309  2.7785
 3147SOL    HW221075   0.608   1.345  16.709  1.5659  1.5252 -2.3573
 3148SOL     OW21076   2.480   4.110   2.379  0.3294 -0.2056  0.3090
 3148SOL    HW121077   2.427   4.055   2.323  0.0662  1.7992 -1.4337
 3148SOL    HW221078   2.429   4.191   2.375 -1.3610 -1.3301 -0.6476
 3149SOL     OW21079   1.381   4.452   1.918 -0.1914 -0.3288  0.0765
 3149SOL    HW121080   1.382   4.414   1.831  0.3538 -0.8306  0.2988
 3149SOL    HW221081   1.300   4.418   1.957 -1.9250  3.1169 -0.4578
 3150SOL     OW21082   3.365   3.345   8.404 -0.5087  0.0274 -0.2330
 3150SOL    HW121083   3.377   3.256   8.438 -1.6873  0.4050  1.1788
 3150SOL    HW221084   3.375   3.399   8.482 -0.2353 -0.1168 -0.1672
 3151SOL     OW21085   2.042   2.285   7.068 -0.0973  0.1219 -0.8077
 3151SOL    HW121086   1.978   2.241   7.013 -1.0172  0.4996 -0.0284
 3151SOL    HW221087   2.048   2.366   7.018  0.1707 -0.0001 -0.9769
 3152SOL     OW21088   0.506   4.602   2.490  0.0424 -0.9276  0.1273
 3152SOL    HW121089   0.592   4.595   2.448  0.4459 -0.4794  0.8719
 3152SOL    HW221090   0.450   4.583   2.415  2.5617  2.0739 -2.5431
 3153SOL     OW21091   1.251   1.207   4.797  0.0053  0.5242 -0.2732
 3153SOL    HW121092   1.214   1.187   4.711 -0.8268  2.3779 -0.3336
 3153SOL    HW221093   1.326   1.148   4.789 -0.7682 -0.6297  1.0635
 3154SOL     OW21094   0.816   1.008  10.549  0.0998 -0.8165  0.2119
 3154SOL    HW121095   0.877   0.960  10.605  3.2216  2.7507 -0.0973
 3154SOL    HW221096   0.737   1.021  10.600  1.1437  0.2342  1.5679
 3155SOL     OW21097   1.830   2.756   6.775 -0.5729 -0.4773  0.4605
 3155SOL    HW121098   1.776   2.722   6.846  2.1145 -0.4337  2.5307
 3155SOL    HW221099   1.768   2.814   6.731 -0.0405 -0.6016 -0.4581
 3156SOL     OW21100   0.787   2.116  15.612 -0.3631 -0.3365 -0.4760
 3156SOL    HW121101   0.737   2.036  15.596 -1.8910  0.7054 -0.9651
 3156SOL    HW221102   0.711   2.172  15.628 -0.3693 -0.2363 -0.8409
 3157SOL     OW21103   2.846   4.417   6.739 -0.4389 -0.1647 -0.3106
 3157SOL    HW121104   2.795   4.495   6.760 -0.4779  0.2446 -1.9242
 3157SOL    HW221105   2.810   4.394   6.653 -1.2692 -0.3941  0.1089
 3158SOL     OW21106   2.048   4.278   6.199  0.0606  0.1222 -0.1769
 3158SOL    HW121107   2.093   4.250   6.279 -1.5103  0.1189  0.7206
 3158SOL    HW221108   1.997   4.354   6.227  0.2322  0.0874  0.2340
 3159SOL     OW21109   2.061   1.933   5.486 -0.2779 -0.6130 -0.1736
 3159SOL    HW121110   2.086   2.008   5.540 -0.4283  1.0904 -2.4833
 3159SOL    HW221111   1.990   1.901   5.542  0.0696 -0.2952  0.4546
 3160SOL     OW21112   4.271   3.727   1.881  0.0122 -0.0099 -0.1467
 3160SOL    HW121113   4.181   3.694   1.886 -0.4403  1.2944  0.4048
 3160SOL    HW221114   4.324   3.649   1.894  0.0073 -0.1086 -0.6913
 3161SOL     OW21115   4.165   4.320  11.887 -0.0879 -0.2426  0.4903
 3161SOL    HW121116   4.075   4.304  11.859 -0.1907 -0.0441  0.7157
 3161SOL    HW221117   4.222   4.289  11.816 -0.0027 -0.9258  0.8609
 3162SOL     OW21118   0.065   0.944   7.106 -0.0972  0.0103  0.5155
 3162SOL    HW121119   0.032   0.970   7.020  2.0729 -1.6325 -0.7909
 3162SOL    HW221120   0.064   0.848   7.104 -1.9822  0.0998 -3.1579
 3163SOL     OW21121   2.965   2.948   5.810  0.5647  0.0648 -0.2040
 3163SOL    HW121122   2.884   2.926   5.763  0.4737 -2.2344  1.0319
 3163SOL    HW221123   3.011   2.867   5.789 -0.5487 -0.6238  0.0142
 3164SOL     OW21124   2.040   0.236   0.362 -0.4075 -0.0002 -0.1553
 3164SOL    HW121125   1.977   0.236   0.290  0.7355 -1.3583 -1.1361
 3164SOL    HW221126   2.073   0.325   0.351 -1.3371  0.4624  0.8188
 3165SOL     OW21127   1.331   3.445   1.332  0.5641  0.1407 -0.0014
 3165SOL    HW121128   1.267   3.386   1.293 -0.8040  1.9093 -0.3845
 3165SOL    HW221129   1.300   3.525   1.291 -0.7734 -0.2309  0.2686
 3166SOL     OW21130   2.340   1.395   5.236 -0.7397 -0.3795 -0.6261
 3166SOL    HW121131   2.254   1.408   5.195 -1.0037  0.6237  0.2507
 3166SOL    HW221132   2.348   1.300   5.233 -1.5198 -0.5017  1.3279
 3167SOL     OW21133   0.742   0.683   6.194 -0.0201 -0.1413 -0.2202
 3167SOL    HW121134   0.718   0.767   6.233  1.4753  0.3256 -0.2940
 3167SOL    HW221135   0.831   0.704   6.167 -0.1393 -2.0567 -2.1188
 3168SOL     OW21136   2.812   1.014   2.878  0.4527 -0.1531 -0.3693
 3168SOL    HW121137   2.756   0.946   2.839 -1.6599  1.2094  0.2511
 3168SOL    HW221138   2.873   1.027   2.805  1.8764 -1.1095  0.6614
 3169SOL     OW21139   1.869   3.485   7.123  0.1256 -0.7548  0.3573
 3169SOL    HW121140   1.781   3.450   7.121  0.1533 -0.7751 -0.5284
 3169SOL    HW221141   1.873   3.546   7.049  0.7495  0.1107  1.0958
 3170SOL     OW21142   3.475   2.609   4.128 -0.8093  0.6419  0.2553
 3170SOL    HW121143   3.412   2.537   4.124  0.1175 -0.0301 -2.2053
 3170SOL    HW221144   3.545   2.591   4.066 -0.6905 -1.5407  1.0060
 3171SOL     OW21145   3.485   1.534   5.197  0.3451 -0.0827  0.2622
 3171SOL    HW121146   3.529   1.521   5.281  0.3703 -0.1650  0.2364
 3171SOL    HW221147   3.537   1.603   5.156 -0.3896 -0.3319 -1.0853
 3172SOL     OW21148   2.353   2.925  13.145 -0.0063  0.1377  0.2278
 3172SOL    HW121149   2.265   2.944  13.177 -0.6882 -0.5963 -1.1906
 3172SOL    HW221150   2.355   2.990  13.075 -0.2147 -1.0554 -0.8833
 3173SOL     OW21151   4.325   4.655   6.961 -0.7587 -0.3260  0.4129
 3173SOL    HW121152   4.307   4.563   6.981 -1.6463 -0.0942  0.6630
 3173SOL    HW221153   4.269   4.676   6.887  0.7985 -0.4818 -0.8079
 3174SOL     OW21154   1.684   0.649  10.274 -0.4652 -0.1716 -0.1211
 3174SOL    HW121155   1.709   0.740  10.288 -1.1137  0.1081 -0.8183
 3174SOL    HW221156   1.621   0.655  10.203 -1.1838 -2.8502  0.2533
 3175SOL     OW21157   2.644   3.629   5.772 -0.5497 -0.3749 -0.0030
 3175SOL    HW121158   2.737   3.648   5.765 -0.5265  0.0805  1.5795
 3175SOL    HW221159   2.655   3.535   5.755 -2.5940 -0.8130  0.9828
 3176SOL     OW21160   2.390   4.313   1.598 -0.3793 -0.4115  0.2920
 3176SOL    HW121161   2.395   4.294   1.691  1.9321 -2.2646 -0.1874
 3176SOL    HW221162   2.381   4.223   1.565 -2.2968 -0.6656  1.5365
 3177SOL     OW21163   4.546   2.135   5.034 -0.2683  0.3845 -0.5094
 3177SOL    HW121164   4.594   2.139   5.116  0.0494  1.2247 -0.7382
 3177SOL    HW221165   4.545   2.225   5.002  0.1543  0.2920 -0.7862
 3178SOL     OW21166   0.385   0.240   7.224 -0.0085 -0.1345  0.1193
 3178SOL    HW121167   0.434   0.241   7.141 -0.9244 -1.3441 -0.4390
 3178SOL    HW221168   0.447   0.270   7.290 -0.0722 -2.2619  1.1437
 3179SOL     OW21169   2.349   3.202  12.209  0.1937  0.2897  0.0481
 3179SOL    HW121170   2.373   3.110  12.202  1.5530  0.4689  2.2606
 3179SOL    HW221171   2.322   3.208  12.301 -1.5442 -3.7288 -0.2087
 3180SOL     OW21172   0.074   1.606   6.963  0.2579  0.0984 -0.9343
 3180SOL    HW121173   0.156   1.604   6.915  2.2609  1.6612  2.3813
 3180SOL    HW221174   0.092   1.644   7.049  0.9545 -0.8575 -0.6606
 3181SOL     OW21175   2.164   0.635   2.267  0.0955 -0.3933 -0.0976
 3181SOL    HW121176   2.127   0.630   2.356 -0.7843 -1.5098 -0.5194
 3181SOL    HW221177   2.131   0.559   2.219 -2.3140  0.0386  0.8450
 3182SOL     OW21178   2.978   0.272   5.662 -0.2190 -0.1317 -0.0431
 3182SOL    HW121179   3.067   0.303   5.679 -0.4818  0.7304 -0.2437
 3182SOL    HW221180   2.930   0.288   5.743  0.1593  1.3253 -0.1109
 3183SOL     OW21181   1.786   1.451   4.588 -0.0046  0.3786 -0.5968
 3183SOL    HW121182   1.801   1.496   4.671 -0.0604  0.8577 -0.8422
 3183SOL    HW221183   1.788   1.530   4.534 -0.4088  0.1649 -0.9214
 3184SOL     OW21184   2.112   2.729   3.560  0.7166  0.0270  0.0354
 3184SOL    HW121185   2.117   2.823   3.540  0.4041  0.0479  0.0567
 3184SOL    HW221186   2.075   2.735   3.648  1.4778 -2.5456  0.5200
 3185SOL     OW21187   1.185   3.859   2.129  0.1070  0.2176 -0.1625
 3185SOL    HW121188   1.116   3.859   2.196 -0.3438 -0.3539 -0.6269
 3185SOL    HW221189   1.187   3.953   2.109 -1.1389  0.1114 -0.7841
 3186SOL     OW21190   1.762   0.290  12.472 -0.2008 -0.5295 -0.0757
 3186SOL    HW121191   1.717   0.251  12.547  0.7098 -0.4439  0.5215
 3186SOL    HW221192   1.718   0.375  12.469 -0.2639 -0.5761 -0.4546
 3187SOL     OW21193   3.990   1.761   3.840  0.1829 -0.1797  0.6951
 3187SOL    HW121194   4.015   1.799   3.925 -1.4139  0.2553  0.9691
 3187SOL    HW221195   4.040   1.818   3.782 -3.6699  0.9555 -1.4744
 3188SOL     OW21196   4.182   3.807   9.058  0.2312  0.6912 -0.2504
 3188SOL    HW121197   4.154   3.887   9.102  1.0155  0.6989  0.2223
 3188SOL    HW221198   4.096   3.794   9.018 -0.7673  2.7007  1.2450
 3189SOL     OW21199   1.516   1.584   9.003  0.2083 -0.3596  0.0081
 3189SOL    HW121200   1.496   1.670   8.965 -0.1623 -0.8557 -0.9178
 3189SOL    HW221201   1.514   1.606   9.096  1.4175  1.0902 -0.3110
 3190SOL     OW21202   1.879   2.083  15.876  0.2671  0.1371 -0.4862
 3190SOL    HW121203   1.791   2.084  15.838  0.0338  0.4973  0.0661
 3190SOL    HW221204   1.898   2.172  15.848  1.8006 -0.1727 -0.4542
 3191SOL     OW21205   0.853   0.672   2.938  0.5384 -0.1745  0.1715
 3191SOL    HW121206   0.842   0.601   3.001  0.8303 -2.5413 -2.4636
 3191SOL    HW221207   0.831   0.747   2.993  1.3411 -0.8138  1.3685
 3192SOL     OW21208   3.226   3.939  16.894 -0.2319  0.5207  0.1863
 3192SOL    HW121209   3.316   3.961  16.869 -0.2757 -0.3062 -0.6942
 3192SOL    HW221210   3.197   3.999  16.963 -1.9087 -0.0514 -0.0295
 3193SOL     OW21211   4.449   1.073   8.448 -0.2649  0.6331  0.7693
 3193SOL    HW121212   4.386   1.095   8.380  1.5102  0.7740 -0.8176
 3193SOL    HW221213   4.523   1.071   8.388 -1.4210  0.6545 -0.6627
 3194SOL     OW21214   0.330   1.135  13.901  0.2546 -0.0266  0.3729
 3194SOL    HW121215   0.269   1.064  13.882 -1.5532  2.0096 -1.5118
 3194SOL    HW221216   0.363   1.146  13.812  2.1641 -1.6506  0.8793
 3195SOL     OW21217   1.800   0.908   4.619 -0.5013 -0.0532  0.1775
 3195SOL    HW121218   1.817   0.817   4.645  0.2234 -1.1594 -4.2181
 3195SOL    HW221219   1.706   0.907   4.605 -0.0265  0.6534 -2.9227
 3196SOL     OW21220   2.758   3.239   8.781  0.0219  0.4488 -0.2099
 3196SOL    HW121221   2.829   3.178   8.803 -0.1615 -0.0578 -1.0404
 3196SOL    HW221222   2.803   3.313   8.741 -1.4450  2.0026  1.0262
 3197SOL     OW21223   3.381   2.701  16.120  0.1969 -0.6797  0.7137
 3197SOL    HW121224   3.398   2.777  16.065  0.2196  0.5619  2.4296
 3197SOL    HW221225   3.468   2.661  16.124  0.1899 -0.5733  2.0491
 3198SOL     OW21226   4.655   1.645   9.324  0.6665 -0.3058  0.2145
 3198SOL    HW121227   4.564   1.663   9.304  1.0425  1.5384  0.1649
 3198SOL    HW221228   4.669   1.705   9.398 -0.2006  1.2371 -0.8787
 3199SOL     OW21229   4.364   0.077   7.546  0.0104 -0.7203 -0.5116
 3199SOL    HW121230   4.291   0.138   7.560  0.7207  0.2876 -1.2069
 3199SOL    HW221231   4.436   0.119   7.592 -1.5751  0.2436  1.1252
 3200SOL     OW21232   1.561   0.504  10.927 -0.6953 -0.1138  0.4953
 3200SOL    HW121233   1.596   0.442  10.991  0.7124 -0.0966 -0.2549
 3200SOL    HW221234   1.560   0.591  10.967 -0.8997 -0.7705  1.9252
 3201SOL     OW21235   1.657   1.391   8.239  0.1090 -0.1375  0.3984
 3201SOL    HW121236   1.734   1.345   8.206  0.9624  0.8916  0.9442
 3201SOL    HW221237   1.609   1.400   8.157 -1.9460 -1.8440  1.4113
 3202SOL     OW21238   2.800   3.599   8.748 -0.2570 -0.0177 -0.1723
 3202SOL    HW121239   2.788   3.648   8.667 -0.6218  0.0633 -0.0680
 3202SOL    HW221240   2.722   3.625   8.797  0.9776 -1.0543  2.4148
 3203SOL     OW21241   2.836   2.383   4.182 -0.7266 -0.0879  0.4067
 3203SOL    HW121242   2.819   2.439   4.107  0.7360  0.0478  0.1678
 3203SOL    HW221243   2.770   2.314   4.188 -1.2842  0.4014 -0.3251
 3204SOL     OW21244   0.544   3.708  17.381 -0.3290  0.0086  0.6978
 3204SOL    HW121245   0.466   3.653  17.380 -1.7331  2.0238  0.7340
 3204SOL    HW221246   0.560   3.711  17.476  0.6738 -1.1176  0.5694
 3205SOL     OW21247   1.023   3.351  12.204  0.2864  0.9172 -0.3578
 3205SOL    HW121248   1.099   3.389  12.249 -1.0088  0.1969  2.4767
 3205SOL    HW221249   1.059   3.263  12.203 -2.2499 -0.1407  0.5970
 3206SOL     OW21250   3.997   4.514   6.621  0.4290  0.1037 -0.2239
 3206SOL    HW121251   4.055   4.500   6.695 -1.0367 -1.0739  0.6932
 3206SOL    HW221252   3.910   4.497   6.656  1.3099  0.3268  2.0463
 3207SOL     OW21253   2.839   2.002   0.310  0.3771 -0.2898 -0.2160
 3207SOL    HW121254   2.814   1.940   0.378  0.4008 -2.3146 -2.0773
 3207SOL    HW221255   2.824   1.951   0.231  0.2395 -1.4662  0.5777
 3208SOL     OW21256   2.756   4.646   3.807 -0.0874 -0.1714  0.1433
 3208SOL    HW121257   2.784   4.558   3.830 -1.3767 -0.6938 -0.2872
 3208SOL    HW221258   2.766   4.641   3.712  0.6802 -0.3464  0.2325
 3209SOL     OW21259   0.598   4.243   3.660 -0.3989 -0.1841  0.0435
 3209SOL    HW121260   0.509   4.276   3.670 -0.4125 -0.7767  2.0539
 3209SOL    HW221261   0.629   4.297   3.588 -1.8011 -0.0127 -0.4264
 3210SOL     OW21262   1.543   3.326   4.209 -0.7268 -0.1546 -0.1619
 3210SOL    HW121263   1.552   3.231   4.218  2.9924  0.1578 -0.7461
 3210SOL    HW221264   1.462   3.343   4.258 -2.0513 -2.3787 -1.5312
 3211SOL     OW21265   0.531   4.029   6.748 -0.0488 -0.1741  0.0764
 3211SOL    HW121266   0.486   4.038   6.832  0.7874 -0.9436  0.6079
 3211SOL    HW221267   0.592   3.962   6.777  1.6427  1.0829 -0.5654
 3212SOL     OW21268   0.979   0.967  16.043  0.2636  0.4958 -0.3055
 3212SOL    HW121269   1.009   0.910  16.114 -2.5399 -1.7812 -0.9589
 3212SOL    HW221270   1.018   1.051  16.068  1.3317  0.0939 -0.6396
 3213SOL     OW21271   2.995   3.592   8.311 -0.1381 -0.1554 -0.0503
 3213SOL    HW121272   3.012   3.531   8.240  0.9190 -2.0578  1.8389
 3213SOL    HW221273   2.985   3.680   8.275 -0.2505  0.0773  0.5417
 3214SOL     OW21274   3.487   2.871   0.092  0.2583 -0.0157  0.2463
 3214SOL    HW121275   3.525   2.798   0.141 -0.6198  0.3965  1.5527
 3214SOL    HW221276   3.532   2.847   0.011 -2.4341  0.7920 -1.4929
 3215SOL     OW21277   2.255   1.159   8.157  0.2605 -0.5228 -0.3681
 3215SOL    HW121278   2.261   1.168   8.253 -1.2068 -0.9681 -0.2261
 3215SOL    HW221279   2.273   1.251   8.136 -1.3638  0.1302  1.0503
 3216SOL     OW21280   0.814   2.768   5.754  0.0206  0.4284  0.3327
 3216SOL    HW121281   0.827   2.770   5.659 -0.5346 -0.4447  0.2345
 3216SOL    HW221282   0.771   2.687   5.779 -0.1970  0.9511  1.6200
 3217SOL     OW21283   2.341   2.398   5.230  0.6486 -0.3193 -0.6020
 3217SOL    HW121284   2.299   2.338   5.292  0.6816  0.5608  0.2685
 3217SOL    HW221285   2.284   2.405   5.154 -1.3282  0.2164  0.9164
 3218SOL     OW21286   3.802   1.578   8.241 -0.5497 -0.2190  0.3305
 3218SOL    HW121287   3.895   1.592   8.221 -0.2844  0.7451  2.1865
 3218SOL    HW221288   3.760   1.557   8.158 -3.7056  1.7155  1.4425
 3219SOL     OW21289   4.581   3.410   5.877  0.5332  0.2717  0.2031
 3219SOL    HW121290   4.545   3.477   5.935 -0.2310 -0.6053  0.7405
 3219SOL    HW221291   4.567   3.325   5.920  2.6920  0.0124  0.3882
 3220SOL     OW21292   0.696   3.908   2.017  0.0830 -0.6670 -0.2634
 3220SOL    HW121293   0.604   3.933   2.032  0.6141  0.4547  1.1922
 3220SOL    HW221294   0.713   3.944   1.930  1.3939 -0.4562  0.0856
 3221SOL     OW21295   2.468   2.618   8.060  0.1817  0.4353  0.0571
 3221SOL    HW121296   2.466   2.709   8.088  1.3832  0.4621  0.0588
 3221SOL    HW221297   2.392   2.624   8.002 -1.4160  0.9015  2.1820
 3222SOL     OW21298   3.864   2.999   5.730  0.2334 -0.3535  0.5355
 3222SOL    HW121299   3.779   3.030   5.700 -0.0223 -1.6336 -0.0848
 3222SOL    HW221300   3.839   2.914   5.766 -2.3866  0.4173  0.5760
 3223SOL     OW21301   3.346   4.667   2.911  0.5546  0.3305  0.2835
 3223SOL    HW121302   3.324   4.586   2.957  1.7200  0.6179  1.3248
 3223SOL    HW221303   3.430   4.692   2.947 -0.2642  1.6580  1.2535
 3224SOL     OW21304   1.033   0.387   4.569  0.1272 -0.7746 -0.3409
 3224SOL    HW121305   1.028   0.449   4.642 -2.5185 -0.3075 -0.9286
 3224SOL    HW221306   0.955   0.339   4.595 -0.5897  0.9309  0.6681
 3225SOL     OW21307   2.726   0.864  12.078  0.0683 -0.2411  0.0403
 3225SOL    HW121308   2.741   0.956  12.103 -1.7116  0.4630 -1.4816
 3225SOL    HW221309   2.803   0.841  12.027  0.5563  2.1749 -0.3031
 3226SOL     OW21310   0.771   1.520  12.696  1.0943  0.5546  0.2559
 3226SOL    HW121311   0.815   1.582  12.754  1.2808  0.2382  0.4575
 3226SOL    HW221312   0.818   1.530  12.613  0.8124 -1.6097 -0.1673
 3227SOL     OW21313   2.007   0.397  12.370 -0.1658 -0.6861 -0.1162
 3227SOL    HW121314   2.017   0.318  12.316  1.6354 -1.0157  0.7194
 3227SOL    HW221315   1.919   0.375  12.402 -0.2616  0.4058  0.3733
 3228SOL     OW21316   4.630   0.708   6.549  0.3195 -0.7439 -0.2072
 3228SOL    HW121317   4.638   0.762   6.471 -2.9308  0.1432  0.0899
 3228SOL    HW221318   4.717   0.667   6.552  0.4233 -0.5287 -0.2874
 3229SOL     OW21319   3.397   0.837   8.968  0.1824  0.0583  0.0415
 3229SOL    HW121320   3.455   0.911   8.948 -1.3497  0.6606 -2.1934
 3229SOL    HW221321   3.352   0.870   9.046  0.7288  0.3242  0.2452
 3230SOL     OW21322   1.741   3.244  13.105  0.2251 -0.2732 -0.6986
 3230SOL    HW121323   1.743   3.332  13.141  3.2688 -0.3364 -0.7834
 3230SOL    HW221324   1.657   3.232  13.059  0.7240  0.3969 -1.7920
 3231SOL     OW21325   3.592   0.390   5.079 -0.2684 -0.2030  0.0995
 3231SOL    HW121326   3.684   0.407   5.099 -0.6124 -1.1416  2.4794
 3231SOL    HW221327   3.568   0.482   5.091 -0.3227  0.0675 -2.1368
 3232SOL     OW21328   4.501   1.957   6.746 -0.1375 -0.3991 -0.0592
 3232SOL    HW121329   4.454   2.040   6.741  0.3856 -0.0925  0.1651
 3232SOL    HW221330   4.585   1.982   6.782 -1.0789 -0.6016  2.2904
 3233SOL     OW21331   2.673   2.524   6.061 -0.0135  0.1778  0.3071
 3233SOL    HW121332   2.740   2.574   6.108 -0.0433  0.3281  0.1905
 3233SOL    HW221333   2.639   2.594   6.004 -0.8934  0.3772  1.0820
 3234SOL     OW21334   0.846   0.091  14.179  0.5781  0.3402 -0.3101
 3234SOL    HW121335   0.901   0.154  14.133 -0.6106  1.4633 -0.1840
 3234SOL    HW221336   0.890   0.019  14.133 -0.4853 -1.0949  0.9224
 3235SOL     OW21337   0.434   0.598   8.885 -0.0051 -0.0440 -0.0433
 3235SOL    HW121338   0.396   0.539   8.820 -2.0097  2.3262 -1.0406
 3235SOL    HW221339   0.376   0.575   8.957 -0.3798 -0.1283 -0.3678
 3236SOL     OW21340   2.264   0.123   0.164 -0.1647  0.1513 -0.2543
 3236SOL    HW121341   2.252   0.083   0.250 -2.1131 -1.8346 -1.4598
 3236SOL    HW221342   2.227   0.051   0.114 -2.0514  0.6546  0.4179
 3237SOL     OW21343   2.613   2.810   6.868 -0.1159  0.6234 -0.0993
 3237SOL    HW121344   2.658   2.890   6.894 -0.0802  0.8475 -0.8405
 3237SOL    HW221345   2.524   2.832   6.894 -0.5575 -0.0694 -1.0410
 3238SOL     OW21346   2.310   0.798   5.383  0.4439 -0.0791  0.0246
 3238SOL    HW121347   2.274   0.713   5.357  3.9351 -0.8625 -2.2007
 3238SOL    HW221348   2.399   0.783   5.351 -0.3765 -1.0812 -1.7860
 3239SOL     OW21349   0.116   3.806   1.718 -0.3897 -0.8782 -0.1413
 3239SOL    HW121350   0.050   3.858   1.672  0.5249  0.6381  0.2693
 3239SOL    HW221351   0.071   3.788   1.801 -0.3016 -1.6003 -0.2472
 3240SOL     OW21352   4.402   3.013   0.906 -0.7156  0.0506  0.3519
 3240SOL    HW121353   4.354   3.094   0.889  0.5079  1.2363  2.5401
 3240SOL    HW221354   4.378   2.963   0.828  0.4430 -0.2187  0.1649
 3241SOL     OW21355   1.901   2.281   6.439  0.4522  0.0969 -0.0786
 3241SOL    HW121356   1.878   2.349   6.501 -2.2360 -0.5402 -0.3971
 3241SOL    HW221357   1.990   2.310   6.418 -0.1714  0.3208 -2.3249
 3242SOL     OW21358   3.409   3.067   9.103  0.0542  0.4615 -0.5559
 3242SOL    HW121359   3.353   3.011   9.158 -0.0846 -0.2758 -1.4533
 3242SOL    HW221360   3.497   3.052   9.137 -0.1431 -1.1972 -0.7705
 3243SOL     OW21361   4.670   4.064   7.842 -0.7320 -0.1679 -0.3209
 3243SOL    HW121362   4.732   4.048   7.913  1.5928  0.9333 -2.1231
 3243SOL    HW221363   4.587   4.028   7.874 -1.0312  1.6675  0.9876
 3244SOL     OW21364   4.053   2.816   4.837  0.6479 -0.1281 -0.1021
 3244SOL    HW121365   3.989   2.745   4.847  0.9137 -0.4736 -0.8279
 3244SOL    HW221366   4.003   2.896   4.819  1.3313  0.4842  0.7240
 3245SOL     OW21367   2.714   4.198   0.212 -0.2449  0.0971 -0.3671
 3245SOL    HW121368   2.766   4.120   0.189  2.2683  1.4055  0.8690
 3245SOL    HW221369   2.689   4.183   0.303  0.2652 -0.8768 -0.3810
 3246SOL     OW21370   3.055   0.889  15.534 -0.0774 -0.3263  0.0112
 3246SOL    HW121371   3.027   0.811  15.582  0.7781 -0.5684  0.1219
 3246SOL    HW221372   2.972   0.907  15.491  0.6801  0.9208 -0.9161
 3247SOL     OW21373   3.113   4.017   6.667  0.3200  0.0641 -0.3472
 3247SOL    HW121374   3.028   4.032   6.709 -0.1392 -2.8793 -0.2223
 3247SOL    HW221375   3.142   3.934   6.705 -0.7327 -0.5679 -0.9115
 3248SOL     OW21376   3.438   2.135   2.177  0.3635  0.1976  0.0100
 3248SOL    HW121377   3.450   2.041   2.187  0.6309  0.3993  1.5922
 3248SOL    HW221378   3.382   2.145   2.100 -0.2087 -2.4510  0.0915
 3249SOL     OW21379   1.773   3.018   8.182  0.3539  0.9322  0.0614
 3249SOL    HW121380   1.780   3.078   8.108  2.6972  0.4001 -0.1456
 3249SOL    HW221381   1.818   2.942   8.146 -1.6419 -1.0532  1.7780
 3250SOL     OW21382   0.111   0.999   4.091 -0.0538 -0.2773  0.3121
 3250SOL    HW121383   0.034   1.032   4.139  0.7364  3.6106 -1.1258
 3250SOL    HW221384   0.184   1.060   4.105 -0.5983  0.8205 -1.6012
 3251SOL     OW21385   4.259   4.032  10.773 -0.2145  0.1451 -0.6612
 3251SOL    HW121386   4.271   4.117  10.814  2.1249 -1.3146  1.6578
 3251SOL    HW221387   4.211   3.978  10.836 -2.4949  3.2185  0.2262
 3252SOL     OW21388   3.183   3.826   3.256 -0.7324 -0.5125  0.6208
 3252SOL    HW121389   3.261   3.857   3.211 -0.4464 -0.9707  0.7997
 3252SOL    HW221390   3.165   3.892   3.323 -1.8726  0.6427 -0.8231
 3253SOL     OW21391   4.424   3.995   2.070  0.6391  0.1046 -0.6250
 3253SOL    HW121392   4.367   4.065   2.040 -0.2441 -1.2379 -2.0568
 3253SOL    HW221393   4.355   3.933   2.095  0.5884 -0.0437 -1.1385
 3254SOL     OW21394   0.062   1.969   7.101 -0.1691 -0.5692  0.3477
 3254SOL    HW121395   0.093   1.901   7.161 -0.1735  1.0365  2.1573
 3254SOL    HW221396   4.705   1.981   7.130 -0.9524 -3.5232 -0.8235
 3255SOL     OW21397   0.781   0.097  13.358 -0.9807  0.1579 -0.8465
 3255SOL    HW121398   0.796   0.003  13.349  1.8350  0.6782 -1.4637
 3255SOL    HW221399   0.686   0.092  13.347 -1.0852 -0.7067  0.4252
 3256SOL     OW21400   1.545   1.039   9.322 -0.1461  0.6601 -0.3785
 3256SOL    HW121401   1.450   1.050   9.319 -0.2500 -0.1284 -0.0186
 3256SOL    HW221402   1.590   1.110   9.275 -1.6118  1.0645 -1.1495
 3257SOL     OW21403   1.208   0.945   5.763  0.5268 -0.2370  0.0611
 3257SOL    HW121404   1.231   0.994   5.843 -0.2495 -0.2536  0.2959
 3257SOL    HW221405   1.197   1.019   5.704 -0.4166 -0.2730  0.1873
 3258SOL     OW21406   2.302   0.477  12.328 -0.0025 -0.1169  0.6107
 3258SOL    HW121407   2.291   0.415  12.257  0.3742 -0.3620  0.7673
 3258SOL    HW221408   2.209   0.486  12.352 -0.1900  2.5871 -1.1215
 3259SOL     OW21409   0.344   1.410   3.436  0.4327 -0.5713 -0.2988
 3259SOL    HW121410   0.269   1.423   3.493  0.5025 -1.0891 -0.0862
 3259SOL    HW221411   0.366   1.498   3.406  1.4740 -1.1053 -1.1250
 3260SOL     OW21412   3.146   3.505   7.822  0.1559 -0.0944 -0.3487
 3260SOL    HW121413   3.165   3.441   7.753 -1.0436  0.2557 -0.9891
 3260SOL    HW221414   3.053   3.486   7.830  0.2692 -0.6362 -0.3347
 3261SOL     OW21415   0.480   2.214   2.670  0.8466  0.7596  0.0009
 3261SOL    HW121416   0.575   2.225   2.664  0.6715  1.9439 -0.7191
 3261SOL    HW221417   0.459   2.204   2.577  2.4527  1.2582 -0.4063
 3262SOL     OW21418   4.684   3.502   7.363  0.1350 -0.8388 -0.2946
 3262SOL    HW121419   4.637   3.561   7.304  0.3306 -0.4435 -0.0524
 3262SOL    HW221420   4.617   3.435   7.376 -1.1991  0.2009 -1.7931
 3263SOL     OW21421   1.295   2.667  13.115  0.2897  0.0714  0.0942
 3263SOL    HW121422   1.278   2.678  13.021 -1.4023  1.6245  0.6007
 3263SOL    HW221423   1.355   2.740  13.131 -0.7274  0.4253  2.2666
 3264SOL     OW21424   0.058   4.151   3.638  0.2639  0.3195  0.0943
 3264SOL    HW121425   0.120   4.082   3.659  0.1555  0.4405  0.7910
 3264SOL    HW221426   0.075   4.203   3.716  0.0286  2.3955 -1.2365
 3265SOL     OW21427   2.492   0.496   2.267 -0.1946  0.0002 -0.0523
 3265SOL    HW121428   2.573   0.448   2.284  0.3208  0.5047 -1.0550
 3265SOL    HW221429   2.506   0.584   2.303 -1.3431 -0.2508  1.0023
 3266SOL     OW21430   3.480   2.834   8.625  0.4355 -0.1235  0.3796
 3266SOL    HW121431   3.561   2.789   8.600  1.6391  2.2988 -0.1431
 3266SOL    HW221432   3.476   2.830   8.720  0.2229  2.3725  0.4807
 3267SOL     OW21433   3.142   1.356   3.824  0.5067 -0.1039 -0.6084
 3267SOL    HW121434   3.170   1.399   3.905  0.7295  0.8812 -1.2112
 3267SOL    HW221435   3.203   1.403   3.766 -1.0308  2.8408  0.1635
 3268SOL     OW21436   4.513   3.799   8.570  0.2413 -0.0914  0.3662
 3268SOL    HW121437   4.587   3.859   8.564  0.4838 -0.4057  0.2118
 3268SOL    HW221438   4.518   3.764   8.481  2.9759 -0.2466  0.5920
 3269SOL     OW21439   3.177   0.551   2.402 -0.0806 -0.9843  0.3203
 3269SOL    HW121440   3.246   0.586   2.346  0.4927 -2.1759  0.2927
 3269SOL    HW221441   3.200   0.608   2.476  2.3275 -3.1578  1.2501
 3270SOL     OW21442   0.537   1.255  17.483  0.0923 -0.2072  0.1729
 3270SOL    HW121443   0.616   1.225  17.527 -0.2070 -0.9115  0.2364
 3270SOL    HW221444   0.496   1.179  17.442 -0.0773 -0.7533  1.3521
 3271SOL     OW21445   1.545   2.876   7.795  0.2742 -0.6186 -0.0957
 3271SOL    HW121446   1.617   2.938   7.807 -0.4884  0.0937  0.8338
 3271SOL    HW221447   1.468   2.932   7.795 -1.6358 -3.2059  1.3808
 3272SOL     OW21448   4.368   0.205   9.153  0.1083 -0.6093 -0.3506
 3272SOL    HW121449   4.303   0.266   9.188  0.6044  0.1522 -0.7344
 3272SOL    HW221450   4.407   0.167   9.231  0.0187  0.0333  0.0074
 3273SOL     OW21451   1.681   1.858   8.403  0.0193 -0.0775 -0.4061
 3273SOL    HW121452   1.698   1.779   8.454  3.5021  1.0547  0.1815
 3273SOL    HW221453   1.636   1.829   8.324 -0.4316  0.3761 -0.3180
 3274SOL     OW21454   4.734   3.648   5.339 -0.3429 -0.0327  0.0110
 3274SOL    HW121455   4.676   3.661   5.414  0.6734 -0.4117  0.8675
 3274SOL    HW221456   4.669   3.626   5.272 -0.0018 -1.7692  0.2460
 3275SOL     OW21457   2.252   4.489   5.819 -0.1123 -0.3734 -0.0548
 3275SOL    HW121458   2.332   4.540   5.809 -0.5620  0.3141 -0.1997
 3275SOL    HW221459   2.183   4.552   5.843  1.3863  0.9797  0.7539
 3276SOL     OW21460   0.235   0.469   5.908 -0.1818 -0.5567 -0.1237
 3276SOL    HW121461   0.177   0.467   5.984 -0.0246 -0.0687  0.0072
 3276SOL    HW221462   0.268   0.558   5.918  0.9826 -1.0822  0.7492
 3277SOL     OW21463   0.702   2.822   3.514  0.3127 -0.3792  0.5275
 3277SOL    HW121464   0.664   2.735   3.524 -1.8345  0.5748  0.6357
 3277SOL    HW221465   0.673   2.856   3.429 -3.8463 -1.2091  1.5879
 3278SOL     OW21466   2.783   0.133  17.408  0.0271  0.1201  0.4137
 3278SOL    HW121467   2.804   0.198  17.341 -3.1469  0.1458 -0.5310
 3278SOL    HW221468   2.732   0.072  17.355 -1.5768  0.4385  1.6089
 3279SOL     OW21469   4.670   1.890   1.563  0.6614  0.0409  0.0113
 3279SOL    HW121470   4.721   1.929   1.634  0.8343  0.8032 -0.5388
 3279SOL    HW221471   4.622   1.969   1.540  2.0184  0.7407 -0.3957
 3280SOL     OW21472   0.036   1.065   9.987 -0.5888  0.3626  0.1228
 3280SOL    HW121473   4.691   1.060   9.933 -1.2446 -0.4003  1.1510
 3280SOL    HW221474   0.007   1.113  10.065  0.6435  1.3633 -0.0411
 3281SOL     OW21475   4.030   2.949  17.046 -0.4712 -0.6193 -0.6629
 3281SOL    HW121476   4.114   2.993  17.060 -0.6721 -0.0438 -1.2534
 3281SOL    HW221477   3.973   3.014  17.086  0.2147 -0.7089  0.4604
 3282SOL     OW21478   1.918   2.199   2.396  0.3142  0.3314  0.1029
 3282SOL    HW121479   1.955   2.138   2.332 -4.3894 -0.2672 -2.0402
 3282SOL    HW221480   1.921   2.146   2.476 -1.0772  1.0441  0.6258
 3283SOL     OW21481   0.685   0.335   2.415  0.1399  0.1162  0.3489
 3283SOL    HW121482   0.738   0.408   2.384  0.1538 -0.3451 -0.7389
 3283SOL    HW221483   0.692   0.336   2.511 -0.5179  1.2598  0.3783
 3284SOL     OW21484   2.236   0.444  13.642  0.2417 -0.0721 -1.0613
 3284SOL    HW121485   2.196   0.508  13.583  0.5169 -0.3726 -1.5664
 3284SOL    HW221486   2.222   0.357  13.605  0.1896 -1.8528  3.0786
 3285SOL     OW21487   3.741   3.207   5.531  0.0812 -0.2496 -0.5071
 3285SOL    HW121488   3.703   3.287   5.568  0.7296 -0.9798  1.7528
 3285SOL    HW221489   3.736   3.237   5.440  0.4469 -1.2643 -0.8607
 3286SOL     OW21490   0.094   1.803   6.666 -0.2750  0.5751  0.5713
 3286SOL    HW121491   0.068   1.892   6.690 -0.2326  0.4808  0.9622
 3286SOL    HW221492   0.110   1.764   6.752  2.8896  0.7738  0.0908
 3287SOL     OW21493   3.314   2.309   7.461  0.2731  0.1530  0.0802
 3287SOL    HW121494   3.276   2.392   7.491  1.8234  0.6514  0.6644
 3287SOL    HW221495   3.326   2.335   7.369  2.6115 -1.3344 -0.0214
 3288SOL     OW21496   3.568   2.060   8.730  0.1190  0.1872 -0.0234
 3288SOL    HW121497   3.644   2.005   8.748  0.9310  1.8074  1.5174
 3288SOL    HW221498   3.511   2.054   8.806  1.3497 -1.2495  0.7762
 3289SOL     OW21499   0.904   2.940  16.715 -1.0234  0.4218 -0.1052
 3289SOL    HW121500   0.838   2.942  16.645  0.4345 -0.2217 -1.5171
 3289SOL    HW221501   0.848   2.910  16.786 -1.2600 -0.9128 -0.8661
 3290SOL     OW21502   2.592   4.275  13.524 -0.2691  0.8067 -0.0630
 3290SOL    HW121503   2.582   4.252  13.616  1.2395 -1.5541 -0.4881
 3290SOL    HW221504   2.558   4.364  13.517  0.5917  1.1166 -0.2993
 3291SOL     OW21505   1.055   2.854   2.178  0.0890 -0.2735 -0.3521
 3291SOL    HW121506   1.076   2.783   2.238  0.9810 -0.1958 -0.5758
 3291SOL    HW221507   1.002   2.909   2.236  1.1686  0.6815 -0.2746
 3292SOL     OW21508   2.626   1.884   1.931  0.2572 -0.4600  0.1166
 3292SOL    HW121509   2.720   1.875   1.946  0.1343  1.8270  2.3105
 3292SOL    HW221510   2.630   1.961   1.875  2.0320  0.6082  1.7009
 3293SOL     OW21511   2.217   1.036   1.416  0.1606  0.5881 -0.3190
 3293SOL    HW121512   2.162   1.031   1.495  0.1599  0.0754 -0.3546
 3293SOL    HW221513   2.190   0.954   1.376 -0.1296 -0.6475  2.4285
 3294SOL     OW21514   3.695   0.784   6.725 -0.1150 -0.1164  0.3692
 3294SOL    HW121515   3.782   0.763   6.760 -0.4929  1.0895  2.0493
 3294SOL    HW221516   3.681   0.733   6.646 -1.2278 -0.3199  0.7051
 3295SOL     OW21517   1.984   4.709   0.766 -0.1600  0.5951  0.5473
 3295SOL    HW121518   1.933   4.650   0.822 -0.1874 -3.1100 -3.3413
 3295SOL    HW221519   1.915   0.038   0.744 -2.0876 -0.4958  3.4031
 3296SOL     OW21520   0.684   0.450   3.443 -0.6446 -0.6137 -0.0835
 3296SOL    HW121521   0.721   0.377   3.393 -1.5680 -1.3557  0.3205
 3296SOL    HW221522   0.749   0.519   3.429 -0.8647 -0.5092 -0.6079
 3297SOL     OW21523   2.699   3.705   4.166 -0.8890 -0.4828 -0.3080
 3297SOL    HW121524   2.716   3.680   4.075 -0.9868 -0.7838 -0.2446
 3297SOL    HW221525   2.739   3.792   4.163  0.7302 -1.1699  0.9991
 3298SOL     OW21526   4.215   1.400   7.977  0.3464  0.0920  0.0753
 3298SOL    HW121527   4.237   1.463   8.046  1.2086  0.1633 -0.2727
 3298SOL    HW221528   4.123   1.392   8.001 -0.0862  2.9466 -0.6393
 3299SOL     OW21529   4.084   4.266   4.504  0.4066  0.0533  0.5155
 3299SOL    HW121530   4.018   4.266   4.573 -0.1889 -3.4919 -0.0662
 3299SOL    HW221531   4.164   4.307   4.536 -0.4479  2.0552  0.0874
 3300SOL     OW21532   0.577   0.835  15.891  0.0052 -0.2160 -0.1829
 3300SOL    HW121533   0.503   0.794  15.935  1.7421 -2.0146  1.0560
 3300SOL    HW221534   0.655   0.784  15.917  0.5060  1.1580  1.0102
 3301SOL     OW21535   0.827   0.134   2.275  0.1508 -0.3376 -0.3806
 3301SOL    HW121536   0.779   0.204   2.319 -1.5743 -1.7575  0.0252
 3301SOL    HW221537   0.768   0.116   2.202 -0.3000 -4.2777  0.9348
 3302SOL     OW21538   0.416   2.074   1.816 -0.5411 -0.1375 -0.0054
 3302SOL    HW121539   0.461   2.149   1.777 -0.0696  0.0091  0.8006
 3302SOL    HW221540   0.474   2.008   1.778 -1.2876 -0.9735  0.3249
 3303SOL     OW21541   3.653   0.188   7.133 -0.5380  0.2997 -0.3829
 3303SOL    HW121542   3.671   0.247   7.206  2.1362 -1.7887  0.6516
 3303SOL    HW221543   3.688   0.247   7.066 -0.6971  1.2191  0.3300
 3304SOL     OW21544   3.940   0.525   7.165 -0.7106  0.7787 -0.0198
 3304SOL    HW121545   3.995   0.455   7.130 -0.9120  0.5048  0.2047
 3304SOL    HW221546   3.949   0.509   7.259  0.8562  2.5910  0.1410
 3305SOL     OW21547   0.223   0.809   3.631  0.6060  0.0143  0.2744
 3305SOL    HW121548   0.230   0.719   3.601 -0.7609 -0.7826  2.3647
 3305SOL    HW221549   0.291   0.809   3.698  0.4042  0.3165  0.4776
 3306SOL     OW21550   3.769   3.641   9.413 -0.0749  0.5097 -0.0727
 3306SOL    HW121551   3.782   3.668   9.504 -0.2075 -2.4056  0.8060
 3306SOL    HW221552   3.751   3.547   9.419 -0.4129  0.7310  2.4244
 3307SOL     OW21553   4.158   1.616   3.390 -0.2476  0.0313 -0.4929
 3307SOL    HW121554   4.206   1.578   3.317 -1.4132 -0.7342 -0.8442
 3307SOL    HW221555   4.218   1.610   3.465 -0.6553 -4.5260 -0.5646
 3308SOL     OW21556   2.935   1.458   7.515 -0.1230  0.1570 -0.1282
 3308SOL    HW121557   3.006   1.468   7.452  0.9783  1.6038  1.3373
 3308SOL    HW221558   2.941   1.536   7.569  2.3886  0.2200 -0.5273
 3309SOL     OW21559   2.886   2.651   8.542  0.1616 -0.4429  0.0157
 3309SOL    HW121560   2.957   2.633   8.603 -0.3295 -0.5119  0.5608
 3309SOL    HW221561   2.892   2.746   8.550  1.3890 -0.6683  1.7329
 3310SOL     OW21562   3.865   0.274   5.467 -0.0509  0.8315 -0.0713
 3310SOL    HW121563   3.798   0.290   5.400  0.3150  0.1578 -0.6113
 3310SOL    HW221564   3.944   0.272   5.413  1.2934  0.0457  1.9097
 3311SOL     OW21565   0.725   4.122   9.968 -0.3157 -0.1940 -0.4097
 3311SOL    HW121566   0.674   4.049  10.002  1.1044 -1.6655 -1.3988
 3311SOL    HW221567   0.807   4.073   9.964  1.4391  2.5504  1.4865
 3312SOL     OW21568   2.680   0.254   2.724  0.0941  0.3740 -0.0571
 3312SOL    HW121569   2.701   0.172   2.680 -2.3228  0.6281 -1.6935
 3312SOL    HW221570   2.693   0.221   2.813 -1.1597 -0.1653 -0.0756
 3313SOL     OW21571   4.413   4.397   3.080  0.2244 -0.1823  0.4888
 3313SOL    HW121572   4.363   4.346   3.016  0.3082  0.4552 -0.0858
 3313SOL    HW221573   4.360   4.476   3.085  0.0231 -0.3319  0.7039
 3314SOL     OW21574   3.865   2.599   2.373 -0.7370 -0.0574  0.1391
 3314SOL    HW121575   3.918   2.676   2.392  1.1608 -1.5220  0.7830
 3314SOL    HW221576   3.928   2.532   2.399 -0.8582 -0.7769 -1.3905
 3315SOL     OW21577   2.206   1.653   7.852  0.0846  0.5406 -0.6681
 3315SOL    HW121578   2.181   1.658   7.759 -1.2543  1.2228 -0.2666
 3315SOL    HW221579   2.186   1.560   7.864 -0.5116  0.9740  1.5258
 3316SOL     OW21580   1.681   2.399   3.727 -0.5444  0.3106  0.0676
 3316SOL    HW121581   1.630   2.479   3.717 -0.5752  0.4899  1.6676
 3316SOL    HW221582   1.712   2.407   3.817 -0.2117 -0.6157  0.0373
 3317SOL     OW21583   4.465   2.332   9.012  0.1927  0.1893  0.0611
 3317SOL    HW121584   4.370   2.324   9.018  0.1618  0.5067  0.0062
 3317SOL    HW221585   4.484   2.424   9.031 -0.1336  0.0664  0.9437
 3318SOL     OW21586   4.677   0.039   9.573 -0.0192  0.1522  0.3758
 3318SOL    HW121587   4.643   0.022   9.660 -1.0561  2.5006  0.4341
 3318SOL    HW221588   4.601   0.087   9.539 -0.1096 -0.5973 -0.4903
 3319SOL     OW21589   3.108   3.770   6.276 -0.3224  0.1882  0.0689
 3319SOL    HW121590   3.165   3.796   6.349 -0.1721  0.2233 -0.0604
 3319SOL    HW221591   3.121   3.837   6.209  1.7066 -2.7411 -2.4572
 3320SOL     OW21592   0.909   2.867   1.375 -0.4509 -0.1441 -0.0584
 3320SOL    HW121593   0.941   2.953   1.402 -1.1985  0.5980 -1.5479
 3320SOL    HW221594   0.987   2.815   1.354  0.7768  1.8754 -0.4507
 3321SOL     OW21595   2.414   4.532  14.494 -0.7657  0.2658  0.2501
 3321SOL    HW121596   2.338   4.561  14.443 -1.5945 -0.6744  0.9308
 3321SOL    HW221597   2.473   4.607  14.491  0.9731 -1.1114  0.3231
 3322SOL     OW21598   2.536   0.467  10.810  0.1171  0.2283  0.2695
 3322SOL    HW121599   2.616   0.516  10.794 -0.4839  0.9056 -0.6375
 3322SOL    HW221600   2.572   0.380  10.830  1.6968  0.6656 -0.6913
 3323SOL     OW21601   3.464   2.583   3.764  0.4013 -0.3613  0.6920
 3323SOL    HW121602   3.478   2.653   3.828 -0.8143 -0.8151  1.4517
 3323SOL    HW221603   3.499   2.630   3.688  0.1447 -2.0703 -0.4807
 3324SOL     OW21604   2.143   0.066  15.986  0.1199 -0.2526  0.5550
 3324SOL    HW121605   2.183   0.048  15.900  0.3241 -0.0969  0.6179
 3324SOL    HW221606   2.201   0.130  16.026 -0.5376 -0.0734  1.2113
 3325SOL     OW21607   4.729   0.225   7.381  0.1096  0.1961 -0.0367
 3325SOL    HW121608   0.025   0.308   7.347 -1.0489  0.4338 -0.4993
 3325SOL    HW221609   0.058   0.156   7.363 -0.2647 -0.0721 -0.3465
 3326SOL     OW21610   2.110   0.186   9.590 -0.4778  0.0831 -0.6680
 3326SOL    HW121611   2.135   0.270   9.552 -0.4609  1.0802  1.5627
 3326SOL    HW221612   2.016   0.193   9.605 -0.3064 -0.5037  0.6443
 3327SOL     OW21613   3.926   4.479   4.940 -0.1570 -0.2001 -0.0899
 3327SOL    HW121614   4.007   4.452   4.983 -1.2570 -0.0456  2.0754
 3327SOL    HW221615   3.965   4.536   4.873  0.1673 -0.2480  0.0571
 3328SOL     OW21616   2.787   1.016   4.557  0.2170 -0.3227  0.1707
 3328SOL    HW121617   2.824   1.087   4.609 -1.1243 -2.1501  3.6817
 3328SOL    HW221618   2.761   1.067   4.481 -0.3770  0.6933  1.0540
 3329SOL     OW21619   3.171   4.167   9.454 -0.3597  0.2276 -0.0518
 3329SOL    HW121620   3.205   4.095   9.507 -1.0450  0.3362  0.5410
 3329SOL    HW221621   3.134   4.118   9.381 -0.1576  1.2966 -0.8794
 3330SOL     OW21622   2.285   2.070  17.044 -0.2294  0.0483  0.4593
 3330SOL    HW121623   2.368   2.023  17.040 -0.4737 -0.3546  0.1165
 3330SOL    HW221624   2.314   2.143  17.097 -1.0165 -0.2845  1.3415
 3331SOL     OW21625   4.504   2.217  10.999  0.5669  0.0701 -0.3681
 3331SOL    HW121626   4.438   2.154  10.968  0.5103  0.2404 -0.5915
 3331SOL    HW221627   4.590   2.189  10.971  0.3741  0.8384 -1.6989
 3332SOL     OW21628   0.424   1.033  16.718  0.2697  0.3853 -0.0376
 3332SOL    HW121629   0.425   0.982  16.637 -0.9990 -0.5648  0.5553
 3332SOL    HW221630   0.418   1.121  16.680  1.4690 -0.2025 -1.6038
 3333SOL     OW21631   0.411   0.415   5.675  0.0301  0.2851  0.9110
 3333SOL    HW121632   0.406   0.495   5.622  0.0149  0.1511  0.7124
 3333SOL    HW221633   0.335   0.433   5.731 -0.4085  1.7590 -0.1420
 3334SOL     OW21634   4.644   2.206   7.241 -0.0241  0.6946  0.1371
 3334SOL    HW121635   4.669   2.159   7.321  1.7211  3.4143  1.2048
 3334SOL    HW221636   4.588   2.149   7.189  0.6825  0.8091 -0.7354
 3335SOL     OW21637   3.580   4.038   5.428  0.7784 -0.6930  0.2592
 3335SOL    HW121638   3.526   4.065   5.354  1.1544  1.3914  0.7373
 3335SOL    HW221639   3.648   3.990   5.380  0.8084 -0.1491 -0.2444
 3336SOL     OW21640   2.087   3.831   5.230 -0.2027 -0.4402 -0.4501
 3336SOL    HW121641   2.093   3.833   5.325  2.8512  2.9410 -0.7221
 3336SOL    HW221642   2.165   3.777   5.217 -1.6657 -3.3619  3.1097
 3337SOL     OW21643   4.553   3.569   3.128 -0.3635 -0.1465  0.4121
 3337SOL    HW121644   4.479   3.630   3.125  0.3770  0.5629 -2.8694
 3337SOL    HW221645   4.572   3.550   3.036 -0.6008 -0.4551  0.4260
 3338SOL     OW21646   2.370   3.089   3.326  0.1728  0.1495 -0.1857
 3338SOL    HW121647   2.455   3.063   3.363  0.3280  0.5066 -0.2925
 3338SOL    HW221648   2.359   3.174   3.368  1.0241 -0.3343  1.0248
 3339SOL     OW21649   1.219   0.840  15.297 -0.2827  0.3161  0.2726
 3339SOL    HW121650   1.212   0.756  15.342 -1.5670  0.8833  1.1199
 3339SOL    HW221651   1.311   0.861  15.307  0.2984 -1.7906 -0.4891
 3340SOL     OW21652   2.093   4.125   1.024  0.0446 -0.0183  0.1210
 3340SOL    HW121653   2.068   4.040   0.988 -0.1134  1.0993 -2.3992
 3340SOL    HW221654   2.168   4.151   0.971 -0.0023 -0.8918 -0.3694
 3341SOL     OW21655   1.858   3.947   3.946  0.3629  0.2239  0.3832
 3341SOL    HW121656   1.911   4.007   3.894  1.0063 -0.0269  0.7563
 3341SOL    HW221657   1.834   3.893   3.871  1.1153 -1.1361  1.1278
 3342SOL     OW21658   3.727   2.709   8.610 -0.0088  0.0023 -0.5788
 3342SOL    HW121659   3.822   2.711   8.596 -0.2355  3.7357 -1.7067
 3342SOL    HW221660   3.696   2.627   8.571  0.9590  0.1744 -1.7052
 3343SOL     OW21661   1.735   4.161   3.802 -0.5938 -0.1574 -0.2220
 3343SOL    HW121662   1.741   4.075   3.760  2.0139 -0.7157  1.3026
 3343SOL    HW221663   1.644   4.176   3.827 -0.3307 -0.2391  0.7982
 3344SOL     OW21664   1.797   1.885   1.959 -0.4357 -0.3646 -0.1791
 3344SOL    HW121665   1.720   1.865   2.012  0.2297  0.4993  1.1294
 3344SOL    HW221666   1.822   1.798   1.930  0.4764  0.5643 -2.1821
 3345SOL     OW21667   4.573   0.168  10.336 -0.3408 -0.1736 -0.5672
 3345SOL    HW121668   4.536   0.255  10.318  0.7534  0.1224 -1.3792
 3345SOL    HW221669   4.612   0.142  10.253  1.3660  2.2166 -0.5096
 3346SOL     OW21670   0.393   1.791   2.566 -0.5294 -0.0748  0.1395
 3346SOL    HW121671   0.375   1.710   2.613  1.6050  0.6032  2.1270
 3346SOL    HW221672   0.428   1.763   2.482 -0.0273  1.0005 -0.0183
 3347SOL     OW21673   4.240   0.793   5.673  0.1136 -0.5790 -0.2194
 3347SOL    HW121674   4.165   0.764   5.621 -0.8638  1.0102  0.2930
 3347SOL    HW221675   4.311   0.818   5.615 -0.6147  1.4516 -0.2456
 3348SOL     OW21676   0.951   0.899   3.466  0.0209 -0.0876  0.2796
 3348SOL    HW121677   0.927   0.828   3.407  2.7737  0.5590 -1.6166
 3348SOL    HW221678   0.948   0.851   3.549 -1.1221  1.4457  1.1344
 3349SOL     OW21679   4.124   1.099  16.719  0.4419  0.3117 -0.0132
 3349SOL    HW121680   4.068   1.032  16.758  0.9652  0.0462  0.2893
 3349SOL    HW221681   4.205   1.088  16.769  3.4880  2.0345 -4.5135
 3350SOL     OW21682   1.419   3.779   4.217  0.2255  0.1175  0.0073
 3350SOL    HW121683   1.427   3.757   4.310  1.0476  2.5360  0.5124
 3350SOL    HW221684   1.511   3.781   4.193  0.9620  0.1075  2.8340
 3351SOL     OW21685   2.438   0.705  16.505 -1.2063 -0.0074  0.2489
 3351SOL    HW121686   2.491   0.742  16.435 -0.9535  2.2128  1.5976
 3351SOL    HW221687   2.492   0.712  16.584  1.3014 -1.1836 -1.3774
 3352SOL     OW21688   0.332   0.620   7.257 -0.2539 -0.2954 -0.1891
 3352SOL    HW121689   0.305   0.637   7.167  1.6544 -0.1186 -0.7343
 3352SOL    HW221690   0.302   0.697   7.305  0.9005  1.2945 -2.0237
 3353SOL     OW21691   0.920   1.917   3.993 -0.3581  0.3471 -0.3117
 3353SOL    HW121692   0.932   1.939   3.901 -1.4607  0.2181 -0.4858
 3353SOL    HW221693   0.918   2.003   4.036  1.4568 -0.5488  1.5651
 3354SOL     OW21694   1.517   2.674   3.609  0.4147  0.6027 -0.4216
 3354SOL    HW121695   1.459   2.617   3.557 -0.1592 -2.1108  3.2389
 3354SOL    HW221696   1.577   2.705   3.541  0.4590  1.8901  0.2047
 3355SOL     OW21697   2.297   4.058  16.790  0.5903 -0.2225  0.1398
 3355SOL    HW121698   2.319   4.096  16.705  1.0465  1.0571  0.8382
 3355SOL    HW221699   2.382   4.040  16.828  1.7885  3.3874 -0.8211
 3356SOL     OW21700   4.248   4.371   9.915 -0.0548 -0.0979  0.0598
 3356SOL    HW121701   4.260   4.365  10.010  3.1392  0.0013 -0.3700
 3356SOL    HW221702   4.307   4.306   9.877  0.7383  0.5600  0.1756
 3357SOL     OW21703   1.656   3.761  10.937  0.2667  0.6152 -0.0640
 3357SOL    HW121704   1.696   3.841  10.971  1.4553  0.5817 -1.4056
 3357SOL    HW221705   1.577   3.799  10.899 -0.0985  0.1463  0.2275
 3358SOL     OW21706   2.463   0.231   0.297 -0.4533  0.0715  0.0671
 3358SOL    HW121707   2.399   0.176   0.253  0.5115 -0.8032 -0.2445
 3358SOL    HW221708   2.480   0.171   0.369 -0.1387 -0.9120 -0.8265
 3359SOL     OW21709   1.336   2.498   7.132  0.3611 -0.2201  0.1373
 3359SOL    HW121710   1.422   2.533   7.156  0.8030 -2.3584  1.6922
 3359SOL    HW221711   1.363   2.406   7.131  1.0856  0.0239 -1.7566
 3360SOL     OW21712   3.872   2.697   9.718  0.4393 -0.3096 -0.4088
 3360SOL    HW121713   3.793   2.659   9.756  0.4298  0.4276  0.3134
 3360SOL    HW221714   3.882   2.645   9.638  0.6980 -1.0916  0.1349
 3361SOL     OW21715   2.636   1.513   4.512  0.7735  0.2036  0.1727
 3361SOL    HW121716   2.596   1.601   4.511  1.3507  0.4681  0.3143
 3361SOL    HW221717   2.657   1.511   4.419  0.9230  1.4629  0.1763
 3362SOL     OW21718   4.190   1.941   9.543 -0.1727 -0.4594  0.0655
 3362SOL    HW121719   4.272   1.982   9.513  0.6266 -1.0193  1.4731
 3362SOL    HW221720   4.147   1.936   9.458  0.9104 -2.8689 -0.3436
 3363SOL     OW21721   3.035   4.424   5.745 -0.1018  0.2723  0.5794
 3363SOL    HW121722   2.948   4.442   5.708  0.0107  1.5400  0.9421
 3363SOL    HW221723   3.089   4.419   5.667 -4.6265  1.9326 -2.6444
 3364SOL     OW21724   0.361   0.023   4.994  0.4170 -0.3652 -0.4246
 3364SOL    HW121725   0.442   0.052   5.037  0.9581 -1.9717 -0.3514
 3364SOL    HW221726   0.337   4.676   5.038 -0.2137  0.0123 -0.0703
 3365SOL     OW21727   2.346   1.206   1.779 -0.4582 -0.4619 -0.0749
 3365SOL    HW121728   2.406   1.193   1.705  0.5101 -0.2322  0.6646
 3365SOL    HW221729   2.316   1.117   1.796 -1.6912  0.0749  0.5101
 3366SOL     OW21730   3.673   3.682   3.158 -0.3480 -0.3676  0.0510
 3366SOL    HW121731   3.648   3.590   3.145 -1.1381 -0.2650  0.8477
 3366SOL    HW221732   3.695   3.674   3.251 -2.3585  3.1596  0.8303
 3367SOL     OW21733   2.079   0.776  16.531  0.4163  0.1768  0.1170
 3367SOL    HW121734   2.036   0.858  16.556 -0.3333  0.0350 -0.7100
 3367SOL    HW221735   2.061   0.784  16.437 -0.1563  3.0516  0.4724
 3368SOL     OW21736   4.361   2.080   5.452 -0.1702  0.7885 -0.2355
 3368SOL    HW121737   4.294   2.013   5.464  0.7115 -0.2284 -1.0321
 3368SOL    HW221738   4.446   2.039   5.468 -0.9498 -0.0252  1.7480
 3369SOL     OW21739   2.217   3.875   9.355  0.4233  0.7235  0.3318
 3369SOL    HW121740   2.131   3.838   9.336  0.4981  1.0048 -0.5658
 3369SOL    HW221741   2.211   3.875   9.450 -1.1170 -0.6945  0.2433
 3370SOL     OW21742   4.075   2.383   2.979 -0.1049  0.0882 -0.0503
 3370SOL    HW121743   4.022   2.455   3.015 -1.2920 -0.3426 -0.9328
 3370SOL    HW221744   4.142   2.380   3.047  0.2043 -1.4798 -0.4390
 3371SOL     OW21745   0.924   4.708   7.671  0.3431  0.5142  0.5561
 3371SOL    HW121746   0.957   4.636   7.723 -1.4083 -1.0581 -0.4990
 3371SOL    HW221747   0.939   4.679   7.581 -0.3475  1.2355  0.1996
 3372SOL     OW21748   0.478   3.574   8.202  0.6284  0.5016 -0.3351
 3372SOL    HW121749   0.571   3.580   8.224  0.6159 -2.2137  0.5118
 3372SOL    HW221750   0.481   3.575   8.106  1.5877 -1.0777 -0.3282
 3373SOL     OW21751   4.156   3.011   3.336  0.1389  0.3227 -0.2819
 3373SOL    HW121752   4.200   2.980   3.256 -0.9713  2.4444 -1.6963
 3373SOL    HW221753   4.097   2.940   3.361  0.7388 -0.0054  0.2281
 3374SOL     OW21754   0.495   1.681   4.941 -0.4268 -0.7331 -0.2506
 3374SOL    HW121755   0.563   1.661   5.005 -1.3451  2.8800  1.8694
 3374SOL    HW221756   0.511   1.776   4.947 -1.4105 -0.6323  0.8351
 3375SOL     OW21757   4.587   2.821   1.035 -0.1994  0.0896 -0.2484
 3375SOL    HW121758   4.573   2.726   1.029 -1.8309  0.3040  0.2547
 3375SOL    HW221759   4.508   2.851   0.990  0.1467  0.5379 -0.5595
 3376SOL     OW21760   1.764   2.842   1.575 -0.0476 -0.3107  0.0202
 3376SOL    HW121761   1.688   2.866   1.523  0.1170 -1.2511 -0.6541
 3376SOL    HW221762   1.757   2.909   1.644 -0.8652 -0.5634  0.1852
 3377SOL     OW21763   3.550   2.272   3.438  0.1053  0.7430 -0.3449
 3377SOL    HW121764   3.567   2.214   3.364  2.9577 -1.5736  2.1087
 3377SOL    HW221765   3.469   2.241   3.479  0.4201  1.4365  0.8245
 3378SOL     OW21766   2.426   4.419   6.673  0.7235 -0.1312 -0.0689
 3378SOL    HW121767   2.413   4.512   6.692  1.6796 -0.5979  2.8622
 3378SOL    HW221768   2.357   4.376   6.725  0.2408  2.7827  1.6797
 3379SOL     OW21769   0.123   3.919   4.591  0.3514  0.2636  0.3291
 3379SOL    HW121770   0.053   3.977   4.560  0.7530  0.1795 -0.6999
 3379SOL    HW221771   0.085   3.832   4.577 -1.7795  1.2131  0.1941
 3380SOL     OW21772   2.826   4.442   3.360 -0.0516 -0.0747  0.4523
 3380SOL    HW121773   2.881   4.394   3.421  2.3130  1.7605 -0.2412
 3380SOL    HW221774   2.841   4.525   3.405 -1.2647 -0.2152  1.1139
 3381SOL     OW21775   1.583   3.384  17.301 -0.1421  0.1877  0.2353
 3381SOL    HW121776   1.561   3.412  17.213  1.8600  2.0520  0.3050
 3381SOL    HW221777   1.515   3.426  17.354 -0.3244  1.7301 -1.2262
 3382SOL     OW21778   0.462   3.084   8.711 -0.2575 -0.1550 -0.1246
 3382SOL    HW121779   0.498   3.029   8.642 -0.4515 -2.1428  1.3665
 3382SOL    HW221780   0.398   3.138   8.664  0.2165  2.5221  2.3029
 3383SOL     OW21781   1.063   3.385   3.049 -0.3065 -0.0352 -0.4243
 3383SOL    HW121782   0.975   3.386   3.085  0.3046 -1.6047  1.1250
 3383SOL    HW221783   1.042   3.328   2.974  0.3810  0.6828 -1.1616
 3384SOL     OW21784   3.582   0.863   6.938 -0.3179  0.3876  0.4501
 3384SOL    HW121785   3.642   0.807   6.987 -0.2309  1.1344  1.1968
 3384SOL    HW221786   3.610   0.837   6.851  2.2478 -0.2383  1.4702
 3385SOL     OW21787   1.893   1.396   3.148  0.4638 -0.2186  0.3014
 3385SOL    HW121788   1.973   1.346   3.161  1.8349  2.0292  0.5144
 3385SOL    HW221789   1.829   1.342   3.195  0.9890 -1.7503 -0.7803
 3386SOL     OW21790   3.643   3.060   2.176  0.1014 -0.0482 -0.2163
 3386SOL    HW121791   3.656   3.022   2.089 -1.6063  0.1418 -0.5549
 3386SOL    HW221792   3.644   2.992   2.243  0.2294 -0.0289 -0.1985
 3387SOL     OW21793   2.280   1.420   5.700  0.3027  0.3211 -0.3256
 3387SOL    HW121794   2.247   1.496   5.749 -1.3552 -0.7276  0.1933
 3387SOL    HW221795   2.355   1.403   5.758  0.5518  1.4351 -0.3185
 3388SOL     OW21796   1.330   4.319   3.463 -0.1904 -0.1277 -0.0956
 3388SOL    HW121797   1.404   4.318   3.403  1.0907 -1.4680  1.4889
 3388SOL    HW221798   1.368   4.346   3.547  0.5534  1.2617 -0.8993
 3389SOL     OW21799   0.958   2.010   4.468  0.4911  0.3716 -0.3946
 3389SOL    HW121800   0.953   2.083   4.407 -1.2686  0.6065  0.0319
 3389SOL    HW221801   0.870   1.974   4.460  0.8588 -0.5915 -0.1426
 3390SOL     OW21802   0.722   0.134   5.833  0.2224 -0.1263 -0.6080
 3390SOL    HW121803   0.815   0.153   5.825 -0.1317  1.4300 -0.9761
 3390SOL    HW221804   0.711   0.118   5.927 -2.5641  0.7464 -0.7812
 3391SOL     OW21805   3.929   1.392   7.164  0.2955 -0.5139  0.0789
 3391SOL    HW121806   3.904   1.482   7.142  3.6474  0.4951  0.3533
 3391SOL    HW221807   3.912   1.400   7.257 -1.6125  1.9355 -0.4867
 3392SOL     OW21808   1.350   0.401  17.062  1.1321 -0.3745 -0.6238
 3392SOL    HW121809   1.420   0.434  17.119  0.1623 -1.5786  1.2814
 3392SOL    HW221810   1.270   0.400  17.114  0.0850 -0.7582 -2.2657
 3393SOL     OW21811   1.248   2.800   0.603  0.2253  0.3543  0.3844
 3393SOL    HW121812   1.276   2.758   0.685  1.0402  1.4210  0.6568
 3393SOL    HW221813   1.162   2.831   0.633  0.1633 -0.2172  0.8187
 3394SOL     OW21814   4.434   2.147   3.065  0.0761  0.7435  0.0249
 3394SOL    HW121815   4.523   2.155   3.100 -0.6195  0.2944  1.9243
 3394SOL    HW221816   4.386   2.078   3.112 -1.3817  1.8112  0.1172
 3395SOL     OW21817   0.463   0.863   9.455  0.1315 -0.4580 -0.3154
 3395SOL    HW121818   0.511   0.848   9.537  0.0223  0.8910 -0.0104
 3395SOL    HW221819   0.496   0.788   9.405  0.3594  0.0068 -0.8549
 3396SOL     OW21820   1.774   3.807   6.037 -0.2084  0.7574 -0.0526
 3396SOL    HW121821   1.794   3.899   6.057  0.1658  0.4940  0.8259
 3396SOL    HW221822   1.740   3.789   6.125  0.0716 -0.4765 -0.1954
 3397SOL     OW21823   0.804   2.893   7.821 -1.2724  0.4895  0.1988
 3397SOL    HW121824   0.856   2.870   7.898  0.5451 -0.3661 -1.2923
 3397SOL    HW221825   0.727   2.837   7.826 -0.0761 -1.1275  0.3741
 3398SOL     OW21826   3.476   4.179   3.293  0.5267 -0.1734 -0.1603
 3398SOL    HW121827   3.496   4.100   3.343 -1.1196  1.1424  2.6096
 3398SOL    HW221828   3.380   4.175   3.291  0.4683  1.3634 -0.9338
 3399SOL     OW21829   0.044   1.141   8.539 -0.3950  0.3799 -0.2538
 3399SOL    HW121830   4.704   1.188   8.574  1.0227  2.0212  0.5477
 3399SOL    HW221831   0.087   1.201   8.477  0.6646  1.6755  1.7290
 3400SOL     OW21832   2.190   3.122   1.868  0.1136  0.2745  0.3363
 3400SOL    HW121833   2.270   3.072   1.854 -0.2291  0.0077 -0.6813
 3400SOL    HW221834   2.127   3.050   1.867 -1.3164  1.5059  0.0633
 3401SOL     OW21835   2.315   0.736   6.065  0.2591 -0.4316  0.2852
 3401SOL    HW121836   2.243   0.759   6.124 -0.3451  0.8717 -0.9543
 3401SOL    HW221837   2.261   0.714   5.989 -1.2409  0.4384  1.0922
 3402SOL     OW21838   3.226   1.379   5.107  0.0211 -0.4766  0.1956
 3402SOL    HW121839   3.293   1.446   5.094 -1.1105  0.9476  1.6124
 3402SOL    HW221840   3.283   1.312   5.144 -1.4859 -2.0504 -0.3103
 3403SOL     OW21841   3.464   0.552  10.228  0.3079  0.0833 -0.3847
 3403SOL    HW121842   3.445   0.465  10.262 -0.5051 -0.2701 -1.7819
 3403SOL    HW221843   3.401   0.560  10.156  0.3686  1.0799 -0.3249
 3404SOL     OW21844   0.212   0.849  11.738 -0.8524 -0.8340 -0.2318
 3404SOL    HW121845   0.288   0.795  11.756 -0.1195 -0.4563 -2.2391
 3404SOL    HW221846   0.159   0.833  11.817 -0.9800 -2.8925 -0.7603
 3405SOL     OW21847   0.978   3.619  16.080 -0.3779 -0.2544  0.4141
 3405SOL    HW121848   1.016   3.695  16.035 -0.3492 -0.8301 -0.5439
 3405SOL    HW221849   1.056   3.572  16.109 -0.7276 -1.7018 -0.9596
 3406SOL     OW21850   2.043   4.678   5.201  0.1343 -0.1157 -0.0738
 3406SOL    HW121851   2.099   4.698   5.276  1.5096  2.3460 -1.7305
 3406SOL    HW221852   2.043   0.028   5.154  0.9888  1.3052  2.4658
 3407SOL     OW21853   3.960   2.205   2.812 -1.2270  0.3338  0.0175
 3407SOL    HW121854   3.986   2.286   2.857 -0.7304  0.5328 -0.6144
 3407SOL    HW221855   4.036   2.150   2.834 -0.9389  0.4780 -0.6046
 3408SOL     OW21856   0.898   3.802  13.457 -0.2660 -0.0766 -0.1868
 3408SOL    HW121857   0.811   3.775  13.427 -0.2800  0.4109 -0.5821
 3408SOL    HW221858   0.930   3.723  13.501 -1.4439 -0.6947 -0.4397
 3409SOL     OW21859   0.893   0.464  12.325  0.1480  0.0291  0.0824
 3409SOL    HW121860   0.948   0.426  12.394  1.2968  0.4810 -0.5753
 3409SOL    HW221861   0.818   0.405  12.322 -0.3637  0.6631  0.6093
 3410SOL     OW21862   1.916   3.502   5.698  0.1298 -0.0391  0.2731
 3410SOL    HW121863   1.882   3.565   5.762  0.9409  0.7894 -0.1145
 3410SOL    HW221864   1.923   3.429   5.760  3.0133  0.2976  0.3662
 3411SOL     OW21865   4.214   1.940   8.603  0.1289  0.2627 -0.0218
 3411SOL    HW121866   4.155   1.881   8.651  0.1187  0.2920  0.0011
 3411SOL    HW221867   4.189   1.940   8.510 -0.2776 -2.0655  0.0811
 3412SOL     OW21868   1.167   3.867   4.125  0.5780 -0.2356  0.4952
 3412SOL    HW121869   1.259   3.856   4.150 -0.0833 -2.0916  2.0501
 3412SOL    HW221870   1.129   3.826   4.203  1.4631 -0.8355  0.6159
 3413SOL     OW21871   1.904   2.981   4.990 -0.5166 -0.1257  0.1462
 3413SOL    HW121872   1.870   2.892   4.999 -0.7129 -0.1167 -0.5392
 3413SOL    HW221873   1.915   2.981   4.895 -0.3271 -0.4830  0.1665
 3414SOL     OW21874   1.441   2.528   6.089  0.7144  0.6070 -0.4110
 3414SOL    HW121875   1.468   2.620   6.084 -0.9621  1.1689  0.6576
 3414SOL    HW221876   1.468   2.499   6.002 -1.2966  1.4619 -1.3310
 3415SOL     OW21877   2.803   3.634  11.806  0.1843  0.9107 -0.1591
 3415SOL    HW121878   2.790   3.726  11.829  2.7412  1.7230 -1.9135
 3415SOL    HW221879   2.724   3.585  11.827  0.6336  0.0752 -0.3930
 3416SOL     OW21880   4.175   1.314   2.979 -0.3683 -0.5343  0.1437
 3416SOL    HW121881   4.120   1.276   2.910  0.2579 -3.1988  1.0935
 3416SOL    HW221882   4.175   1.254   3.053  2.3199 -3.4406 -2.2006
 3417SOL     OW21883   1.298   2.973   7.933 -0.4031  0.3244 -0.4966
 3417SOL    HW121884   1.258   3.040   7.988  0.3126  1.2016 -1.0372
 3417SOL    HW221885   1.372   2.945   7.986 -0.6636 -0.9288 -0.8063
 3418SOL     OW21886   0.724   3.690  16.428  0.1172  0.6553  0.5883
 3418SOL    HW121887   0.711   3.618  16.366 -1.0079  2.4906 -1.3259
 3418SOL    HW221888   0.714   3.763  16.367 -0.6405 -1.3012 -1.6251
 3419SOL     OW21889   0.843   0.946   1.736 -0.4896  0.0907  0.2996
 3419SOL    HW121890   0.933   0.972   1.755 -0.4787  1.6397 -1.8200
 3419SOL    HW221891   0.822   0.884   1.806 -1.3078 -0.5125 -0.4826
 3420SOL     OW21892   2.098   2.526   4.458  0.2245  0.0234  0.2225
 3420SOL    HW121893   2.025   2.481   4.415 -0.0695 -1.5365  2.3872
 3420SOL    HW221894   2.169   2.470   4.426  0.9744  1.8808 -1.4079
 3421SOL     OW21895   1.316   4.449  10.023  0.5748  0.0747 -0.4145
 3421SOL    HW121896   1.255   4.492  10.083  1.2792 -1.1014  1.1429
 3421SOL    HW221897   1.382   4.414  10.084  0.1176  0.3145  0.2200
 3422SOL     OW21898   0.721   3.270  10.116 -0.0994  0.0893 -0.4193
 3422SOL    HW121899   0.811   3.293  10.094 -0.2294  1.7778  0.8600
 3422SOL    HW221900   0.703   3.320  10.195 -0.1904 -1.0005  0.2453
 3423SOL     OW21901   2.190   4.534   3.421  0.2902  0.0030  0.4773
 3423SOL    HW121902   2.211   4.601   3.486 -2.3115  0.3932  0.9043
 3423SOL    HW221903   2.279   4.509   3.394  0.1675  0.5132 -0.3867
 3424SOL     OW21904   1.882   4.619   7.220  0.5056  0.3539 -0.0467
 3424SOL    HW121905   1.956   4.660   7.173  3.4097 -2.7680  1.8140
 3424SOL    HW221906   1.834   4.588   7.143 -2.9335  0.1906  2.1757
 3425SOL     OW21907   4.509   1.987   2.135  0.2628 -0.1880 -0.1229
 3425SOL    HW121908   4.540   1.996   2.225  2.8833  0.7390 -1.1356
 3425SOL    HW221909   4.413   1.985   2.135  0.3015 -2.0996  0.3822
 3426SOL     OW21910   2.601   4.487   1.820 -0.0918 -0.1331  0.2521
 3426SOL    HW121911   2.586   4.411   1.875  2.4193  1.6445  3.3658
 3426SOL    HW221912   2.692   4.509   1.840  0.0461  0.4650 -0.9996
 3427SOL     OW21913   1.876   3.776   5.504  0.0183 -0.3186 -0.1052
 3427SOL    HW121914   1.882   3.681   5.503  1.1039 -0.2427 -1.6800
 3427SOL    HW221915   1.869   3.790   5.598  1.5563  2.9539 -0.4650
 3428SOL     OW21916   0.131   2.001   1.745  0.4241 -0.0796 -0.3890
 3428SOL    HW121917   0.218   2.009   1.784  0.6379 -0.9796 -0.6863
 3428SOL    HW221918   0.116   2.086   1.702  0.3282  1.1031  2.0143
 3429SOL     OW21919   0.642   0.554   4.796  0.5044  0.6802 -0.1659
 3429SOL    HW121920   0.723   0.510   4.823  0.1902 -0.6799 -1.4251
 3429SOL    HW221921   0.593   0.558   4.878  0.2543 -1.0111 -0.2216
 3430SOL     OW21922   1.596   1.094   3.549  0.2690  0.5548 -0.7419
 3430SOL    HW121923   1.529   1.136   3.495  1.2477  1.3446 -1.3382
 3430SOL    HW221924   1.616   1.164   3.611 -0.4010 -0.9369  1.1536
 3431SOL     OW21925   2.654   2.942   1.399 -0.5729  0.1003  0.3128
 3431SOL    HW121926   2.575   2.967   1.351  1.8086  0.9974 -3.1069
 3431SOL    HW221927   2.701   3.025   1.410 -0.6743  0.1427  0.4424
 3432SOL     OW21928   0.159   1.395   5.427 -0.4478  0.2736  0.2861
 3432SOL    HW121929   0.125   1.464   5.485 -0.9107 -0.6590  1.1380
 3432SOL    HW221930   0.145   1.435   5.341 -1.2783  1.0036  0.7551
 3433SOL     OW21931   1.322   4.713   0.249  0.0568 -0.0005 -0.2465
 3433SOL    HW121932   1.353   0.063   0.216  1.8719  0.3525  2.3630
 3433SOL    HW221933   1.401   4.692   0.299 -0.7151 -1.3221  0.4103
 3434SOL     OW21934   0.327   3.180  15.851 -0.3270  0.4417 -0.2717
 3434SOL    HW121935   0.273   3.259  15.860 -4.1908 -2.4077  1.5538
 3434SOL    HW221936   0.322   3.157  15.759  0.6953  0.0138 -0.2190
 3435SOL     OW21937   0.819   3.734   7.103 -0.3683  0.4558  0.0477
 3435SOL    HW121938   0.858   3.752   7.189 -0.7687  1.0550  0.1070
 3435SOL    HW221939   0.859   3.649   7.086 -1.0382  0.8251 -3.3263
 3436SOL     OW21940   0.200   3.893   9.205 -0.3279 -0.5173  0.0450
 3436SOL    HW121941   0.151   3.814   9.182 -0.4946 -1.1808  2.6098
 3436SOL    HW221942   0.237   3.907   9.118 -0.5966  0.7375  0.1335
 3437SOL     OW21943   1.631   0.334   7.830  0.1133  0.0440  0.1024
 3437SOL    HW121944   1.662   0.310   7.917 -1.1935  3.7910  1.6049
 3437SOL    HW221945   1.709   0.296   7.789  2.8947  2.4676  3.1594
 3438SOL     OW21946   1.301   2.840  12.512 -0.7038 -0.0408 -0.2589
 3438SOL    HW121947   1.242   2.764  12.510  2.0922 -2.2225 -0.2476
 3438SOL    HW221948   1.304   2.862  12.419  0.1940 -0.6158 -0.3624
 3439SOL     OW21949   0.402   3.235   6.314 -0.5022  0.6311  0.4798
 3439SOL    HW121950   0.370   3.153   6.352  0.9005 -0.2643 -0.2770
 3439SOL    HW221951   0.463   3.279   6.374  2.5736  0.2932 -2.3832
 3440SOL     OW21952   0.301   3.234   1.738  0.0360 -0.4718 -0.0377
 3440SOL    HW121953   0.258   3.222   1.653  1.9914  0.1786 -1.1223
 3440SOL    HW221954   0.231   3.202   1.795 -0.3702 -1.0618 -0.8647
 3441SOL     OW21955   2.072   2.567   9.081 -0.6963 -0.1775  0.7465
 3441SOL    HW121956   2.106   2.657   9.086 -2.7719  0.5634  1.2722
 3441SOL    HW221957   2.006   2.589   9.016  1.3258  0.6403 -1.0477
 3442SOL     OW21958   2.222   1.765   6.123 -0.8622 -0.2307 -0.2559
 3442SOL    HW121959   2.257   1.839   6.073 -2.9780  1.2360  0.4507
 3442SOL    HW221960   2.139   1.805   6.147 -0.9359 -0.7813  0.3883
 3443SOL     OW21961   1.237   2.476   1.166  0.4623  0.0252  0.9945
 3443SOL    HW121962   1.157   2.491   1.116  1.3165 -0.2112 -0.4507
 3443SOL    HW221963   1.309   2.476   1.103  0.5978  1.7836  1.1430
 3444SOL     OW21964   1.294   3.085   8.816 -0.3002  0.2368  0.4404
 3444SOL    HW121965   1.351   3.047   8.883 -2.8114 -1.2367  1.7048
 3444SOL    HW221966   1.304   3.178   8.838  0.5898  0.1182  0.5521
 3445SOL     OW21967   4.174   1.280   6.380 -0.6682  0.2985  0.9779
 3445SOL    HW121968   4.183   1.256   6.473 -1.2288 -0.9586  0.7120
 3445SOL    HW221969   4.105   1.346   6.385  0.0850  1.1897 -0.6093
 3446SOL     OW21970   4.094   0.416   4.793 -0.0882 -0.4813 -0.0066
 3446SOL    HW121971   4.128   0.328   4.779  0.6820 -0.1984  0.0632
 3446SOL    HW221972   4.166   0.474   4.769  1.0661 -1.8906  0.0427
 3447SOL     OW21973   2.089   4.032   7.795 -0.0316 -0.3479 -0.3932
 3447SOL    HW121974   2.028   4.047   7.867  1.6057  0.6061  0.8034
 3447SOL    HW221975   2.148   4.107   7.791  0.5642 -0.9498 -3.0723
 3448SOL     OW21976   2.337   0.788   1.319  0.7050 -0.4487 -0.0544
 3448SOL    HW121977   2.311   0.744   1.238  0.3742  0.4454 -0.4297
 3448SOL    HW221978   2.415   0.836   1.293  0.1389  1.1094  1.1278
 3449SOL     OW21979   2.844   2.247  10.604 -0.8237  0.3148  0.1479
 3449SOL    HW121980   2.926   2.225  10.649 -2.1923 -0.4854  2.2405
 3449SOL    HW221981   2.780   2.180  10.627  0.1909 -0.2677  1.3171
 3450SOL     OW21982   3.320   3.322   3.374  0.2081  0.0657 -0.5884
 3450SOL    HW121983   3.291   3.232   3.388 -0.3175  0.5406  1.2811
 3450SOL    HW221984   3.238   3.353   3.335 -0.0785  1.3644  1.0937
 3451SOL     OW21985   3.646   3.322   6.523  0.0185 -0.0948 -0.4772
 3451SOL    HW121986   3.702   3.259   6.476  1.3240  0.9449 -0.3077
 3451SOL    HW221987   3.574   3.307   6.462 -0.2559  1.2782 -0.4757
 3452SOL     OW21988   2.013   0.499  13.478 -0.4972  0.2060  0.8145
 3452SOL    HW121989   2.022   0.404  13.477  0.2307  0.2886 -1.0494
 3452SOL    HW221990   1.929   0.508  13.523 -0.4678 -0.6535  1.0341
 3453SOL     OW21991   1.278   1.836   3.345  0.2779  0.7276 -0.5332
 3453SOL    HW121992   1.366   1.869   3.365  1.0833 -1.5981 -0.2392
 3453SOL    HW221993   1.254   1.808   3.433  0.1524  1.1612 -0.4278
 3454SOL     OW21994   0.508   4.217   4.655  0.3760 -0.4626 -0.2799
 3454SOL    HW121995   0.566   4.149   4.623  0.0636 -1.5367  1.4767
 3454SOL    HW221996   0.552   4.247   4.734  0.7960  0.1144 -0.7267
 3455SOL     OW21997   1.127   2.462  14.731 -0.5195  0.0539 -0.0205
 3455SOL    HW121998   1.086   2.424  14.809  1.3669 -3.3037 -0.7169
 3455SOL    HW221999   1.066   2.430  14.665 -0.7233 -1.6489  1.0083
 3456SOL     OW22000   2.365   0.456   0.401 -0.2940 -0.0634  0.1948
 3456SOL    HW122001   2.399   0.383   0.349 -1.3293  0.8359 -1.7584
 3456SOL    HW222002   2.295   0.477   0.339 -1.2764 -0.5354  1.1509
 3457SOL     OW22003   1.741   3.976   3.467 -0.0453  0.3353  0.2500
 3457SOL    HW122004   1.648   3.996   3.465 -0.2760 -0.7419  0.1557
 3457SOL    HW222005   1.765   4.055   3.419 -0.8778  1.1343  1.1521
 3458SOL     OW22006   2.833   0.164  10.243  0.0236  0.2622 -0.0512
 3458SOL    HW122007   2.818   0.240  10.300 -2.0726  1.7112 -2.5136
 3458SOL    HW222008   2.742   0.142  10.223 -0.0428  0.8859 -0.4637
 3459SOL     OW22009   0.440   0.837   4.573 -0.0718  0.7071  0.0097
 3459SOL    HW122010   0.369   0.780   4.602  0.4318  0.8773  1.5588
 3459SOL    HW222011   0.402   0.925   4.575  0.5693  0.9554  0.9807
 3460SOL     OW22012   0.624   0.922   6.249 -0.2594 -0.2231 -0.5986
 3460SOL    HW122013   0.647   0.943   6.159  0.7050 -0.8178 -0.4955
 3460SOL    HW222014   0.668   0.996   6.291 -1.2565 -0.5464  1.0045
 3461SOL     OW22015   3.768   4.080   9.883  0.4116 -0.1071 -0.1260
 3461SOL    HW122016   3.791   4.094   9.975  2.0580 -1.7784 -0.2852
 3461SOL    HW222017   3.672   4.084   9.891  0.0679 -1.9301 -3.3576
 3462SOL     OW22018   3.966   2.045   0.411  0.8557  0.0677  0.7235
 3462SOL    HW122019   3.888   1.995   0.391  1.6058  0.0271 -2.0767
 3462SOL    HW222020   3.991   2.085   0.328 -0.4605 -0.9586 -0.1589
 3463SOL     OW22021   1.574   1.019   6.961 -0.0283 -0.3749 -0.5400
 3463SOL    HW122022   1.634   1.042   7.032 -1.6576 -1.1643  1.1091
 3463SOL    HW222023   1.490   1.006   7.006  0.2242  0.1224  0.0695
 3464SOL     OW22024   1.473   3.340   8.725 -0.2178  0.9822  0.1844
 3464SOL    HW122025   1.402   3.298   8.675 -0.4568  0.3610  1.0323
 3464SOL    HW222026   1.440   3.357   8.813 -2.5444  0.8940 -0.6710
 3465SOL     OW22027   2.786   4.673   3.536 -0.0151 -0.8369  0.0693
 3465SOL    HW122028   2.845   4.697   3.464 -0.5516 -1.2873 -0.5272
 3465SOL    HW222029   2.717   0.004   3.534  0.3109 -0.4780  0.7277
 3466SOL     OW22030   2.391   4.220  13.178  0.6414  0.2621 -0.1836
 3466SOL    HW122031   2.437   4.267  13.109 -0.0209  0.3342 -0.5685
 3466SOL    HW222032   2.361   4.292  13.232  0.7109 -0.3787  0.7165
 3467SOL     OW22033   0.109   1.836  11.819  0.0535  0.1958  0.5039
 3467SOL    HW122034   0.200   1.826  11.845  0.1714 -0.4319 -0.1424
 3467SOL    HW222035   0.069   1.763  11.866  1.9990  0.1835  2.1047
 3468SOL     OW22036   4.455   2.583   6.176 -0.0074  1.0874  0.1812
 3468SOL    HW122037   4.517   2.540   6.116 -1.2340 -0.6313  0.1611
 3468SOL    HW222038   4.409   2.648   6.124 -1.4117  0.4561  0.6344
 3469SOL     OW22039   2.527   0.070   0.506 -0.7397 -0.4156 -0.4547
 3469SOL    HW122040   2.623   0.065   0.497 -0.5432  0.0101  1.3788
 3469SOL    HW222041   2.512   0.132   0.577  0.9198 -1.3052  0.6732
 3470SOL     OW22042   1.293   0.399   4.502  0.4248  0.4603  0.3919
 3470SOL    HW122043   1.201   0.398   4.531 -0.3774  0.3936 -2.1426
 3470SOL    HW222044   1.286   0.471   4.439 -0.5819 -1.1018 -1.2720
 3471SOL     OW22045   1.264   1.276   1.531  0.0479 -0.2171 -0.3998
 3471SOL    HW122046   1.181   1.258   1.487  0.3741 -0.5966 -0.8646
 3471SOL    HW222047   1.259   1.228   1.613  0.4653 -0.8989 -0.7752
 3472SOL     OW22048   1.851   0.822   9.038  0.4989  0.5473 -0.1526
 3472SOL    HW122049   1.850   0.777   8.954  1.0205 -0.6440  0.4730
 3472SOL    HW222050   1.881   0.749   9.092  0.6312  1.5999  1.2165
 3473SOL     OW22051   0.994   1.165   3.286 -0.0522 -0.0758 -0.4706
 3473SOL    HW122052   0.997   1.086   3.231  0.2340 -1.0387  0.9206
 3473SOL    HW222053   0.898   1.165   3.289 -0.0295 -0.2463  0.3111
 3474SOL     OW22054   2.629   2.875   4.820  0.2180 -0.4148 -0.3309
 3474SOL    HW122055   2.722   2.850   4.827  0.4275  0.7030  0.9656
 3474SOL    HW222056   2.613   2.815   4.748 -1.6221 -1.1750  0.7223
 3475SOL     OW22057   2.846   4.393   3.860 -0.1720 -0.7308  0.2123
 3475SOL    HW122058   2.823   4.366   3.949 -2.2634  0.9009  0.1523
 3475SOL    HW222059   2.829   4.313   3.810 -1.9478  0.9586 -1.8570
 3476SOL     OW22060   0.086   2.526   1.916  0.0121 -0.2494 -0.0699
 3476SOL    HW122061   4.734   2.501   1.950 -0.9055 -0.4170 -2.5676
 3476SOL    HW222062   0.066   2.589   1.847  0.2933  0.5923  0.6087
 3477SOL     OW22063   2.256   2.476  16.113 -0.1766  0.7275  0.5397
 3477SOL    HW122064   2.251   2.381  16.127  0.7964  0.3325 -1.8831
 3477SOL    HW222065   2.165   2.501  16.125 -0.0330  1.9119 -0.8338
 3478SOL     OW22066   0.555   0.567  11.573  0.3577  0.3028 -0.2928
 3478SOL    HW122067   0.536   0.602  11.661 -0.2697 -2.8380  0.8005
 3478SOL    HW222068   0.608   0.489  11.588 -0.7071 -0.3549  0.0612
 3479SOL     OW22069   2.873   1.255   5.239 -0.8902 -0.7269 -0.0642
 3479SOL    HW122070   2.848   1.243   5.330 -1.1401  0.0179 -0.0320
 3479SOL    HW222071   2.853   1.349   5.237  0.6935 -0.3745  0.0972
 3480SOL     OW22072   2.949   1.134   8.411 -0.4458  0.0434 -0.3526
 3480SOL    HW122073   2.866   1.181   8.403  0.5520  1.7401 -0.7352
 3480SOL    HW222074   2.960   1.138   8.506  0.6836 -3.0193 -0.3631
 3481SOL     OW22075   1.076   0.054   6.702 -0.0630  0.0715  0.3985
 3481SOL    HW122076   1.011   0.091   6.762 -0.4980  0.3133 -0.2263
 3481SOL    HW222077   1.102   4.708   6.748  0.1980  0.1325  0.3598
 3482SOL     OW22078   3.681   1.136   5.630 -0.0837  0.1928 -0.7906
 3482SOL    HW122079   3.668   1.057   5.682  1.9692  0.2036 -0.2454
 3482SOL    HW222080   3.652   1.209   5.685 -0.8859 -1.1923  0.6216
 3483SOL     OW22081   3.277   0.169  10.151  0.5237 -0.5983  0.2287
 3483SOL    HW122082   3.221   0.208  10.218  0.7775 -1.1721  0.7783
 3483SOL    HW222083   3.220   0.161  10.075 -2.9035  0.6718  2.6971
 3484SOL     OW22084   2.469   1.185   4.375 -0.2398  0.2946 -0.1460
 3484SOL    HW122085   2.421   1.227   4.304  0.2875  2.6755  0.9153
 3484SOL    HW222086   2.409   1.113   4.392 -1.6830  1.8287  1.2987
 3485SOL     OW22087   2.727   3.929  15.445 -0.0943 -0.2001  0.8259
 3485SOL    HW122088   2.773   3.848  15.420  0.1498  0.3056 -0.3419
 3485SOL    HW222089   2.639   3.913  15.411  0.7550  1.8799 -2.2862
 3486SOL     OW22090   2.011   2.883   0.711  0.5769 -0.1236 -0.2779
 3486SOL    HW122091   2.093   2.931   0.716  0.0894  0.4354  2.6237
 3486SOL    HW222092   2.025   2.833   0.630 -0.8740 -0.0070 -0.5992
 3487SOL     OW22093   3.795   0.165  14.989  0.8477 -0.0254  0.4486
 3487SOL    HW122094   3.748   0.133  15.065  0.6639  0.6530  0.6227
 3487SOL    HW222095   3.781   0.258  15.007  1.6968  0.4737 -1.3299
 3488SOL     OW22096   3.194   1.093   1.943  0.2206  0.6425 -0.6662
 3488SOL    HW122097   3.109   1.094   1.988  0.6211  0.7981  0.0971
 3488SOL    HW222098   3.226   1.004   1.957 -0.3572  0.2142 -2.1325
 3489SOL     OW22099   2.074   2.623  13.220  0.3450  0.1559  0.5695
 3489SOL    HW122100   2.085   2.625  13.315  0.0770  0.5084  0.5938
 3489SOL    HW222101   2.165   2.607  13.194 -0.0851 -1.9908  0.3847
 3490SOL     OW22102   3.227   4.569   3.437 -0.2959  0.0243 -0.2436
 3490SOL    HW122103   3.171   4.595   3.511  1.1713  0.9408  0.5529
 3490SOL    HW222104   3.192   4.614   3.360 -1.1654  1.3210  0.9003
 3491SOL     OW22105   3.118   3.406  12.687 -0.4448 -1.1429 -0.0518
 3491SOL    HW122106   3.102   3.500  12.686  0.6107 -0.9751 -0.8037
 3491SOL    HW222107   3.050   3.373  12.747 -1.4260 -0.1076 -0.5925
 3492SOL     OW22108   1.020   4.548   7.478  0.4737  0.2822 -0.1405
 3492SOL    HW122109   0.969   4.467   7.480  0.5350  0.2342 -0.4420
 3492SOL    HW222110   1.039   4.562   7.385  1.7704  0.1896  0.1108
 3493SOL     OW22111   2.099   4.374  17.096  0.5059  0.3466  1.1840
 3493SOL    HW122112   2.049   4.402  17.173  0.3290 -0.9103  1.5322
 3493SOL    HW222113   2.072   4.283  17.084  0.5420  0.4292  0.4840
 3494SOL     OW22114   0.528   1.935   5.028 -0.3127 -0.7269 -0.4570
 3494SOL    HW122115   0.558   1.936   5.119 -0.1843 -2.1244 -0.4768
 3494SOL    HW222116   0.442   1.975   5.040  0.3720  0.4317  0.5774
 3495SOL     OW22117   0.399   1.276  16.353 -0.2921 -0.2737  0.5264
 3495SOL    HW122118   0.420   1.184  16.334  2.9021  1.5020 -4.5868
 3495SOL    HW222119   0.311   1.282  16.316  0.1880 -1.6856 -0.8972
 3496SOL     OW22120   3.229   2.398   8.679 -0.0209  0.2345  0.0258
 3496SOL    HW122121   3.204   2.311   8.710 -1.7597  0.3176 -1.1709
 3496SOL    HW222122   3.322   2.401   8.703 -0.0236  0.2968  0.0285
 3497SOL     OW22123   1.022   0.780   4.027  0.1989 -0.2932  0.1033
 3497SOL    HW122124   1.104   0.738   4.001  0.2991 -0.0776  0.0694
 3497SOL    HW222125   0.962   0.706   4.038  0.5162 -0.7534 -1.1727
 3498SOL     OW22126   0.731   0.339  11.587 -0.5927 -0.5993 -0.5789
 3498SOL    HW122127   0.684   0.266  11.628  1.2715 -1.4887 -0.0284
 3498SOL    HW222128   0.820   0.304  11.581 -0.6076 -0.9383  1.0537
 3499SOL     OW22129   0.860   4.017   4.980  0.4605 -0.3625 -0.0321
 3499SOL    HW122130   0.938   4.011   5.035  0.5217  0.5611 -0.0175
 3499SOL    HW222131   0.808   4.087   5.020 -1.3714 -0.7544 -1.7508
 3500SOL     OW22132   1.971   3.140   7.167 -0.1645  0.3766 -0.3704
 3500SOL    HW122133   1.920   3.163   7.090  1.3798 -2.4325 -2.2274
 3500SOL    HW222134   1.919   3.173   7.240  1.1246 -0.3922  0.9080
 3501SOL     OW22135   1.192   3.159  17.183 -0.5857 -0.6407 -0.2692
 3501SOL    HW122136   1.162   3.166  17.273  1.2577  0.3891  0.2672
 3501SOL    HW222137   1.266   3.099  17.190  0.9891  1.1338 -1.7471
 3502SOL     OW22138   1.520   0.828   8.704 -0.3042 -0.1386  0.0348
 3502SOL    HW122139   1.510   0.852   8.612  0.3405 -1.0065 -0.2512
 3502SOL    HW222140   1.612   0.803   8.714 -0.8568 -2.2101 -0.0901
 3503SOL     OW22141   4.528   4.386   6.719  0.0059  0.0401  0.2958
 3503SOL    HW122142   4.530   4.393   6.814  0.8748  0.8479  0.2114
 3503SOL    HW222143   4.602   4.326   6.710 -0.0772  0.1636 -1.2744
 3504SOL     OW22144   2.401   2.792   6.107  0.3320  0.0392  0.4988
 3504SOL    HW122145   2.399   2.884   6.082 -1.1093 -0.1536 -0.0973
 3504SOL    HW222146   2.476   2.755   6.060  0.0861 -0.2212  0.3119
 3505SOL     OW22147   0.547   1.553   9.014 -0.2873 -0.4120 -0.0753
 3505SOL    HW122148   0.479   1.486   9.022  0.8942 -1.2908  2.4072
 3505SOL    HW222149   0.625   1.517   9.055 -2.2696 -3.0189  1.3973
 3506SOL     OW22150   1.340   4.393  11.867  0.4907  0.3381 -1.2340
 3506SOL    HW122151   1.367   4.318  11.919 -0.6041  1.0532  0.3685
 3506SOL    HW222152   1.244   4.392  11.871  0.5423  0.7747 -0.0873
 3507SOL     OW22153   2.543   3.775   4.923 -0.5968  0.4675 -0.0916
 3507SOL    HW122154   2.576   3.709   4.862 -2.8952 -1.6434  0.9385
 3507SOL    HW222155   2.592   3.854   4.899 -1.0279  1.0577  0.9619
 3508SOL     OW22156   0.380   3.480   8.751 -0.3681  0.3532 -0.5127
 3508SOL    HW122157   0.419   3.547   8.695  2.2974 -1.1031 -0.3920
 3508SOL    HW222158   0.465   3.436   8.765 -0.4551  0.3036 -0.1275
 3509SOL     OW22159   3.245   0.261   2.683  0.2867 -0.3906 -0.3656
 3509SOL    HW122160   3.289   0.272   2.767  0.5966 -0.7973 -0.4747
 3509SOL    HW222161   3.301   0.321   2.633 -1.0378  1.1303 -0.0097
 3510SOL     OW22162   3.110   4.431   6.785  0.2347 -0.1992  0.5392
 3510SOL    HW122163   3.015   4.428   6.775  0.2077  1.1626  0.4308
 3510SOL    HW222164   3.144   4.499   6.727 -1.2081 -1.1123 -1.3537
 3511SOL     OW22165   1.854   2.416  17.244 -0.1296  0.0478 -0.0672
 3511SOL    HW122166   1.855   2.329  17.283 -1.4388 -0.4266 -1.0777
 3511SOL    HW222167   1.930   2.413  17.185 -0.4359 -1.4000 -0.4018
 3512SOL     OW22168   0.675   0.391   2.681  0.1622 -0.0759 -0.1404
 3512SOL    HW122169   0.761   0.425   2.705 -0.0390 -0.6113  1.3515
 3512SOL    HW222170   0.649   0.334   2.754 -0.3637 -1.1083 -1.1274
 3513SOL     OW22171   2.467   3.909   2.575  0.2577 -0.1983 -0.6655
 3513SOL    HW122172   2.531   3.942   2.638 -0.2072  1.6242 -1.1504
 3513SOL    HW222173   2.488   3.958   2.495  1.7007  1.6643  0.8720
 3514SOL     OW22174   3.215   4.018   5.850  0.4163 -0.7096  0.2504
 3514SOL    HW122175   3.252   4.055   5.770 -1.3761  0.8915  0.1638
 3514SOL    HW222176   3.137   3.970   5.822  0.1268  0.4696 -0.9496
 3515SOL     OW22177   1.371   3.300   8.976  0.4154 -0.4461 -0.7135
 3515SOL    HW122178   1.424   3.227   9.008  1.1754  0.3408 -0.1750
 3515SOL    HW222179   1.337   3.328   9.062  0.5687  0.3046 -0.8930
 3516SOL     OW22180   4.312   2.177  16.550  0.3803 -0.0293  0.1853
 3516SOL    HW122181   4.277   2.179  16.638  2.6532  1.0445  1.0853
 3516SOL    HW222182   4.365   2.258  16.551  1.3745 -0.7139  2.4333
 3517SOL     OW22183   4.624   3.881   2.559 -0.0271  0.5076  0.0224
 3517SOL    HW122184   4.707   3.861   2.602  0.5576 -0.8043 -1.6941
 3517SOL    HW222185   4.636   3.845   2.471  0.1506 -0.0627  0.2770
 3518SOL     OW22186   4.614   2.202  12.843 -0.0160  0.1777 -0.1378
 3518SOL    HW122187   4.540   2.237  12.893 -1.7535  0.6377 -3.0542
 3518SOL    HW222188   4.616   2.265  12.771 -0.5524 -0.8203 -1.0316
 3519SOL     OW22189   1.542   1.406   4.321  0.0016 -0.6787 -0.8644
 3519SOL    HW122190   1.485   1.483   4.320 -0.6859 -1.1732  0.6022
 3519SOL    HW222191   1.617   1.440   4.274 -0.2871 -0.2217 -0.9917
 3520SOL     OW22192   2.175   1.978  17.396 -0.2968 -0.3963  0.0645
 3520SOL    HW122193   2.107   1.941  17.453 -1.1697 -0.1611 -0.8180
 3520SOL    HW222194   2.128   2.057  17.369 -0.1314 -0.2222  0.2866
 3521SOL     OW22195   1.773   4.272   1.747 -0.1761 -0.1670  0.1061
 3521SOL    HW122196   1.841   4.336   1.724 -0.0684 -1.2096 -2.4498
 3521SOL    HW222197   1.753   4.278   1.841  1.1138  3.9885  0.1148
 3522SOL     OW22198   1.387   4.698  17.181 -0.1265  0.0402  0.3024
 3522SOL    HW122199   1.373   0.057  17.165 -2.4592 -0.4622 -0.6239
 3522SOL    HW222200   1.303   4.677  17.222  0.2414 -2.7966 -0.4143
 3523SOL     OW22201   0.910   1.431   5.842 -0.3109 -0.5107  0.1846
 3523SOL    HW122202   0.978   1.484   5.800  2.2692 -2.3481  2.0740
 3523SOL    HW222203   0.896   1.358   5.782 -0.6085 -0.3890  0.1065
 3524SOL     OW22204   4.293   2.842   3.169 -0.1884  0.1292 -0.3262
 3524SOL    HW122205   4.359   2.802   3.113 -0.5109 -1.4018  0.3558
 3524SOL    HW222206   4.212   2.817   3.125 -0.6186 -1.6819  1.4452
 3525SOL     OW22207   3.762   2.379  11.218  0.1615 -0.3066  0.2839
 3525SOL    HW122208   3.829   2.413  11.277 -1.7375  2.6195  0.7197
 3525SOL    HW222209   3.696   2.359  11.284  0.2234 -0.7116  0.2259
 3526SOL     OW22210   2.527   2.040   0.397 -0.2069  0.2030  0.4156
 3526SOL    HW122211   2.585   1.992   0.338 -0.0865  0.7842  0.0640
 3526SOL    HW222212   2.449   2.035   0.341 -0.2376  0.9489  0.3950
 3527SOL     OW22213   0.838   4.258   5.122  0.1490 -0.7393 -0.2996
 3527SOL    HW122214   0.828   4.265   5.217  1.9263 -2.1520 -0.0028
 3527SOL    HW222215   0.884   4.339   5.098 -0.2203  0.3133  2.5780
 3528SOL     OW22216   3.436   3.107   8.539 -0.4112 -0.2058  0.4195
 3528SOL    HW122217   3.434   3.012   8.545 -0.2692 -0.2419 -0.0902
 3528SOL    HW222218   3.419   3.116   8.633 -2.1788 -0.1982  0.1074
 3529SOL     OW22219   1.775   1.402   2.521  0.2516  0.7805  0.3348
 3529SOL    HW122220   1.776   1.490   2.558 -2.1498 -0.4296  3.2212
 3529SOL    HW222221   1.852   1.408   2.463 -2.3575 -0.4931 -3.2502
 3530SOL     OW22222   3.686   3.927   7.089  0.0032 -0.0979 -0.0092
 3530SOL    HW122223   3.655   4.004   7.137  0.1324  0.7807 -1.3418
 3530SOL    HW222224   3.775   3.933   7.123  0.9364  1.7432 -2.8185
 3531SOL     OW22225   4.070   0.091   7.071 -0.2481 -0.2892  1.0561
 3531SOL    HW122226   4.070   4.731   7.086 -0.2346 -0.4225  0.1961
 3531SOL    HW222227   4.018   0.099   6.991  2.0871 -1.1922 -0.5509
 3532SOL     OW22228   2.524   1.859  13.171 -0.4604  0.3877 -0.3915
 3532SOL    HW122229   2.586   1.926  13.199 -0.1503 -0.2324  0.4073
 3532SOL    HW222230   2.523   1.894  13.083 -1.2852 -1.0961 -0.9790
 3533SOL     OW22231   3.919   1.125  12.029  0.7148 -1.2817 -0.2588
 3533SOL    HW122232   3.842   1.127  12.086 -0.1888  1.2916 -1.5820
 3533SOL    HW222233   3.967   1.197  12.071 -2.0512 -0.3787  1.3770
 3534SOL     OW22234   0.195   0.772   7.886 -0.2992  0.0353  0.0483
 3534SOL    HW122235   0.245   0.820   7.819 -1.4393  0.4462 -0.4965
 3534SOL    HW222236   0.212   0.683   7.854  1.3162  0.8273 -1.3487
 3535SOL     OW22237   4.009   3.875   5.582 -0.6871 -0.4071 -0.3232
 3535SOL    HW122238   4.101   3.855   5.564 -0.5152 -0.1037  0.2235
 3535SOL    HW222239   3.967   3.858   5.498  0.7686  2.3066 -1.6285
 3536SOL     OW22240   0.953   0.089   8.985  0.2399 -0.3650 -0.3522
 3536SOL    HW122241   0.992   0.032   8.918  0.6834  0.3259 -0.6745
 3536SOL    HW222242   0.962   0.031   9.060 -1.8467  0.2906  0.4091
 3537SOL     OW22243   3.604   2.107  15.828 -0.1688 -0.2348  0.2544
 3537SOL    HW122244   3.526   2.079  15.780  0.4720 -0.5007 -0.6564
 3537SOL    HW222245   3.641   2.160  15.757 -0.9058  3.3336  2.5208
 3538SOL     OW22246   4.212   2.288   7.282  0.4479  0.5361 -0.2674
 3538SOL    HW122247   4.157   2.266   7.357  0.0493 -0.7071 -0.9238
 3538SOL    HW222248   4.254   2.367   7.316 -3.2225  1.1522  2.8572
 3539SOL     OW22249   4.025   1.892   8.928 -0.1761  0.1047 -0.3485
 3539SOL    HW122250   4.052   1.968   8.876 -2.2425 -0.3328 -2.0769
 3539SOL    HW222251   3.933   1.918   8.932 -0.2234 -0.2308  0.7303
 3540SOL     OW22252   1.645   4.572   1.606 -0.0779  0.1507 -0.5752
 3540SOL    HW122253   1.652   4.488   1.652 -0.2220  0.5117  0.1167
 3540SOL    HW222254   1.633   4.534   1.520  0.4454 -1.7140  0.1857
 3541SOL     OW22255   1.637   4.100   1.284  0.4974  0.2457  0.3114
 3541SOL    HW122256   1.712   4.128   1.230  1.7890 -2.6833  0.6037
 3541SOL    HW222257   1.681   4.047   1.350 -0.4481 -0.1645  0.6002
 3542SOL     OW22258   0.875   3.551   5.892 -0.2094 -0.3424  0.3611
 3542SOL    HW122259   0.964   3.585   5.882 -1.0140  1.9821  0.9683
 3542SOL    HW222260   0.840   3.627   5.939  1.9968  0.4347  0.7334
 3543SOL     OW22261   2.250   0.049  17.569  0.2808  0.5307 -0.6585
 3543SOL    HW122262   2.237   4.718  17.638  0.9731  0.4404 -0.6222
 3543SOL    HW222263   2.320   4.732  17.528 -1.2816  0.0815 -2.8117
 3544SOL     OW22264   0.409   0.000   4.608  0.0211 -0.1435  0.0837
 3544SOL    HW122265   0.436   4.706   4.521  0.8415  0.4325  0.1540
 3544SOL    HW222266   0.494   0.033   4.634 -0.2124  0.4931  0.0440
 3545SOL     OW22267   0.819   3.331   3.177 -0.6647 -0.0063  0.0648
 3545SOL    HW122268   0.755   3.365   3.240 -1.5944 -1.0460 -0.3061
 3545SOL    HW222269   0.759   3.281   3.121  0.8893 -0.6963 -0.9899
 3546SOL     OW22270   4.016   1.960   1.398  0.5148  0.4998 -0.0324
 3546SOL    HW122271   4.111   1.958   1.408  0.4282 -1.4466  0.3504
 3546SOL    HW222272   4.004   1.881   1.346  0.2612  3.6891 -4.7704
 3547SOL     OW22273   1.711   4.402   2.012  0.3112  0.4690  0.0921
 3547SOL    HW122274   1.648   4.473   2.020  0.1084  0.4586 -1.4786
 3547SOL    HW222275   1.656   4.329   2.041 -1.6330  1.4060 -1.2904
 3548SOL     OW22276   3.964   0.234   8.474 -0.5424  0.8412 -0.2035
 3548SOL    HW122277   4.010   0.174   8.534 -2.4145  0.7839  1.1666
 3548SOL    HW222278   3.880   0.189   8.463  0.1686 -1.1588  2.5705
 3549SOL     OW22279   1.125   1.396  15.746  0.6789  0.2922  0.1826
 3549SOL    HW122280   1.143   1.324  15.806  2.3015  0.0151 -0.6687
 3549SOL    HW222281   1.218   1.405  15.727  0.3525  1.3023 -0.8964
 3550SOL     OW22282   4.066   2.357  15.677  0.4271  0.0943  0.2755
 3550SOL    HW122283   4.086   2.438  15.630  0.2287  0.3024  0.5488
 3550SOL    HW222284   4.066   2.301  15.600 -0.2468 -0.4126  0.6423
 3551SOL     OW22285   3.358   4.364   2.039 -0.4290 -0.3140  0.7922
 3551SOL    HW122286   3.335   4.421   2.113  1.3922  0.7234  0.5854
 3551SOL    HW222287   3.445   4.398   2.018 -0.6251 -0.4448 -0.2327
 3552SOL     OW22288   4.598   1.459   3.199  0.2961  0.2824 -0.3686
 3552SOL    HW122289   4.574   1.373   3.166 -0.3451  0.8056 -1.2748
 3552SOL    HW222290   4.690   1.434   3.209  0.0536 -0.6411 -0.4436
 3553SOL     OW22291   2.675   1.149   7.257 -0.1046 -0.1248 -0.4256
 3553SOL    HW122292   2.670   1.114   7.346  2.1367  0.1627 -0.1796
 3553SOL    HW222293   2.769   1.168   7.249  0.0369 -0.9254 -0.6558
 3554SOL     OW22294   3.906   2.159   7.173  0.2431 -0.4914  0.3775
 3554SOL    HW122295   3.918   2.156   7.078 -2.2003  0.1714  0.0518
 3554SOL    HW222296   3.931   2.249   7.195 -2.1479  1.0177 -3.0138
 3555SOL     OW22297   2.270   1.463   2.143  0.5227  0.0252 -0.2485
 3555SOL    HW122298   2.256   1.556   2.125 -0.4730 -0.5820 -2.6359
 3555SOL    HW222299   2.343   1.429   2.090  1.8251  1.1821  0.8094
 3556SOL     OW22300   4.438   0.883   6.293 -0.1828 -0.5490 -0.0390
 3556SOL    HW122301   4.403   0.941   6.361 -0.8262  0.2769 -1.0752
 3556SOL    HW222302   4.532   0.894   6.306 -0.3606  1.3560 -0.3826
 3557SOL     OW22303   0.195   3.801   3.162 -0.3169 -0.1186  0.0794
 3557SOL    HW122304   0.134   3.729   3.177 -2.1100  1.1033 -1.4582
 3557SOL    HW222305   0.273   3.745   3.174 -1.2101 -1.8654 -2.1902
 3558SOL     OW22306   0.900   0.595   7.075  0.9559 -0.6319  0.0163
 3558SOL    HW122307   0.979   0.592   7.020  0.0355 -1.6480 -1.2275
 3558SOL    HW222308   0.918   0.554   7.160 -1.1666 -0.0769  0.7206
 3559SOL     OW22309   2.965   3.301  13.118 -0.2704 -0.1553  0.1667
 3559SOL    HW122310   2.941   3.219  13.162 -0.8711  0.2211  0.5481
 3559SOL    HW222311   2.970   3.369  13.185 -1.2699 -0.0129  0.1071
 3560SOL     OW22312   2.810   3.043   9.717  0.3512 -0.0132  0.8191
 3560SOL    HW122313   2.748   2.991   9.768  0.8996 -2.8103 -1.3583
 3560SOL    HW222314   2.875   2.980   9.686  0.3445  0.8027 -0.8671
 3561SOL     OW22315   4.507   2.593  15.128  0.4743  0.5739 -0.2727
 3561SOL    HW122316   4.475   2.669  15.177  1.0573  0.3933  0.3981
 3561SOL    HW222317   4.483   2.617  15.039  0.7016  0.3086 -0.4043
 3562SOL     OW22318   1.257   3.957   6.491 -0.1673 -0.0576 -0.0657
 3562SOL    HW122319   1.225   3.989   6.575  2.0338 -1.7391  1.4021
 3562SOL    HW222320   1.318   4.025   6.464  0.6313 -1.1269 -0.9545
 3563SOL     OW22321   3.381   2.887   2.886 -0.0192  0.2053  0.0668
 3563SOL    HW122322   3.371   2.822   2.816  0.2137 -0.5493  0.7429
 3563SOL    HW222323   3.413   2.840   2.962 -1.1424 -2.1060 -0.8685
 3564SOL     OW22324   3.890   0.934  16.430 -0.1262  0.5210 -0.2127
 3564SOL    HW122325   3.885   0.838  16.437 -0.4732  0.4738 -1.1384
 3564SOL    HW222326   3.983   0.934  16.411 -0.6379 -0.5314 -2.8107
 3565SOL     OW22327   0.808   2.412   4.960 -0.2140 -0.2262  0.7070
 3565SOL    HW122328   0.718   2.417   4.994 -0.4682 -0.1331  0.0326
 3565SOL    HW222329   0.826   2.326   4.997  1.7490 -1.0408 -2.2025
 3566SOL     OW22330   3.951   0.607   7.669  0.0371  0.4050 -0.3761
 3566SOL    HW122331   3.887   0.623   7.739  1.2370  0.0459  0.8038
 3566SOL    HW222332   4.031   0.624   7.718 -0.1008  2.0559 -0.7188
 3567SOL     OW22333   3.204   2.330  11.745  0.3955  0.4088 -0.2980
 3567SOL    HW122334   3.245   2.410  11.710  0.4732  0.2024 -0.6833
 3567SOL    HW222335   3.259   2.307  11.820  0.4447 -0.1307 -0.5052
 3568SOL     OW22336   2.285   2.379   3.785  0.2405 -0.2594  0.1904
 3568SOL    HW122337   2.299   2.360   3.693 -2.4901 -0.9828 -0.0600
 3568SOL    HW222338   2.332   2.463   3.783  0.3224 -0.2258  2.5172
 3569SOL     OW22339   2.095   2.937  13.277  0.3258 -0.6355 -0.3406
 3569SOL    HW122340   2.017   2.963  13.229 -1.5186 -0.2228  2.8516
 3569SOL    HW222341   2.086   2.841  13.277 -0.8151 -0.5222  1.1100
 3570SOL     OW22342   3.806   0.743   7.041 -0.1565 -0.4136 -0.6183
 3570SOL    HW122343   3.852   0.670   7.081 -0.1062 -0.4920 -0.8173
 3570SOL    HW222344   3.864   0.741   6.965  1.9227  0.9117  0.9382
 3571SOL     OW22345   0.015   2.233   1.621  0.1243  0.2080 -0.0355
 3571SOL    HW122346   4.704   2.257   1.540 -0.6705 -0.6015  0.1604
 3571SOL    HW222347   4.691   2.275   1.684 -0.1777  0.3207 -0.3950
 3572SOL     OW22348   3.809   2.110  14.734  0.1396  0.3159 -0.3225
 3572SOL    HW122349   3.750   2.044  14.770  1.6552 -1.7603 -1.6804
 3572SOL    HW222350   3.783   2.183  14.791 -0.3362  0.0820 -0.2353
 3573SOL     OW22351   2.475   0.344  15.910 -0.0294  0.2826 -0.1873
 3573SOL    HW122352   2.414   0.416  15.897 -1.4416 -0.5630  1.6588
 3573SOL    HW222353   2.510   0.328  15.822  2.5145 -3.3055  1.4679
 3574SOL     OW22354   3.840   0.062   6.404  0.0091  0.1670 -0.2803
 3574SOL    HW122355   3.801   0.055   6.317 -0.6665  2.0260 -0.1314
 3574SOL    HW222356   3.871   0.152   6.413 -2.1893  0.7028  2.0189
 3575SOL     OW22357   2.165   0.694   7.591  0.0799  0.2629  0.8132
 3575SOL    HW122358   2.143   0.746   7.669  0.9486  0.4138  0.9583
 3575SOL    HW222359   2.186   0.614   7.638 -0.5447 -1.1600 -1.3166
 3576SOL     OW22360   1.085   1.765   4.725  0.2161  0.6134  0.1085
 3576SOL    HW122361   1.160   1.823   4.731  1.3733 -1.0169  1.4918
 3576SOL    HW222362   1.083   1.737   4.633  0.8841  1.8703 -0.2821
 3577SOL     OW22363   4.552   3.666   9.574  0.3539 -0.0254 -0.0149
 3577SOL    HW122364   4.608   3.643   9.500 -1.2820  0.6676 -1.4799
 3577SOL    HW222365   4.484   3.719   9.532  0.3845 -0.1961 -0.2798
 3578SOL     OW22366   3.554   4.131   3.997  0.2913 -0.3684  0.1758
 3578SOL    HW122367   3.518   4.105   4.082  1.7951  0.6689  1.1246
 3578SOL    HW222368   3.638   4.171   4.021  0.0924  0.2407 -0.1524
 3579SOL     OW22369   2.702   1.215   3.283 -0.0307 -0.0952 -0.3141
 3579SOL    HW122370   2.648   1.192   3.206 -0.0767  2.7744 -1.1208
 3579SOL    HW222371   2.687   1.309   3.283 -2.1736 -0.4298 -0.8800
 3580SOL     OW22372   1.396   3.493   4.689 -0.0993  0.0355  0.3701
 3580SOL    HW122373   1.466   3.555   4.708  1.4467 -1.7053  0.3421
 3580SOL    HW222374   1.320   3.552   4.687  0.3565  0.6447  1.5353
 3581SOL     OW22375   3.436   2.877  13.797  0.3401 -0.2831  0.4074
 3581SOL    HW122376   3.367   2.943  13.800  2.0380  1.4738  1.1907
 3581SOL    HW222377   3.401   2.803  13.747 -3.3970  0.5133  1.8817
 3582SOL     OW22378   2.861   3.678   6.462  0.0359 -0.1484 -0.3532
 3582SOL    HW122379   2.918   3.734   6.408 -0.4662  0.1067 -0.6182
 3582SOL    HW222380   2.916   3.655   6.537  0.5498  2.3813  0.0691
 3583SOL     OW22381   4.533   0.016   9.813 -0.1759 -0.3822  0.5160
 3583SOL    HW122382   4.449   4.703   9.810 -0.7613  0.6491  0.3879
 3583SOL    HW222383   4.522   0.065   9.894 -2.0396 -0.8877  0.5790
 3584SOL     OW22384   0.396   1.709   6.027  0.3357 -0.5486 -0.0373
 3584SOL    HW122385   0.361   1.795   6.051  0.5954 -0.0490 -1.4543
 3584SOL    HW222386   0.490   1.729   6.035  0.0293  1.3110 -0.9881
 3585SOL     OW22387   4.575   3.293   4.603  0.3419  0.3616 -0.1478
 3585SOL    HW122388   4.546   3.208   4.635  2.5188 -1.1294 -2.1586
 3585SOL    HW222389   4.635   3.311   4.675  1.2455 -1.7024 -0.3989
 3586SOL     OW22390   2.553   1.616   1.841 -0.0177 -0.4035  0.2117
 3586SOL    HW122391   2.555   1.626   1.746 -0.1306 -3.6144 -0.1163
 3586SOL    HW222392   2.537   1.707   1.866 -0.7368  0.4971 -3.5373
 3587SOL     OW22393   0.104   4.396   4.208 -0.1745  0.2228 -0.0172
 3587SOL    HW122394   0.195   4.368   4.217 -0.8497 -2.5889 -2.1629
 3587SOL    HW222395   0.060   4.313   4.229  1.1744 -0.7225 -0.9595
 3588SOL     OW22396   2.735   3.449  10.917  0.4318  0.0725 -0.3411
 3588SOL    HW122397   2.733   3.362  10.957 -1.2548  1.5054  2.7530
 3588SOL    HW222398   2.785   3.504  10.978  1.1392 -0.9980  0.0380
 3589SOL     OW22399   4.314   0.976  17.488  0.1026 -0.0459 -0.2738
 3589SOL    HW122400   4.248   1.028  17.534 -1.6094 -1.1235 -1.4874
 3589SOL    HW222401   4.365   1.050  17.457 -2.4028  0.9530 -2.0465
 3590SOL     OW22402   4.711   1.710  12.004  0.4104 -0.2052 -0.4035
 3590SOL    HW122403   4.622   1.698  11.970  0.0073 -0.7244  0.8301
 3590SOL    HW222404   4.709   1.682  12.096  0.8205  1.9715  0.2762
 3591SOL     OW22405   0.456   4.626   1.794 -0.4204  0.0408 -0.2938
 3591SOL    HW122406   0.543   4.631   1.834  0.5625 -1.7465 -2.2454
 3591SOL    HW222407   0.426   4.710   1.829 -0.5119 -0.0116 -0.2459
 3592SOL     OW22408   0.488   2.645   3.631 -0.1302  0.3108 -0.9938
 3592SOL    HW122409   0.409   2.592   3.620 -0.9400  1.2408  0.2956
 3592SOL    HW222410   0.530   2.599   3.703  0.1474  0.2570 -1.1867
 3593SOL     OW22411   1.439   3.969  17.494 -0.3995 -0.2686  0.2189
 3593SOL    HW122412   1.473   4.023  17.565  1.2083 -0.0348 -0.7213
 3593SOL    HW222413   1.402   4.039  17.440  2.0126  1.8700  1.3148
 3594SOL     OW22414   2.667   0.130   1.544 -0.4614  0.2748 -0.3778
 3594SOL    HW122415   2.651   0.157   1.634 -0.9410  1.9619 -0.9617
 3594SOL    HW222416   2.729   0.057   1.549 -2.1030 -0.9372  2.1142
 3595SOL     OW22417   3.137   0.039   0.992  0.3757  0.3449  0.5017
 3595SOL    HW122418   3.091   0.061   0.911  1.1686  0.1124 -0.0226
 3595SOL    HW222419   3.068   4.730   1.041 -2.4715  1.2128 -2.7417
 3596SOL     OW22420   3.306   4.149   5.647  0.2682  0.2579 -0.3595
 3596SOL    HW122421   3.384   4.110   5.608  1.4865  0.8500  1.4865
 3596SOL    HW222422   3.312   4.236   5.609  0.6061 -0.9975 -3.1562
 3597SOL     OW22423   4.061   4.499  11.519  0.1228 -0.6368  0.4016
 3597SOL    HW122424   4.004   4.561  11.472  0.9430 -0.4039 -0.2979
 3597SOL    HW222425   4.121   4.550  11.573 -0.0308 -0.9978  0.9044
 3598SOL     OW22426   0.746   1.322  16.803  0.4454 -0.5418  0.9609
 3598SOL    HW122427   0.814   1.387  16.785  0.4162 -1.0263 -0.9079
 3598SOL    HW222428   0.779   1.293  16.888  0.5846 -1.4326  0.5984
 3599SOL     OW22429   3.698   2.286   6.649 -0.3317 -0.1896 -0.1700
 3599SOL    HW122430   3.701   2.192   6.627 -1.3306  0.6616 -3.9044
 3599SOL    HW222431   3.767   2.306   6.586  0.3418  0.9727  0.9603
 3600SOL     OW22432   0.098   1.889   5.926 -0.0615  0.3745 -0.2762
 3600SOL    HW122433   0.180   1.924   5.959  1.3271 -1.6143 -1.6226
 3600SOL    HW222434   0.039   1.921   5.994 -0.7814  0.1417 -0.7839
 3601SOL     OW22435   3.995   4.317  14.761 -0.2050 -0.3683 -0.0198
 3601SOL    HW122436   4.032   4.397  14.725 -0.3384 -0.3324 -0.0789
 3601SOL    HW222437   3.908   4.319  14.721 -0.4739  0.3010  0.5892
 3602SOL     OW22438   0.330   0.179   1.652  0.1466 -0.0221 -0.1736
 3602SOL    HW122439   0.421   0.148   1.653  0.3850  0.6642 -0.3206
 3602SOL    HW222440   0.358   0.254   1.600  2.1302  0.0688  1.0254
 3603SOL     OW22441   1.031   0.278   3.424 -1.0122 -0.2162  0.3804
 3603SOL    HW122442   1.060   0.215   3.359 -1.3342  0.1078 -0.0746
 3603SOL    HW222443   1.114   0.282   3.472 -0.6666 -1.3665 -0.1316
 3604SOL     OW22444   1.396   2.238   5.692  0.2498 -0.5921 -0.7009
 3604SOL    HW122445   1.464   2.182   5.655  1.6914  1.4476 -1.1419
 3604SOL    HW222446   1.339   2.179   5.742  0.6106 -2.4943 -2.5090
 3605SOL     OW22447   0.322   2.016   6.646  0.4229  0.5729  0.2119
 3605SOL    HW122448   0.367   2.071   6.710  1.1121  0.9047 -0.5457
 3605SOL    HW222449   0.282   2.077   6.584  0.7400 -0.7386 -1.2893
 3606SOL     OW22450   2.587   2.928   9.240  0.2284  0.0422 -0.3503
 3606SOL    HW122451   2.525   2.892   9.177 -1.5359 -0.6134  1.7847
 3606SOL    HW222452   2.663   2.951   9.186  1.9943 -2.4048  1.0933
 3607SOL     OW22453   2.521   3.644  15.497 -0.2526 -0.2068  0.0137
 3607SOL    HW122454   2.578   3.690  15.558 -0.0612  1.4908 -1.4523
 3607SOL    HW222455   2.438   3.686  15.519  0.5148  0.9203  0.7574
 3608SOL     OW22456   0.599   4.643   8.862  0.1341 -0.1797 -0.0469
 3608SOL    HW122457   0.595   4.622   8.956  1.4680  0.8020  0.2319
 3608SOL    HW222458   0.570   0.000   8.872 -2.1732 -0.8306 -0.7054
 3609SOL     OW22459   4.146   3.548   4.807 -0.3169  0.6408 -0.0075
 3609SOL    HW122460   4.067   3.576   4.760 -0.6588 -0.2125  0.0476
 3609SOL    HW222461   4.219   3.592   4.764  0.0065  1.0670  0.9753
 3610SOL     OW22462   2.656   2.072   7.594  0.5833  0.0103  0.6153
 3610SOL    HW122463   2.634   2.156   7.633  2.4677  0.1371  1.3855
 3610SOL    HW222464   2.596   2.011   7.636  1.0460 -1.0770 -0.2794
 3611SOL     OW22465   3.914   1.630  12.432 -0.0623  0.2299 -0.2228
 3611SOL    HW122466   3.840   1.636  12.371 -0.9182 -1.0544  0.6759
 3611SOL    HW222467   3.976   1.689  12.390  2.1495  0.0132  2.7185
 3612SOL     OW22468   2.199   0.960  14.250  0.3027  0.0795  0.0150
 3612SOL    HW122469   2.200   0.957  14.155  0.1844 -1.8975  0.0764
 3612SOL    HW222470   2.270   0.898  14.268  0.5989  0.7484  1.1658
 3613SOL     OW22471   0.560   4.531   8.615 -0.1138 -0.2462 -0.0364
 3613SOL    HW122472   0.647   4.536   8.576 -0.3268 -2.2155 -0.7348
 3613SOL    HW222473   0.576   4.548   8.708  0.1518 -0.3150 -0.0686
 3614SOL     OW22474   1.673   0.792   8.099  0.4497  0.0044  0.3825
 3614SOL    HW122475   1.727   0.713   8.102  0.6032  0.0560 -1.1122
 3614SOL    HW222476   1.591   0.750   8.127  0.4138  0.1882  0.5474
 3615SOL     OW22477   4.078   4.621   2.281 -0.9185 -0.0096  0.3989
 3615SOL    HW122478   4.081   4.525   2.277 -1.1993  0.0896 -2.3401
 3615SOL    HW222479   4.142   4.643   2.349  1.3638 -1.6967 -1.2228
 3616SOL     OW22480   2.157   3.663  12.114 -0.0786  0.2023  0.2023
 3616SOL    HW122481   2.170   3.629  12.202 -1.3139 -0.2228  0.2203
 3616SOL    HW222482   2.230   3.723  12.099 -0.2711  0.2002 -0.7555
 3617SOL     OW22483   1.145   4.014   3.063  0.2735  0.0146 -0.1894
 3617SOL    HW122484   1.162   4.083   3.127  4.7207 -0.5448 -0.7918
 3617SOL    HW222485   1.207   4.032   2.992  0.3512  1.2326  0.1803
 3618SOL     OW22486   0.020   1.561   7.776  0.4361  0.3491  0.0434
 3618SOL    HW122487   0.057   1.645   7.803  0.1465  0.5133 -0.0692
 3618SOL    HW222488   4.662   1.570   7.802 -0.7666 -1.4860 -3.4682
 3619SOL     OW22489   1.780   3.137   4.482 -0.3667  0.8694 -0.3142
 3619SOL    HW122490   1.806   3.045   4.489  0.6974  1.1455 -0.6047
 3619SOL    HW222491   1.699   3.121   4.434 -0.0925 -0.8401 -0.2245
 3620SOL     OW22492   2.870   4.367   5.052 -0.0710 -0.2851  0.4245
 3620SOL    HW122493   2.800   4.336   4.993 -1.3358  3.5880 -0.1342
 3620SOL    HW222494   2.890   4.451   5.011 -2.4101 -0.4940 -1.1765
 3621SOL     OW22495   3.817   2.030   6.626 -0.4141 -0.3158  0.3634
 3621SOL    HW122496   3.736   1.980   6.615  0.5363 -1.4304 -1.5982
 3621SOL    HW222497   3.840   2.004   6.715 -0.3953 -0.8578  0.1965
 3622SOL     OW22498   2.078   1.438  17.379  0.8429 -0.4847  1.2670
 3622SOL    HW122499   2.022   1.361  17.391 -2.4766  1.4472 -1.8403
 3622SOL    HW222500   2.028   1.515  17.405 -2.1140 -2.5160  1.5694
 3623SOL     OW22501   1.110   4.078   0.825 -0.7742  0.5126 -0.4583
 3623SOL    HW122502   1.058   4.077   0.745  1.4151  1.2112 -1.8944
 3623SOL    HW222503   1.099   4.173   0.837  1.4813  0.7965 -0.5525
 3624SOL     OW22504   1.222   4.549   8.181  0.0251  0.0906 -0.5480
 3624SOL    HW122505   1.235   4.601   8.102 -1.8350  1.6750  0.1936
 3624SOL    HW222506   1.237   4.460   8.148  1.1611  1.3016 -3.3467
 3625SOL     OW22507   0.674   3.407   6.191 -0.0325  0.1635  0.3701
 3625SOL    HW122508   0.609   3.477   6.203 -0.7091 -0.7258  1.9671
 3625SOL    HW222509   0.722   3.400   6.274  0.1618  1.9420  0.4112
 3626SOL     OW22510   0.922   1.356   2.072  0.8322  0.0690  0.4732
 3626SOL    HW122511   0.937   1.441   2.030  1.5761 -0.8317 -1.0895
 3626SOL    HW222512   0.945   1.382   2.161 -0.2745 -2.5946  1.5321
 3627SOL     OW22513   2.122   4.094   7.463  0.3529  0.3670  0.0698
 3627SOL    HW122514   2.030   4.116   7.448  0.1382 -0.1199  0.6380
 3627SOL    HW222515   2.172   4.175   7.470 -1.2493  1.3660 -0.0465
 3628SOL     OW22516   1.425   1.369  16.010 -0.2116 -0.7568  0.0509
 3628SOL    HW122517   1.358   1.310  15.976 -2.0792  1.9070 -0.8933
 3628SOL    HW222518   1.411   1.368  16.105  1.8475 -0.2638  0.3698
 3629SOL     OW22519   1.083   2.323   3.237 -0.5443 -0.2550  0.1657
 3629SOL    HW122520   1.134   2.253   3.278 -0.8215 -1.0561 -0.8453
 3629SOL    HW222521   1.030   2.257   3.193 -0.9218  1.1241 -1.4394
 3630SOL     OW22522   0.419   2.943   4.178  0.5127 -0.0840 -0.3728
 3630SOL    HW122523   0.385   3.012   4.235  2.7797  0.8020 -0.1182
 3630SOL    HW222524   0.502   2.920   4.217 -0.0092 -1.8176 -0.2931
 3631SOL     OW22525   2.855   3.426  16.856  0.4566  0.1909  0.1352
 3631SOL    HW122526   2.873   3.353  16.798 -2.3937 -0.9041  0.6558
 3631SOL    HW222527   2.942   3.453  16.888  2.7964 -2.9543 -3.5666
 3632SOL     OW22528   4.450   3.461   2.131  0.0891 -0.1589  0.4678
 3632SOL    HW122529   4.366   3.500   2.157  0.7089  1.9160 -0.6348
 3632SOL    HW222530   4.446   3.396   2.201 -1.8364  1.6093  2.0134
 3633SOL     OW22531   2.085   2.585   1.143 -0.1563  0.2727  0.3248
 3633SOL    HW122532   2.118   2.619   1.060  1.3239 -0.3743  0.6544
 3633SOL    HW222533   2.042   2.669   1.161  3.3382  1.9975  0.7340
 3634SOL     OW22534   0.648   0.193   4.629 -0.1212 -0.4780  0.0444
 3634SOL    HW122535   0.709   0.258   4.594  1.4796 -2.9811 -1.7416
 3634SOL    HW222536   0.670   0.123   4.568 -1.3124 -2.3119  1.7400
 3635SOL     OW22537   1.033   4.304  17.478 -0.4647  0.1836  0.1734
 3635SOL    HW122538   1.050   4.218  17.439  3.2785  0.9589  0.0529
 3635SOL    HW222539   0.951   4.287  17.524  0.6565 -0.5926  1.8982
 3636SOL     OW22540   2.513   2.109  11.184 -0.0398 -0.1607 -0.6396
 3636SOL    HW122541   2.586   2.071  11.232 -1.2865  0.2610  1.5983
 3636SOL    HW222542   2.487   2.039  11.124  0.8423  0.3299 -1.6069
 3637SOL     OW22543   0.232   0.968   9.301  0.3374 -0.4255 -0.9091
 3637SOL    HW122544   0.269   1.020   9.373  2.8695 -1.9020 -1.1496
 3637SOL    HW222545   0.227   0.881   9.339  3.3568  0.7145  2.0934
 3638SOL     OW22546   0.712   0.162   7.764  0.0508  0.5546  0.4406
 3638SOL    HW122547   0.780   0.108   7.723 -0.2235  0.6664 -0.1562
 3638SOL    HW222548   0.696   0.223   7.692  0.7900  0.6612  0.3586
 3639SOL     OW22549   3.438   1.874  14.105  0.2013  0.1670 -0.1938
 3639SOL    HW122550   3.511   1.812  14.100 -0.7042 -0.8596 -0.7464
 3639SOL    HW222551   3.480   1.943  14.157  1.6775  1.2316 -2.7879
 3640SOL     OW22552   0.119   1.398  17.720  0.2538 -0.0554 -0.7352
 3640SOL    HW122553   0.214   1.395  17.714  0.3537 -1.8387  1.7050
 3640SOL    HW222554   0.105   1.350   0.066  0.0126  1.5620  0.1685
 3641SOL     OW22555   3.500   3.207  16.865 -0.0608  0.3615  0.5077
 3641SOL    HW122556   3.575   3.246  16.820  0.3355  0.0222  0.8779
 3641SOL    HW222557   3.490   3.250  16.950  0.4283 -0.6545  1.0783
 3642SOL     OW22558   1.364   4.410   7.230 -0.3892 -0.2180  0.1871
 3642SOL    HW122559   1.315   4.491   7.242 -1.2682 -0.7501  0.1278
 3642SOL    HW222560   1.398   4.393   7.318  0.1614  0.2706  0.0715
 3643SOL     OW22561   0.623   2.364  14.548  0.0432 -0.2998 -0.5371
 3643SOL    HW122562   0.564   2.319  14.488 -0.2856 -1.3324  0.5529
 3643SOL    HW222563   0.628   2.307  14.624 -0.0483 -0.8872 -0.9745
 3644SOL     OW22564   3.965   2.392  16.548 -0.0198 -0.2987  0.1771
 3644SOL    HW122565   4.004   2.433  16.625 -0.9534 -1.1202  1.0907
 3644SOL    HW222566   4.019   2.423  16.475  0.0086 -0.4603  0.1295
 3645SOL     OW22567   0.230   0.893   0.958 -0.0079  0.3363  0.0563
 3645SOL    HW122568   0.318   0.905   0.994 -0.4434  0.0918  1.2039
 3645SOL    HW222569   0.256   0.824   0.896  3.2584  2.0110 -0.4366
 3646SOL     OW22570   3.526   3.931   6.020  0.3833  0.3601  0.5416
 3646SOL    HW122571   3.573   3.963   5.943  0.3573 -0.0792  0.3398
 3646SOL    HW222572   3.509   4.009   6.073 -1.6313  0.3264 -0.0542
 3647SOL     OW22573   0.203   2.811   8.017 -0.4849  0.5486 -0.2481
 3647SOL    HW122574   0.228   2.849   8.101  2.6101  1.2853 -1.4960
 3647SOL    HW222575   0.272   2.844   7.959 -2.0914  0.3722 -2.2465
 3648SOL     OW22576   4.659   4.329  11.904 -0.8558  0.0718  0.0572
 3648SOL    HW122577   4.700   4.279  11.833 -0.4239 -0.2078  0.5021
 3648SOL    HW222578   4.625   4.258  11.958  1.6477 -0.2414  1.2206
 3649SOL     OW22579   0.920   4.168   8.013  0.4985 -0.1455 -0.4137
 3649SOL    HW122580   0.874   4.234   7.961 -0.6660 -1.4661 -1.0570
 3649SOL    HW222581   0.907   4.213   8.097 -0.5293  0.5520 -0.9361
 3650SOL     OW22582   0.923   0.332   8.440  0.3158  0.2655  0.2018
 3650SOL    HW122583   0.960   0.252   8.477  1.3740  0.4998 -0.3301
 3650SOL    HW222584   0.851   0.350   8.500 -0.8282  0.8303 -1.3437
 3651SOL     OW22585   3.520   1.722   3.591 -0.2095 -0.2725  0.3782
 3651SOL    HW122586   3.575   1.716   3.514 -1.6691  1.4423 -0.7917
 3651SOL    HW222587   3.573   1.761   3.660  0.6026 -1.9018  0.6861
 3652SOL     OW22588   4.112   2.545  11.248  0.1110 -0.5192  1.0793
 3652SOL    HW122589   4.143   2.519  11.335  1.2102 -0.6680  0.6411
 3652SOL    HW222590   4.022   2.573  11.262  0.3590  0.0780  1.4430
 3653SOL     OW22591   4.102   2.732  13.575  0.0650 -0.4690 -0.4331
 3653SOL    HW122592   4.094   2.654  13.519 -0.5449 -0.6141 -0.1539
 3653SOL    HW222593   4.122   2.800  13.510 -1.2708  1.6003  1.3392
 3654SOL     OW22594   3.397   0.906   3.714 -0.5102  0.4331  0.0204
 3654SOL    HW122595   3.463   0.884   3.648 -0.4441 -1.3670  0.6760
 3654SOL    HW222596   3.314   0.863   3.690 -0.5320 -0.7402  2.2290
 3655SOL     OW22597   0.860   4.369   8.216  0.2928  0.5789 -0.1634
 3655SOL    HW122598   0.848   4.463   8.204  0.8211  0.5544 -0.8874
 3655SOL    HW222599   0.771   4.338   8.232  1.1978 -1.2374  1.3128
 3656SOL     OW22600   1.871   1.056   6.915  0.1020  0.2423  0.2992
 3656SOL    HW122601   1.960   1.063   6.950  0.7317  0.7164 -1.4195
 3656SOL    HW222602   1.830   1.025   6.996  0.6432 -0.1423  0.4268
 3657SOL     OW22603   3.637   0.638   9.277  0.1901  0.2490 -0.2344
 3657SOL    HW122604   3.559   0.584   9.288 -0.3311  0.7871 -1.2923
 3657SOL    HW222605   3.622   0.718   9.327  0.8796 -0.4971  1.1907
 3658SOL     OW22606   0.499   3.645   7.654 -0.5728 -0.2402 -0.2464
 3658SOL    HW122607   0.591   3.655   7.677 -1.5467  3.7379  2.0095
 3658SOL    HW222608   0.494   3.705   7.579 -0.1851  1.6026  1.1991
 3659SOL     OW22609   4.670   1.373   1.111 -0.0503 -0.4890 -0.1129
 3659SOL    HW122610   4.655   1.378   1.205 -0.6000  0.6263 -0.2506
 3659SOL    HW222611   4.715   1.291   1.092  0.6234 -0.3237  0.7952
 3660SOL     OW22612   1.770   4.733   6.286  0.0320 -0.2271  0.0131
 3660SOL    HW122613   1.759   0.089   6.315 -1.8803 -1.3353  2.6979
 3660SOL    HW222614   1.689   0.000   6.235  0.3400 -1.2022 -0.5050
 3661SOL     OW22615   0.493   2.260   9.429  0.5095  0.4898  0.3534
 3661SOL    HW122616   0.406   2.285   9.461  0.2671  3.5831 -2.6908
 3661SOL    HW222617   0.477   2.247   9.336  1.6634 -2.2459  0.5452
 3662SOL     OW22618   4.588   0.648   0.268 -0.4162 -0.6474 -0.3590
 3662SOL    HW122619   4.521   0.636   0.201  0.8311  2.1955 -2.1367
 3662SOL    HW222620   4.533   0.617   0.340 -1.2149  0.0608 -0.6640
 3663SOL     OW22621   1.917   4.581  16.770  0.1484 -0.6223  0.0530
 3663SOL    HW122622   1.967   4.499  16.772  2.1333  0.6627  2.9147
 3663SOL    HW222623   1.873   4.581  16.855 -0.2885 -2.2761 -0.1675
 3664SOL     OW22624   0.235   2.787   2.829  0.0217 -0.7088  0.3335
 3664SOL    HW122625   0.179   2.842   2.774  0.4747 -2.6805 -2.1316
 3664SOL    HW222626   0.283   2.740   2.760 -0.0967 -1.7943  0.9944
 3665SOL     OW22627   1.533   2.087   3.608  0.0949  0.2760  0.0567
 3665SOL    HW122628   1.568   2.172   3.583 -2.1962  1.1634 -0.1292
 3665SOL    HW222629   1.551   2.045   3.524  3.2242  0.8618  0.4581
 3666SOL     OW22630   2.218   2.240   2.174  0.1885  0.1855 -0.0308
 3666SOL    HW122631   2.213   2.178   2.246  0.4057 -0.6766 -0.7549
 3666SOL    HW222632   2.164   2.314   2.202 -2.2609 -1.6543  0.1052
 3667SOL     OW22633   2.517   0.489   3.315 -0.1286  0.2753 -0.3071
 3667SOL    HW122634   2.450   0.437   3.270  1.3902 -3.3938  1.6841
 3667SOL    HW222635   2.591   0.467   3.258  0.2017  0.1352  0.1747
 3668SOL     OW22636   1.912   1.442   5.769  0.5309 -0.4769  0.6178
 3668SOL    HW122637   1.919   1.411   5.678 -1.4988  0.9613 -0.0216
 3668SOL    HW222638   1.928   1.360   5.815  2.0684 -1.0276 -0.8981
 3669SOL     OW22639   1.952   4.035   8.189  0.6501 -0.4387  0.1070
 3669SOL    HW122640   1.973   3.944   8.211  3.3271  0.5167  1.4944
 3669SOL    HW222641   2.018   4.082   8.239  2.1818 -1.4428 -0.9672
 3670SOL     OW22642   0.821   3.891   4.037  0.2772  0.2605  0.2893
 3670SOL    HW122643   0.863   3.955   3.981  0.2451 -0.3276 -0.4107
 3670SOL    HW222644   0.809   3.819   3.976 -2.2422 -0.3995  1.5547
 3671SOL     OW22645   4.576   1.261   8.238 -0.0344 -0.0522 -0.2246
 3671SOL    HW122646   4.548   1.337   8.290  0.2697 -0.1764  0.1235
 3671SOL    HW222647   4.670   1.278   8.247 -0.2319  0.5009  0.7854
 3672SOL     OW22648   2.312   3.073   7.962 -0.3265  0.3891 -0.7628
 3672SOL    HW122649   2.340   3.098   8.050 -1.3313  0.1692 -0.3764
 3672SOL    HW222650   2.371   3.131   7.913  0.6695 -1.2555 -1.5038
 3673SOL     OW22651   0.118   2.761   4.497  0.3097 -0.6506  0.0052
 3673SOL    HW122652   0.182   2.714   4.551 -0.6954 -0.2557  1.5441
 3673SOL    HW222653   0.118   2.853   4.526  2.8174 -0.5478 -0.3452
 3674SOL     OW22654   2.921   1.234  13.953  0.4260  0.1205  0.2378
 3674SOL    HW122655   2.899   1.302  14.016 -1.3725 -0.0955 -0.1657
 3674SOL    HW222656   2.925   1.284  13.872 -2.2850 -2.1950 -1.3185
 3675SOL     OW22657   1.825   3.557   9.555  0.8150 -0.2850 -0.9547
 3675SOL    HW122658   1.812   3.465   9.577  0.1173 -0.1913 -0.9669
 3675SOL    HW222659   1.748   3.595   9.598  0.3728  0.3068 -2.2756
 3676SOL     OW22660   0.002   2.303   6.960 -0.0672 -0.3376 -0.4419
 3676SOL    HW122661   0.012   2.268   7.049 -0.1237  1.4745  0.2814
 3676SOL    HW222662   4.649   2.344   6.959  0.4312  0.7652  0.3473
 3677SOL     OW22663   2.338   1.087   1.192 -0.1510  0.0003 -0.3182
 3677SOL    HW122664   2.410   1.025   1.184 -1.7165 -1.6875 -1.2348
 3677SOL    HW222665   2.311   1.069   1.282 -1.1842 -2.1395 -1.0577
 3678SOL     OW22666   3.306   0.986  12.464 -0.0395 -0.7948  0.0804
 3678SOL    HW122667   3.378   1.011  12.406 -1.3607 -1.6805 -1.9832
 3678SOL    HW222668   3.303   1.062  12.521  0.8060 -0.9248  0.2970
 3679SOL     OW22669   2.879   3.593   5.970 -0.1270 -0.2192  0.3933
 3679SOL    HW122670   2.813   3.545   5.920  2.5889 -1.1988 -2.2865
 3679SOL    HW222671   2.845   3.682   5.968 -1.9999 -0.9710 -0.7840
 3680SOL     OW22672   0.160   3.629   9.120  0.3742  0.2024 -0.2100
 3680SOL    HW122673   0.248   3.640   9.084 -0.4847  3.8569 -1.1907
 3680SOL    HW222674   0.138   3.562   9.056 -1.3956 -0.2978  0.9225
 3681SOL     OW22675   4.370   3.471   7.330 -0.3111 -0.2980 -0.0565
 3681SOL    HW122676   4.428   3.410   7.374  2.2218 -0.1488 -3.1873
 3681SOL    HW222677   4.309   3.499   7.399 -0.7784 -1.0449 -0.1715
 3682SOL     OW22678   1.796   4.219   8.895  0.5628 -0.0460 -0.2445
 3682SOL    HW122679   1.728   4.161   8.860 -0.7379 -0.9076  3.6244
 3682SOL    HW222680   1.851   4.217   8.817 -0.2158 -2.1711 -0.7525
 3683SOL     OW22681   3.488   2.199   1.222  0.7066 -0.4068 -0.2625
 3683SOL    HW122682   3.492   2.235   1.311  1.1880 -1.1159 -0.0019
 3683SOL    HW222683   3.466   2.279   1.174  1.1051 -0.5517 -0.6768
 3684SOL     OW22684   4.490   0.773   3.214 -0.2130 -0.1922 -0.4115
 3684SOL    HW122685   4.458   0.863   3.214  1.0506  0.2459  2.4179
 3684SOL    HW222686   4.418   0.738   3.161 -0.0524 -2.4044  0.8136
 3685SOL     OW22687   0.986   4.434   6.951 -1.3451  0.5923 -0.0258
 3685SOL    HW122688   1.007   4.462   7.041  0.2737 -1.9747  0.3848
 3685SOL    HW222689   1.072   4.448   6.911 -1.3480 -1.1606 -0.6326
 3686SOL     OW22690   1.889   3.700   4.892 -0.1169  0.3149  0.1051
 3686SOL    HW122691   1.857   3.743   4.972  0.3474  0.2998  0.3037
 3686SOL    HW222692   1.937   3.634   4.942 -0.2051  0.3827  0.2812
 3687SOL     OW22693   2.826   1.762   4.319  0.0829 -1.0999  0.2465
 3687SOL    HW122694   2.778   1.845   4.321  1.9847  0.0669 -1.5951
 3687SOL    HW222695   2.760   1.701   4.287  0.4926  0.0433 -2.7990
 3688SOL     OW22696   4.181   2.922   5.889 -0.4066 -0.1439 -0.2196
 3688SOL    HW122697   4.147   2.921   5.800 -0.4165  1.8837 -0.2516
 3688SOL    HW222698   4.133   3.000   5.919 -0.4445 -0.7338  1.2539
 3689SOL     OW22699   0.920   4.717   0.095  0.5792 -0.1619  0.3347
 3689SOL    HW122700   0.929   4.661   0.017 -0.9291 -2.4876  1.8252
 3689SOL    HW222701   0.878   0.061   0.061 -0.2712 -0.0959  1.5211
 3690SOL     OW22702   1.568   0.410   8.195  0.6892 -0.1542 -0.2462
 3690SOL    HW122703   1.488   0.427   8.145  0.1286 -0.4196  0.5614
 3690SOL    HW222704   1.561   0.496   8.237 -0.7898 -0.7267  0.6804
 3691SOL     OW22705   4.024   0.307   6.414  0.0643 -0.1922 -0.2128
 3691SOL    HW122706   3.991   0.374   6.354  0.4655 -1.3789 -1.7465
 3691SOL    HW222707   4.055   0.238   6.356  0.2802 -0.4070  0.1579
 3692SOL     OW22708   0.476   3.080  11.544 -0.0587  0.1211 -0.1128
 3692SOL    HW122709   0.426   3.030  11.608  0.3286 -0.0751  0.0407
 3692SOL    HW222710   0.411   3.105  11.479  1.4742  0.2200 -1.5873
 3693SOL     OW22711   2.873   2.037   6.406 -0.3333 -0.4827  0.5497
 3693SOL    HW122712   2.862   1.966   6.469  0.1827 -1.9284 -0.9849
 3693SOL    HW222713   2.810   2.101   6.439  2.9226  1.2940  3.2942
 3694SOL     OW22714   4.689   3.773  17.217  0.6081  0.6093  0.0887
 3694SOL    HW122715   4.658   3.716  17.146  1.6471 -0.0115  0.1257
 3694SOL    HW222716   4.629   3.846  17.205 -0.7603 -0.6466 -0.8057
 3695SOL     OW22717   4.135   1.934   3.678 -0.0674  0.0778 -0.6792
 3695SOL    HW122718   4.214   1.986   3.665 -0.2993  0.4791 -0.4867
 3695SOL    HW222719   4.088   1.983   3.746 -2.1657 -1.6516 -0.8513
 3696SOL     OW22720   3.120   4.056   6.411  0.7452  0.9181 -0.8943
 3696SOL    HW122721   3.168   3.981   6.376 -1.4836 -1.3824  0.9991
 3696SOL    HW222722   3.137   4.047   6.504  1.1974  1.2623 -0.9463
 3697SOL     OW22723   0.998   3.889   3.602  0.3319 -0.0216 -0.0638
 3697SOL    HW122724   1.083   3.926   3.577  0.2493 -0.6861 -1.3404
 3697SOL    HW222725   1.023   3.848   3.685 -0.4613  1.2386  0.7876
 3698SOL     OW22726   4.399   2.574   3.309 -0.2254  0.6951 -0.4376
 3698SOL    HW122727   4.449   2.565   3.391  1.6946 -2.4509 -1.9936
 3698SOL    HW222728   4.430   2.660   3.279  1.5733  0.9503  2.0482
 3699SOL     OW22729   4.353   1.986   1.862  0.2141  0.2376  0.6854
 3699SOL    HW122730   4.264   1.996   1.829  0.8166 -1.9857 -1.6787
 3699SOL    HW222731   4.388   2.075   1.860 -1.9140  1.0403 -0.0585
 3700SOL     OW22732   3.583   1.832   7.282 -0.3080 -0.0896 -0.0435
 3700SOL    HW122733   3.678   1.841   7.290 -0.3215 -1.5010  1.5313
 3700SOL    HW222734   3.571   1.767   7.214 -0.9834  1.8680 -1.7893
 3701SOL     OW22735   2.579   1.819   5.039  0.0441 -0.0957  0.3691
 3701SOL    HW122736   2.525   1.842   4.963 -1.5287 -0.2837  1.4312
 3701SOL    HW222737   2.558   1.727   5.056 -0.8715  0.1745  0.7125
 3702SOL     OW22738   0.223   0.879   8.434 -0.2548 -1.3361  0.4197
 3702SOL    HW122739   0.167   0.900   8.360  1.4739  0.5835 -0.3391
 3702SOL    HW222740   0.297   0.842   8.385 -1.7787 -2.5767 -0.9361
 3703SOL     OW22741   3.265   3.921   7.594  0.4885  0.0881  0.2124
 3703SOL    HW122742   3.287   4.000   7.643  2.0590 -1.1383  1.4487
 3703SOL    HW222743   3.170   3.928   7.583  0.1484 -3.9469  0.7023
 3704SOL     OW22744   4.361   2.772   2.143 -0.5508  0.1466 -0.1600
 3704SOL    HW122745   4.402   2.836   2.085 -2.1268  2.9024  1.7235
 3704SOL    HW222746   4.423   2.779   2.215  0.4094  0.4214 -1.0193
 3705SOL     OW22747   0.451   2.862  10.295  0.2674 -0.2118  0.0660
 3705SOL    HW122748   0.372   2.841  10.247  0.0465 -2.6357  1.4947
 3705SOL    HW222749   0.472   2.945  10.252 -1.9929 -0.3973 -1.3484
 3706SOL     OW22750   3.293   2.557   7.648 -0.3445  0.1467 -0.0032
 3706SOL    HW122751   3.245   2.594   7.574  0.7380  0.7768 -0.3911
 3706SOL    HW222752   3.226   2.514   7.701 -0.1753  0.8456  0.7747
 3707SOL     OW22753   1.836   0.202   6.928 -0.0415 -0.0230  0.3195
 3707SOL    HW122754   1.854   0.204   6.834  1.0623  2.6169  0.5693
 3707SOL    HW222755   1.826   0.297   6.938 -0.1821 -0.2665  2.3710
 3708SOL     OW22756   4.364   1.395   5.356 -0.1758 -0.1864  0.7411
 3708SOL    HW122757   4.418   1.413   5.432  2.0546  1.3327 -1.2137
 3708SOL    HW222758   4.300   1.335   5.394  1.3869 -2.0926  0.3522
 3709SOL     OW22759   0.066   3.965   4.966 -0.6100  0.1947  0.9821
 3709SOL    HW122760   0.114   3.906   4.909 -0.0819 -0.1110  1.7389
 3709SOL    HW222761   0.132   4.008   5.021  1.3619 -3.3741  1.3759
 3710SOL     OW22762   2.190   3.516  12.783  0.2512 -0.1945  0.0664
 3710SOL    HW122763   2.127   3.477  12.723  0.8285 -1.5752  0.3451
 3710SOL    HW222764   2.129   3.545  12.851 -0.8979 -0.8637 -0.6862
 3711SOL     OW22765   2.527   4.315  10.590  0.6583  0.7674 -0.3499
 3711SOL    HW122766   2.553   4.384  10.650 -0.6832  0.6138  0.3960
 3711SOL    HW222767   2.596   4.321  10.524  0.3043 -0.2726 -0.8244
 3712SOL     OW22768   1.099   2.241   6.863 -0.0538 -0.2316  0.5453
 3712SOL    HW122769   1.043   2.301   6.812  0.4775 -0.2844 -0.0954
 3712SOL    HW222770   1.166   2.222   6.797  0.1447 -0.5649  0.8444
 3713SOL     OW22771   4.309   0.956   8.665  0.1877 -0.2814 -0.5164
 3713SOL    HW122772   4.285   0.877   8.617 -0.0289 -0.0057 -0.8570
 3713SOL    HW222773   4.358   0.999   8.595  0.7233 -0.4541 -0.2497
 3714SOL     OW22774   4.630   2.552  14.227 -0.5920 -0.1801  0.5338
 3714SOL    HW122775   4.723   2.541  14.206 -1.0753 -0.0404 -1.5756
 3714SOL    HW222776   4.640   2.531  14.320 -1.2373 -0.9720  0.4213
 3715SOL     OW22777   0.123   2.579   9.717 -0.0535  0.0129  0.3147
 3715SOL    HW122778   0.051   2.519   9.736 -1.8085  1.7324 -0.9501
 3715SOL    HW222779   0.200   2.522   9.726 -0.7339 -0.6148  2.1285
 3716SOL     OW22780   2.757   2.838  14.323  0.3189 -0.6976  0.1962
 3716SOL    HW122781   2.729   2.903  14.387  0.1413  1.4235 -2.0488
 3716SOL    HW222782   2.685   2.843  14.259 -0.5625  4.5697  1.6405
 3717SOL     OW22783   1.506   0.250   6.861 -0.1208  0.2744  0.0614
 3717SOL    HW122784   1.566   0.297   6.803 -2.1901  4.0607  0.9606
 3717SOL    HW222785   1.449   0.215   6.792 -0.5549  0.0303  0.5426
 3718SOL     OW22786   4.683   2.767   3.365 -0.8209  0.4044  0.2270
 3718SOL    HW122787   4.703   2.817   3.444  1.4551 -1.5601  0.9235
 3718SOL    HW222788   4.627   2.826   3.315 -0.7914 -1.3575 -1.8672
 3719SOL     OW22789   3.837   2.304   6.895 -0.2542 -0.1937  0.2131
 3719SOL    HW122790   3.771   2.241   6.924 -1.9244  1.8932  0.9103
 3719SOL    HW222791   3.810   2.314   6.804  2.2013  0.5237 -0.4264
 3720SOL     OW22792   0.554   1.831  10.253  0.2573  0.4054  0.0207
 3720SOL    HW122793   0.564   1.857  10.161 -1.3195  1.2806  0.1098
 3720SOL    HW222794   0.460   1.818  10.259 -0.1606  1.8470 -3.1568
 3721SOL     OW22795   0.352   1.250   6.379 -0.5591 -0.2104 -0.6356
 3721SOL    HW122796   0.340   1.344   6.382 -1.2854 -0.2864 -1.3530
 3721SOL    HW222797   0.401   1.243   6.297  2.2210  2.8430  0.7418
 3722SOL     OW22798   0.435   4.298  12.336  0.0222 -0.2532 -0.3595
 3722SOL    HW122799   0.370   4.230  12.320 -1.8303  1.7959 -1.5222
 3722SOL    HW222800   0.459   4.271  12.424  0.1855 -1.3238 -0.7400
 3723SOL     OW22801   2.476   1.617  10.762 -0.0025 -0.3600 -0.5825
 3723SOL    HW122802   2.429   1.632  10.844  0.5254  0.7570 -0.4889
 3723SOL    HW222803   2.415   1.556  10.720  0.0685 -2.2057  1.9578
 3724SOL     OW22804   3.018   3.030  12.771 -0.2700  0.1909 -0.2318
 3724SOL    HW122805   2.983   3.114  12.742  0.4526 -0.1133 -1.9884
 3724SOL    HW222806   3.072   3.058  12.845 -0.5575 -0.1130  0.0933
 3725SOL     OW22807   2.869   2.215   1.936  0.0381 -0.6277  0.1837
 3725SOL    HW122808   2.910   2.147   1.882  1.7878  1.0683 -0.6308
 3725SOL    HW222809   2.824   2.166   2.005 -0.6364 -1.1219 -0.6039
 3726SOL     OW22810   1.309   2.121   6.295 -0.5079  0.0032  0.4444
 3726SOL    HW122811   1.368   2.185   6.336 -0.6553  0.8931 -0.7504
 3726SOL    HW222812   1.371   2.069   6.244 -0.8550 -0.8027  0.8539
 3727SOL     OW22813   0.071   2.169   8.019  0.1334 -0.0134  0.6360
 3727SOL    HW122814   0.065   2.264   8.029 -2.3242 -0.1803  0.9032
 3727SOL    HW222815   0.098   2.133   8.103 -0.1112 -0.7034  0.4282
 3728SOL     OW22816   2.294   0.663   4.719  0.2438  0.9584  0.8429
 3728SOL    HW122817   2.343   0.629   4.644  0.5736 -0.7950  1.8562
 3728SOL    HW222818   2.204   0.634   4.712  0.8277 -0.7369  0.3595
 3729SOL     OW22819   1.317   0.046   9.174 -0.1819 -0.4006 -0.0955
 3729SOL    HW122820   1.307   0.121   9.115  0.3156 -0.1739  0.0997
 3729SOL    HW222821   1.287   0.084   9.257  1.9720 -0.4376  0.7209
 3730SOL     OW22822   1.418   2.429   9.289 -0.1998 -0.1372  0.0707
 3730SOL    HW122823   1.329   2.396   9.296  0.3756 -0.9628  3.0651
 3730SOL    HW222824   1.441   2.451   9.379 -0.5345 -0.1473  0.1563
 3731SOL     OW22825   4.690   2.267   3.151 -0.3076 -0.2564  0.4970
 3731SOL    HW122826   0.000   2.227   3.225  1.4979  0.9017  0.0438
 3731SOL    HW222827   4.706   2.361   3.161  1.3273 -0.5637  0.6562
 3732SOL     OW22828   1.763   2.257  14.584 -0.8633 -0.5926 -0.5714
 3732SOL    HW122829   1.761   2.289  14.674 -1.3977 -1.0521 -0.4201
 3732SOL    HW222830   1.827   2.315  14.543  1.8755 -2.1891  1.4052
 3733SOL     OW22831   3.125   2.746   5.703 -0.1580 -0.0679 -0.5986
 3733SOL    HW122832   3.192   2.742   5.635  0.3990 -0.8644  0.0058
 3733SOL    HW222833   3.056   2.698   5.659 -0.7890 -0.1134  0.4289
 3734SOL     OW22834   1.035   3.594   9.257  0.2896 -0.1115 -0.9394
 3734SOL    HW122835   1.034   3.690   9.263  1.0820 -0.1717  0.2587
 3734SOL    HW222836   1.124   3.569   9.281  0.1707 -0.2705 -0.6623
 3735SOL     OW22837   0.770   1.047   5.738  0.6841 -0.6187  0.3091
 3735SOL    HW122838   0.791   0.972   5.681 -0.3429 -0.1895 -0.6440
 3735SOL    HW222839   0.855   1.089   5.741  0.6945 -0.6815  0.7678
 3736SOL     OW22840   2.970   4.170   2.030  0.7102 -0.3681 -0.6051
 3736SOL    HW122841   2.958   4.081   2.065  1.9003 -0.6616 -0.9556
 3736SOL    HW222842   2.965   4.168   1.935  0.2133  1.6445 -0.6147
 3737SOL     OW22843   1.971   2.611  15.122 -0.3982  0.3446 -0.0859
 3737SOL    HW122844   1.935   2.670  15.056 -1.8433  0.9721  1.2499
 3737SOL    HW222845   1.950   2.668  15.196 -0.5282  0.5722 -0.2974
 3738SOL     OW22846   3.229   2.650   8.234  0.0552  0.4365 -0.2554
 3738SOL    HW122847   3.218   2.580   8.299 -1.0281 -1.0043 -2.0083
 3738SOL    HW222848   3.285   2.712   8.280 -1.4652  1.0702  0.7423
 3739SOL     OW22849   3.384   4.260   3.842 -0.0552 -0.0242 -0.1974
 3739SOL    HW122850   3.446   4.310   3.789  1.0405 -0.3976  0.7256
 3739SOL    HW222851   3.436   4.236   3.919  0.7146 -0.4455 -0.8520
 3740SOL     OW22852   1.280   3.870   8.223  0.5961  0.2850  0.2312
 3740SOL    HW122853   1.204   3.835   8.178 -1.6454  0.1317  4.0974
 3740SOL    HW222854   1.243   3.919   8.297 -1.0169 -1.9444  0.8613
 3741SOL     OW22855   1.067   1.118  11.003 -0.5774 -0.2644  0.0303
 3741SOL    HW122856   1.031   1.146  10.919 -0.8778  0.0635  0.2691
 3741SOL    HW222857   0.984   1.116  11.051 -0.8635  2.1278 -0.3632
 3742SOL     OW22858   2.125   2.797   5.596 -0.2003  0.0765  0.1509
 3742SOL    HW122859   2.096   2.876   5.550 -0.3361 -0.5013 -0.7591
 3742SOL    HW222860   2.135   2.730   5.528 -0.8495  0.8223 -0.6807
 3743SOL     OW22861   4.199   2.548   3.773  0.5561 -0.2764 -0.2007
 3743SOL    HW122862   4.130   2.604   3.809  2.4783  0.7238  1.9354
 3743SOL    HW222863   4.246   2.598   3.707  0.5259  1.5484  1.1773
 3744SOL     OW22864   2.360   4.448   8.449  0.9074  0.3866 -0.2783
 3744SOL    HW122865   2.380   4.394   8.525 -2.8955 -0.9110 -0.1925
 3744SOL    HW222866   2.434   4.509   8.447  0.6095  0.7451 -0.4959
 3745SOL     OW22867   3.341   1.484  12.752 -0.0846  0.1658  0.0139
 3745SOL    HW122868   3.288   1.563  12.742 -0.4576 -0.1795 -0.7676
 3745SOL    HW222869   3.290   1.420  12.701  1.2487 -0.9097  0.0372
 3746SOL     OW22870   2.070   0.180   2.492  0.0707 -0.0250 -0.7794
 3746SOL    HW122871   2.052   0.098   2.445 -1.8622  0.4935 -0.9438
 3746SOL    HW222872   2.140   0.219   2.440 -0.2060 -0.3355 -1.3850
 3747SOL     OW22873   0.302   2.243   6.148 -0.1737  0.1277 -0.0161
 3747SOL    HW122874   0.358   2.312   6.112  0.3100  0.5429  1.5436
 3747SOL    HW222875   0.239   2.296   6.196 -0.8772 -0.4717 -0.2733
 3748SOL     OW22876   0.676   1.735   4.543  0.0680 -0.2610 -0.0938
 3748SOL    HW122877   0.710   1.661   4.492  1.4215  0.4746 -0.2455
 3748SOL    HW222878   0.610   1.685   4.592  1.0317 -0.8603  0.5880
 3749SOL     OW22879   0.764   3.181   4.727 -0.0434  0.2407  0.2869
 3749SOL    HW122880   0.703   3.176   4.800 -0.4377  1.5581  0.0532
 3749SOL    HW222881   0.842   3.141   4.766  1.3667  2.5804 -0.0831
 3750SOL     OW22882   3.773   1.509   7.959  0.2751 -0.1839  0.0262
 3750SOL    HW122883   3.860   1.544   7.978  1.0445 -0.1290 -3.6785
 3750SOL    HW222884   3.789   1.474   7.871  1.7965  0.7444 -0.0604
 3751SOL     OW22885   0.811   3.235  11.136 -0.0261  1.1662  0.1132
 3751SOL    HW122886   0.845   3.317  11.173 -1.6428  1.7387  0.3574
 3751SOL    HW222887   0.846   3.245  11.048 -0.2203 -0.2781 -0.1205
 3752SOL     OW22888   4.507   4.683   6.420 -0.2077 -0.7307 -0.2103
 3752SOL    HW122889   4.443   4.611   6.418 -0.8913 -0.1012 -1.0610
 3752SOL    HW222890   4.474   4.731   6.496  0.9346  0.7272 -0.6469
 3753SOL     OW22891   2.959   1.464   1.147  0.1778 -0.4456  0.0904
 3753SOL    HW122892   2.866   1.486   1.156 -0.3777 -2.7469 -0.1281
 3753SOL    HW222893   2.976   1.471   1.053 -0.8342 -1.0265 -0.1363
 3754SOL     OW22894   2.424   2.512   1.292  0.8873  0.5853 -0.2718
 3754SOL    HW122895   2.428   2.457   1.214  1.5279  1.7896 -1.0771
 3754SOL    HW222896   2.445   2.444   1.357 -2.6723  1.5063  1.8356
 3755SOL     OW22897   3.436   3.758   7.080 -0.0450 -0.4821 -0.0936
 3755SOL    HW122898   3.481   3.713   7.008 -0.9734 -0.7396 -0.5235
 3755SOL    HW222899   3.489   3.837   7.070  1.1146 -0.9207  2.5000
 3756SOL     OW22900   3.433   3.721   9.208 -0.0905 -0.3688  0.3011
 3756SOL    HW122901   3.385   3.775   9.145  1.5935 -0.2272 -0.8638
 3756SOL    HW222902   3.472   3.652   9.154 -0.1399  0.1873 -0.4509
 3757SOL     OW22903   3.124   2.108  12.508 -0.3077  0.2021  0.1264
 3757SOL    HW122904   3.140   2.197  12.478 -0.5961  0.1598 -0.1553
 3757SOL    HW222905   3.213   2.074  12.508  0.0308  1.0938 -0.5704
 3758SOL     OW22906   3.062   2.220   2.589  0.0508  0.0255  0.1074
 3758SOL    HW122907   3.018   2.187   2.668 -1.7741  0.5134 -0.7105
 3758SOL    HW222908   3.111   2.143   2.562  1.6781  1.5708 -1.2606
 3759SOL     OW22909   1.183   0.183   1.243  0.5560  0.4556  0.0144
 3759SOL    HW122910   1.135   0.240   1.183 -1.0417 -1.6640 -0.7050
 3759SOL    HW222911   1.198   0.239   1.319  0.1849  1.0078 -0.3228
 3760SOL     OW22912   0.032   0.085   5.573  0.2046  0.5211 -0.2940
 3760SOL    HW122913   0.115   0.118   5.538  2.3751 -3.1728  1.4127
 3760SOL    HW222914   4.717   0.047   5.500  0.1566  0.4854 -0.2430
 3761SOL     OW22915   0.466   4.434   5.919 -0.0415  0.3716 -0.1881
 3761SOL    HW122916   0.561   4.427   5.912 -0.2057 -3.0786  1.2812
 3761SOL    HW222917   0.435   4.525   5.915  0.1853  0.4639  0.1577
 3762SOL     OW22918   4.539   1.629  11.484 -0.3321 -0.5619  0.1879
 3762SOL    HW122919   4.482   1.595  11.553 -2.2625 -0.6460 -1.4440
 3762SOL    HW222920   4.578   1.705  11.527 -0.0851 -0.3786 -0.3533
 3763SOL     OW22921   1.904   2.536   8.373 -0.2388  0.1654  0.1206
 3763SOL    HW122922   1.964   2.549   8.299 -2.2831  0.3519 -1.4870
 3763SOL    HW222923   1.846   2.607   8.347  0.8521  1.1583  0.3559
 3764SOL     OW22924   1.617   2.916   9.278 -0.0729  0.7719 -0.1173
 3764SOL    HW122925   1.582   2.828   9.264  2.1076 -0.0693 -0.3255
 3764SOL    HW222926   1.694   2.912   9.222 -0.0756  0.7124 -0.1166
 3765SOL     OW22927   1.015   1.260   0.888 -0.3928  0.2239  0.0914
 3765SOL    HW122928   0.923   1.280   0.907 -0.4973 -0.0537 -0.1180
 3765SOL    HW222929   1.008   1.259   0.793 -1.1574  1.1722  0.1307
 3766SOL     OW22930   2.049   2.644   5.838  0.1467  0.1539  0.3635
 3766SOL    HW122931   2.072   2.693   5.759 -2.1276  0.6310 -0.0113
 3766SOL    HW222932   2.057   2.719   5.896 -0.0143  0.9968 -0.6891
 3767SOL     OW22933   0.440   3.670   2.615  0.0862 -0.0281  0.4206
 3767SOL    HW122934   0.380   3.709   2.551  0.3511  0.7668  0.6506
 3767SOL    HW222935   0.476   3.754   2.643 -1.7620  0.2827  1.9025
 3768SOL     OW22936   1.160   1.497   5.356 -0.2791  0.0281 -0.0607
 3768SOL    HW122937   1.122   1.565   5.300 -0.1685  0.6996  0.6812
 3768SOL    HW222938   1.254   1.500   5.342 -0.3142 -1.3886 -0.6333
 3769SOL     OW22939   4.165   1.717   1.846  0.6532  0.1836 -0.1788
 3769SOL    HW122940   4.171   1.809   1.871  1.4385 -0.2596  1.3084
 3769SOL    HW222941   4.081   1.674   1.861 -0.1184  1.3059 -1.3066
 3770SOL     OW22942   2.795   4.449  16.886  0.5644 -0.4869 -0.4156
 3770SOL    HW122943   2.886   4.427  16.864  0.9003  0.6984 -0.2537
 3770SOL    HW222944   2.789   4.539  16.852 -1.1811 -0.2383  0.5713
 3771SOL     OW22945   0.343   4.190  15.262  0.3091 -0.0863  0.5905
 3771SOL    HW122946   0.366   4.099  15.243 -0.2216 -0.0080 -0.4456
 3771SOL    HW222947   0.318   4.171  15.352 -1.0522  2.1904  0.6991
 3772SOL     OW22948   2.748   2.651   8.262 -0.3284 -0.6459  0.1944
 3772SOL    HW122949   2.665   2.644   8.309  0.4381  0.6051  1.7557
 3772SOL    HW222950   2.809   2.659   8.336  0.1202 -0.3091 -0.2098
 3773SOL     OW22951   3.474   2.107   3.220  0.3507  0.3458 -0.0330
 3773SOL    HW122952   3.495   2.058   3.141 -1.0727  0.6138 -0.5821
 3773SOL    HW222953   3.445   2.190   3.182  2.0596  0.9978  0.1287
 3774SOL     OW22954   3.933   3.648   5.198 -0.1058 -0.6038 -1.0829
 3774SOL    HW122955   3.985   3.690   5.129  0.7471  0.7086  0.3832
 3774SOL    HW222956   3.949   3.556   5.177  2.3007 -0.2919 -0.5792
 3775SOL     OW22957   0.069   2.438   1.041 -0.2174 -0.4480  0.3270
 3775SOL    HW122958   4.728   2.468   1.092  0.8290  2.7325 -0.0065
 3775SOL    HW222959   0.041   2.348   1.028 -0.2223 -0.3379 -0.4312
 3776SOL     OW22960   1.908   2.811   8.131  0.2335 -0.6799  0.4199
 3776SOL    HW122961   1.916   2.808   8.035 -0.3270  1.3187  0.3065
 3776SOL    HW222962   1.995   2.846   8.147 -1.1383  1.9413  2.0878
 3777SOL     OW22963   3.127   1.971   4.275 -0.6180 -0.0471  0.2533
 3777SOL    HW122964   3.203   1.913   4.281 -0.7984 -0.3495 -0.3928
 3777SOL    HW222965   3.066   1.928   4.335 -1.1835 -0.2274 -0.4500
 3778SOL     OW22966   2.654   4.087  16.077 -0.2728 -0.0093 -0.0839
 3778SOL    HW122967   2.575   4.049  16.038  1.0127 -0.5551 -2.1760
 3778SOL    HW222968   2.619   4.167  16.116  0.2872  0.0622  0.2690
 3779SOL     OW22969   1.294   1.882  16.399 -0.1286  0.6388 -0.5731
 3779SOL    HW122970   1.364   1.943  16.423 -0.1180  0.0243  0.9337
 3779SOL    HW222971   1.333   1.840  16.322  2.0824  1.3550  0.1581
 3780SOL     OW22972   3.925   3.875   6.072  0.0273  0.1600  0.0186
 3780SOL    HW122973   3.914   3.805   6.135  1.6127  0.5792  0.7567
 3780SOL    HW222974   3.921   3.953   6.128 -1.2757  1.7219 -2.2315
 3781SOL     OW22975   1.230   2.357   7.592 -0.7888 -0.3505 -0.6139
 3781SOL    HW122976   1.252   2.421   7.525  1.0055 -0.9958 -0.6323
 3781SOL    HW222977   1.199   2.288   7.533  0.8845 -2.8249  1.3682
 3782SOL     OW22978   3.244   4.024   1.066 -0.8332 -0.1586 -0.1125
 3782SOL    HW122979   3.339   4.008   1.067 -0.7065  0.5580 -0.5182
 3782SOL    HW222980   3.229   4.043   0.973  2.9885  0.0569 -0.6881
 3783SOL     OW22981   0.929   3.222   3.919 -0.6356  0.5374 -0.1746
 3783SOL    HW122982   0.957   3.314   3.919 -2.7889  1.2004  0.1736
 3783SOL    HW222983   0.917   3.219   3.824 -0.9577 -0.0391 -0.1108
 3784SOL     OW22984   0.297   1.229   9.858 -0.1269 -0.1014  0.4031
 3784SOL    HW122985   0.359   1.192   9.922 -0.2171 -0.9742 -0.0129
 3784SOL    HW222986   0.323   1.320   9.849 -0.9149  0.1036  0.2223
 3785SOL     OW22987   0.786   2.925  17.401 -0.4535  0.0587 -0.3838
 3785SOL    HW122988   0.880   2.913  17.395 -0.3623 -0.2872  1.7607
 3785SOL    HW222989   0.792   3.015  17.433  0.2435 -0.3685  0.6719
 3786SOL     OW22990   3.385   1.152   5.219  0.3204 -0.3530 -0.7561
 3786SOL    HW122991   3.469   1.178   5.255  0.8706 -0.6764 -1.8062
 3786SOL    HW222992   3.408   1.075   5.167 -2.0650 -0.9801 -0.9083
 3787SOL     OW22993   0.432   0.994   2.700  0.2161 -0.4803  0.4275
 3787SOL    HW122994   0.491   1.021   2.630 -0.4183 -1.7954 -0.6048
 3787SOL    HW222995   0.349   0.987   2.653 -0.1228 -1.5113  1.1845
 3788SOL     OW22996   2.922   2.839   9.305 -0.0477  0.3540 -0.2186
 3788SOL    HW122997   2.910   2.757   9.257  0.8976  0.8198 -1.2677
 3788SOL    HW222998   2.876   2.895   9.242 -1.9199  0.1430  0.9906
 3789SOL     OW22999   1.192   1.225   8.483  0.1012  0.0280 -0.1750
 3789SOL    HW123000   1.283   1.226   8.454  0.2753 -1.8367  0.3017
 3789SOL    HW223001   1.137   1.206   8.407  0.3724  1.7835 -0.8029
 3790SOL     OW23002   2.561   0.169  10.149 -0.6349  0.5307  0.0531
 3790SOL    HW123003   2.495   0.124  10.203 -1.0351  0.8954 -0.1305
 3790SOL    HW223004   2.543   0.138  10.060  0.2382 -0.2498  0.1560
 3791SOL     OW23005   0.861   2.036   8.517  0.4878  0.1372 -0.2242
 3791SOL    HW123006   0.843   1.994   8.433  1.8952 -0.4529 -0.2218
 3791SOL    HW223007   0.937   1.991   8.554  0.9705  0.5946 -0.6733
 3792SOL     OW23008   1.834   3.635  14.759 -0.2410 -0.1951 -0.4687
 3792SOL    HW123009   1.739   3.647  14.757 -0.3152 -0.8121 -0.5280
 3792SOL    HW223010   1.873   3.638  14.672  3.1657 -1.3444  1.0291
 3793SOL     OW23011   2.450   4.632  17.495 -0.7573 -0.3111  0.1856
 3793SOL    HW123012   2.509   4.665  17.562 -0.5687  1.7550 -1.0076
 3793SOL    HW223013   2.452   4.538  17.513  0.2835 -0.4491 -0.6298
 3794SOL     OW23014   2.776   2.701   2.922  0.2922  0.0649  0.4108
 3794SOL    HW123015   2.864   2.664   2.918  0.1791 -0.1846  0.2478
 3794SOL    HW223016   2.783   2.754   3.002  3.1190  2.5751 -1.5098
 3795SOL     OW23017   2.782   4.039  11.577 -0.1988  0.1037 -0.2213
 3795SOL    HW123018   2.819   4.109  11.523  0.5409 -0.1924 -0.0964
 3795SOL    HW223019   2.846   4.026  11.647 -2.1648  0.6953  1.6845
 3796SOL     OW23020   3.114   3.624   5.795  0.1604 -0.1888  0.5973
 3796SOL    HW123021   3.194   3.597   5.841 -0.0413 -0.5402  0.7392
 3796SOL    HW223022   3.045   3.638   5.859  0.5042  2.9360  0.3006
 3797SOL     OW23023   3.488   4.012   6.386 -0.0511  0.5260 -0.1388
 3797SOL    HW123024   3.508   4.106   6.382 -0.3025  0.4773 -2.3288
 3797SOL    HW223025   3.576   3.978   6.402 -0.1782  0.4364  0.3864
 3798SOL     OW23026   3.174   2.850   3.620 -0.1326  0.1544  0.2063
 3798SOL    HW123027   3.144   2.759   3.612 -2.3292  1.0336 -1.5729
 3798SOL    HW223028   3.266   2.835   3.643 -0.2837 -0.5886  0.3278
 3799SOL     OW23029   2.306   3.946   2.226  0.0205  0.1632 -0.1375
 3799SOL    HW123030   2.217   3.910   2.218 -0.0269  0.2561 -0.0369
 3799SOL    HW223031   2.305   4.005   2.151 -1.7908  0.9514  0.4834
 3800SOL     OW23032   3.636   3.368   8.226  0.5814 -0.9263  0.0762
 3800SOL    HW123033   3.650   3.307   8.298 -0.1242 -0.0078  0.9871
 3800SOL    HW223034   3.595   3.309   8.163  0.8197 -0.8329 -0.1680
 3801SOL     OW23035   1.776   2.005   3.878  0.2782  0.4438  0.0847
 3801SOL    HW123036   1.766   2.096   3.851  0.3644 -0.0529 -1.5757
 3801SOL    HW223037   1.864   2.006   3.916  2.0283  1.8232 -4.0374
 3802SOL     OW23038   4.276   0.061   4.173 -0.0886 -0.4820  0.0118
 3802SOL    HW123039   4.261   4.700   4.177  0.4531 -0.4357  2.8473
 3802SOL    HW223040   4.370   0.073   4.186  0.0506  0.5498 -1.9345
 3803SOL     OW23041   1.751   0.728   5.489  0.5779  0.3161 -0.0451
 3803SOL    HW123042   1.715   0.725   5.400  1.9129 -2.4071 -0.4804
 3803SOL    HW223043   1.833   0.680   5.480 -1.1798 -2.9104  1.2796
 3804SOL     OW23044   3.738   2.639   6.169  0.5859  0.4633 -0.0164
 3804SOL    HW123045   3.697   2.654   6.084 -2.0514 -0.9628  1.0165
 3804SOL    HW223046   3.824   2.681   6.164  0.7786 -0.1240 -1.6904
 3805SOL     OW23047   0.244   0.619   4.699  0.2638 -0.6448  0.0290
 3805SOL    HW123048   0.183   0.603   4.627  1.9544 -1.9024 -1.1159
 3805SOL    HW223049   0.291   0.536   4.707  0.5991 -0.6344 -1.8030
 3806SOL     OW23050   4.683   2.985   5.624 -0.4980  0.3940 -0.4319
 3806SOL    HW123051   4.665   3.066   5.577 -0.1788 -0.2785 -1.7034
 3806SOL    HW223052   4.599   2.959   5.661 -1.1556  1.8054 -0.9569
 3807SOL     OW23053   3.166   1.467   6.892 -0.3467  0.2149 -0.2398
 3807SOL    HW123054   3.122   1.448   6.809 -1.5683 -0.8950  0.6618
 3807SOL    HW223055   3.109   1.432   6.960  0.2064 -1.7390 -0.7800
 3808SOL     OW23056   1.469   0.432  10.304 -0.7334  0.0477 -0.0626
 3808SOL    HW123057   1.552   0.474  10.281 -0.9723 -0.0628 -1.1541
 3808SOL    HW223058   1.421   0.431  10.221 -0.0517  0.5146 -0.4648
 3809SOL     OW23059   1.628   3.859   2.037  0.8851  0.3673 -0.4938
 3809SOL    HW123060   1.623   3.946   1.998  0.6630  1.2455  1.5119
 3809SOL    HW223061   1.552   3.810   2.006  1.4022 -0.3525 -0.6311
 3810SOL     OW23062   1.254   2.663  12.850 -0.7406 -0.6221  0.2777
 3810SOL    HW123063   1.192   2.682  12.780  0.0410  0.2910 -0.1714
 3810SOL    HW223064   1.285   2.574  12.833 -0.4446  0.1969 -3.4576
 3811SOL     OW23065   1.937   0.167   6.649 -0.7342 -0.2957  0.5790
 3811SOL    HW123066   2.000   0.102   6.681 -2.0026 -0.7733  2.0586
 3811SOL    HW223067   1.939   0.141   6.556 -3.7156 -1.3937  0.8345
 3812SOL     OW23068   4.128   2.841  15.602  0.4970  0.3811  0.2768
 3812SOL    HW123069   4.184   2.914  15.627 -0.7374  0.5235  2.6621
 3812SOL    HW223070   4.085   2.816  15.684 -1.3896  0.1937 -0.7617
 3813SOL     OW23071   1.331   0.371   8.547  0.1740  0.5757 -0.0997
 3813SOL    HW123072   1.339   0.350   8.454 -0.3306 -0.6342  0.1256
 3813SOL    HW223073   1.418   0.375   8.587  1.0534  2.5237 -2.2266
 3814SOL     OW23074   3.064   2.181   2.208  0.4610 -0.5884 -0.2161
 3814SOL    HW123075   3.043   2.113   2.144 -1.9706  0.6305 -0.7245
 3814SOL    HW223076   3.094   2.124   2.278  1.0872 -0.5880 -0.4921
 3815SOL     OW23077   4.684   0.136   2.027  0.5090  0.2080 -0.1774
 3815SOL    HW123078   0.016   0.140   1.958  0.9233  0.8038  0.2595
 3815SOL    HW223079   4.599   0.136   1.984  1.5027 -1.4207 -2.1638
 3816SOL     OW23080   1.600   3.027   8.420 -0.1543 -0.1020  0.3784
 3816SOL    HW123081   1.666   3.075   8.470  2.9440 -1.3396 -2.5601
 3816SOL    HW223082   1.651   2.992   8.347  1.2970  0.9427  0.8803
 3817SOL     OW23083   2.408   4.639  11.423  0.8662  0.2600  0.2212
 3817SOL    HW123084   2.468   4.646  11.497  1.8003 -1.2324 -0.3926
 3817SOL    HW223085   2.356   4.564  11.451 -0.5452  0.7447 -1.1440
 3818SOL     OW23086   3.576   4.061  10.389  0.3222 -0.2107 -0.0701
 3818SOL    HW123087   3.598   4.140  10.340  1.9709 -0.5305  0.1711
 3818SOL    HW223088   3.483   4.080  10.400  0.2395  0.4426 -1.9444
 3819SOL     OW23089   4.517   0.546   6.114  0.3925 -0.3543  0.0775
 3819SOL    HW123090   4.522   0.529   6.208  0.2124 -0.1875  0.1169
 3819SOL    HW223091   4.423   0.561   6.110 -0.1415 -2.6645  3.7865
 3820SOL     OW23092   1.663   0.097   6.570  0.3705 -0.1737  0.6955
 3820SOL    HW123093   1.620   0.143   6.498 -0.5916 -1.3528  0.5255
 3820SOL    HW223094   1.694   0.172   6.620 -0.7633  0.4978  0.3935
 3821SOL     OW23095   4.233   2.238  16.296 -0.1008 -0.3041  0.0303
 3821SOL    HW123096   4.249   2.222  16.389  2.3646 -0.0994 -0.3682
 3821SOL    HW223097   4.137   2.241  16.292 -0.1303 -1.0439  0.1334
 3822SOL     OW23098   1.329   1.620   5.966 -0.1537 -0.6679 -0.4147
 3822SOL    HW123099   1.307   1.670   5.887 -0.5180 -0.6713 -0.3111
 3822SOL    HW223100   1.424   1.632   5.963 -0.3715  1.2840  0.6180
 3823SOL     OW23101   1.885   1.187   0.863  0.5546 -0.0833  0.1062
 3823SOL    HW123102   1.864   1.233   0.945 -0.7507 -3.1813  1.4958
 3823SOL    HW223103   1.974   1.221   0.853  0.0092  0.9871 -1.0420
 3824SOL     OW23104   0.914   4.717  17.220 -0.4011 -0.1640  0.2021
 3824SOL    HW123105   0.846   4.669  17.268  1.2914 -2.2530  0.4963
 3824SOL    HW223106   0.866   0.059  17.187 -0.8940 -0.1789  0.8839
 3825SOL     OW23107   2.052   4.008   6.369  0.5256  0.3874  0.3746
 3825SOL    HW123108   2.115   4.049   6.428  0.8635  1.7318 -0.9093
 3825SOL    HW223109   2.052   3.919   6.403 -3.4909 -0.2656 -1.2709
 3826SOL     OW23110   3.508   3.498   4.864  0.0950 -0.3276 -0.2808
 3826SOL    HW123111   3.492   3.560   4.935  1.4775 -1.1161  0.7211
 3826SOL    HW223112   3.432   3.510   4.807  0.0318  0.6300 -0.0015
 3827SOL     OW23113   2.107   4.706   6.725  0.1879 -0.6225 -0.0048
 3827SOL    HW123114   2.187   0.008   6.686 -0.8668  1.6452 -0.0600
 3827SOL    HW223115   2.102   4.625   6.675 -0.5035 -1.3907  1.3225
 3828SOL     OW23116   1.735   3.437   1.438 -0.7076 -0.0434  0.1679
 3828SOL    HW123117   1.699   3.415   1.352 -1.1155  0.3859  0.2274
 3828SOL    HW223118   1.828   3.439   1.418 -0.9989 -0.9909 -1.2707
 3829SOL     OW23119   0.197   2.641   0.042 -0.1705  0.2741  0.1625
 3829SOL    HW123120   0.205   2.562  17.724 -1.0915  0.4493 -0.2244
 3829SOL    HW223121   0.240   2.709  17.726  0.2687  0.5669  0.9049
 3830SOL     OW23122   4.306   3.456  17.127 -0.0821  0.1428 -0.0287
 3830SOL    HW123123   4.257   3.538  17.127  0.5915  0.5423 -0.6928
 3830SOL    HW223124   4.396   3.488  17.124  0.1817 -0.7420 -1.4451
 3831SOL     OW23125   2.148   2.321   8.672 -0.1344  0.0465 -0.3488
 3831SOL    HW123126   2.241   2.296   8.664  0.2832  1.3299  0.6166
 3831SOL    HW223127   2.158   2.414   8.692  1.0980 -0.2255  0.3163
 3832SOL     OW23128   0.722   4.651   5.664  0.0494 -0.2111  0.4005
 3832SOL    HW123129   0.706   4.586   5.732 -1.4824 -0.6005 -0.3536
 3832SOL    HW223130   0.712   4.733   5.713  0.8518 -0.2598  0.6614
 3833SOL     OW23131   4.305   0.666   3.063  0.3403  0.5611 -0.8154
 3833SOL    HW123132   4.212   0.685   3.073 -0.1270 -2.6037  1.1394
 3833SOL    HW223133   4.298   0.589   3.006 -0.4946 -0.0110  0.0566
 3834SOL     OW23134   2.704   2.072   2.957 -0.6073  0.2801  0.5462
 3834SOL    HW123135   2.715   2.156   2.912  1.9408  0.0511  0.7304
 3834SOL    HW223136   2.637   2.080   3.024 -1.6376  1.8896 -0.6805
 3835SOL     OW23137   3.379   1.226   1.547 -0.6488  0.2450 -0.4300
 3835SOL    HW123138   3.352   1.316   1.530 -2.7651 -0.3335 -0.1523
 3835SOL    HW223139   3.467   1.232   1.511  0.0304  0.9099  1.3426
 3836SOL     OW23140   2.709   3.549  10.634  0.2604 -0.1850 -0.7079
 3836SOL    HW123141   2.746   3.589  10.713 -0.5659  1.3889 -1.1228
 3836SOL    HW223142   2.660   3.621  10.594 -2.2210 -0.1537  2.4024
 3837SOL     OW23143   0.818   0.269   5.525 -0.3436 -0.0145  0.0730
 3837SOL    HW123144   0.899   0.316   5.542 -1.2783  0.9535  1.9018
 3837SOL    HW223145   0.797   0.253   5.617  0.1419 -1.9209 -0.1427
 3838SOL     OW23146   3.028   2.513   9.731 -0.2108  0.4444 -0.3060
 3838SOL    HW123147   3.000   2.539   9.818 -3.4559 -0.3388 -1.1096
 3838SOL    HW223148   3.117   2.491   9.756 -0.0787 -0.1896 -1.3252
 3839SOL     OW23149   2.796   3.813   1.620  0.1131 -0.0525 -0.0024
 3839SOL    HW123150   2.852   3.738   1.642 -0.4866 -0.0916  1.3671
 3839SOL    HW223151   2.847   3.859   1.553 -0.5026 -0.2134 -0.5786
 3840SOL     OW23152   1.924   0.666   9.905  0.3104 -0.4299 -0.1367
 3840SOL    HW123153   1.952   0.579   9.875  1.4333 -0.1762  0.1788
 3840SOL    HW223154   1.988   0.735   9.890 -0.4512  0.0139 -1.3329
 3841SOL     OW23155   2.571   2.739   5.906 -0.0488 -0.3226 -0.1616
 3841SOL    HW123156   2.510   2.741   5.833  0.2307 -0.0572 -0.3860
 3841SOL    HW223157   2.634   2.800   5.868  0.1411 -1.6202 -1.9417
 3842SOL     OW23158   4.606   3.107   3.619  0.5237 -0.4722  0.1513
 3842SOL    HW123159   4.622   3.191   3.662  2.8554 -0.6262 -0.4224
 3842SOL    HW223160   4.582   3.048   3.691 -1.5512  1.6126  1.1680
 3843SOL     OW23161   4.229   2.591  10.903  0.4272 -0.0294 -0.4020
 3843SOL    HW123162   4.221   2.625  10.814  1.5839  1.2794 -0.0152
 3843SOL    HW223163   4.322   2.567  10.902  0.7416  1.1298  0.5895
 3844SOL     OW23164   2.811   1.433   8.793  0.6342  0.3845 -0.3067
 3844SOL    HW123165   2.851   1.480   8.720  2.4682  0.3012  0.6480
 3844SOL    HW223166   2.762   1.506   8.830 -1.2448 -0.6965 -0.6613
 3845SOL     OW23167   0.477   1.276   3.180  0.0480  0.6933  0.2336
 3845SOL    HW123168   0.483   1.324   3.263 -3.4116  0.6417  0.5074
 3845SOL    HW223169   0.550   1.214   3.179 -2.5846 -2.3799 -0.8813
 3846SOL     OW23170   1.287   0.567   7.778  0.1210  0.1972 -0.8942
 3846SOL    HW123171   1.244   0.573   7.693 -1.0060 -1.5457 -0.4445
 3846SOL    HW223172   1.334   0.649   7.768  1.1071 -0.5171 -2.1898
 3847SOL     OW23173   3.311   4.157  13.010  0.4623 -0.1143  0.1095
 3847SOL    HW123174   3.404   4.137  13.021  0.3908  0.1865  1.3370
 3847SOL    HW223175   3.295   4.129  13.101 -0.1577  1.6730  0.5521
 3848SOL     OW23176   3.973   2.734   2.045 -0.0348  1.2113  0.1607
 3848SOL    HW123177   3.996   2.695   2.130 -3.5836  0.8309  0.9369
 3848SOL    HW223178   3.881   2.711   2.035  0.4530 -0.1601 -1.2898
 3849SOL     OW23179   2.664   3.258   2.764  0.1993  0.3895 -0.4044
 3849SOL    HW123180   2.693   3.169   2.746 -0.2903  0.3296 -0.8922
 3849SOL    HW223181   2.710   3.289   2.842 -0.2532 -0.5251  0.2312
 3850SOL     OW23182   1.395   4.043  16.268  0.4666  0.0664 -0.4244
 3850SOL    HW123183   1.304   4.014  16.260  0.6549 -0.4638 -0.6434
 3850SOL    HW223184   1.388   4.094  16.349  0.0452 -0.4650 -0.1337
 3851SOL     OW23185   0.027   2.879   6.153 -0.4775 -0.2474 -0.1119
 3851SOL    HW123186   0.023   2.860   6.059 -0.3782  1.0487 -0.3841
 3851SOL    HW223187   4.687   2.937   6.166 -0.3338 -0.0952  0.0275
 3852SOL     OW23188   4.437   3.216   0.600  1.0129  0.1827  0.0160
 3852SOL    HW123189   4.380   3.234   0.675 -1.1063 -3.2439 -0.7768
 3852SOL    HW223190   4.520   3.211   0.647  0.3750  2.6925  1.4503
 3853SOL     OW23191   2.314   1.952   8.635  0.1313 -0.1352 -0.4850
 3853SOL    HW123192   2.300   2.002   8.716 -0.5105 -1.0532 -0.0292
 3853SOL    HW223193   2.293   2.017   8.567  1.2263 -0.2556 -0.9272
 3854SOL     OW23194   0.861   3.470  11.275  0.2012 -0.1904 -0.3180
 3854SOL    HW123195   0.923   3.536  11.307 -0.5553 -0.5325  1.8782
 3854SOL    HW223196   0.800   3.533  11.235  0.0281  0.3105  0.7187
 3855SOL     OW23197   3.395   3.631  12.114  0.1829  0.8593 -0.0410
 3855SOL    HW123198   3.409   3.710  12.166  2.1213  1.2883 -1.2244
 3855SOL    HW223199   3.447   3.652  12.037  1.1135  0.0555  0.3538
 3856SOL     OW23200   4.491   3.535   5.221  0.1818  0.1760  0.6456
 3856SOL    HW123201   4.527   3.450   5.245 -0.6820 -0.1649  0.7350
 3856SOL    HW223202   4.400   3.507   5.224  0.7547 -1.5779  1.5273
 3857SOL     OW23203   3.863   1.381   4.050  0.2438 -0.4271 -0.0361
 3857SOL    HW123204   3.893   1.417   3.967 -0.4264 -2.5739 -1.1996
 3857SOL    HW223205   3.943   1.348   4.091 -0.9141 -0.8689  1.8640
 3858SOL     OW23206   2.125   4.328   5.601  0.3487  0.0122 -0.3563
 3858SOL    HW123207   2.172   4.385   5.661  2.6108 -3.4534  1.1873
 3858SOL    HW223208   2.044   4.317   5.651  1.4381  0.3729  1.4533
 3859SOL     OW23209   1.726   2.868   5.590 -0.4020  0.9790 -0.4184
 3859SOL    HW123210   1.777   2.854   5.511 -0.7272  0.1398 -0.4806
 3859SOL    HW223211   1.740   2.962   5.597 -0.4430  0.8142  1.8009
 3860SOL     OW23212   1.580   1.121  12.076 -0.4755  0.0130  0.1925
 3860SOL    HW123213   1.602   1.210  12.103  0.3243  0.6207 -2.3921
 3860SOL    HW223214   1.543   1.141  11.990 -0.0582  0.4922  0.1284
 3861SOL     OW23215   0.760   4.475  14.302 -0.3860  0.2210  0.3435
 3861SOL    HW123216   0.674   4.434  14.291 -0.3076  0.1047  0.1561
 3861SOL    HW223217   0.796   4.497  14.216  2.6275 -0.8778  1.3063
 3862SOL     OW23218   3.675   3.117   1.862 -0.2690  0.5624  0.0118
 3862SOL    HW123219   3.621   3.194   1.879  3.0519  2.7392  0.7606
 3862SOL    HW223220   3.725   3.135   1.783 -1.0359 -0.4678 -0.7147
 3863SOL     OW23221   3.937   1.892   6.827  0.4601 -0.7294  0.2549
 3863SOL    HW123222   4.004   1.901   6.894 -0.8546 -1.9529  1.7614
 3863SOL    HW223223   3.940   1.799   6.802  0.7696 -0.3254 -1.1720
 3864SOL     OW23224   4.207   0.407   4.316  0.2671 -0.1784 -0.2859
 3864SOL    HW123225   4.180   0.419   4.225 -1.3506 -0.4667  0.1530
 3864SOL    HW223226   4.251   0.322   4.304  0.6589 -0.1443  0.9407
 3865SOL     OW23227   0.341   2.520   6.233  0.2319  0.1603 -0.3917
 3865SOL    HW123228   0.406   2.540   6.301  0.3173 -1.9045  0.1191
 3865SOL    HW223229   0.381   2.555   6.154  0.4722  0.6860 -0.0421
 3866SOL     OW23230   3.866   3.852  13.993  0.6742  0.1326 -0.1001
 3866SOL    HW123231   3.850   3.832  14.085 -1.4963  3.5342  0.3034
 3866SOL    HW223232   3.960   3.847  14.004  0.6790  0.3763 -0.0235
 3867SOL     OW23233   3.767   4.653   5.107 -0.2714  0.7502 -0.4252
 3867SOL    HW123234   3.752   0.000   5.060  1.6099  0.7557 -0.9967
 3867SOL    HW223235   3.848   4.618   5.070 -0.3362 -0.7528  0.8353
 3868SOL     OW23236   2.070   0.592   6.863  0.4961 -0.0646  0.2067
 3868SOL    HW123237   2.072   0.644   6.783 -2.1699  1.2594  1.0070
 3868SOL    HW223238   2.130   0.632   6.925 -1.0824 -1.6236  2.7609
 3869SOL     OW23239   0.642   0.573   3.112  0.4280  0.1474  0.2358
 3869SOL    HW123240   0.578   0.581   3.041 -0.1718  1.6238  0.9417
 3869SOL    HW223241   0.638   0.481   3.136  2.2819 -0.2319 -0.9533
 3870SOL     OW23242   2.668   2.620   4.314 -0.0980 -0.0062 -0.2155
 3870SOL    HW123243   2.612   2.615   4.237  0.6408  2.0816 -0.8868
 3870SOL    HW223244   2.631   2.548   4.365  2.2953 -1.6965 -0.8603
 3871SOL     OW23245   3.820   3.612  15.010  0.3639  0.3631  0.1529
 3871SOL    HW123246   3.725   3.602  14.996  0.4174 -0.7321  0.4903
 3871SOL    HW223247   3.828   3.662  15.092 -1.3855 -0.3209  0.7642
 3872SOL     OW23248   1.849   2.539   5.420  0.0159  0.2936 -0.2513
 3872SOL    HW123249   1.811   2.489   5.348  0.8258 -1.8961  0.8553
 3872SOL    HW223250   1.855   2.472   5.488 -1.7268 -2.8067 -3.1266
 3873SOL     OW23251   4.277   3.329   6.112  0.0302 -0.0944 -0.5697
 3873SOL    HW123252   4.187   3.360   6.119 -0.1161 -0.6419  0.0076
 3873SOL    HW223253   4.273   3.265   6.184 -3.3747 -0.6503 -1.2495
 3874SOL     OW23254   1.511   0.361   5.938 -0.0068  0.3325 -0.8842
 3874SOL    HW123255   1.526   0.435   5.879  0.5548  0.5570 -0.4621
 3874SOL    HW223256   1.420   0.382   5.959  0.5943  1.9331  0.1348
 3875SOL     OW23257   1.794   3.749   3.296  0.1480  0.1952 -0.4968
 3875SOL    HW123258   1.875   3.784   3.258  0.5759 -1.2040 -0.8828
 3875SOL    HW223259   1.767   3.808   3.366  0.0505  0.0888 -0.4453
 3876SOL     OW23260   2.876   2.534   8.066  0.2409  0.2500 -0.9357
 3876SOL    HW123261   2.819   2.560   8.138  2.3031  0.9973  0.4268
 3876SOL    HW223262   2.940   2.603   8.083  2.1166 -1.8147  0.5923
 3877SOL     OW23263   2.078   4.429   7.307 -0.3601 -0.1506 -0.0036
 3877SOL    HW123264   2.160   4.404   7.265 -0.8298  1.5223 -1.9466
 3877SOL    HW223265   2.071   4.523   7.292  0.9749 -0.0982 -0.2361
 3878SOL     OW23266   2.624   4.346   3.186 -0.4333  0.4278 -0.1383
 3878SOL    HW123267   2.701   4.385   3.228 -0.7388  0.2052  0.6198
 3878SOL    HW223268   2.667   4.268   3.151 -0.2381  0.5009 -0.0654
 3879SOL     OW23269   1.729   0.580   0.460  0.4512  0.2852  0.4114
 3879SOL    HW123270   1.683   0.623   0.532  3.3497 -0.0607  2.4782
 3879SOL    HW223271   1.658   0.528   0.422 -0.7059  2.0323  0.1881
 3880SOL     OW23272   2.219   1.811  14.962  0.5750 -0.2327  0.1454
 3880SOL    HW123273   2.150   1.878  14.968  2.4159  1.6195  0.7804
 3880SOL    HW223274   2.292   1.871  14.979  2.2231 -1.3683 -2.7851
 3881SOL     OW23275   3.355   3.589   8.228  0.1561 -0.1295 -0.1849
 3881SOL    HW123276   3.384   3.641   8.303  0.8284  0.1142 -0.6135
 3881SOL    HW223277   3.329   3.509   8.274  0.1744 -0.5051 -0.8262
 3882SOL     OW23278   0.064   0.662   7.158 -0.0806  0.5638  0.2468
 3882SOL    HW123279   0.028   0.605   7.089  0.9445 -0.0038  0.1739
 3882SOL    HW223280   0.048   0.611   7.237  0.1316 -1.0818 -0.7634
 3883SOL     OW23281   3.748   2.849   6.801 -0.4724  0.0988  0.3069
 3883SOL    HW123282   3.711   2.863   6.714 -0.3325 -1.9427 -0.0818
 3883SOL    HW223283   3.760   2.937   6.835 -1.2319  1.2964 -2.5561
 3884SOL     OW23284   3.031   0.132   3.926 -0.2665  0.5932 -0.0157
 3884SOL    HW123285   3.119   0.133   3.889  0.2193  1.3460  1.1863
 3884SOL    HW223286   3.044   0.057   3.984  0.0283  0.2186 -0.5663
 3885SOL     OW23287   2.894   1.588  14.590  0.2709  0.0973 -0.0230
 3885SOL    HW123288   2.914   1.661  14.532 -1.1686  0.5733  0.0719
 3885SOL    HW223289   2.987   1.567  14.596  0.6928  1.8624 -0.5173
 3886SOL     OW23290   3.181   4.478  15.572  0.0438  0.1713 -0.4672
 3886SOL    HW123291   3.109   4.415  15.580 -0.5831  0.9712  0.2061
 3886SOL    HW223292   3.123   4.551  15.552 -1.0895 -0.2180  1.4074
 3887SOL     OW23293   3.888   4.203   2.502 -0.2054  0.3394 -0.4768
 3887SOL    HW123294   3.856   4.292   2.484 -0.5544  0.5004  0.9980
 3887SOL    HW223295   3.981   4.207   2.479 -0.1872 -0.9986 -0.6219
 3888SOL     OW23296   1.701   0.540   7.207 -0.0866 -0.1155 -0.2072
 3888SOL    HW123297   1.643   0.571   7.277  1.1970  0.2485  0.6875
 3888SOL    HW223298   1.643   0.501   7.141  0.2411  1.6154 -1.5051
 3889SOL     OW23299   0.975   4.500   6.604  0.1674 -0.4076  0.1824
 3889SOL    HW123300   0.927   4.418   6.618 -0.9188  0.1849 -0.0190
 3889SOL    HW223301   0.902   4.557   6.629  0.3584 -1.0775  2.2273
 3890SOL     OW23302   2.152   1.107   8.865 -0.3770 -0.3875 -0.5565
 3890SOL    HW123303   2.196   1.042   8.811  1.1322  0.9204 -0.8646
 3890SOL    HW223304   2.169   1.074   8.953 -2.9268 -1.5932 -0.4946
 3891SOL     OW23305   4.459   1.163   2.660 -0.2566 -0.1771  0.7300
 3891SOL    HW123306   4.430   1.246   2.697 -0.2743  0.1291  0.0279
 3891SOL    HW223307   4.406   1.147   2.582 -1.2279 -0.9860  1.5563
 3892SOL     OW23308   1.555   2.060   1.187  0.4240  0.8112 -0.4047
 3892SOL    HW123309   1.619   1.989   1.194  1.8695  2.2654  1.0203
 3892SOL    HW223310   1.488   2.028   1.249  0.7878 -1.0838 -0.9774
 3893SOL     OW23311   0.515   3.634   7.016 -0.1229 -0.1799  0.0035
 3893SOL    HW123312   0.424   3.635   7.047  0.4534 -0.6169  1.7318
 3893SOL    HW223313   0.517   3.598   6.927 -1.4552  1.0029 -0.5049
 3894SOL     OW23314   2.324   0.334   3.183  0.0280  0.2740 -0.8486
 3894SOL    HW123315   2.259   0.273   3.218  0.5881 -0.1011 -0.4493
 3894SOL    HW223316   2.317   0.317   3.089 -1.5303  1.9362 -1.0190
 3895SOL     OW23317   1.626   0.210   2.337  0.4113  0.0257 -0.0239
 3895SOL    HW123318   1.585   0.294   2.315  0.0413  0.2306  1.4636
 3895SOL    HW223319   1.617   0.215   2.432 -0.6922 -2.4923 -0.0038
 3896SOL     OW23320   4.722   3.124   9.466 -0.0994  0.2062 -0.1802
 3896SOL    HW123321   4.675   3.201   9.434 -0.9369 -1.1185 -2.1673
 3896SOL    HW223322   0.016   3.157   9.551  1.1990  0.6933 -0.7915
 3897SOL     OW23323   2.468   3.975   0.576 -0.2194 -0.2070  0.0833
 3897SOL    HW123324   2.458   3.918   0.500  1.1550 -0.1888 -0.1101
 3897SOL    HW223325   2.403   4.038   0.545 -2.6068 -1.9669  1.4410
 3898SOL     OW23326   0.731   1.238   9.806 -0.3698 -0.4086  0.5376
 3898SOL    HW123327   0.650   1.281   9.834  0.3411 -0.9381  3.4317
 3898SOL    HW223328   0.719   1.228   9.712 -1.3803 -0.7671  0.7122
 3899SOL     OW23329   0.893   0.640   1.207  0.3569  0.4464  0.2765
 3899SOL    HW123330   0.934   0.628   1.293  1.2108  0.4759 -0.1242
 3899SOL    HW223331   0.959   0.690   1.158 -1.0146  0.5393 -1.4833
 3900SOL     OW23332   1.877   2.711   5.051 -0.0895  0.2484  0.6925
 3900SOL    HW123333   1.972   2.722   5.057  0.2131 -0.9520 -1.8593
 3900SOL    HW223334   1.866   2.616   5.042  1.4335  0.2865 -1.5369
 3901SOL     OW23335   3.865   3.715   6.454  0.1626 -0.2311 -0.2289
 3901SOL    HW123336   3.942   3.744   6.504 -0.2724 -0.4573  0.5714
 3901SOL    HW223337   3.857   3.624   6.483 -0.7968  0.5880  2.0532
 3902SOL     OW23338   0.733   3.676   7.992  0.4984  0.5434  0.0359
 3902SOL    HW123339   0.721   3.770   8.005  0.5144  0.8667 -2.3569
 3902SOL    HW223340   0.743   3.645   8.082 -0.5600 -0.5632 -0.2230
 3903SOL     OW23341   1.535   0.579   2.657 -0.0104  0.2863 -0.1392
 3903SOL    HW123342   1.572   0.646   2.715  0.4343  0.0217 -0.1125
 3903SOL    HW223343   1.522   0.626   2.575 -0.4408  0.0554 -0.1994
 3904SOL     OW23344   1.404   1.637   4.280  0.1067 -0.0691  0.6596
 3904SOL    HW123345   1.418   1.722   4.239  0.1405  0.2870  1.3994
 3904SOL    HW223346   1.313   1.622   4.253  1.4403 -0.6826 -3.4448
 3905SOL     OW23347   3.435   2.899   8.118 -0.1046 -0.1383 -0.2244
 3905SOL    HW123348   3.408   2.858   8.200  2.6826  1.1549  1.3622
 3905SOL    HW223349   3.408   2.990   8.130  1.0549  0.6382 -3.4899
 3906SOL     OW23350   3.790   0.844   8.226 -0.4965  0.2974  0.3059
 3906SOL    HW123351   3.725   0.900   8.269 -0.0921  1.4744 -0.6373
 3906SOL    HW223352   3.735   0.769   8.203 -1.4093  0.8340  0.7646
 3907SOL     OW23353   4.219   0.401   0.589  0.3197 -0.2401  0.0064
 3907SOL    HW123354   4.280   0.381   0.660 -0.0776  1.0146  0.6938
 3907SOL    HW223355   4.147   0.435   0.642  1.8882 -0.5556  2.3169
 3908SOL     OW23356   1.209   4.691   3.952  0.2869 -0.2441  0.1182
 3908SOL    HW123357   1.217   4.654   3.864 -0.9854  2.1566 -1.0152
 3908SOL    HW223358   1.299   4.721   3.961  0.2074  0.4165 -1.2691
 3909SOL     OW23359   2.881   1.947  13.004  0.5068  0.2499  0.2915
 3909SOL    HW123360   2.923   1.997  13.074 -0.2675 -0.0500  0.9707
 3909SOL    HW223361   2.833   2.012  12.954  1.0587 -0.1635 -0.7698
 3910SOL     OW23362   1.524   0.640   6.055  0.0184 -0.3268 -0.7125
 3910SOL    HW123363   1.478   0.577   6.000 -0.7279 -1.3419  1.0748
 3910SOL    HW223364   1.481   0.629   6.140 -0.8167 -1.2029 -1.2523
 3911SOL     OW23365   4.320   2.975  17.417  0.0057 -0.2718  0.1467
 3911SOL    HW123366   4.263   3.052  17.418  1.3317  0.7049  0.6627
 3911SOL    HW223367   4.266   2.917  17.471 -2.4860 -0.3480 -2.4201
 3912SOL     OW23368   2.319   2.824  10.673 -0.0828  0.4562  0.3550
 3912SOL    HW123369   2.365   2.808  10.755  2.2881 -0.4214 -1.1378
 3912SOL    HW223370   2.232   2.852  10.700 -1.5421 -1.0551 -2.8299
 3913SOL     OW23371   0.939   3.330  16.953 -0.3252  0.9472 -0.0558
 3913SOL    HW123372   0.929   3.383  17.032 -1.5395 -1.9170  1.7089
 3913SOL    HW223373   0.973   3.388  16.885  2.3602 -0.6025 -0.0194
 3914SOL     OW23374   2.491   0.043   3.326  0.2662 -0.0764 -0.2659
 3914SOL    HW123375   2.486   4.683   3.345 -2.5594 -0.2918 -2.1650
 3914SOL    HW223376   2.446   0.060   3.243 -0.4233  0.4006  0.2035
 3915SOL     OW23377   2.247   0.759   1.581 -0.2724 -0.5077  0.1406
 3915SOL    HW123378   2.190   0.682   1.583 -0.3693 -0.3652  2.4860
 3915SOL    HW223379   2.268   0.773   1.488  0.3989 -2.3067  0.0180
 3916SOL     OW23380   0.139   0.580   0.028  0.6571 -0.4728 -0.1584
 3916SOL    HW123381   0.065   0.556  17.707 -2.2688  2.7719  2.2412
 3916SOL    HW223382   0.205   0.612  17.703 -1.0891  1.1618 -1.2283
 3917SOL     OW23383   2.812   4.654  12.150 -1.2697 -0.0028 -0.1252
 3917SOL    HW123384   2.854   4.725  12.199 -3.1595  1.8989 -1.2364
 3917SOL    HW223385   2.732   4.693  12.116 -0.7761  0.7109 -0.4608
 3918SOL     OW23386   4.498   3.606   0.587  0.4203 -0.4984 -0.5482
 3918SOL    HW123387   4.418   3.566   0.553 -0.3126  0.0320  0.5671
 3918SOL    HW223388   4.466   3.676   0.643  0.5509 -1.1391  0.3194
 3919SOL     OW23389   2.630   1.457   7.765  0.2178 -0.1069  0.1443
 3919SOL    HW123390   2.716   1.436   7.801  1.2271  0.3633 -2.0174
 3919SOL    HW223391   2.644   1.471   7.671 -0.4953  0.7330  0.1655
 3920SOL     OW23392   2.829   3.417  17.115 -0.0974 -0.0764 -0.1277
 3920SOL    HW123393   2.762   3.484  17.105 -0.0900 -0.7598 -4.8785
 3920SOL    HW223394   2.828   3.376  17.028 -0.2425 -0.4334  0.0446
 3921SOL     OW23395   2.576   0.860   6.019  0.4191 -0.1837 -0.1070
 3921SOL    HW123396   2.538   0.925   5.960 -3.0607 -0.3196  1.9732
 3921SOL    HW223397   2.499   0.815   6.053  0.3079 -0.1544 -0.3234
 3922SOL     OW23398   3.632   0.338   0.972 -0.2762  0.5114 -0.1059
 3922SOL    HW123399   3.553   0.302   1.014 -0.0336 -0.3739 -0.4114
 3922SOL    HW223400   3.595   0.409   0.919  2.5320  2.2248  0.2396
 3923SOL     OW23401   3.688   0.849   5.281 -0.0777  0.1036  1.0202
 3923SOL    HW123402   3.723   0.934   5.253  1.4225 -1.2894 -1.3143
 3923SOL    HW223403   3.694   0.796   5.203  1.8016 -0.4487  1.5489
 3924SOL     OW23404   0.073   1.321   4.431  0.5291 -0.5152 -0.0638
 3924SOL    HW123405   0.106   1.308   4.342  1.2639 -3.1345  0.5914
 3924SOL    HW223406   0.150   1.362   4.469  0.6755  0.3512 -1.2900
 3925SOL     OW23407   4.118   0.179   7.737 -0.1729 -0.0963 -0.0196
 3925SOL    HW123408   4.067   0.226   7.671  1.9541  0.0165 -1.5848
 3925SOL    HW223409   4.107   0.236   7.813 -0.3241 -0.2771  0.0930
 3926SOL     OW23410   0.936   1.061   2.365 -0.2758 -0.2232 -0.0813
 3926SOL    HW123411   0.910   1.032   2.278 -0.0712  0.4102 -0.3482
 3926SOL    HW223412   1.006   1.123   2.347  0.1613 -0.2050  1.6230
 3927SOL     OW23413   3.859   3.844   5.360  0.1075  0.0026 -0.4379
 3927SOL    HW123414   3.781   3.803   5.397 -1.1437  2.1148 -0.7487
 3927SOL    HW223415   3.885   3.768   5.309  1.9539  0.3795 -0.0545
 3928SOL     OW23416   0.470   0.718  11.781 -0.1287 -0.0477 -0.2247
 3928SOL    HW123417   0.562   0.740  11.792  0.2808 -1.9311 -0.0221
 3928SOL    HW223418   0.446   0.690  11.870  0.2109  0.1939 -0.0564
 3929SOL     OW23419   4.103   1.794  12.300  0.4206  0.3957  0.0657
 3929SOL    HW123420   4.133   1.743  12.226  0.8384  1.7193 -0.6803
 3929SOL    HW223421   4.131   1.882  12.272  0.3418 -0.1495 -1.7076
 3930SOL     OW23422   4.262   2.486  10.145 -0.4327  0.1549 -0.1521
 3930SOL    HW123423   4.205   2.552  10.184 -0.1372  0.5903 -0.4653
 3930SOL    HW223424   4.197   2.431  10.101  1.6870 -1.6218 -1.0691
 3931SOL     OW23425   3.871   1.777   1.820 -0.9008 -0.0265  0.2617
 3931SOL    HW123426   3.902   1.724   1.893 -0.7879 -0.1042  0.1580
 3931SOL    HW223427   3.794   1.827   1.844 -0.5306  1.6648 -1.9946
 3932SOL     OW23428   0.566   0.170   8.843  0.5229 -0.5001  0.3010
 3932SOL    HW123429   0.635   0.232   8.868 -0.5036  0.3736  0.9654
 3932SOL    HW223430   0.487   0.225   8.839  2.3785  2.1411 -0.2559
 3933SOL     OW23431   3.190   3.737   6.871  0.5097 -0.6788 -0.0166
 3933SOL    HW123432   3.135   3.803   6.914 -2.4089 -1.2581 -2.8029
 3933SOL    HW223433   3.198   3.675   6.943  0.1657  0.7983  1.2889
 3934SOL     OW23434   1.148   3.228   7.621 -0.2637  0.3295  0.0188
 3934SOL    HW123435   1.142   3.137   7.648 -2.2457  0.1556 -1.0217
 3934SOL    HW223436   1.237   3.252   7.647  0.0657  0.0700 -0.8662
 3935SOL     OW23437   2.318   1.437   8.107 -0.0832 -0.3375 -0.4527
 3935SOL    HW123438   2.296   1.497   8.036  0.6172 -0.5815 -0.8830
 3935SOL    HW223439   2.408   1.466   8.124 -0.0921 -2.0476  2.4025
 3936SOL     OW23440   1.865   4.619   5.518  0.3711 -0.7062 -0.4930
 3936SOL    HW123441   1.821   4.610   5.602  1.3233 -2.5265 -0.1802
 3936SOL    HW223442   1.851   4.712   5.498  1.1973 -0.0488  2.0720
 3937SOL     OW23443   4.658   1.011   6.883  0.2685  0.1491 -0.0286
 3937SOL    HW123444   4.574   1.028   6.925  0.5419 -0.8247  0.9127
 3937SOL    HW223445   4.684   1.100   6.859  1.4627  0.0764  1.0190
 3938SOL     OW23446   1.000   4.399   1.815  0.2786 -0.0123 -0.0161
 3938SOL    HW123447   1.028   4.485   1.783 -0.5033  0.4996  0.6904
 3938SOL    HW223448   1.041   4.393   1.902  0.4166  1.6207  0.0324
 3939SOL     OW23449   1.028   3.989  13.794  0.1741 -0.2308 -0.4657
 3939SOL    HW123450   1.066   4.041  13.724  0.4419  0.4919  0.2262
 3939SOL    HW223451   0.944   3.962  13.757 -0.1251  0.6723 -0.4392
 3940SOL     OW23452   3.563   2.264   1.472  0.1895  0.3093 -0.2857
 3940SOL    HW123453   3.602   2.185   1.510  1.7858  1.1753 -0.1489
 3940SOL    HW223454   3.519   2.294   1.551  0.9886 -0.8547  0.5993
 3941SOL     OW23455   4.357   2.052  13.652 -0.2599 -0.6963  0.9044
 3941SOL    HW123456   4.378   2.146  13.647 -0.0574 -0.7325  1.0938
 3941SOL    HW223457   4.446   2.020  13.667  0.7798  1.7454 -0.0689
 3942SOL     OW23458   3.139   1.222  17.184  0.2326  0.7091  0.2147
 3942SOL    HW123459   3.081   1.263  17.248 -1.0202 -0.6354 -0.0827
 3942SOL    HW223460   3.228   1.257  17.195 -0.9252  4.6901 -2.9428
 3943SOL     OW23461   4.401   0.198   8.543 -0.1579  0.0956  0.5953
 3943SOL    HW123462   4.465   0.253   8.496  0.0406  1.1042  2.0408
 3943SOL    HW223463   4.465   0.128   8.552  0.5064  0.4736 -1.0707
 3944SOL     OW23464   0.156   2.143   2.495  0.0990 -0.0209 -0.5458
 3944SOL    HW123465   0.244   2.152   2.459 -0.0523  1.7985 -0.4668
 3944SOL    HW223466   0.122   2.231   2.475  0.5882  0.5551  1.2270
 3945SOL     OW23467   0.405   3.946   2.679  0.1742  0.3906 -0.3295
 3945SOL    HW123468   0.446   4.001   2.611  0.2150 -1.9132 -2.1429
 3945SOL    HW223469   0.437   3.982   2.762  0.6119  0.1654 -0.4000
 3946SOL     OW23470   1.260   3.099   3.883  0.6087 -0.2015  0.5314
 3946SOL    HW123471   1.231   3.123   3.972  1.3112 -1.5282  1.1141
 3946SOL    HW223472   1.239   3.006   3.875  0.6379 -0.1920  0.3507
 3947SOL     OW23473   1.431   0.002  14.137  0.2226  0.5747  0.1847
 3947SOL    HW123474   1.370   4.671  14.102  1.2073 -0.0290 -0.4098
 3947SOL    HW223475   1.398   4.733  14.227 -0.9345  1.4483 -0.2096
 3948SOL     OW23476   4.105   1.772   2.202 -0.2882  0.7240  0.1079
 3948SOL    HW123477   4.065   1.789   2.287  0.9980 -0.5674  0.9627
 3948SOL    HW223478   4.042   1.712   2.162 -0.1898  2.1742 -2.2076
 3949SOL     OW23479   3.995   0.946   6.074 -0.5320 -0.6310 -0.0230
 3949SOL    HW123480   4.052   0.945   5.997  1.7865 -1.1394  1.7327
 3949SOL    HW223481   3.920   0.996   6.041 -1.3887  0.2634  3.2661
 3950SOL     OW23482   0.873   1.092   8.642  0.0391 -0.3929  0.0102
 3950SOL    HW123483   0.787   1.126   8.618 -1.1606 -1.6066  2.5422
 3950SOL    HW223484   0.857   1.062   8.732 -2.2458  0.1141 -0.2172
 3951SOL     OW23485   4.162   0.545   1.720  0.3677  0.2965 -0.2429
 3951SOL    HW123486   4.086   0.489   1.700  0.3250 -0.1377  1.1818
 3951SOL    HW223487   4.157   0.541   1.815  0.6000  1.5872 -0.1752
 3952SOL     OW23488   3.503   3.429   4.439  0.4891  0.3681 -0.1491
 3952SOL    HW123489   3.526   3.364   4.373  1.2893 -0.9935  1.4574
 3952SOL    HW223490   3.410   3.414   4.420  0.6647 -0.1926 -0.5509
 3953SOL     OW23491   2.362   2.007  13.574 -0.3562  0.6067 -0.0872
 3953SOL    HW123492   2.370   1.964  13.659  1.7270  1.1572 -0.0074
 3953SOL    HW223493   2.282   1.968  13.539  0.2518  0.0872 -0.8698
 3954SOL     OW23494   4.195   1.941   9.254 -0.8436 -0.0705 -0.1920
 3954SOL    HW123495   4.214   1.984   9.171 -1.5559  1.1040  0.2570
 3954SOL    HW223496   4.100   1.934   9.242 -0.6616 -1.9115 -0.6736
 3955SOL     OW23497   2.640   3.368   2.193  0.2833  0.4034 -0.0809
 3955SOL    HW123498   2.590   3.287   2.192  1.8160 -0.5089 -1.6026
 3955SOL    HW223499   2.641   3.380   2.098  1.6433  0.1958 -0.0836
 3956SOL     OW23500   0.618   4.237   4.891  0.8731  0.0352  0.1395
 3956SOL    HW123501   0.705   4.275   4.887  0.6471  0.5693  0.2919
 3956SOL    HW223502   0.609   4.256   4.985  1.5576  1.9604 -0.1943
 3957SOL     OW23503   3.350   2.984   9.576 -0.2804  0.0420 -0.3903
 3957SOL    HW123504   3.378   3.039   9.650 -1.0732 -0.9528  0.6511
 3957SOL    HW223505   3.273   2.935   9.604  0.3883 -0.0204  1.3367
 3958SOL     OW23506   1.107   3.686   5.806  0.2475 -0.0351  0.2371
 3958SOL    HW123507   1.098   3.741   5.884  0.9073 -0.6478  0.7441
 3958SOL    HW223508   1.137   3.749   5.741  1.3645 -0.9079 -0.0868
 3959SOL     OW23509   2.463   0.324   3.627  0.1909 -0.5681  0.1118
 3959SOL    HW123510   2.538   0.286   3.581  0.8560 -1.0098  1.5532
 3959SOL    HW223511   2.425   0.240   3.655  1.0632 -1.1099 -0.3520
 3960SOL     OW23512   3.202   1.758   6.781 -0.6022 -0.1570  0.0577
 3960SOL    HW123513   3.158   1.737   6.699 -1.4418  0.8401  0.2553
 3960SOL    HW223514   3.213   1.671   6.818  1.6722  0.3095  0.4951
 3961SOL     OW23515   2.592   1.353  11.911  0.0032 -0.2593  0.1387
 3961SOL    HW123516   2.628   1.437  11.882 -0.0566 -0.3679 -0.2495
 3961SOL    HW223517   2.509   1.373  11.955  0.4876  0.0896  0.8947
 3962SOL     OW23518   3.442   0.232  15.758  0.0102 -0.9565 -0.6117
 3962SOL    HW123519   3.435   0.310  15.703 -2.2120 -1.1358 -0.5937
 3962SOL    HW223520   3.537   0.218  15.756 -0.0986 -1.5738 -1.3287
 3963SOL     OW23521   2.671   0.661   4.630 -0.3657 -0.3410  0.0448
 3963SOL    HW123522   2.590   0.625   4.593 -0.7482  1.2487 -0.6824
 3963SOL    HW223523   2.734   0.589   4.628 -1.3661 -1.1787 -1.3166
 3964SOL     OW23524   0.258   3.961   3.741 -0.5481 -0.1924 -0.2108
 3964SOL    HW123525   0.340   3.976   3.789 -0.8628 -0.4233  0.4004
 3964SOL    HW223526   0.199   3.985   3.813 -1.9535 -1.4735 -0.9407
 3965SOL     OW23527   3.223   3.299   6.545 -0.3071  0.1827 -0.1820
 3965SOL    HW123528   3.129   3.286   6.547 -0.3654  0.6226  0.1073
 3965SOL    HW223529   3.236   3.394   6.557  3.9598 -0.7502  2.5480
 3966SOL     OW23530   1.528   3.666   3.624  0.2958 -0.2682  0.2596
 3966SOL    HW123531   1.571   3.635   3.704  1.0502  3.4958  1.3114
 3966SOL    HW223532   1.602   3.650   3.565  0.3567  0.3731  0.1681
 3967SOL     OW23533   1.779   0.351  10.739 -0.3070  0.2594 -0.1975
 3967SOL    HW123534   1.799   0.389  10.654 -0.4428  1.1654  0.1727
 3967SOL    HW223535   1.732   0.426  10.778  2.6896  3.2973 -2.4727
 3968SOL     OW23536   0.816   4.017   3.792  0.1879 -0.4087 -0.5669
 3968SOL    HW123537   0.863   3.987   3.713  0.3999  0.9354 -0.9494
 3968SOL    HW223538   0.799   4.109   3.773 -0.2504 -0.5938 -1.0782
 3969SOL     OW23539   2.208   2.810   4.220 -0.0822  0.3146  0.2247
 3969SOL    HW123540   2.114   2.798   4.208  0.0551 -2.2662  1.7034
 3969SOL    HW223541   2.239   2.896   4.193 -1.1063  0.9880  1.2082
 3970SOL     OW23542   4.634   3.985   7.320  0.8222 -0.5415 -0.3088
 3970SOL    HW123543   4.557   4.040   7.306  0.3471 -1.2950 -0.6669
 3970SOL    HW223544   4.610   3.895   7.296  1.4380 -1.2909  1.9616
 3971SOL     OW23545   3.641   3.607   8.565  0.0919  0.1415  0.2544
 3971SOL    HW123546   3.596   3.526   8.591  1.6655 -1.3191 -1.5537
 3971SOL    HW223547   3.684   3.627   8.648  1.5348  3.3187 -1.2903
 3972SOL     OW23548   2.106   0.995   4.266  0.3262 -0.1541  0.0289
 3972SOL    HW123549   2.066   1.000   4.352  1.3084 -1.7932  0.5868
 3972SOL    HW223550   2.055   1.059   4.216 -1.6996  0.1336  2.5174
 3973SOL     OW23551   2.407   1.748  10.412 -0.2225 -0.0239  0.3176
 3973SOL    HW123552   2.363   1.664  10.401 -0.3644  0.1363 -0.3367
 3973SOL    HW223553   2.349   1.801  10.356  2.0522  1.2194 -0.8415
 3974SOL     OW23554   4.089   2.931   8.428 -0.6138  0.7022  0.0371
 3974SOL    HW123555   4.074   3.014   8.472  0.0694  0.1174  1.3566
 3974SOL    HW223556   4.032   2.940   8.352 -0.0478  0.4449 -0.4230
 3975SOL     OW23557   4.174   1.098  12.354 -0.1655 -0.1713  0.2718
 3975SOL    HW123558   4.129   1.105  12.438 -1.8002  0.2576 -0.6223
 3975SOL    HW223559   4.097   1.081  12.298  0.4154  0.2504 -0.6517
 3976SOL     OW23560   0.678   4.393   7.609  0.1564  0.2888 -0.1115
 3976SOL    HW123561   0.702   4.478   7.574 -2.1814 -0.2275 -2.9740
 3976SOL    HW223562   0.587   4.393   7.578  0.7271  0.5901 -1.7560
 3977SOL     OW23563   3.491   0.972  14.628 -0.1654 -0.3947  0.1059
 3977SOL    HW123564   3.417   1.015  14.671  1.2518  1.3667  0.7741
 3977SOL    HW223565   3.470   0.880  14.644 -0.1856 -0.4736 -0.3623
 3978SOL     OW23566   0.915   4.726  10.335 -0.1623 -0.7161 -0.8607
 3978SOL    HW123567   0.853   4.693  10.400 -0.5224  1.8284  0.1156
 3978SOL    HW223568   0.888   4.683  10.254 -0.3169 -1.9360 -0.1607
 3979SOL     OW23569   3.199   2.550   3.595  1.0931 -0.0809  0.3610
 3979SOL    HW123570   3.254   2.557   3.672 -2.5937 -0.9492  3.0928
 3979SOL    HW223571   3.255   2.494   3.540  0.8830  0.0153  0.0458
 3980SOL     OW23572   4.701   3.645   8.762  0.2784  0.3383 -0.0224
 3980SOL    HW123573   4.643   3.707   8.718 -0.1666  0.6844  1.0458
 3980SOL    HW223574   0.054   3.678   8.743 -0.4103  1.4065 -1.2776
 3981SOL     OW23575   4.009   2.772   5.252 -0.0370 -0.2519 -0.6345
 3981SOL    HW123576   3.936   2.834   5.256  0.1599 -0.1431  1.3069
 3981SOL    HW223577   4.017   2.760   5.347 -0.7860 -0.7489 -0.6314
 3982SOL     OW23578   3.951   1.579   6.856  0.5126  0.4374  0.0718
 3982SOL    HW123579   3.919   1.582   6.946  0.8536 -2.3089  0.2690
 3982SOL    HW223580   4.012   1.507   6.871 -1.4752 -1.2039  0.0800
 3983SOL     OW23581   3.500   2.962  11.152  0.1443  0.8207 -0.8153
 3983SOL    HW123582   3.581   2.983  11.198 -0.0164 -1.3543  0.4341
 3983SOL    HW223583   3.456   2.917  11.224  0.5550  1.2332 -0.3008
 3984SOL     OW23584   4.164   3.960  16.191  0.1986  0.4313  0.1842
 3984SOL    HW123585   4.146   4.044  16.148  1.1589  1.7920  2.4921
 3984SOL    HW223586   4.253   3.979  16.221  1.3034 -0.2661 -2.6103
 3985SOL     OW23587   3.522   2.484  16.267 -0.1224 -0.6271 -0.4387
 3985SOL    HW123588   3.553   2.562  16.312  0.1011 -1.8580  1.5680
 3985SOL    HW223589   3.526   2.419  16.337  0.4159  0.6912  0.7541
 3986SOL     OW23590   3.997   3.512   8.014 -0.2852  0.4566 -0.5654
 3986SOL    HW123591   4.014   3.444   8.078  0.2056  1.3847  0.2901
 3986SOL    HW223592   3.944   3.579   8.058 -0.1910  0.7724 -0.9265
 3987SOL     OW23593   3.358   1.815   2.887  0.0924  0.4315  0.0674
 3987SOL    HW123594   3.304   1.764   2.827  0.0592 -0.3307  0.7543
 3987SOL    HW223595   3.445   1.775   2.881 -1.0712 -1.8564 -1.1858
 3988SOL     OW23596   1.437   1.428   5.178  0.8837  0.0588  0.0432
 3988SOL    HW123597   1.488   1.427   5.097  0.7539 -1.1967 -0.0225
 3988SOL    HW223598   1.355   1.391   5.145  1.1466  1.4692 -2.1643
 3989SOL     OW23599   2.095   0.910   6.057 -0.0306  0.4844  0.0392
 3989SOL    HW123600   2.001   0.921   6.070 -0.2312 -0.0823 -0.9550
 3989SOL    HW223601   2.112   0.884   6.148  0.6194 -1.1290 -0.5351
 3990SOL     OW23602   1.998   4.355   1.395 -0.3382 -0.0110  0.0245
 3990SOL    HW123603   1.994   4.349   1.491  0.8587 -0.2838  0.0594
 3990SOL    HW223604   2.061   4.284   1.386 -1.7105 -1.0177 -1.4018
 3991SOL     OW23605   2.102   1.247   3.163 -0.3579  0.7329  0.2400
 3991SOL    HW123606   2.188   1.285   3.177 -0.1678 -1.0744  3.9517
 3991SOL    HW223607   2.114   1.177   3.099 -0.2993  0.6483  0.3430
 3992SOL     OW23608   1.327   1.764   5.111  0.1683 -0.1193 -0.2874
 3992SOL    HW123609   1.245   1.809   5.127 -0.6287 -0.6713 -2.7662
 3992SOL    HW223610   1.316   1.717   5.028  1.3610  1.0565 -1.1092
 3993SOL     OW23611   4.685   3.375   6.429  0.3318  0.0264  0.0157
 3993SOL    HW123612   4.729   3.298   6.392 -0.7161  1.0643 -3.4450
 3993SOL    HW223613   4.723   3.442   6.372  1.1746  1.6764  2.5620
 3994SOL     OW23614   0.596   3.545   2.145 -0.0928  0.1096  0.3967
 3994SOL    HW123615   0.550   3.533   2.228  0.1517  0.9598  0.6497
 3994SOL    HW223616   0.667   3.481   2.154 -0.2080  0.0382  0.8322
 3995SOL     OW23617   4.229   2.781  10.679 -0.3987  0.3563  0.5630
 3995SOL    HW123618   4.297   2.848  10.686  0.4192 -0.5614  1.4386
 3995SOL    HW223619   4.241   2.743  10.591 -0.2169  0.1139  0.6934
 3996SOL     OW23620   2.559   1.718   6.452 -0.3876 -0.1958  0.4322
 3996SOL    HW123621   2.530   1.700   6.541  0.6921 -0.6727  0.6907
 3996SOL    HW223622   2.637   1.663   6.445 -2.0407 -2.5087  0.2950
 3997SOL     OW23623   1.471   4.631   2.581  0.5595  0.0997 -0.6488
 3997SOL    HW123624   1.542   4.607   2.522  0.3331  1.3637 -1.4533
 3997SOL    HW223625   1.447   4.545   2.614  0.0474  0.4410 -0.1223
 3998SOL     OW23626   1.825   2.026  16.845 -0.3841 -0.1663  0.1138
 3998SOL    HW123627   1.875   1.950  16.876 -0.2575  0.9672  2.6097
 3998SOL    HW223628   1.896   2.090  16.838  0.0569 -0.3805  2.6633
 3999SOL     OW23629   2.053   1.308   7.572  0.2298  0.3552 -0.0440
 3999SOL    HW123630   2.011   1.226   7.599 -1.1753  1.5348  1.3450
 3999SOL    HW223631   2.141   1.281   7.543  0.1641 -2.9652  2.7982
 4000SOL     OW23632   1.780   4.294   6.045 -0.2646 -0.0951  0.8084
 4000SOL    HW123633   1.710   4.337   5.995 -0.5285  0.8345  1.9643
 4000SOL    HW223634   1.771   4.344   6.126  1.4325  1.1207  0.2480
 4001SOL     OW23635   1.883   4.066   5.907  0.0033 -0.2192 -0.1542
 4001SOL    HW123636   1.852   4.148   5.946 -0.6469 -1.2105  1.3665
 4001SOL    HW223637   1.955   4.083   5.846  0.1017  1.2753  0.3666
 4002SOL     OW23638   1.898   3.033  14.087 -0.4735 -0.6575  0.1615
 4002SOL    HW123639   1.848   2.957  14.115  0.5592 -0.7164  1.8235
 4002SOL    HW223640   1.978   3.018  14.137  0.4388 -0.2166 -1.1387
 4003SOL     OW23641   4.231   1.067   6.205  0.1115 -0.4777 -0.0606
 4003SOL    HW123642   4.144   1.030   6.194 -0.5498  0.7191  1.0730
 4003SOL    HW223643   4.222   1.143   6.263  1.8150 -0.1628 -0.1925
 4004SOL     OW23644   2.426   1.656  14.019 -0.0586 -0.1272 -0.1738
 4004SOL    HW123645   2.365   1.700  14.078  0.9740  1.1529 -0.0667
 4004SOL    HW223646   2.384   1.653  13.933  1.3772  2.4689 -0.9649
 4005SOL     OW23647   1.831   1.288   5.442  0.8204  0.0755  0.4694
 4005SOL    HW123648   1.737   1.302   5.432  1.2130  0.1675 -3.1779
 4005SOL    HW223649   1.839   1.216   5.505  0.7869  0.1458  0.5537
 4006SOL     OW23650   2.570   4.327  16.226  0.3708  0.2072 -0.3955
 4006SOL    HW123651   2.545   4.409  16.268  1.7568 -0.9349  2.6481
 4006SOL    HW223652   2.638   4.308  16.290  0.7322  0.2921 -0.7514
 4007SOL     OW23653   1.080   0.973   2.585 -0.2206  0.2549 -0.9568
 4007SOL    HW123654   1.041   0.928   2.660  0.8266  0.0973 -0.4989
 4007SOL    HW223655   1.004   0.995   2.532 -1.6685 -2.6195 -0.0849
 4008SOL     OW23656   0.600   1.287   6.563  0.3406 -0.1537 -0.1929
 4008SOL    HW123657   0.507   1.308   6.560  0.4976  0.7985  1.8514
 4008SOL    HW223658   0.639   1.357   6.511 -1.9683  0.4895 -1.0582
 4009SOL     OW23659   4.409   3.052   6.584 -0.4768  0.3228 -0.1779
 4009SOL    HW123660   4.374   3.075   6.670  1.9162  1.4074  0.5056
 4009SOL    HW223661   4.408   2.956   6.585 -1.0577  0.3130 -1.1119
 4010SOL     OW23662   0.747   4.200  14.199 -0.0941  0.5069  0.3405
 4010SOL    HW123663   0.681   4.269  14.196  0.2089  0.8324  1.5112
 4010SOL    HW223664   0.757   4.171  14.108  0.0784  2.6909 -0.3369
 4011SOL     OW23665   1.913   4.252  11.037  0.5277 -0.2599 -0.2945
 4011SOL    HW123666   1.901   4.303  10.957 -2.2944 -0.0272  0.2544
 4011SOL    HW223667   2.008   4.258  11.038  0.4727  0.3181  0.8453
 4012SOL     OW23668   3.329   3.446   6.013  0.1196 -0.4307 -0.0639
 4012SOL    HW123669   3.244   3.454   6.057  1.8769  0.1934  3.2646
 4012SOL    HW223670   3.325   3.353   5.991  0.1571 -0.8545  1.6796
 4013SOL     OW23671   2.206   1.824  15.244  0.3088 -0.0142 -0.1230
 4013SOL    HW123672   2.258   1.749  15.216  0.4963  0.4560 -1.0483
 4013SOL    HW223673   2.233   1.885  15.175  1.1956 -0.1865  0.0852
 4014SOL     OW23674   2.257   4.351   7.536  0.3330  0.1544 -0.2578
 4014SOL    HW123675   2.313   4.428   7.538 -2.2728  1.9884  2.1297
 4014SOL    HW223676   2.194   4.390   7.596  0.8828  0.9910 -0.2251
 4015SOL     OW23677   2.096   3.550   3.708  0.2006  0.8294 -0.0502
 4015SOL    HW123678   2.146   3.629   3.690 -0.9090  1.3499 -0.8271
 4015SOL    HW223679   2.103   3.511   3.620 -1.0227 -1.5048  0.8781
 4016SOL     OW23680   2.207   1.076   9.617 -0.4422  0.1179  0.0832
 4016SOL    HW123681   2.261   1.081   9.696  0.7725  2.6638 -0.8824
 4016SOL    HW223682   2.133   1.025   9.650  0.9825 -1.9862 -0.0301
 4017SOL     OW23683   3.359   3.165   8.153  0.5771 -0.0716  0.0065
 4017SOL    HW123684   3.374   3.222   8.078  1.0438  1.5625  1.3554
 4017SOL    HW223685   3.342   3.230   8.221  0.0207  0.0619 -0.2580
 4018SOL     OW23686   1.505   2.253   6.441  0.3833  0.3065  0.1660
 4018SOL    HW123687   1.544   2.335   6.413  0.8972  0.1526  0.4173
 4018SOL    HW223688   1.588   2.205   6.452  0.7777  0.6947 -1.1006
 4019SOL     OW23689   1.476   0.900   2.629 -0.5618  0.6843 -0.4591
 4019SOL    HW123690   1.396   0.849   2.640 -0.8296  1.3559  0.6943
 4019SOL    HW223691   1.458   0.943   2.545 -1.8378  0.4757 -0.2989
 4020SOL     OW23692   2.383   4.662   7.815 -0.0723  0.4334 -0.1574
 4020SOL    HW123693   2.466   4.667   7.862  0.4003 -2.9663 -0.6259
 4020SOL    HW223694   2.316   4.630   7.876  2.1728 -0.3122  1.8888
 4021SOL     OW23695   4.486   2.506  10.968 -0.4476 -0.1488 -0.3642
 4021SOL    HW123696   4.465   2.419  11.002 -3.6529 -0.0037 -1.9553
 4021SOL    HW223697   4.501   2.483  10.876 -1.3693  0.2342 -0.6093
 4022SOL     OW23698   2.414   3.224   3.968 -0.2520 -0.6170 -0.2547
 4022SOL    HW123699   2.346   3.288   3.948 -0.2195 -1.6495 -3.7781
 4022SOL    HW223700   2.463   3.272   4.035 -2.0599  1.3888 -0.3455
 4023SOL     OW23701   4.588   0.926   3.961 -0.1851  0.3703  0.0867
 4023SOL    HW123702   4.562   0.834   3.957  2.2821 -0.3859  1.9688
 4023SOL    HW223703   4.681   0.915   3.976 -0.7090 -0.7534  2.4534
 4024SOL     OW23704   1.390   3.429  13.144  0.4102  0.2067 -0.2972
 4024SOL    HW123705   1.306   3.470  13.123 -0.3450  0.3851  3.0278
 4024SOL    HW223706   1.382   3.424  13.240  0.4888 -0.7199 -0.3340
 4025SOL     OW23707   0.463   1.140  15.062  0.4396 -0.6955  0.1245
 4025SOL    HW123708   0.525   1.084  15.109  1.8661 -1.3944 -2.5825
 4025SOL    HW223709   0.470   1.112  14.971  1.8123  1.6639 -0.4992
 4026SOL     OW23710   3.740   1.070   3.506 -0.1061  0.1143 -0.5358
 4026SOL    HW123711   3.739   1.162   3.532 -1.7390 -0.4083  1.2204
 4026SOL    HW223712   3.727   1.071   3.411  1.6511  0.3783 -0.7730
 4027SOL     OW23713   0.956   2.724  14.333 -0.4972 -0.0029 -0.2793
 4027SOL    HW123714   0.871   2.757  14.363 -0.2776  0.2522  0.0667
 4027SOL    HW223715   0.924   2.679  14.255  0.0594  0.3485 -0.7065
 4028SOL     OW23716   3.512   0.885  12.030  0.6075  0.1976  0.1202
 4028SOL    HW123717   3.500   0.954  11.965 -3.0723  0.7806  1.4124
 4028SOL    HW223718   3.563   0.823  11.977 -1.8680 -0.8594 -1.0581
 4029SOL     OW23719   4.306   4.122   3.935 -0.7754 -0.6556 -0.3741
 4029SOL    HW123720   4.381   4.065   3.952 -0.0163  0.3809 -0.2460
 4029SOL    HW223721   4.244   4.054   3.961 -0.0978 -1.2773 -0.4063
 4030SOL     OW23722   4.096   2.461  12.881  0.0055  0.2530  0.5998
 4030SOL    HW123723   4.043   2.443  12.803  1.6775 -0.2024 -0.4423
 4030SOL    HW223724   4.168   2.513  12.844  1.3595 -1.6487  0.5746
 4031SOL     OW23725   4.204   2.090   2.870 -0.1463 -0.6794 -0.5374
 4031SOL    HW123726   4.252   2.103   2.788 -0.9662  3.5590 -0.3454
 4031SOL    HW223727   4.276   2.070   2.929  1.1547 -0.2369 -1.9765
 4032SOL     OW23728   4.065   2.017   1.771  0.5530  0.7187  0.0361
 4032SOL    HW123729   3.987   2.063   1.801 -1.4637 -3.1586  0.7754
 4032SOL    HW223730   4.023   1.942   1.731 -0.9495  1.7438 -0.2951
 4033SOL     OW23731   2.904   1.608   0.148  0.1114  0.8570  0.0568
 4033SOL    HW123732   2.858   1.691   0.138 -0.0428  0.8514  0.7645
 4033SOL    HW223733   2.996   1.632   0.138 -0.0280  0.6380 -1.7787
 4034SOL     OW23734   2.488   0.716  15.730  0.3133 -0.1140 -0.4309
 4034SOL    HW123735   2.459   0.675  15.812  0.0190  3.8915  1.4802
 4034SOL    HW223736   2.514   0.803  15.762  0.5672 -0.2620 -0.2296
 4035SOL     OW23737   1.775   4.610   3.972  0.4709  0.4542 -0.4284
 4035SOL    HW123738   1.758   4.603   3.878  0.9691  0.2677 -0.5075
 4035SOL    HW223739   1.762   4.704   3.980 -0.2227  0.3802 -0.6938
 4036SOL     OW23740   2.734   2.382   2.252  0.0554  0.3043  0.2602
 4036SOL    HW123741   2.814   2.387   2.305 -1.1593  1.1230  2.0182
 4036SOL    HW223742   2.662   2.415   2.306 -0.0372  0.5344 -0.0060
 4037SOL     OW23743   2.288   1.733   8.279 -0.4827  0.1061  0.5714
 4037SOL    HW123744   2.229   1.792   8.325  1.5534  1.8173  0.9591
 4037SOL    HW223745   2.261   1.644   8.304 -2.8005  0.0621 -2.0834
 4038SOL     OW23746   4.059   0.063   6.004 -0.1190  0.3859  0.1275
 4038SOL    HW123747   4.102   0.118   5.939  1.8199 -1.6454 -0.3350
 4038SOL    HW223748   4.107   0.096   6.080  0.2464 -0.5464  0.3034
 4039SOL     OW23749   2.018   1.043   4.932 -0.3239 -0.1044  0.0656
 4039SOL    HW123750   2.062   1.116   4.891 -2.0831 -0.0817 -1.7912
 4039SOL    HW223751   2.053   1.066   5.018  1.6488 -0.9556 -0.5216
 4040SOL     OW23752   1.803   4.388   1.188 -0.7480  0.1922  0.0588
 4040SOL    HW123753   1.879   4.408   1.242 -0.8951 -0.6851  0.6070
 4040SOL    HW223754   1.809   4.293   1.178 -1.3003  0.0012  1.4037
 4041SOL     OW23755   2.101   3.688  15.722  0.0567  0.0176  0.1165
 4041SOL    HW123756   2.088   3.594  15.719  0.4223 -0.1197  2.6005
 4041SOL    HW223757   2.013   3.725  15.735 -1.0995 -2.6168 -0.2840
 4042SOL     OW23758   1.468   1.476  11.928  0.0551  0.2039 -0.1683
 4042SOL    HW123759   1.492   1.453  12.018 -0.6734 -2.9325 -0.7755
 4042SOL    HW223760   1.386   1.429  11.943  1.6885 -2.9754 -1.2794
 4043SOL     OW23761   2.152   0.443   7.781 -0.3433 -0.9101  0.0662
 4043SOL    HW123762   2.086   0.454   7.849 -1.4490 -0.8308 -1.0150
 4043SOL    HW223763   2.201   0.371   7.821  0.9005  1.5780  2.9840
 4044SOL     OW23764   0.012   0.327  10.602 -0.2561  0.8863 -0.4672
 4044SOL    HW123765   0.097   0.371  10.596 -0.6012  1.8477  1.4992
 4044SOL    HW223766   4.710   0.383  10.671  1.1111  0.0230  0.9567
 4045SOL     OW23767   2.745   3.631   3.921  1.1668  0.1074  0.7847
 4045SOL    HW123768   2.836   3.613   3.944  1.1576 -0.7865  0.1356
 4045SOL    HW223769   2.759   3.689   3.846 -0.6164 -1.4963 -0.8054
 4046SOL     OW23770   2.998   3.073   7.463  0.1286 -0.9444 -0.0017
 4046SOL    HW123771   2.906   3.071   7.490  1.5212 -0.0598  4.8590
 4046SOL    HW223772   3.013   3.167   7.456 -0.9972 -0.8777 -1.6666
 4047SOL     OW23773   1.320   4.322   0.169 -0.2714 -0.7306  0.4579
 4047SOL    HW123774   1.307   4.396   0.109  0.2008 -0.5438  0.5826
 4047SOL    HW223775   1.372   4.363   0.238  0.7821 -2.6780  0.8096
 4048SOL     OW23776   3.094   3.317   7.468  0.2116  0.6980  0.3618
 4048SOL    HW123777   3.076   3.409   7.446  1.4819  0.5127 -1.4526
 4048SOL    HW223778   3.167   3.303   7.408 -0.7366 -0.9534 -0.4063
 4049SOL     OW23779   1.270   1.740   7.165 -0.3112 -0.1076  0.0222
 4049SOL    HW123780   1.301   1.755   7.254  0.9125  2.0777 -0.7525
 4049SOL    HW223781   1.346   1.728   7.108  1.4773 -1.0909  2.6224
 4050SOL     OW23782   1.719   4.252   5.477 -0.5336  0.0828 -0.4385
 4050SOL    HW123783   1.764   4.253   5.562 -1.2584  1.9282 -0.0829
 4050SOL    HW223784   1.755   4.175   5.433 -1.5630 -0.4394 -0.3697
 4051SOL     OW23785   0.757   1.454  10.831 -0.3951 -0.1112 -0.4903
 4051SOL    HW123786   0.684   1.433  10.773 -0.6544  2.5523 -1.1503
 4051SOL    HW223787   0.815   1.379  10.817 -0.0410  0.5034 -2.4423
 4052SOL     OW23788   3.947   2.296  16.904  0.0509 -0.0385 -0.2735
 4052SOL    HW123789   3.904   2.378  16.880 -0.4152  0.0566  0.8670
 4052SOL    HW223790   3.936   2.241  16.827  2.6826  0.5640 -1.0777
 4053SOL     OW23791   4.593   3.396   3.729  0.0874 -0.1674  0.5668
 4053SOL    HW123792   4.592   3.386   3.825 -0.3431 -0.3133  0.5503
 4053SOL    HW223793   4.531   3.469   3.720  0.8991  0.4700  0.1847
 4054SOL     OW23794   4.476   3.743   1.311 -0.1600  0.2823  0.4892
 4054SOL    HW123795   4.552   3.693   1.285 -0.5773  0.5558 -1.2537
 4054SOL    HW223796   4.504   3.828   1.276 -1.9490  1.5049  1.9781
 4055SOL     OW23797   3.601   2.793  15.648 -0.3405 -0.2134 -0.1171
 4055SOL    HW123798   3.660   2.722  15.672 -1.2739 -1.1732 -0.6277
 4055SOL    HW223799   3.661   2.842  15.592 -2.7330  0.9852 -1.6569
 4056SOL     OW23800   0.457   3.869   1.882  0.2846  0.2122  0.1485
 4056SOL    HW123801   0.465   3.938   1.816  2.5691  0.1302  0.3599
 4056SOL    HW223802   0.373   3.892   1.923  0.2285  1.3033 -0.5978
 4057SOL     OW23803   2.678   1.115   1.695  0.3456  0.1247  0.7478
 4057SOL    HW123804   2.734   1.065   1.636  0.2806 -0.1457  0.9170
 4057SOL    HW223805   2.593   1.124   1.651  0.8988 -1.0325 -0.5301
 4058SOL     OW23806   1.768   2.717  13.130  0.2939 -0.5238 -0.3209
 4058SOL    HW123807   1.801   2.799  13.092 -2.3205  1.2389  1.2097
 4058SOL    HW223808   1.770   2.745  13.221 -0.4587  0.6338 -0.6483
 4059SOL     OW23809   4.721   4.480   2.782  0.8176  0.0915  0.6921
 4059SOL    HW123810   4.639   4.455   2.741  0.6295 -0.9184  1.6877
 4059SOL    HW223811   0.048   4.447   2.716  0.6728 -0.6989  0.9482
 4060SOL     OW23812   1.060   2.866   8.846  0.1413  0.2557  0.3139
 4060SOL    HW123813   1.150   2.840   8.826 -0.5449 -1.3590 -0.7270
 4060SOL    HW223814   1.064   2.957   8.816 -2.6627  0.4018  0.3030
 4061SOL     OW23815   3.627   4.474  11.373  0.2768  0.7681 -0.0934
 4061SOL    HW123816   3.688   4.467  11.300 -1.8678 -2.1428 -1.6018
 4061SOL    HW223817   3.679   4.540  11.419  0.6429 -0.5880  1.4423
 4062SOL     OW23818   2.278   3.547   5.815  0.1833  0.4829  0.7238
 4062SOL    HW123819   2.349   3.482   5.815 -0.1985  0.0620 -2.3287
 4062SOL    HW223820   2.262   3.560   5.721  3.1169 -0.2982  0.1190
 4063SOL     OW23821   0.487   3.940  10.100  0.5432 -0.0929 -0.4841
 4063SOL    HW123822   0.406   3.946  10.151  0.7914 -1.1852  0.0473
 4063SOL    HW223823   0.542   3.904  10.169  0.4878  0.6228 -0.0779
 4064SOL     OW23824   2.618   4.624   2.276  0.2780 -0.3165  0.0445
 4064SOL    HW123825   2.613   4.543   2.327 -0.2415  0.1995  0.8250
 4064SOL    HW223826   2.528   4.647   2.253  0.3814 -0.6956 -0.7484
 4065SOL     OW23827   0.270   3.100   4.334 -0.0060 -0.2348 -0.3403
 4065SOL    HW123828   0.248   3.193   4.339  1.9413  0.1749  0.2398
 4065SOL    HW223829   0.242   3.060   4.416  0.6183  1.9333  0.9241
 4066SOL     OW23830   1.367   2.498   4.774 -0.2444  0.0570  0.1405
 4066SOL    HW123831   1.409   2.466   4.695  0.0102  0.6604  0.0316
 4066SOL    HW223832   1.304   2.432   4.803 -1.4915  1.1551 -0.0499
 4067SOL     OW23833   3.847   2.320   9.822  0.2345 -0.6776 -0.1840
 4067SOL    HW123834   3.844   2.324   9.727 -0.4241 -0.2631 -0.1487
 4067SOL    HW223835   3.781   2.385   9.848  0.6494  0.1701 -1.2796
 4068SOL     OW23836   2.289   4.102   8.612  0.3228  0.4913  0.0448
 4068SOL    HW123837   2.372   4.056   8.621 -1.0592 -2.0191  0.1376
 4068SOL    HW223838   2.321   4.171   8.669 -0.3777  0.1914  0.7984
 4069SOL     OW23839   4.497   3.168   5.008 -0.0793  0.1721  0.3033
 4069SOL    HW123840   4.461   3.126   4.930 -0.4777  1.0235  0.0350
 4069SOL    HW223841   4.496   3.090   5.064  0.5738  0.4690  0.7296
 4070SOL     OW23842   3.301   3.671  17.696  0.6799 -0.2770 -0.0305
 4070SOL    HW123843   3.257   3.608  17.639  1.5277 -0.5715 -0.3734
 4070SOL    HW223844   3.248   3.656   0.038 -0.7775  1.2753 -0.7206
 4071SOL     OW23845   1.592   3.562   4.890  0.0399  0.5538 -0.4248
 4071SOL    HW123846   1.582   3.568   4.985 -0.6142  2.4630 -0.5971
 4071SOL    HW223847   1.643   3.640   4.868  3.2955 -1.3189  0.4863
 4072SOL     OW23848   1.930   1.626   8.376 -0.2989 -0.5421  0.2221
 4072SOL    HW123849   1.985   1.700   8.401 -0.1496 -0.7810  0.5916
 4072SOL    HW223850   1.996   1.560   8.355  1.2009  1.7155 -2.2324
 4073SOL     OW23851   1.067   2.997  17.663  0.0810  0.2957  0.8140
 4073SOL    HW123852   1.034   2.993  17.574 -0.9505 -0.0697  1.2098
 4073SOL    HW223853   0.990   2.973  17.714  0.0049 -1.6950 -0.2317
 4074SOL     OW23854   4.185   2.944   1.799 -0.1567 -0.4843  0.6593
 4074SOL    HW123855   4.121   2.980   1.861  1.4031  1.4801  1.1486
 4074SOL    HW223856   4.148   2.919   1.715  2.5665 -0.0639 -0.6626
 4075SOL     OW23857   4.533   4.595  12.990  0.5101 -0.5427  0.0627
 4075SOL    HW123858   4.526   4.556  13.077  0.4393  1.0636  0.7798
 4075SOL    HW223859   4.496   4.521  12.943  1.1224 -0.0081 -1.2756
 4076SOL     OW23860   3.130   1.449   4.250  0.5340  0.0840  0.0667
 4076SOL    HW123861   3.077   1.370   4.235 -0.4856 -0.2429  5.1440
 4076SOL    HW223862   3.151   1.481   4.163 -2.5205  0.4471 -0.5445
 4077SOL     OW23863   2.526   3.096   7.473  0.0283  0.5657  0.4598
 4077SOL    HW123864   2.548   3.161   7.407 -0.6500  0.0751 -0.2402
 4077SOL    HW223865   2.612   3.073   7.510 -0.3371 -1.6637 -0.0791
 4078SOL     OW23866   3.753   1.586   1.364 -0.1981 -0.7343 -0.0759
 4078SOL    HW123867   3.743   1.508   1.309 -0.7412  0.1727 -1.2529
 4078SOL    HW223868   3.848   1.586   1.379 -0.6343  1.1938  2.5410
 4079SOL     OW23869   2.160   2.638   9.351 -0.6229  0.4038  0.4911
 4079SOL    HW123870   2.122   2.585   9.281 -3.9845 -0.3470  2.8768
 4079SOL    HW223871   2.143   2.731   9.333 -0.6595  0.2424 -0.2908
 4080SOL     OW23872   0.156   1.730   5.326 -0.6217  0.7548 -0.3961
 4080SOL    HW123873   0.107   1.648   5.320  0.0727  0.3128 -0.0330
 4080SOL    HW223874   0.177   1.727   5.420 -0.8939  0.1825 -0.3561
 4081SOL     OW23875   0.100   4.676   5.811  0.0131 -0.2238  0.3441
 4081SOL    HW123876   0.090   0.022   5.758 -2.4435  0.5505  2.0048
 4081SOL    HW223877   0.065   4.618   5.743  1.3290 -1.3012  0.6020
 4082SOL     OW23878   0.397   0.399   4.704  0.3258  0.0662 -0.2721
 4082SOL    HW123879   0.478   0.351   4.719 -0.1865 -0.1516  1.8988
 4082SOL    HW223880   0.359   0.343   4.637 -1.4256 -0.6386  1.3045
 4083SOL     OW23881   2.521   1.252   8.728  0.5027 -0.0790  0.4214
 4083SOL    HW123882   2.473   1.329   8.699 -4.0688 -3.6031 -1.3930
 4083SOL    HW223883   2.474   1.243   8.811  2.2082 -0.9881  1.2886
 4084SOL     OW23884   1.464   3.651   6.215 -0.1039 -0.4666  0.5825
 4084SOL    HW123885   1.464   3.599   6.135  1.6322 -2.0632  1.6260
 4084SOL    HW223886   1.558   3.663   6.228 -0.0892 -0.4915  0.4991
 4085SOL     OW23887   4.320   4.309   4.169  0.9189 -0.2726  0.6031
 4085SOL    HW123888   4.331   4.256   4.091  2.5113  0.4004  0.3712
 4085SOL    HW223889   4.398   4.364   4.179 -0.2422  1.6645 -0.9521
 4086SOL     OW23890   0.887   1.435   2.332 -0.1760  0.4352 -0.0479
 4086SOL    HW123891   0.827   1.499   2.295  1.2517  2.4107  1.0269
 4086SOL    HW223892   0.857   1.431   2.423 -1.1831  0.7075 -0.3620
 4087SOL     OW23893   0.703   1.429   6.978 -0.0731  0.2529  0.1396
 4087SOL    HW123894   0.642   1.393   6.915  1.3758 -2.3132  0.2022
 4087SOL    HW223895   0.769   1.359   6.978  0.9943  1.2422  1.0285
 4088SOL     OW23896   3.840   2.154   2.188 -0.0884  0.0002  0.0075
 4088SOL    HW123897   3.774   2.223   2.202 -1.0223 -0.9180  0.1238
 4088SOL    HW223898   3.871   2.170   2.099 -1.5672 -2.6889 -0.9907
 4089SOL     OW23899   3.291   1.509   3.988  0.3305 -0.4452  0.0965
 4089SOL    HW123900   3.343   1.588   4.002 -1.0660  0.1900  1.6752
 4089SOL    HW223901   3.343   1.449   4.041  0.8143 -0.1638 -0.0572
 4090SOL     OW23902   0.791   2.402   1.138 -0.2631 -0.1308  0.3721
 4090SOL    HW123903   0.727   2.350   1.089 -0.6087  1.3735 -0.7835
 4090SOL    HW223904   0.741   2.472   1.180 -0.1138  0.7874 -0.9781
 4091SOL     OW23905   1.790   0.627  17.317  0.0403  0.2816 -0.2895
 4091SOL    HW123906   1.874   0.620  17.272  2.5217  2.9043  3.9868
 4091SOL    HW223907   1.743   0.559  17.268  0.1151  0.3574 -0.4654
 4092SOL     OW23908   2.331   3.159   6.822  0.1029 -0.2603 -0.6334
 4092SOL    HW123909   2.286   3.153   6.738 -0.6586 -2.1824 -0.0809
 4092SOL    HW223910   2.277   3.101   6.876  3.0756  0.4927  3.1704
 4093SOL     OW23911   4.626   1.571   3.910 -0.1723  0.0606  0.2284
 4093SOL    HW123912   4.545   1.591   3.865  0.3025  0.2166 -0.5483
 4093SOL    HW223913   4.600   1.562   4.002  1.5450  0.9584  0.8109
 4094SOL     OW23914   0.783   1.731   7.581  0.8075 -0.0625  0.0484
 4094SOL    HW123915   0.728   1.747   7.504 -1.7189 -0.2473  1.8077
 4094SOL    HW223916   0.856   1.792   7.569  1.4978 -1.0627 -0.8202
 4095SOL     OW23917   2.132   1.272   0.856 -0.1742  0.1020 -0.2683
 4095SOL    HW123918   2.143   1.315   0.771  1.7709 -0.5215 -0.3414
 4095SOL    HW223919   2.162   1.183   0.836 -0.0461  0.2268 -0.6252
 4096SOL     OW23920   3.519   4.712   4.009 -0.1639 -0.7574 -0.1806
 4096SOL    HW123921   3.462   4.691   4.084  2.5686 -2.0954  1.5159
 4096SOL    HW223922   3.497   0.067   3.983  0.4858 -0.7798 -0.7790
 4097SOL     OW23923   1.387   0.130   5.918 -0.4034  0.0858 -0.9364
 4097SOL    HW123924   1.344   0.119   5.833 -3.1882 -1.6496  0.6765
 4097SOL    HW223925   1.431   0.214   5.911  3.0136 -1.6127  0.5971
 4098SOL     OW23926   1.840   0.421   8.928  0.6704  0.9239 -0.6521
 4098SOL    HW123927   1.824   0.351   8.865  0.6128  1.3697 -1.1327
 4098SOL    HW223928   1.750   0.442   8.951  0.9338  0.3076  0.9940
 4099SOL     OW23929   4.471   1.185   2.334 -0.2644 -0.2589  0.1986
 4099SOL    HW123930   4.550   1.236   2.353 -0.8512  0.9972 -0.7286
 4099SOL    HW223931   4.447   1.229   2.253  0.3372 -1.2138 -0.4930
 4100SOL     OW23932   1.647   3.526   1.886 -0.1240  0.2911 -0.0384
 4100SOL    HW123933   1.722   3.502   1.831 -0.3168  1.5557 -0.8530
 4100SOL    HW223934   1.677   3.460   1.949  0.1374  2.1180  1.7516
 4101SOL     OW23935   4.294   4.203   8.010 -0.7271 -0.2366  0.2665
 4101SOL    HW123936   4.286   4.171   8.100  3.2797  2.6938  1.6381
 4101SOL    HW223937   4.294   4.297   8.024  0.4112  0.4652 -4.4663
 4102SOL     OW23938   2.336   1.325   3.447  0.2445  0.2143  0.0069
 4102SOL    HW123939   2.368   1.350   3.361 -1.6272 -0.0728 -0.7577
 4102SOL    HW223940   2.373   1.236   3.438  3.2342  1.4286  0.2099
 4103SOL     OW23941   0.177   3.838   8.306  0.7099  0.0260  0.3690
 4103SOL    HW123942   0.133   3.764   8.265  0.4627  0.7974 -0.7715
 4103SOL    HW223943   0.232   3.866   8.233 -0.5168  0.2672 -0.4725
 4104SOL     OW23944   1.553   0.546  17.473  0.2975  0.1266  0.1048
 4104SOL    HW123945   1.613   0.607  17.429 -0.2729  0.0979 -0.7241
 4104SOL    HW223946   1.614   0.474  17.484  0.9659  0.4395 -1.5637
 4105SOL     OW23947   1.318   2.202   1.651 -0.1981  0.2249 -0.0128
 4105SOL    HW123948   1.252   2.185   1.718 -1.0289  0.1139 -0.8487
 4105SOL    HW223949   1.364   2.278   1.686 -0.3194  0.2706  0.0461
 4106SOL     OW23950   1.927   4.168   0.293  0.2108  0.4011 -0.0765
 4106SOL    HW123951   2.017   4.141   0.274 -0.4961 -1.4338 -0.8669
 4106SOL    HW223952   1.880   4.085   0.302 -2.1406  1.6876 -0.4198
 4107SOL     OW23953   1.002   2.825   3.214 -0.0113 -0.1156 -0.4611
 4107SOL    HW123954   1.038   2.775   3.287  1.1607  1.9991  0.4010
 4107SOL    HW223955   0.919   2.778   3.200  0.9540 -1.7165 -0.8226
 4108SOL     OW23956   1.247   1.018   2.379  0.0911 -0.3353 -0.1179
 4108SOL    HW123957   1.206   1.093   2.337 -0.0793  0.2852  1.1474
 4108SOL    HW223958   1.201   1.008   2.462 -0.0122 -0.6085 -0.2095
 4109SOL     OW23959   2.614   4.608  11.913 -0.7268 -0.1247 -0.4180
 4109SOL    HW123960   2.633   4.573  12.001  0.7719  0.0796 -0.6707
 4109SOL    HW223961   2.562   4.686  11.932 -1.5374 -0.4219 -1.4465
 4110SOL     OW23962   3.374   0.848  11.619 -0.1714 -0.1936 -0.7720
 4110SOL    HW123963   3.352   0.897  11.540 -1.1088  1.2110  0.3596
 4110SOL    HW223964   3.330   0.766  11.598  0.4752 -0.6326 -0.4082
 4111SOL     OW23965   1.264   1.954   9.482 -0.2013 -0.8040  0.1850
 4111SOL    HW123966   1.191   2.007   9.514  1.6998  1.2115  1.2242
 4111SOL    HW223967   1.272   1.995   9.395 -0.7214  0.3871  0.6996
 4112SOL     OW23968   2.682   3.415   5.210  0.0746  0.3643  0.6930
 4112SOL    HW123969   2.709   3.330   5.174 -1.0813  0.3719 -0.1955
 4112SOL    HW223970   2.603   3.444   5.163 -0.9617 -0.6392  1.8199
 4113SOL     OW23971   0.041   2.616   6.259 -0.4637 -0.3331  0.0867
 4113SOL    HW123972   0.051   2.705   6.226  0.2636 -0.9127 -1.2506
 4113SOL    HW223973   0.132   2.585   6.257  0.5768  2.7583  0.2603
 4114SOL     OW23974   0.063   0.044   3.930 -0.0108 -0.2573 -0.2337
 4114SOL    HW123975   0.099   0.063   3.843 -1.0005  0.0364 -0.5814
 4114SOL    HW223976   4.718   4.727   3.914  0.4117 -0.8716 -0.3390
 4115SOL     OW23977   1.680   3.531  16.184 -0.0732 -0.4964  0.4777
 4115SOL    HW123978   1.650   3.515  16.095 -0.4239  0.0315  0.5025
 4115SOL    HW223979   1.657   3.451  16.231  0.2092 -0.1957  1.1263
 4116SOL     OW23980   0.036   1.459  16.988  0.4635 -0.2248 -0.3774
 4116SOL    HW123981   0.093   1.480  17.062  0.5158 -0.5354 -0.3279
 4116SOL    HW223982   0.100   1.447  16.918  0.8830 -0.7617  0.1038
 4117SOL     OW23983   1.393   0.383   7.427  0.5328 -0.2999 -0.1514
 4117SOL    HW123984   1.475   0.433   7.424 -0.0829  0.6647 -0.7370
 4117SOL    HW223985   1.421   0.295   7.453  2.1373 -0.0317 -0.9526
 4118SOL     OW23986   2.520   1.106   2.245 -0.0373 -0.4479  0.0757
 4118SOL    HW123987   2.487   1.092   2.157  1.2248 -0.0831 -0.4560
 4118SOL    HW223988   2.441   1.107   2.299 -1.2760 -0.0888 -1.7768
 4119SOL     OW23989   0.775   2.443  14.850  0.5794  0.1409  0.3115
 4119SOL    HW123990   0.728   2.366  14.818  2.8151 -0.3722 -1.7862
 4119SOL    HW223991   0.850   2.395  14.886 -0.6132  0.4406  3.1975
 4120SOL     OW23992   2.203   0.092  15.483  0.2780  0.2921 -0.6564
 4120SOL    HW123993   2.119   0.122  15.448 -0.6199 -0.6219  0.7045
 4120SOL    HW223994   2.245   0.057  15.404  2.3671  0.3635  0.4243
 4121SOL     OW23995   3.975   1.483   3.821 -0.3153  0.0839 -0.2479
 4121SOL    HW123996   3.993   1.576   3.835 -1.9250  0.3793 -0.2034
 4121SOL    HW223997   3.978   1.492   3.726 -0.7651 -3.5685 -0.5993
 4122SOL     OW23998   1.123   2.368   4.418 -0.2366 -0.1355  0.8386
 4122SOL    HW123999   1.189   2.310   4.382  0.9320  1.1831  0.8454
 4122SOL    HW224000   1.125   2.334   4.508  2.1059 -0.6109  0.5940
 4123SOL     OW24001   0.440   4.711   2.893 -0.4585 -0.0627  0.1468
 4123SOL    HW124002   0.447   4.619   2.866  0.8441 -0.5862  2.1890
 4123SOL    HW224003   0.527   4.724   2.932 -0.5661  2.0191 -0.3221
 4124SOL     OW24004   2.597   0.124   6.608 -0.1772 -0.0335 -0.0688
 4124SOL    HW124005   2.679   0.162   6.641  0.4308 -2.6931  1.5059
 4124SOL    HW224006   2.564   0.065   6.676 -1.0082  0.7525  0.1999
 4125SOL     OW24007   1.422   3.598  16.609 -0.2908  0.1964 -0.3310
 4125SOL    HW124008   1.494   3.602  16.546  0.0678 -0.5998  0.0315
 4125SOL    HW224009   1.383   3.685  16.604  0.8140  0.6973 -0.1717
 4126SOL     OW24010   0.013   2.027   6.848 -0.0216  0.1442 -0.6563
 4126SOL    HW124011   0.016   2.122   6.859  2.1134 -0.2118  1.7981
 4126SOL    HW224012   0.058   1.994   6.926 -0.9113 -0.5320 -0.4309
 4127SOL     OW24013   3.922   0.718  17.590  0.4237  0.2559  0.2270
 4127SOL    HW124014   3.937   0.705  17.684 -0.8887 -1.0934  0.2563
 4127SOL    HW224015   3.992   0.659  17.563 -0.1540 -0.3614  0.0851
 4128SOL     OW24016   4.411   2.280   7.867  0.5975 -0.5044  0.1079
 4128SOL    HW124017   4.323   2.303   7.897  0.9899 -2.4268  2.7526
 4128SOL    HW224018   4.400   2.186   7.852 -0.2323 -0.0938 -1.8002
 4129SOL     OW24019   3.834   0.066  17.603  0.1597 -0.3563  0.4976
 4129SOL    HW124020   3.866   0.066  17.693 -2.1829  1.6416  1.3392
 4129SOL    HW224021   3.748   0.108  17.613 -0.5176 -1.5164 -0.3705
 4130SOL     OW24022   3.440   2.766   8.360 -0.5754 -0.0666 -0.1597
 4130SOL    HW124023   3.443   2.793   8.452 -0.4382 -0.1996 -0.1248
 4130SOL    HW224024   3.479   2.679   8.372 -1.1125  0.1730  3.5649
 4131SOL     OW24025   2.838   4.385  10.713  0.1523  0.6276 -0.3547
 4131SOL    HW124026   2.765   4.437  10.748 -0.7267 -0.2670 -0.8756
 4131SOL    HW224027   2.884   4.445  10.655  0.8141 -2.3496 -2.8848
 4132SOL     OW24028   3.290   4.392   7.430  0.5348  0.5682 -0.3511
 4132SOL    HW124029   3.366   4.430   7.385  0.2890  0.3830 -0.9219
 4132SOL    HW224030   3.229   4.421   7.363  0.0946 -0.7069 -0.4894
 4133SOL     OW24031   1.894   3.794   1.895  0.0867 -0.7787 -0.0596
 4133SOL    HW124032   1.862   3.800   1.805  0.2181 -0.7163 -0.1025
 4133SOL    HW224033   1.816   3.811   1.948  1.7570  1.2664  1.7766
 4134SOL     OW24034   2.784   3.783  16.316 -0.3067  0.8611  0.4638
 4134SOL    HW124035   2.824   3.807  16.399 -1.4935  3.4311  0.3049
 4134SOL    HW224036   2.743   3.698  16.335 -0.6307  1.0344  0.5427
 4135SOL     OW24037   2.434   3.620   2.887  0.5952 -0.1761 -0.4159
 4135SOL    HW124038   2.440   3.535   2.844  2.0811 -0.1264 -0.3062
 4135SOL    HW224039   2.476   3.676   2.822 -0.3057 -0.6212 -1.3845
 4136SOL     OW24040   2.285   4.278   2.815  0.5850  0.1558  0.1812
 4136SOL    HW124041   2.287   4.268   2.910  3.0650  2.5849  0.3727
 4136SOL    HW224042   2.224   4.207   2.794  0.9353 -0.2086  0.3924
 4137SOL     OW24043   3.385   3.122   3.903  0.2541  0.3577  0.2162
 4137SOL    HW124044   3.431   3.203   3.927  0.1614  0.6997 -0.7777
 4137SOL    HW224045   3.337   3.148   3.825  0.3572  0.4962  0.1980
 4138SOL     OW24046   2.743   3.782   7.112 -0.2989  0.6858  0.1290
 4138SOL    HW124047   2.775   3.699   7.148 -0.0870  0.6416 -0.1567
 4138SOL    HW224048   2.651   3.761   7.101 -0.1581 -0.7352  1.6102
 4139SOL     OW24049   4.342   1.499  17.430 -0.2730 -0.0487  0.9153
 4139SOL    HW124050   4.273   1.548  17.386  1.5099  1.6764  0.0051
 4139SOL    HW224051   4.363   1.558  17.502  0.5390  0.0354  0.6200
 4140SOL     OW24052   1.199   3.455   1.590  0.4982 -0.7399  0.5824
 4140SOL    HW124053   1.254   3.484   1.517 -0.4883  2.0912  0.9555
 4140SOL    HW224054   1.186   3.543   1.627 -1.9348 -0.2826 -1.3556
 4141SOL     OW24055   3.155   2.777  11.053 -0.3543 -0.0958  0.1998
 4141SOL    HW124056   3.105   2.780  10.972 -0.5298  0.4405  0.3264
 4141SOL    HW224057   3.226   2.836  11.029 -1.0247  1.1499  1.2622
 4142SOL     OW24058   0.752   0.645  17.641  0.1414  0.6231  0.0367
 4142SOL    HW124059   0.746   0.653  17.546  1.3557  0.5410 -0.0495
 4142SOL    HW224060   0.678   0.701  17.663 -1.2262 -0.9856 -0.4945
 4143SOL     OW24061   4.454   0.429   1.806  0.3750 -0.1823 -0.0083
 4143SOL    HW124062   4.434   0.523   1.800 -1.4941 -0.5189  1.0405
 4143SOL    HW224063   4.499   0.417   1.889 -0.0347  0.4446  0.3051
 4144SOL     OW24064   2.376   1.606   6.676 -0.1875  0.4878  0.0521
 4144SOL    HW124065   2.425   1.599   6.757  1.3176  1.2390 -0.7950
 4144SOL    HW224066   2.294   1.647   6.704  0.3760  0.0982  2.2369
 4145SOL     OW24067   1.907   0.459  17.655  0.2535 -0.1960 -0.7173
 4145SOL    HW124068   1.973   0.485  17.591  0.4302 -0.0767 -0.4884
 4145SOL    HW224069   1.880   0.545  17.687 -0.2128 -0.5844 -0.0693
 4146SOL     OW24070   3.760   3.383   0.785 -0.0071  0.1868  0.0975
 4146SOL    HW124071   3.744   3.393   0.691  2.8671 -0.8510 -0.4979
 4146SOL    HW224072   3.676   3.404   0.826 -0.1942  1.9449 -1.1627
 4147SOL     OW24073   4.730   2.466   3.675  0.3512  0.4228  0.7691
 4147SOL    HW124074   4.655   2.446   3.730  0.7594 -0.5374  0.9892
 4147SOL    HW224075   4.697   2.443   3.588  0.6797  2.7335  0.0475
 4148SOL     OW24076   0.345   0.445   6.530  0.3479 -0.2340  0.2429
 4148SOL    HW124077   0.441   0.449   6.520  0.2788 -2.5422 -1.3796
 4148SOL    HW224078   0.324   0.408   6.445 -1.9076 -0.3412  0.8689
 4149SOL     OW24079   1.316   1.127   8.889  0.4688 -0.4978 -0.6568
 4149SOL    HW124080   1.352   1.211   8.861 -1.1850  0.3401 -0.2945
 4149SOL    HW224081   1.399   1.080   8.888 -0.0403 -1.4019 -0.8555
 4150SOL     OW24082   4.560   4.348   3.689 -0.5040  0.1192 -0.0617
 4150SOL    HW124083   4.575   4.349   3.594 -0.6321  1.6577 -0.0770
 4150SOL    HW224084   4.616   4.277   3.719 -0.2837  0.8037  1.1506
 4151SOL     OW24085   2.399   1.502   8.683  0.5716  0.4622  0.2649
 4151SOL    HW124086   2.332   1.521   8.748  0.3200  0.2559  0.0655
 4151SOL    HW224087   2.409   1.581   8.628  1.7313 -0.2507 -0.5629
 4152SOL     OW24088   0.521   3.241   5.535  0.1582 -0.3190  0.3922
 4152SOL    HW124089   0.451   3.209   5.479  0.1845 -1.8410  1.2285
 4152SOL    HW224090   0.477   3.282   5.609 -0.2062  0.8033 -0.4533
 4153SOL     OW24091   3.705   1.952   5.437  0.3967  0.0616  0.5470
 4153SOL    HW124092   3.751   1.952   5.520  0.5221 -2.9176  0.4534
 4153SOL    HW224093   3.636   1.887   5.451 -1.6212  2.0154 -0.2436
 4154SOL     OW24094   3.811   0.191   0.797  0.6506 -0.1112 -0.0982
 4154SOL    HW124095   3.813   0.176   0.702  1.4260  1.6647 -0.3527
 4154SOL    HW224096   3.737   0.249   0.816  0.3607 -0.7117  0.6011
 4155SOL     OW24097   3.699   0.714  14.877 -0.0781  0.0379  0.2516
 4155SOL    HW124098   3.691   0.709  14.972  0.2152 -1.8278  0.1626
 4155SOL    HW224099   3.792   0.732  14.867 -0.3429  1.2818 -0.0661
 4156SOL     OW24100   4.527   0.784  10.715  0.1424 -0.0672 -0.5358
 4156SOL    HW124101   4.554   0.836  10.639  5.3469 -0.3131  1.0925
 4156SOL    HW224102   4.615   0.764  10.747 -0.8270 -1.4869  1.2308
 4157SOL     OW24103   4.416   4.114   1.564 -0.7518  0.0746 -0.1160
 4157SOL    HW124104   4.343   4.064   1.528 -0.2824 -0.8961  0.2859
 4157SOL    HW224105   4.436   4.047   1.629  1.3947  0.5004 -0.3335
 4158SOL     OW24106   2.082   2.620   1.772  0.0841  0.4174 -0.2760
 4158SOL    HW124107   2.002   2.572   1.794 -0.1301  0.3116 -1.3027
 4158SOL    HW224108   2.153   2.562   1.802 -2.3183 -1.8074  1.1477
 4159SOL     OW24109   4.284   0.840   9.220  0.1082 -0.5386 -0.5156
 4159SOL    HW124110   4.351   0.792   9.268 -1.7688 -0.2257  2.3639
 4159SOL    HW224111   4.201   0.800   9.243  1.3680 -1.9886  1.4415
 4160SOL     OW24112   3.714   0.351   6.543 -0.2155  0.6303  0.3225
 4160SOL    HW124113   3.705   0.395   6.458 -3.1540  0.1001  0.3639
 4160SOL    HW224114   3.779   0.410   6.582  2.0300 -0.9106 -1.1176
 4161SOL     OW24115   4.479   2.990   3.849  0.0406  0.3101 -0.0881
 4161SOL    HW124116   4.541   2.918   3.855 -0.5208 -0.1382  0.2831
 4161SOL    HW224117   4.455   3.000   3.941  2.2148  1.7356  0.3266
 4162SOL     OW24118   0.717   3.883   2.802  0.2838 -0.6042  0.0865
 4162SOL    HW124119   0.665   3.964   2.794  2.1718  0.6575  0.6293
 4162SOL    HW224120   0.794   3.911   2.852 -0.4798  0.4081  0.7060
 4163SOL     OW24121   3.563   3.327   3.969 -0.3178  0.4497  0.0083
 4163SOL    HW124122   3.534   3.402   3.918 -2.0736 -1.2330 -1.4335
 4163SOL    HW224123   3.657   3.332   3.952 -0.3705  0.2183 -0.3593
 4164SOL     OW24124   1.564   1.385   5.904 -0.0568  0.2849  0.4173
 4164SOL    HW124125   1.471   1.374   5.882  0.5213  1.1410 -2.4096
 4164SOL    HW224126   1.603   1.307   5.866 -0.6791 -0.2832  0.9312
 4165SOL     OW24127   4.095   2.278   5.620  0.6930 -0.8866  0.0829
 4165SOL    HW124128   4.064   2.239   5.538 -0.3239  1.0607 -0.4572
 4165SOL    HW224129   4.186   2.296   5.593  0.1061  1.1402 -0.5396
 4166SOL     OW24130   3.599   1.875   6.826 -0.1235 -0.1758 -0.3988
 4166SOL    HW124131   3.645   1.873   6.741  2.3151 -1.6947  0.9641
 4166SOL    HW224132   3.518   1.899   6.782  0.8636  1.0278 -1.6017
 4167SOL     OW24133   3.055   1.264  12.382  0.2122  0.3005 -0.2916
 4167SOL    HW124134   3.100   1.218  12.312 -2.3282 -1.2578 -0.9247
 4167SOL    HW224135   3.013   1.335  12.334  2.7272  0.6570 -1.9513
 4168SOL     OW24136   2.114   0.519   1.587 -0.7083 -0.1643 -0.0192
 4168SOL    HW124137   2.200   0.489   1.560 -0.2130 -0.5596  1.9582
 4168SOL    HW224138   2.074   0.439   1.623 -2.8014  0.9709  0.2059
 4169SOL     OW24139   1.023   0.953   3.133  0.0746 -0.0015  0.1928
 4169SOL    HW124140   0.941   0.912   3.105  1.7393 -1.7634 -2.1013
 4169SOL    HW224141   1.085   0.882   3.149 -1.4165 -1.0262  1.4042
 4170SOL     OW24142   3.312   1.266   9.924 -0.2193  0.1138 -0.9248
 4170SOL    HW124143   3.229   1.314   9.922  0.5612  1.4270 -1.6299
 4170SOL    HW224144   3.366   1.313   9.861  0.1948 -0.2550 -0.8506
 4171SOL     OW24145   0.900   3.266  14.824 -0.0184 -0.0683  0.2350
 4171SOL    HW124146   0.970   3.203  14.810 -2.2383 -2.2942 -0.6774
 4171SOL    HW224147   0.944   3.345  14.855  0.6302 -0.1061 -0.6060
 4172SOL     OW24148   3.916   3.092   3.457  0.0691 -0.8145  0.0812
 4172SOL    HW124149   3.896   3.178   3.419 -1.1030 -1.9247 -1.8629
 4172SOL    HW224150   4.006   3.083   3.425 -0.0646  0.4077 -0.6201
 4173SOL     OW24151   0.079   1.938   3.066 -1.1563 -0.1248 -0.1729
 4173SOL    HW124152   0.014   1.869   3.076 -2.7007  1.3884  0.1896
 4173SOL    HW224153   0.150   1.888   3.025 -1.6696 -0.9706 -0.0181
 4174SOL     OW24154   4.474   1.595   2.894 -0.3235  0.1525  0.4157
 4174SOL    HW124155   4.532   1.658   2.938  1.1365 -0.0539 -1.2354
 4174SOL    HW224156   4.402   1.654   2.873 -2.4390 -1.5545  2.7640
 4175SOL     OW24157   3.937   0.934   9.181 -0.1430  0.1543 -0.0626
 4175SOL    HW124158   3.843   0.936   9.167  0.0749 -1.3412 -1.6320
 4175SOL    HW224159   3.952   1.017   9.227  1.2768 -0.9245  1.4269
 4176SOL     OW24160   1.812   4.556   0.217 -0.9109 -0.3061  0.1766
 4176SOL    HW124161   1.897   4.522   0.190  0.7527  2.6451  1.5797
 4176SOL    HW224162   1.798   4.610   0.139  0.5013 -1.1509 -0.6575
 4177SOL     OW24163   0.490   4.519  13.289 -0.0959  0.0837 -0.5007
 4177SOL    HW124164   0.418   4.488  13.234 -0.6251 -1.1419  0.8852
 4177SOL    HW224165   0.565   4.506  13.231  1.0809  1.6570  0.6987
 4178SOL     OW24166   0.872   2.454   4.373  0.0972 -0.4332 -0.6301
 4178SOL    HW124167   0.861   2.450   4.468 -3.9169  0.6206 -1.0769
 4178SOL    HW224168   0.966   2.437   4.379  0.4171  1.9407  1.0073
 4179SOL     OW24169   0.276   1.502   4.975 -0.1281  0.2089 -0.0150
 4179SOL    HW124170   0.338   1.573   4.958  0.7964 -1.3945 -3.4479
 4179SOL    HW224171   0.275   1.436   4.905  0.5918 -0.6351  0.7786
 4180SOL     OW24172   3.333   1.716   6.430  0.4774 -0.1586  0.0697
 4180SOL    HW124173   3.406   1.654   6.428 -1.4022 -2.4172  0.3425
 4180SOL    HW224174   3.272   1.669   6.373  0.1715  1.6928 -1.1313
 4181SOL     OW24175   2.619   3.506   8.143 -0.2199  0.4171  0.3822
 4181SOL    HW124176   2.639   3.588   8.098 -0.7189  0.2586 -0.1450
 4181SOL    HW224177   2.540   3.488   8.092 -0.7033  0.1240  1.2321
 4182SOL     OW24178   4.491   2.954   9.483 -0.3944  0.1540 -0.5931
 4182SOL    HW124179   4.581   2.976   9.460 -0.1854  0.3946  0.4858
 4182SOL    HW224180   4.489   2.990   9.572 -2.8111 -1.3523 -0.0311
 4183SOL     OW24181   4.236   0.734   4.155  0.5017 -0.5120  0.3845
 4183SOL    HW124182   4.298   0.786   4.104 -0.6026  0.5449  0.1110
 4183SOL    HW224183   4.242   0.646   4.118 -1.5869 -0.6346  0.3308
 4184SOL     OW24184   2.690   2.410   6.979 -0.1106  0.1528  0.5036
 4184SOL    HW124185   2.679   2.435   7.071 -0.1298 -2.2893  1.1403
 4184SOL    HW224186   2.607   2.366   6.960  0.0716  1.2483 -2.8565
 4185SOL     OW24187   0.216   3.834   3.510  0.1568  0.2495 -0.2300
 4185SOL    HW124188   0.216   3.878   3.595  1.2597  0.6156 -0.4122
 4185SOL    HW224189   0.271   3.891   3.456 -3.4309  0.1713 -3.9999
 4186SOL     OW24190   0.292   1.271   8.711 -0.7114 -0.0970  0.0424
 4186SOL    HW124191   0.311   1.190   8.759  0.3816 -0.2895 -0.7101
 4186SOL    HW224192   0.335   1.255   8.627  0.5055  1.5159  0.3744
 4187SOL     OW24193   2.386   2.209   8.572  0.0157 -0.1274 -0.1706
 4187SOL    HW124194   2.464   2.213   8.628 -0.4757 -1.9569  0.6578
 4187SOL    HW224195   2.427   2.178   8.491 -0.1862  0.0749 -0.3480
 4188SOL     OW24196   3.399   3.860  12.304  0.0175  0.9974  0.1900
 4188SOL    HW124197   3.431   3.922  12.369  2.6620  0.5465 -0.7021
 4188SOL    HW224198   3.340   3.917  12.254 -0.4142  1.6058  1.3870
 4189SOL     OW24199   0.252   1.574   2.323  0.0077 -0.2712  0.1984
 4189SOL    HW124200   0.209   1.659   2.338  0.1628 -0.0867 -0.4444
 4189SOL    HW224201   0.175   1.517   2.330  0.4171 -1.0810 -1.9678
 4190SOL     OW24202   0.477   3.234   2.501 -0.0858 -0.1104 -0.2664
 4190SOL    HW124203   0.484   3.162   2.564  0.1776  0.7410  0.6603
 4190SOL    HW224204   0.407   3.204   2.442 -1.6272  3.1714 -0.0788
 4191SOL     OW24205   0.417   0.714  14.459  0.0623  0.8605 -0.2685
 4191SOL    HW124206   0.442   0.683  14.546 -2.0096 -1.1664 -0.3864
 4191SOL    HW224207   0.467   0.651  14.406 -0.4286  1.6709 -1.6921
 4192SOL     OW24208   2.108   1.291   2.642 -0.8985  0.4697 -0.4015
 4192SOL    HW124209   2.106   1.318   2.734  0.5662 -1.3237  0.1471
 4192SOL    HW224210   2.100   1.196   2.643  2.7201  0.1715 -0.0019
 4193SOL     OW24211   3.714   1.165   3.824  0.2990 -0.2736  0.3804
 4193SOL    HW124212   3.673   1.091   3.870  0.8154 -0.7988  0.0030
 4193SOL    HW224213   3.672   1.239   3.868 -0.8109 -1.2600  1.0050
 4194SOL     OW24214   2.206   0.751   3.094 -0.3988 -0.0917 -0.2001
 4194SOL    HW124215   2.166   0.796   3.020 -0.2985 -0.6466 -0.5915
 4194SOL    HW224216   2.281   0.810   3.099 -0.7679  0.2781  0.8807
 4195SOL     OW24217   2.392   4.380   6.408  0.1399  0.3582 -0.0413
 4195SOL    HW124218   2.443   4.306   6.376  1.8999  1.9422 -0.9336
 4195SOL    HW224219   2.397   4.369   6.503  1.3314 -0.3564 -0.1847
 4196SOL     OW24220   0.636   1.851   6.034  0.1109 -0.5053  0.0825
 4196SOL    HW124221   0.643   1.942   6.004  2.4144 -0.5818  0.3722
 4196SOL    HW224222   0.687   1.853   6.114 -0.5192 -0.6359  0.4841
 4197SOL     OW24223   0.760   0.410   4.513 -0.7675  0.2945  0.0725
 4197SOL    HW124224   0.711   0.435   4.435  1.3624  0.0117 -1.3597
 4197SOL    HW224225   0.736   0.475   4.579  0.8956  0.1031  0.8585
 4198SOL     OW24226   1.700   2.706   8.264  0.4094  0.7533  0.0453
 4198SOL    HW124227   1.623   2.742   8.220  0.6586  2.5239  1.0328
 4198SOL    HW224228   1.770   2.757   8.224  0.6676  0.4758  0.1457
 4199SOL     OW24229   2.558   0.342   4.036 -0.1478 -0.2023  0.5553
 4199SOL    HW124230   2.550   0.247   4.027  0.7031 -0.2008 -0.3260
 4199SOL    HW224231   2.527   0.374   3.951  0.7099  1.4337  0.8542
 4200SOL     OW24232   3.656   4.592   6.369  0.0719  0.0805 -0.2050
 4200SOL    HW124233   3.692   4.591   6.458  2.8771 -2.4797 -1.4017
 4200SOL    HW224234   3.740   4.590   6.325  1.1749  1.9418  1.8036
 4201SOL     OW24235   2.735   4.623   0.201  0.8039  0.6539 -0.0189
 4201SOL    HW124236   2.742   4.650   0.109  1.1182  0.4672 -0.0499
 4201SOL    HW224237   2.805   4.558   0.210  0.3907  0.1299 -0.6180
 4202SOL     OW24238   2.457   3.889   5.173  0.5889  0.5015  0.1089
 4202SOL    HW124239   2.525   3.857   5.114  0.8247  0.1387  0.5747
 4202SOL    HW224240   2.462   3.983   5.191 -1.9737  0.0837  2.8975
 4203SOL     OW24241   2.196   1.979  10.676 -0.2386 -0.3824  0.2689
 4203SOL    HW124242   2.157   1.991  10.763 -0.0783  1.1912  0.1293
 4203SOL    HW224243   2.186   1.884  10.671 -1.5180 -0.3396  2.0303
 4204SOL     OW24244   0.725   3.549   8.895 -0.0541 -0.3496  0.0938
 4204SOL    HW124245   0.738   3.462   8.857  0.7617 -1.2524  2.3770
 4204SOL    HW224246   0.800   3.543   8.954  0.9854 -0.8265 -1.2786
 4205SOL     OW24247   0.447   4.041   2.115  0.1513 -0.1727  0.3052
 4205SOL    HW124248   0.355   4.037   2.090  0.5031 -1.4947 -0.7410
 4205SOL    HW224249   0.443   3.987   2.194  0.9859  1.4403  1.4495
 4206SOL     OW24250   1.703   3.679  15.881 -0.1529 -0.3313 -0.4661
 4206SOL    HW124251   1.608   3.686  15.876 -0.3013 -0.4980  2.1898
 4206SOL    HW224252   1.731   3.719  15.798  2.7719  0.0857  0.7343
 4207SOL     OW24253   2.379   0.762   7.913 -0.0082  0.3333 -0.3870
 4207SOL    HW124254   2.349   0.686   7.962 -1.5005  0.7311 -0.7011
 4207SOL    HW224255   2.389   0.821   7.988  0.4098 -2.7387  1.9723
 4208SOL     OW24256   3.914   3.809   2.508 -0.2165 -0.4086  0.7506
 4208SOL    HW124257   3.900   3.714   2.501  2.6010 -0.7624 -0.0094
 4208SOL    HW224258   3.897   3.817   2.602 -0.9596  0.0436  0.5808
 4209SOL     OW24259   1.328   2.132   7.762  0.0042 -0.2153 -0.0299
 4209SOL    HW124260   1.398   2.174   7.811 -1.2173 -1.0128  2.3893
 4209SOL    HW224261   1.306   2.203   7.702 -1.2429  0.2582  0.9847
 4210SOL     OW24262   4.190   0.146   6.255 -0.5158  0.0679 -0.0033
 4210SOL    HW124263   4.157   0.071   6.304  0.8858 -0.2605  0.4211
 4210SOL    HW224264   4.263   0.169   6.313  2.0642 -0.4060 -3.1354
 4211SOL     OW24265   0.136   1.193   5.035 -0.0171  0.0522  0.1548
 4211SOL    HW124266   0.165   1.140   5.109  3.0598 -0.6408 -1.5748
 4211SOL    HW224267   0.041   1.195   5.050 -0.0998  0.9515 -0.4793
 4212SOL     OW24268   2.734   3.314   7.903 -0.5169  0.2486  0.4943
 4212SOL    HW124269   2.639   3.303   7.896 -0.3993 -0.8789  0.6170
 4212SOL    HW224270   2.750   3.403   7.871  1.7401 -0.8799 -1.5420
 4213SOL     OW24271   1.264   3.247   4.645  0.8053 -0.3801  0.0069
 4213SOL    HW124272   1.258   3.336   4.681 -0.6487 -0.4548 -0.0492
 4213SOL    HW224273   1.182   3.213   4.681  0.0038 -0.8584 -2.3293
 4214SOL     OW24274   3.783   3.524  13.546 -0.0220  0.8363  0.4591
 4214SOL    HW124275   3.834   3.510  13.466 -0.9737  0.9741 -0.1724
 4214SOL    HW224276   3.726   3.447  13.547  0.2457  0.6038 -1.8974
 4215SOL     OW24277   0.886   4.041   4.695 -0.1013  0.0254 -0.4076
 4215SOL    HW124278   0.891   4.042   4.791 -0.7217 -1.3786 -0.3762
 4215SOL    HW224279   0.865   4.133   4.678  0.7329 -0.0505 -1.8222
 4216SOL     OW24280   2.556   0.398   6.849 -0.2428  0.2416 -0.0198
 4216SOL    HW124281   2.610   0.433   6.778  1.0015 -2.6883 -0.5127
 4216SOL    HW224282   2.519   0.476   6.890 -0.1832 -0.0186  0.5231
 4217SOL     OW24283   0.665   0.231   6.716 -0.1333 -0.3683  0.1325
 4217SOL    HW124284   0.587   0.285   6.728 -0.2930 -0.4323 -0.6213
 4217SOL    HW224285   0.641   0.189   6.634 -1.5752 -1.2013  0.9740
 4218SOL     OW24286   2.957   1.554   2.563 -0.1015 -0.7208  0.7482
 4218SOL    HW124287   2.936   1.463   2.541 -0.6903 -0.1297 -1.0671
 4218SOL    HW224288   2.875   1.590   2.598  0.1221  0.1264  0.3932
 4219SOL     OW24289   0.124   4.628   2.377 -0.1825 -0.6125  0.0687
 4219SOL    HW124290   0.040   4.663   2.347 -0.2424  0.7527  1.8539
 4219SOL    HW224291   0.133   4.678   2.457 -0.7860 -2.1632  1.1124
 4220SOL     OW24292   2.738   4.459   5.714 -0.1230 -0.3131  0.5102
 4220SOL    HW124293   2.699   4.375   5.690  2.3857 -1.4346  0.3239
 4220SOL    HW224294   2.727   4.464   5.809  0.0469 -3.2951  0.7017
 4221SOL     OW24295   4.375   4.010   6.113 -0.3641  0.8753 -0.1538
 4221SOL    HW124296   4.373   4.080   6.048 -0.1393  0.9837 -0.0427
 4221SOL    HW224297   4.362   3.933   6.057 -1.3975  0.9258  0.0162
 4222SOL     OW24298   4.338   2.917   8.334 -0.4262 -0.3717 -0.2346
 4222SOL    HW124299   4.286   2.904   8.254 -1.9657  0.8648  0.5667
 4222SOL    HW224300   4.262   2.907   8.392  0.3431 -0.6217  0.7144
 4223SOL     OW24301   2.281   0.302   5.189 -0.2241 -0.0423 -0.3278
 4223SOL    HW124302   2.351   0.311   5.125 -1.3328 -1.3578 -1.7240
 4223SOL    HW224303   2.305   0.225   5.241 -1.7217  1.5365  2.7309
 4224SOL     OW24304   1.285   2.188   6.637 -0.0383 -0.1151 -0.2585
 4224SOL    HW124305   1.321   2.119   6.694  0.6482  1.2169  0.9281
 4224SOL    HW224306   1.364   2.189   6.582  1.0302 -1.1823  1.2448
 4225SOL     OW24307   3.378   2.224   0.532 -0.3610  0.1831 -0.0655
 4225SOL    HW124308   3.391   2.316   0.553 -0.5796  0.1630  0.1600
 4225SOL    HW224309   3.466   2.208   0.497  0.1043 -2.3343  2.1891
 4226SOL     OW24310   1.115   2.666  13.306  0.0228  0.3128 -0.3834
 4226SOL    HW124311   1.177   2.666  13.232  0.8298 -1.6006  0.2796
 4226SOL    HW224312   1.126   2.752  13.345 -0.6804 -0.0280  0.5649
 4227SOL     OW24313   1.738   1.332   8.950 -0.3887 -0.0456  0.2923
 4227SOL    HW124314   1.775   1.363   8.867  0.0311  1.8075  1.1755
 4227SOL    HW224315   1.769   1.241   8.953 -0.5991 -0.1149  0.3600
 4228SOL     OW24316   4.490   3.056   5.887  0.5457 -0.1330 -0.2231
 4228SOL    HW124317   4.582   3.074   5.872  0.8859 -2.5544 -0.9875
 4228SOL    HW224318   4.489   2.962   5.873 -0.9801 -0.1375 -0.0874
 4229SOL     OW24319   0.531   4.282   2.053  0.3782  0.1339  0.0244
 4229SOL    HW124320   0.584   4.266   1.975  2.0276 -0.6005  1.2962
 4229SOL    HW224321   0.497   4.194   2.066 -0.9720  0.9395  1.9588
 4230SOL     OW24322   1.740   2.382   5.218 -0.2175  0.0152  0.2955
 4230SOL    HW124323   1.770   2.411   5.132  1.2739  0.1399  0.8654
 4230SOL    HW224324   1.796   2.305   5.222  0.8700  0.7940 -0.0181
 4231SOL     OW24325   1.527   3.760   2.681  0.3025 -0.2514 -0.0160
 4231SOL    HW124326   1.590   3.690   2.695  0.8160  0.6752  2.1732
 4231SOL    HW224327   1.460   3.753   2.749  0.8166  1.3906  0.6556
 4232SOL     OW24328   2.137   3.470  14.494  0.0577 -0.1136 -0.2475
 4232SOL    HW124329   2.206   3.532  14.473  2.4515 -2.7313 -0.1036
 4232SOL    HW224330   2.067   3.534  14.499  1.9149  1.8868 -0.1497
 4233SOL     OW24331   0.585   2.003   3.811 -0.1943  0.2135 -0.5928
 4233SOL    HW124332   0.667   2.052   3.822  0.6128 -1.2720  0.0784
 4233SOL    HW224333   0.544   2.070   3.756 -1.6622 -0.9370 -0.9021
 4234SOL     OW24334   2.033   0.325   7.506 -0.9337  0.5204 -0.2557
 4234SOL    HW124335   1.979   0.337   7.428  1.3448  3.6227 -1.3579
 4234SOL    HW224336   2.100   0.392   7.494 -0.2716  0.2598  1.8724
 4235SOL     OW24337   2.967   3.836   5.385 -0.7121 -0.3516  0.3296
 4235SOL    HW124338   2.875   3.862   5.389  0.1755  2.8029  0.9316
 4235SOL    HW224339   3.025   3.910   5.368 -0.7294 -0.9410 -2.1717
 4236SOL     OW24340   3.236   1.857  11.177 -0.3960  0.0853 -0.6242
 4236SOL    HW124341   3.304   1.924  11.184 -2.9390  2.6396 -0.8474
 4236SOL    HW224342   3.281   1.779  11.212 -0.2194  0.4692 -0.0085
 4237SOL     OW24343   3.629   4.648   6.862 -0.2604  0.1054 -0.0528
 4237SOL    HW124344   3.673   4.692   6.789  0.6728 -0.4661  0.1499
 4237SOL    HW224345   3.597   4.565   6.825  1.5372 -0.8632  0.5088
 4238SOL     OW24346   0.557   3.048   8.333  0.0284 -0.0397  0.1525
 4238SOL    HW124347   0.526   3.096   8.410  0.1370  0.9859 -0.4431
 4238SOL    HW224348   0.476   3.017   8.292  1.1552 -0.5438 -1.6784
 4239SOL     OW24349   3.515   2.577   9.104  0.0576  0.5094 -0.3291
 4239SOL    HW124350   3.587   2.623   9.147 -1.2648  1.1585  1.1720
 4239SOL    HW224351   3.501   2.630   9.026 -0.4927  1.5582  0.4830
 4240SOL     OW24352   3.451   2.959   7.151  0.1484 -0.1317  0.0473
 4240SOL    HW124353   3.530   2.906   7.137 -0.4482 -1.3454  1.2344
 4240SOL    HW224354   3.431   2.919   7.236 -0.1255 -0.9535 -0.4045
 4241SOL     OW24355   0.969   1.969   3.732  0.5087 -0.2690  0.2617
 4241SOL    HW124356   0.944   1.995   3.643  1.3320 -0.7068 -0.0983
 4241SOL    HW224357   1.040   2.027   3.758  1.0340 -0.6871 -0.2504
 4242SOL     OW24358   0.519   1.352   8.191 -0.3781  0.0798  0.1062
 4242SOL    HW124359   0.600   1.304   8.173 -1.4380 -1.5918 -0.1975
 4242SOL    HW224360   0.533   1.445   8.171  1.8826 -0.7070 -1.8996
 4243SOL     OW24361   1.541   4.134  10.902 -0.0504  0.4877 -0.0170
 4243SOL    HW124362   1.525   4.176  10.817 -1.2330 -1.0401 -0.5491
 4243SOL    HW224363   1.513   4.044  10.887 -1.0149  0.4455  2.0010
 4244SOL     OW24364   2.050   2.575   3.349  0.1426  0.4012  0.4552
 4244SOL    HW124365   2.030   2.509   3.416  1.3833  0.2682  0.6937
 4244SOL    HW224366   2.091   2.643   3.403 -0.8553  1.5872 -0.2662
 4245SOL     OW24367   3.674   2.157   5.124 -0.1306 -0.3274  0.3169
 4245SOL    HW124368   3.620   2.189   5.196 -0.8798  2.1679 -1.3274
 4245SOL    HW224369   3.755   2.203   5.143  1.0575 -1.3491 -2.1999
 4246SOL     OW24370   0.038   3.857   4.253  0.5827 -0.3231  0.0302
 4246SOL    HW124371   0.020   3.833   4.162  0.0191 -1.2739  0.3881
 4246SOL    HW224372   4.730   3.785   4.301  0.1415 -0.7800 -1.0353
 4247SOL     OW24373   0.583   4.572   5.078 -0.1327  0.2685 -0.5560
 4247SOL    HW124374   0.526   4.495   5.071  0.4907  0.2389 -5.5488
 4247SOL    HW224375   0.605   4.587   5.169 -1.8117  0.2176 -0.1405
 4248SOL     OW24376   4.704   3.149   8.410 -0.4805 -0.2047 -0.1208
 4248SOL    HW124377   4.653   3.134   8.330 -1.1246  0.5685  0.1496
 4248SOL    HW224378   0.063   3.150   8.387 -0.1948 -1.4288  0.9840
 4249SOL     OW24379   1.454   3.914   3.477  0.7801  0.5591  0.6253
 4249SOL    HW124380   1.399   3.899   3.400  1.1707 -0.2065  0.4954
 4249SOL    HW224381   1.459   3.822   3.503 -1.0984  1.0184  2.6299
 4250SOL     OW24382   1.342   3.751   2.892  0.0630  0.1387  0.7839
 4250SOL    HW124383   1.330   3.661   2.922  0.8333 -0.8359 -1.8025
 4250SOL    HW224384   1.252   3.780   2.876  0.9243  2.0488 -0.6454
 4251SOL     OW24385   4.171   1.251   7.113  0.0695 -0.1714 -0.2358
 4251SOL    HW124386   4.244   1.310   7.096  0.1500 -0.6026 -1.4121
 4251SOL    HW224387   4.106   1.321   7.119  0.7702  0.4357  0.2039
 4252SOL     OW24388   2.944   3.816   3.106 -0.0252  0.6869  0.0305
 4252SOL    HW124389   2.865   3.843   3.153 -1.8004 -0.9591 -2.0209
 4252SOL    HW224390   3.012   3.841   3.169  0.5453  1.1233 -0.7643
 4253SOL     OW24391   0.358   4.084   3.417  0.2533  0.0333  0.2938
 4253SOL    HW124392   0.436   4.089   3.361 -1.2266 -2.4078 -1.9350
 4253SOL    HW224393   0.406   4.054   3.494 -0.5859 -0.0025  0.8008
 4254SOL     OW24394   3.655   3.032   8.837 -0.1964  0.3494 -0.0058
 4254SOL    HW124395   3.711   3.005   8.764 -1.6180 -0.3941 -0.8046
 4254SOL    HW224396   3.694   3.120   8.842 -0.3703  0.3784  0.7872
 4255SOL     OW24397   0.994   0.718   0.044  0.5606  0.4076  0.0515
 4255SOL    HW124398   0.987   0.801   0.092  0.3725  1.3579 -1.6035
 4255SOL    HW224399   0.906   0.707   0.008  0.7630 -0.9601 -0.0088
 4256SOL     OW24400   1.979   1.999   9.808  0.2549 -0.3909 -0.3441
 4256SOL    HW124401   1.992   1.919   9.758 -2.9859 -1.7366  0.9858
 4256SOL    HW224402   2.045   1.987   9.876  1.0819  2.8260 -0.5732
 4257SOL     OW24403   2.561   4.309   1.161 -0.3141 -0.0575 -0.1062
 4257SOL    HW124404   2.585   4.223   1.125 -0.4061  0.0654 -0.4652
 4257SOL    HW224405   2.640   4.347   1.199  0.3675 -1.3986 -0.1824
 4258SOL     OW24406   3.862   0.309  15.460  0.5306 -0.5382  0.0183
 4258SOL    HW124407   3.820   0.282  15.541 -0.2118 -0.5020 -0.3604
 4258SOL    HW224408   3.815   0.390  15.441  0.9079 -0.3475 -0.1082
 4259SOL     OW24409   0.764   2.232   9.480  0.2720  0.0330  0.1493
 4259SOL    HW124410   0.669   2.239   9.475  0.2632 -0.0348  0.2446
 4259SOL    HW224411   0.776   2.150   9.528 -0.7758  1.2389  2.4699
 4260SOL     OW24412   2.495   0.934   2.517  0.5705  0.3068 -0.3029
 4260SOL    HW124413   2.506   0.878   2.440 -1.4365 -3.5857  2.3022
 4260SOL    HW224414   2.401   0.930   2.531  0.7495 -0.5386  0.5866
 4261SOL     OW24415   1.785   1.207  10.009 -0.8974  0.4054  0.4916
 4261SOL    HW124416   1.701   1.166   9.987 -2.4232  3.0113  1.5696
 4261SOL    HW224417   1.788   1.277   9.943 -0.9102 -1.3800 -1.4193
 4262SOL     OW24418   2.868   0.423   8.633  0.7955  0.6103  0.2182
 4262SOL    HW124419   2.924   0.370   8.577  2.6686  2.2256  0.5571
 4262SOL    HW224420   2.945   0.455   8.679 -0.1977  2.5421  0.5453
 4263SOL     OW24421   1.367   0.879   5.099 -0.3195 -0.2314  0.3590
 4263SOL    HW124422   1.406   0.800   5.061 -1.0108 -0.9787  1.2312
 4263SOL    HW224423   1.417   0.948   5.055 -1.2634 -0.3067 -0.8533
 4264SOL     OW24424   4.684   3.232   5.521  0.3407  0.3974  0.6834
 4264SOL    HW124425   4.617   3.285   5.479  1.5609  0.9421 -0.5545
 4264SOL    HW224426   0.027   3.288   5.524 -0.7306  1.8496  1.0466
 4265SOL     OW24427   2.814   3.891   2.386  0.9041  0.3395  0.2278
 4265SOL    HW124428   2.768   3.807   2.385  2.4620 -0.5292  2.2918
 4265SOL    HW224429   2.824   3.907   2.292 -3.0333 -1.2064 -0.4660
 4266SOL     OW24430   0.195   2.912   1.594 -0.1099  0.2259 -0.1039
 4266SOL    HW124431   0.284   2.879   1.606 -0.9226 -2.0771 -0.3806
 4266SOL    HW224432   0.208   3.001   1.560 -0.8174  0.7661  1.0503
 4267SOL     OW24433   0.853   4.627   3.527  0.1934 -0.2697  0.5988
 4267SOL    HW124434   0.831   4.716   3.503 -1.7601 -0.7674  0.5281
 4267SOL    HW224435   0.816   4.623   3.616  1.0288 -0.8505  0.9195
 4268SOL     OW24436   3.068   0.352  15.064  0.1452 -0.8199 -0.4057
 4268SOL    HW124437   3.019   0.423  15.024  0.9733 -1.9981 -3.5896
 4268SOL    HW224438   3.028   0.280  15.014  0.0430  0.2454 -1.8572
 4269SOL     OW24439   4.191   1.538  12.803 -0.2474 -0.3141  0.0616
 4269SOL    HW124440   4.227   1.462  12.757 -1.6923 -0.8523 -0.1990
 4269SOL    HW224441   4.236   1.529  12.886  0.2541  0.3641 -0.1351
 4270SOL     OW24442   3.638   0.851   0.419 -0.5225  0.6974  0.2333
 4270SOL    HW124443   3.698   0.926   0.422 -0.4239  0.5981  0.6561
 4270SOL    HW224444   3.557   0.902   0.410 -1.1551 -0.4958 -0.7435
 4271SOL     OW24445   3.099   4.536   5.989  0.1874  0.3885  0.2824
 4271SOL    HW124446   3.004   4.524   5.996  0.2051 -1.0095 -2.1248
 4271SOL    HW224447   3.117   4.492   5.906  1.1737 -2.3725  1.9511
 4272SOL     OW24448   0.679   1.239  13.094  0.8332 -0.5574 -0.0829
 4272SOL    HW124449   0.724   1.282  13.021  2.1881 -0.3179  0.8827
 4272SOL    HW224450   0.671   1.149  13.062 -0.9383 -0.3359 -0.2453
 4273SOL     OW24451   4.492   0.083  15.256  0.9945  0.0293 -0.5223
 4273SOL    HW124452   4.535   0.103  15.173 -0.6524  1.8430 -0.9482
 4273SOL    HW224453   4.522   4.727  15.252 -0.9732 -0.7207  1.7720
 4274SOL     OW24454   3.696   0.875   8.851  0.5105 -0.0862  0.4684
 4274SOL    HW124455   3.625   0.875   8.787 -0.3940  0.3914  1.4710
 4274SOL    HW224456   3.740   0.948   8.807 -0.2170  0.5043  0.7250
 4275SOL     OW24457   2.445   1.719   3.482 -0.1048 -0.0856  0.4588
 4275SOL    HW124458   2.447   1.636   3.528 -1.3461  0.9433  2.3668
 4275SOL    HW224459   2.503   1.770   3.539  0.3375 -0.1104  0.0313
 4276SOL     OW24460   3.180   3.321   9.689  0.2277  0.1926 -0.1170
 4276SOL    HW124461   3.245   3.253   9.703 -0.3031  0.1096  2.0669
 4276SOL    HW224462   3.220   3.397   9.647 -1.3957  0.5312 -1.0645
 4277SOL     OW24463   0.484   3.628  10.190 -0.1560  0.2738  0.3875
 4277SOL    HW124464   0.531   3.630  10.106  0.0989 -1.7583  0.4781
 4277SOL    HW224465   0.413   3.691  10.179  0.6699  0.9029 -1.2723
 4278SOL     OW24466   1.949   2.631   2.096 -0.4942 -0.2055  0.6136
 4278SOL    HW124467   1.999   2.602   2.019 -1.1240 -1.8298  0.8238
 4278SOL    HW224468   1.970   2.580   2.174  0.5072  1.8283  1.6816
 4279SOL     OW24469   0.474   0.586  14.699 -0.6904 -0.0923  0.2624
 4279SOL    HW124470   0.395   0.532  14.712  0.0355 -1.7033 -1.9559
 4279SOL    HW224471   0.454   0.652  14.765 -0.0894 -0.4170  0.7688
 4280SOL     OW24472   2.412   0.971   5.561  0.3592  0.6073 -0.0740
 4280SOL    HW124473   2.367   1.051   5.535 -2.0225 -0.1546  1.6734
 4280SOL    HW224474   2.382   0.915   5.489  0.3320 -1.5802  1.6286
 4281SOL     OW24475   4.444   0.278   4.924  0.2090  0.0569 -0.2271
 4281SOL    HW124476   4.470   0.216   4.855 -2.9442 -0.6130 -0.8015
 4281SOL    HW224477   4.401   0.217   4.984  2.0557 -1.6959 -0.6554
 4282SOL     OW24478   3.934   0.727  11.957 -0.1597  0.2594 -0.1336
 4282SOL    HW124479   3.954   0.649  11.905  0.7849 -0.3374  1.1354
 4282SOL    HW224480   3.941   0.683  12.042 -2.4837  0.3824  0.1417
 4283SOL     OW24481   3.710   2.045   1.568  0.5071 -0.2351 -0.5835
 4283SOL    HW124482   3.686   1.976   1.506  1.1183 -0.7140 -0.2839
 4283SOL    HW224483   3.731   1.992   1.646 -0.3622  1.5157  0.8330
 4284SOL     OW24484   0.489   2.798  12.220 -0.2737 -0.0489 -0.0695
 4284SOL    HW124485   0.539   2.877  12.238  1.2529 -0.9290 -0.4496
 4284SOL    HW224486   0.476   2.768  12.310 -0.7694 -3.1126 -1.1481
 4285SOL     OW24487   0.850   2.086  14.662  0.1262 -0.2553  0.1323
 4285SOL    HW124488   0.879   2.019  14.600 -4.1110 -0.2308 -1.9232
 4285SOL    HW224489   0.885   2.166  14.622 -2.5279  0.1133 -1.4795
 4286SOL     OW24490   2.128   0.206   7.238 -0.0361  0.3009 -0.2809
 4286SOL    HW124491   2.045   0.242   7.267  0.7109  2.6037 -0.9883
 4286SOL    HW224492   2.172   0.287   7.211 -0.5020  0.1102 -1.6365
 4287SOL     OW24493   0.058   4.368  12.713  0.3141  0.3262  0.0483
 4287SOL    HW124494   4.721   4.344  12.773 -2.5924  2.1516 -2.7151
 4287SOL    HW224495   0.117   4.293  12.723 -0.3337  0.0404  1.7713
 4288SOL     OW24496   3.079   0.237   2.079  0.1331  0.4223 -0.2543
 4288SOL    HW124497   3.015   0.303   2.106 -0.7686 -0.7046  0.3736
 4288SOL    HW224498   3.139   0.240   2.154  0.8593  1.0195 -0.8631
 4289SOL     OW24499   2.122   0.740  13.543  0.1689 -0.4678 -0.1191
 4289SOL    HW124500   2.105   0.655  13.502 -0.9358 -0.0624 -0.4725
 4289SOL    HW224501   2.065   0.737  13.620  0.3010 -1.3505 -0.0578
 4290SOL     OW24502   2.038   0.316   8.599 -0.3408  0.1197 -0.0716
 4290SOL    HW124503   2.085   0.395   8.570 -0.0444  0.1245  0.4155
 4290SOL    HW224504   2.104   0.282   8.660  1.4804  1.1199 -1.4864
 4291SOL     OW24505   1.452   2.441   5.070  0.2746  0.1261  0.2309
 4291SOL    HW124506   1.430   2.500   4.998  2.5874 -2.2402 -2.4323
 4291SOL    HW224507   1.533   2.472   5.111 -0.3686  1.2128  0.6753
 4292SOL     OW24508   0.735   0.723  10.286  0.5980  0.5753 -0.1649
 4292SOL    HW124509   0.791   0.801  10.290 -2.4885  2.8097  0.2207
 4292SOL    HW224510   0.764   0.679  10.366 -0.4927 -1.0814 -0.6797
 4293SOL     OW24511   0.188   2.164  17.480 -0.3102  0.5435 -0.3516
 4293SOL    HW124512   0.167   2.167  17.387 -0.9170  0.0063 -0.2294
 4293SOL    HW224513   0.112   2.125  17.523  0.7626 -0.1215  0.9371
 4294SOL     OW24514   4.679   0.783   9.597 -0.0127  0.4863  0.6779
 4294SOL    HW124515   4.666   0.688   9.600 -0.5634  0.5647  0.7085
 4294SOL    HW224516   0.005   0.792   9.672  1.2408 -2.5109  0.0464
 4295SOL     OW24517   4.317   0.818  12.096  0.3614 -0.6181 -0.5148
 4295SOL    HW124518   4.293   0.770  12.175  1.1277  2.8701  1.8482
 4295SOL    HW224519   4.250   0.887  12.092  0.6905 -0.1772  1.5114
 4296SOL     OW24520   0.083   2.492   2.520 -0.2259 -0.5541  0.0344
 4296SOL    HW124521   0.070   2.585   2.539  2.9360  0.2623 -1.8342
 4296SOL    HW224522   0.072   2.451   2.606 -1.1484 -4.4891 -1.9741
 4297SOL     OW24523   3.214   4.437   1.728 -0.7102  0.0687  0.5327
 4297SOL    HW124524   3.262   4.371   1.779 -1.5579 -0.3930  0.7328
 4297SOL    HW224525   3.173   4.485   1.800  0.8284 -0.6740  1.9185
 4298SOL     OW24526   4.693   4.608  17.616 -0.4258  0.0072 -0.1384
 4298SOL    HW124527   0.043   4.598  17.659 -0.2127 -1.3426 -0.8387
 4298SOL    HW224528   4.710   4.645  17.529 -3.1887  0.1142 -0.6295
 4299SOL     OW24529   2.877   3.930   0.672 -0.4715  0.8381  0.1202
 4299SOL    HW124530   2.890   3.851   0.724 -0.7671  1.2456  0.8081
 4299SOL    HW224531   2.957   3.925   0.619 -1.0852 -0.8745 -0.6566
 4300SOL     OW24532   3.689   0.094   6.636  0.0113  0.1482 -0.1270
 4300SOL    HW124533   3.688   0.184   6.603  1.3263 -0.8482 -2.9281
 4300SOL    HW224534   3.743   0.054   6.567  0.4182  1.1082 -0.3629
 4301SOL     OW24535   2.310   2.476   6.866 -0.3192 -0.5450  0.6275
 4301SOL    HW124536   2.371   2.475   6.940  2.4936  3.6633 -1.6884
 4301SOL    HW224537   2.242   2.529   6.908  1.2725  0.5242  1.8116
 4302SOL     OW24538   1.862   3.749  16.119 -0.1801 -0.4864  0.1465
 4302SOL    HW124539   1.795   3.716  16.059 -1.0539 -0.2404  0.9888
 4302SOL    HW224540   1.828   3.711  16.200 -1.2157  0.3089  0.0973
 4303SOL     OW24541   0.015   1.053   3.585 -0.3718  0.0038  0.3801
 4303SOL    HW124542   0.088   1.115   3.580 -0.7985  0.4832  0.1313
 4303SOL    HW224543   0.056   0.992   3.646  1.1349 -0.0942 -0.7461
 4304SOL     OW24544   2.329   2.666   7.320 -0.0334 -0.2674  0.5962
 4304SOL    HW124545   2.327   2.730   7.391  2.5463  1.6416 -1.0738
 4304SOL    HW224546   2.265   2.706   7.261  0.9526  1.0202  0.4076
 4305SOL     OW24547   0.469   1.947  12.154  0.0319  0.6752 -0.8486
 4305SOL    HW124548   0.403   1.933  12.222  0.3049  2.2751 -0.2673
 4305SOL    HW224549   0.530   2.008  12.196  1.7853 -1.6338 -0.0200
 4306SOL     OW24550   1.030   2.601  15.080 -0.0338  0.0188  0.0451
 4306SOL    HW124551   0.997   2.544  15.011  0.3343 -2.2270  1.7475
 4306SOL    HW224552   0.965   2.671  15.088 -0.0637 -0.1510  1.2022
 4307SOL     OW24553   0.697   0.015   4.418 -0.3677  0.4095  0.0432
 4307SOL    HW124554   0.762   0.012   4.349 -3.5935 -2.2249 -2.8861
 4307SOL    HW224555   0.622   0.034   4.362  1.4076  3.4080 -1.3188
 4308SOL     OW24556   4.321   2.065   1.164 -0.3006  0.4399 -0.1707
 4308SOL    HW124557   4.291   2.128   1.229 -1.2794 -1.1039  0.8666
 4308SOL    HW224558   4.357   2.117   1.092  0.2050 -1.1449 -1.0591
 4309SOL     OW24559   3.502   3.609   2.691  0.0051  0.0968 -0.1910
 4309SOL    HW124560   3.529   3.518   2.684 -0.3305 -0.0418  0.3636
 4309SOL    HW224561   3.584   3.656   2.673  1.6573 -2.6825  0.0996
 4310SOL     OW24562   0.490   2.219   8.320 -0.1227 -0.4905 -0.3732
 4310SOL    HW124563   0.438   2.298   8.313 -0.0285 -0.6074 -2.3857
 4310SOL    HW224564   0.459   2.171   8.396 -0.0905  0.9685  0.5554
 4311SOL     OW24565   1.764   3.204   7.335  0.2534 -0.3099 -0.1022
 4311SOL    HW124566   1.723   3.125   7.370  0.9940 -1.4118 -1.7215
 4311SOL    HW224567   1.690   3.265   7.334  0.0211 -0.5344  1.7858
 4312SOL     OW24568   1.415   0.025   4.856  0.0244  0.3702 -0.0491
 4312SOL    HW124569   1.493   0.064   4.896  0.8882  1.4983 -2.8606
 4312SOL    HW224570   1.416   0.083   4.780 -1.6067  1.6253  0.8926
 4313SOL     OW24571   3.634   1.925   1.867  0.0197  0.3817  0.1824
 4313SOL    HW124572   3.543   1.941   1.843  0.5674  0.4916 -1.8941
 4313SOL    HW224573   3.632   1.840   1.911 -1.1350  0.9483  1.1963
 4314SOL     OW24574   4.507   4.358   2.643  0.4211  0.0546  0.2042
 4314SOL    HW124575   4.555   4.278   2.626  1.9447  0.9265  0.4416
 4314SOL    HW224576   4.515   4.413   2.564  0.6134  1.4918  1.2202
 4315SOL     OW24577   3.896   2.249   8.999 -0.4258 -0.6870  0.0683
 4315SOL    HW124578   3.930   2.328   8.956 -0.5440  0.3811  1.9456
 4315SOL    HW224579   3.817   2.231   8.947 -0.5043 -0.9727  0.2870
 4316SOL     OW24580   2.651   1.047   6.848 -0.6976 -0.4796  0.4492
 4316SOL    HW124581   2.642   0.990   6.925 -1.0484 -0.2469  0.5809
 4316SOL    HW224582   2.642   0.979   6.782  1.3315  1.1791 -1.5101
 4317SOL     OW24583   2.346   3.486   4.756 -0.1145  0.0111  0.1771
 4317SOL    HW124584   2.390   3.564   4.723 -1.4028 -0.5020 -2.7117
 4317SOL    HW224585   2.265   3.482   4.706 -0.7138  1.0417  1.0625
 4318SOL     OW24586   2.106   3.839   8.892 -0.1384  0.4326 -0.8268
 4318SOL    HW124587   2.037   3.887   8.846  0.1080  2.5319  0.9662
 4318SOL    HW224588   2.174   3.843   8.824 -0.3923 -0.5239 -1.1392
 4319SOL     OW24589   1.664   2.677   6.327  0.5688  0.1364 -0.4015
 4319SOL    HW124590   1.689   2.715   6.243 -0.5691 -2.0190 -1.7422
 4319SOL    HW224591   1.739   2.717   6.369  0.8015 -0.1910 -0.4994
 4320SOL     OW24592   4.701   3.470  16.017  0.3735  0.4066 -0.7598
 4320SOL    HW124593   4.649   3.550  16.028  2.6722  1.7102  0.5921
 4320SOL    HW224594   4.633   3.416  15.977 -0.0089 -0.8540  1.5548
 4321SOL     OW24595   2.081   1.845   8.424 -0.4255  0.3948  0.0463
 4321SOL    HW124596   2.056   1.937   8.428  2.3430  1.1081  1.1006
 4321SOL    HW224597   2.092   1.834   8.518 -1.1019  1.1683  0.2167
 4322SOL     OW24598   2.923   2.397   5.732  0.1370  0.2991 -0.0948
 4322SOL    HW124599   2.925   2.357   5.644  0.0320 -1.5923  0.7573
 4322SOL    HW224600   2.854   2.338   5.763 -0.8932  1.2678 -0.5747
 4323SOL     OW24601   4.002   3.534   7.421  0.5519 -0.0242 -0.1642
 4323SOL    HW124602   3.951   3.593   7.476  2.0658  0.0087  1.1922
 4323SOL    HW224603   4.059   3.594   7.372  0.3866  1.6661  1.7181
 4324SOL     OW24604   1.555   3.992   5.072  0.0702  0.0900 -0.3083
 4324SOL    HW124605   1.526   3.987   4.981 -0.9315 -2.6339  0.1718
 4324SOL    HW224606   1.574   4.086   5.081 -2.7068  0.7627 -1.5440
 4325SOL     OW24607   3.230   2.083   8.108 -0.3716 -0.0030  0.7030
 4325SOL    HW124608   3.145   2.104   8.146 -0.3999  0.4217  0.4009
 4325SOL    HW224609   3.213   2.087   8.014 -0.7466  0.9660  0.8125
 4326SOL     OW24610   1.840   4.106   4.987  0.2301  0.2463 -0.3141
 4326SOL    HW124611   1.916   4.108   4.930  0.1990  0.1336 -0.3601
 4326SOL    HW224612   1.844   4.197   5.015 -0.7978 -0.0661  0.8986
 4327SOL     OW24613   2.403   2.106  17.499 -0.7004  0.2341  0.0342
 4327SOL    HW124614   2.314   2.071  17.497 -0.3982 -0.5958  0.7346
 4327SOL    HW224615   2.414   2.125  17.406  0.9751  0.9015  0.3816
 4328SOL     OW24616   1.976   3.606   2.515 -0.0511 -0.4936  0.5809
 4328SOL    HW124617   2.048   3.628   2.455 -0.6348 -0.5032 -0.1306
 4328SOL    HW224618   1.981   3.666   2.589  3.4121  0.1764 -0.1780
 4329SOL     OW24619   0.059   2.454  13.462 -0.0857  0.2370 -0.1470
 4329SOL    HW124620   0.083   2.509  13.536 -0.7790  0.0205  0.2445
 4329SOL    HW224621   0.078   2.521  13.397  0.7339 -0.2241 -0.3715
 4330SOL     OW24622   3.586   2.296  10.222  0.1391 -0.1778 -0.1902
 4330SOL    HW124623   3.514   2.297  10.158 -0.0438 -0.4256  0.0084
 4330SOL    HW224624   3.611   2.388  10.228 -0.9612  0.1428 -0.4492
 4331SOL     OW24625   1.266   0.094   8.631  0.1381  0.8849  0.1744
 4331SOL    HW124626   1.245   0.019   8.576 -0.9564  0.1073  1.6655
 4331SOL    HW224627   1.261   0.172   8.575 -2.1190  0.2841 -0.4780
 4332SOL     OW24628   2.087   3.148  15.926  0.2746  0.1462 -0.0797
 4332SOL    HW124629   2.180   3.139  15.903 -0.0789 -0.5237 -1.1901
 4332SOL    HW224630   2.092   3.090  16.002 -0.7782  0.4038  0.1891
 4333SOL     OW24631   1.455   3.058  17.002 -0.2735  0.4926 -0.1809
 4333SOL    HW124632   1.550   3.057  17.003 -0.3245 -0.5421  2.1761
 4333SOL    HW224633   1.433   3.118  16.930  1.9560  1.6850  0.1302
 4334SOL     OW24634   4.467   4.479  17.688  0.2650 -0.4319  0.0697
 4334SOL    HW124635   4.544   4.534  17.672  0.6754 -1.3423 -1.1186
 4334SOL    HW224636   4.401   4.529  17.641  1.3539 -0.7119 -1.7734
 4335SOL     OW24637   1.429   2.169   4.988 -0.1214  0.0502 -0.4525
 4335SOL    HW124638   1.335   2.185   4.977 -0.2479  0.9355  1.9269
 4335SOL    HW224639   1.446   2.250   5.035 -0.2178  0.5872 -1.3570
 4336SOL     OW24640   0.304   2.620   7.392  0.7035  0.1235  0.7920
 4336SOL    HW124641   0.395   2.636   7.365  0.6821 -0.9919  0.0762
 4336SOL    HW224642   0.315   2.567   7.471 -0.7633 -1.7820 -0.3093
 4337SOL     OW24643   0.421   1.420   9.604 -0.6904  0.1315 -0.0801
 4337SOL    HW124644   0.384   1.341   9.564  0.5208  0.4277 -1.7675
 4337SOL    HW224645   0.347   1.480   9.605  0.1600  1.1599  1.0190
 4338SOL     OW24646   1.604   0.556   4.596  0.0927 -0.8124  0.2117
 4338SOL    HW124647   1.578   0.648   4.594 -1.2216 -1.2060 -1.0200
 4338SOL    HW224648   1.581   0.534   4.506  0.9945 -0.3133 -0.1401
 4339SOL     OW24649   0.582   2.238   6.372  0.1908 -0.4079  0.4507
 4339SOL    HW124650   0.568   2.149   6.340 -3.2866  0.3484 -0.0907
 4339SOL    HW224651   0.512   2.232   6.437 -1.8643  0.6280 -1.6800
 4340SOL     OW24652   2.644   2.331   7.666  0.0275 -0.3981  0.1405
 4340SOL    HW124653   2.559   2.368   7.641  0.7274  1.0292 -0.1365
 4340SOL    HW224654   2.657   2.372   7.751 -1.7052  0.6301 -0.0884
 4341SOL     OW24655   0.178   1.728   3.729  0.0873  0.3378 -0.0427
 4341SOL    HW124656   0.272   1.746   3.733  0.1626 -0.4137  1.4655
 4341SOL    HW224657   0.146   1.761   3.813  2.6897 -1.1935  1.5570
 4342SOL     OW24658   1.648   3.671   5.134 -0.4294  0.0299  0.2794
 4342SOL    HW124659   1.692   3.756   5.129 -1.6708  0.8392  2.5574
 4342SOL    HW224660   1.556   3.693   5.152  0.0248  0.5561  2.0551
 4343SOL     OW24661   1.852   3.817   2.348  0.1606 -0.0427  0.4740
 4343SOL    HW124662   1.920   3.789   2.408  0.1957 -2.3396 -0.6717
 4343SOL    HW224663   1.811   3.736   2.320 -1.2748  0.3490  1.3970
 4344SOL     OW24664   1.788   4.013   5.349  0.6534 -0.3670  0.1353
 4344SOL    HW124665   1.748   3.966   5.275 -0.4857  0.2565  0.3628
 4344SOL    HW224666   1.821   3.938   5.397  0.3096  0.0260  0.9824
 4345SOL     OW24667   2.057   2.937   2.355 -0.3909  0.5114  0.2121
 4345SOL    HW124668   2.062   3.009   2.292  0.0631  0.4444  0.1700
 4345SOL    HW224669   2.153   2.941   2.356 -0.1870 -3.7580 -2.0042
 4346SOL     OW24670   0.928   1.886   6.673  0.5399  0.3805  0.2402
 4346SOL    HW124671   0.872   1.891   6.751 -0.6704 -2.1877 -0.5011
 4346SOL    HW224672   0.880   1.929   6.602  0.7895  0.1639 -0.0597
 4347SOL     OW24673   2.434   1.971   5.219  0.3422  0.5498  0.1808
 4347SOL    HW124674   2.477   1.894   5.181 -0.4480  0.0127  0.3635
 4347SOL    HW224675   2.479   2.040   5.171  0.2576  0.1523 -0.4772
 4348SOL     OW24676   1.114   4.646   1.279  0.4435  0.0841 -0.0554
 4348SOL    HW124677   1.152   0.000   1.276 -0.5055  0.4825 -0.2161
 4348SOL    HW224678   1.170   4.599   1.216  0.1787 -2.7559  1.8431
 4349SOL     OW24679   1.278   1.537   8.284  0.5793 -0.7054 -0.0528
 4349SOL    HW124680   1.297   1.591   8.208  0.0782  0.1032  0.3886
 4349SOL    HW224681   1.292   1.603   8.352 -0.9471 -0.8664  0.4260
 4350SOL     OW24682   0.729   2.509   2.908  0.3953 -0.3158  0.8281
 4350SOL    HW124683   0.696   2.530   2.821  0.7939  1.6790  1.1654
 4350SOL    HW224684   0.791   2.577   2.933  0.1438  0.6732 -1.2268
 4351SOL     OW24685   0.675   0.963   5.121  0.0535  0.1141 -0.2142
 4351SOL    HW124686   0.735   0.888   5.120  1.9221  1.6223 -0.2039
 4351SOL    HW224687   0.726   1.018   5.061 -0.0423  0.5721  0.1287
 4352SOL     OW24688   3.574   0.041   3.621 -0.0777  0.2914  0.1398
 4352SOL    HW124689   3.553   0.118   3.675  1.5855  0.0605  1.1157
 4352SOL    HW224690   3.668   0.026   3.628 -0.2341 -0.9230 -0.3395
 4353SOL     OW24691   3.059   4.573   2.940  0.3947 -0.6034  0.2951
 4353SOL    HW124692   3.083   4.530   2.858 -1.2689  0.4013 -0.7223
 4353SOL    HW224693   2.964   4.574   2.928  0.4035 -1.3995  0.1527
 4354SOL     OW24694   0.178   3.956   2.320 -0.1047  0.1731  0.2490
 4354SOL    HW124695   0.127   4.033   2.346  0.0222 -0.1694  1.5251
 4354SOL    HW224696   0.109   3.895   2.298 -0.3623  0.7556 -0.5304
 4355SOL     OW24697   1.070   0.188   4.235  0.0915 -0.3195  0.4295
 4355SOL    HW124698   1.057   0.157   4.325  1.2175 -1.3206  0.2501
 4355SOL    HW224699   1.019   0.269   4.233  1.5062  0.4853 -2.7961
 4356SOL     OW24700   2.832   4.465  16.277 -0.0100  0.1056 -0.4231
 4356SOL    HW124701   2.755   4.519  16.294 -0.8332 -0.7782 -1.3200
 4356SOL    HW224702   2.809   4.382  16.320 -2.7258  0.3462 -1.3940
 4357SOL     OW24703   0.247   4.525  12.826 -0.0107  0.5305 -0.4265
 4357SOL    HW124704   0.174   4.479  12.786 -0.7382  0.2444  1.2643
 4357SOL    HW224705   0.289   4.554  12.744  2.4291 -0.8901  0.3232
 4358SOL     OW24706   4.670   4.373   7.515 -0.0122  0.6849 -0.0710
 4358SOL    HW124707   4.593   4.386   7.458 -0.6272  0.0287  0.6196
 4358SOL    HW224708   4.693   4.284   7.490  0.2413  0.8732 -0.5265
 4359SOL     OW24709   2.121   1.317  15.803  0.0160  0.7348  0.1004
 4359SOL    HW124710   2.172   1.381  15.754  1.1088 -1.0858 -1.1485
 4359SOL    HW224711   2.053   1.354  15.860 -1.0636  0.3252 -0.9156
 4360SOL     OW24712   3.716   2.339   2.814 -0.2931 -1.2733  0.2215
 4360SOL    HW124713   3.684   2.321   2.725  0.0557  3.2410 -0.8203
 4360SOL    HW224714   3.793   2.283   2.817  0.5845 -0.2074 -2.3799
 4361SOL     OW24715   4.634   4.356   9.671  0.8071 -0.3963 -0.2084
 4361SOL    HW124716   4.651   4.292   9.603  0.3216 -3.8246  2.8906
 4361SOL    HW224717   4.704   4.335   9.733  1.6327  1.7093 -0.4163
 4362SOL     OW24718   3.054   1.532   7.962 -0.2118 -0.5712  0.0186
 4362SOL    HW124719   3.130   1.478   7.945  0.8522  1.1281 -0.6580
 4362SOL    HW224720   3.093   1.618   7.949  0.6747 -1.0850 -0.6450
 4363SOL     OW24721   2.414   4.289  12.110  0.1124  0.0827 -0.4824
 4363SOL    HW124722   2.392   4.372  12.067 -2.7419 -0.7684 -0.6601
 4363SOL    HW224723   2.477   4.255  12.047  1.2006  1.3651 -0.0740
 4364SOL     OW24724   2.547   4.455   5.941 -0.0119  0.1393  0.2557
 4364SOL    HW124725   2.514   4.509   5.869 -3.4874 -0.8198  1.1061
 4364SOL    HW224726   2.478   4.461   6.007 -0.1133  3.0443 -0.1262
 4365SOL     OW24727   1.603   1.553   7.648 -0.2696  0.1936  0.8674
 4365SOL    HW124728   1.582   1.513   7.563  0.2906 -1.8075  1.6989
 4365SOL    HW224729   1.513   1.539   7.680 -0.5114  0.6911  0.4185
 4366SOL     OW24730   3.053   2.639   3.025 -0.4115  0.1147  0.1133
 4366SOL    HW124731   3.026   2.549   3.041 -0.9480  0.4640  1.1979
 4366SOL    HW224732   3.118   2.661   3.092  0.2763  1.6865 -1.0690
 4367SOL     OW24733   4.178   4.075   9.621 -0.6188  0.5693  0.4282
 4367SOL    HW124734   4.116   4.054   9.691 -0.6536  2.3946  0.9237
 4367SOL    HW224735   4.250   4.112   9.671  0.2303  1.6956 -1.6276
 4368SOL     OW24736   2.904   0.792   3.615 -0.4892 -0.0360 -0.5883
 4368SOL    HW124737   2.812   0.800   3.640 -0.7211  1.6324 -1.9935
 4368SOL    HW224738   2.943   0.744   3.689  0.3647  0.1231 -0.9422
 4369SOL     OW24739   0.247   3.737   5.228 -0.6813 -0.1488  0.5125
 4369SOL    HW124740   0.180   3.701   5.287  1.3744 -1.6164  1.9473
 4369SOL    HW224741   0.326   3.705   5.272  0.1437 -1.3563 -1.8383
 4370SOL     OW24742   1.894   3.508  12.363  0.0426 -0.1776  0.2360
 4370SOL    HW124743   1.922   3.582  12.311 -1.8483  0.4476  0.1190
 4370SOL    HW224744   1.901   3.435  12.301 -0.9168 -0.1648  0.1127
 4371SOL     OW24745   2.033   2.698   0.480  0.5208  0.0134  0.2113
 4371SOL    HW124746   2.027   2.608   0.448  1.0903  1.1541 -3.0933
 4371SOL    HW224747   1.946   2.731   0.459  0.3521 -1.0517 -0.7902
 4372SOL     OW24748   2.582   2.948  13.343 -0.1902  0.0125 -0.1653
 4372SOL    HW124749   2.511   2.925  13.284 -2.1666  0.2706  2.1195
 4372SOL    HW224750   2.537   2.996  13.413  0.0451 -0.2436  0.1637
 4373SOL     OW24751   2.478   4.249  12.377 -0.1317  0.1543 -0.1719
 4373SOL    HW124752   2.481   4.158  12.406  0.4158  0.1697 -0.1849
 4373SOL    HW224753   2.467   4.253  12.282  1.7259  0.0142 -0.3889
 4374SOL     OW24754   0.059   3.211   4.773  0.4341  0.6825 -0.2369
 4374SOL    HW124755   0.118   3.172   4.838 -0.2945  1.9025  1.1746
 4374SOL    HW224756   0.011   3.265   4.837 -2.4452 -0.9237 -1.0660
 4375SOL     OW24757   1.473   2.382   2.247  0.4584 -0.1711  0.6345
 4375SOL    HW124758   1.410   2.310   2.249  0.5543 -0.2852 -0.5610
 4375SOL    HW224759   1.424   2.429   2.315 -1.2211  0.7365 -1.2166
 4376SOL     OW24760   4.708   1.526  12.250  0.4902 -0.2430  0.1435
 4376SOL    HW124761   4.704   1.444  12.200  0.5993 -1.4218  2.0507
 4376SOL    HW224762   4.728   1.497  12.340  1.6787 -0.6492 -0.2473
 4377SOL     OW24763   0.182   1.377   6.614  0.8689  0.0480  0.3505
 4377SOL    HW124764   0.243   1.429   6.562  2.3557 -0.2681  1.7830
 4377SOL    HW224765   0.115   1.359   6.549  1.5871 -0.8722 -0.1426
 4378SOL     OW24766   4.229   3.312   8.711 -0.3771  0.1632  0.1595
 4378SOL    HW124767   4.256   3.392   8.665  0.2936  0.2345  0.6673
 4378SOL    HW224768   4.204   3.356   8.793 -0.8161  1.3317 -0.5999
 4379SOL     OW24769   0.037   4.527   9.175 -0.2030  0.3717  0.0487
 4379SOL    HW124770   0.046   4.512   9.269  0.9008  0.1504 -0.0945
 4379SOL    HW224771   0.095   4.602   9.169  2.0929 -1.4492 -0.5358
 4380SOL     OW24772   2.922   2.606   8.955  0.1090  0.6345  0.1140
 4380SOL    HW124773   2.938   2.511   8.958  2.2792  0.9929 -0.1330
 4380SOL    HW224774   2.929   2.637   9.045  0.6687  2.3109 -0.5030
 4381SOL     OW24775   3.249   3.551   7.086 -0.7580  0.4697  0.0992
 4381SOL    HW124776   3.326   3.603   7.110 -0.6604  0.1988  0.3787
 4381SOL    HW224777   3.275   3.504   7.006  0.0404  0.3134  0.4472
 4382SOL     OW24778   0.293   4.225   5.970  0.0604  0.3613  0.1882
 4382SOL    HW124779   0.349   4.303   5.970  0.2796  0.2134  2.8638
 4382SOL    HW224780   0.260   4.237   5.881 -0.9286  0.2420  0.5279
 4383SOL     OW24781   2.058   4.182  17.492 -0.0880  0.0808  0.2035
 4383SOL    HW124782   2.133   4.123  17.487 -0.7582 -0.6966 -0.4928
 4383SOL    HW224783   1.981   4.126  17.484 -0.3843  0.2372  1.8107
 4384SOL     OW24784   4.050   0.479   5.261 -0.2632  0.4631  0.1814
 4384SOL    HW124785   4.004   0.512   5.184  0.0980  0.8040  0.1122
 4384SOL    HW224786   4.125   0.538   5.268  1.5450 -1.5310 -2.4666
 4385SOL     OW24787   4.311   1.791   4.875  0.3600 -0.4696  0.7361
 4385SOL    HW124788   4.383   1.729   4.867 -0.0047 -0.7486 -0.3294
 4385SOL    HW224789   4.350   1.852   4.938  1.2114  0.7900 -1.0106
 4386SOL     OW24790   1.535   4.141   2.446  0.1689  0.2495  0.0222
 4386SOL    HW124791   1.598   4.085   2.493 -1.5699  0.0199  2.0999
 4386SOL    HW224792   1.545   4.094   2.364 -1.5352 -0.5367  0.2746
 4387SOL     OW24793   3.205   1.334  12.597  0.7690  0.2771  0.0652
 4387SOL    HW124794   3.138   1.310  12.661  2.0823 -0.7062  1.0876
 4387SOL    HW224795   3.155   1.313  12.518 -0.8238  0.7129  0.9716
 4388SOL     OW24796   1.082   3.909   5.114  0.3794  0.5480  0.2948
 4388SOL    HW124797   1.082   3.934   5.206  1.9999 -1.5673  0.8703
 4388SOL    HW224798   1.161   3.854   5.109  0.4209  0.4706  1.9833
 4389SOL     OW24799   3.898   2.718  11.022  0.0044  0.2127  0.0738
 4389SOL    HW124800   3.936   2.631  11.011 -0.4013 -0.1866  1.7387
 4389SOL    HW224801   3.895   2.725  11.118 -1.0007 -0.5082  0.0930
 4390SOL     OW24802   0.811   1.434   5.558 -0.0481  0.2980 -0.1021
 4390SOL    HW124803   0.828   1.358   5.502  1.9156 -0.0366  0.9456
 4390SOL    HW224804   0.765   1.485   5.492 -0.3580 -2.6281 -2.1952
 4391SOL     OW24805   1.763   3.861   3.714 -0.6955  0.0032  0.1232
 4391SOL    HW124806   1.779   3.770   3.689  0.2770  0.6062 -1.4386
 4391SOL    HW224807   1.738   3.901   3.631 -0.4617 -1.2008 -0.5263
 4392SOL     OW24808   2.691   1.548   5.487 -0.2376 -0.3594 -0.4994
 4392SOL    HW124809   2.717   1.495   5.562  1.7916 -1.2331 -1.8413
 4392SOL    HW224810   2.609   1.589   5.516  0.2016  1.0144 -1.1777
 4393SOL     OW24811   4.694   4.150   4.503  0.3971 -0.4398 -0.3736
 4393SOL    HW124812   0.042   4.196   4.520 -0.2483  0.5354  0.0669
 4393SOL    HW224813   4.650   4.166   4.586 -0.2319 -1.1551 -0.5694
 4394SOL     OW24814   0.261   0.052  10.601 -0.1919 -0.0441  0.2347
 4394SOL    HW124815   0.180   0.102  10.612 -0.7922 -1.1800  0.9716
 4394SOL    HW224816   0.274   0.061  10.507  2.5236 -1.4674  0.4890
 4395SOL     OW24817   3.964   1.710   7.836 -0.2454  0.4195 -0.1345
 4395SOL    HW124818   4.000   1.640   7.782  0.3891  0.0020  0.8287
 4395SOL    HW224819   3.945   1.778   7.772  1.3633 -0.8080 -1.9045
 4396SOL     OW24820   3.410   4.059   2.946 -0.1536 -0.7642  0.2004
 4396SOL    HW124821   3.420   3.991   3.013 -4.2561 -2.5888 -1.0623
 4396SOL    HW224822   3.500   4.088   2.930 -0.1462 -1.2407 -0.6405
 4397SOL     OW24823   4.322   1.737   7.605 -0.6805 -0.5210  0.8362
 4397SOL    HW124824   4.249   1.679   7.627  0.1691 -2.3387 -1.1880
 4397SOL    HW224825   4.398   1.681   7.593 -1.0893 -0.7096 -0.9340
 4398SOL     OW24826   0.526   4.690   1.392  0.6266  0.3568 -0.2328
 4398SOL    HW124827   0.575   4.652   1.319 -0.6895 -1.2644 -0.2896
 4398SOL    HW224828   0.463   0.008   1.343 -0.4333 -1.1599 -0.5039
 4399SOL     OW24829   4.321   0.784  16.200 -0.0456 -0.4733 -0.0107
 4399SOL    HW124830   4.377   0.823  16.133 -1.5431 -1.2230 -1.6987
 4399SOL    HW224831   4.243   0.760  16.150  2.4649 -0.9221 -3.7102
 4400SOL     OW24832   1.951   4.230  10.153  0.5068  0.2706 -0.1176
 4400SOL    HW124833   2.030   4.180  10.174 -1.1189 -2.5373 -0.6075
 4400SOL    HW224834   1.963   4.317  10.190 -3.2426  0.2400  1.1611
 4401SOL     OW24835   4.057   1.709   2.488 -0.2891  0.4893  0.2284
 4401SOL    HW124836   3.976   1.759   2.492  0.6970  2.3590 -2.9118
 4401SOL    HW224837   4.035   1.626   2.531  0.5107  1.4063  2.4076
 4402SOL     OW24838   4.603   3.509   2.438  0.3840 -0.2716  0.0742
 4402SOL    HW124839   4.564   3.431   2.399  0.5915 -0.0860 -0.4991
 4402SOL    HW224840   4.692   3.475   2.446  0.3065 -0.3751  0.4931
 4403SOL     OW24841   0.350   3.243   2.998 -0.3768  0.3237  0.2478
 4403SOL    HW124842   0.347   3.285   3.084 -0.0574  2.3050 -0.7042
 4403SOL    HW224843   0.299   3.164   3.016  1.8696 -1.3157 -0.4863
 4404SOL     OW24844   3.354   1.239   8.167 -0.3103 -0.1284  0.2562
 4404SOL    HW124845   3.403   1.315   8.199  0.6676 -1.6707  2.3978
 4404SOL    HW224846   3.266   1.248   8.202 -0.3711 -0.2601  0.1368
 4405SOL     OW24847   4.278   3.430   1.194  0.0503  0.8879 -0.0187
 4405SOL    HW124848   4.308   3.490   1.262 -0.6095  1.6211 -0.3764
 4405SOL    HW224849   4.248   3.353   1.241 -1.3374  2.1192  1.1029
 4406SOL     OW24850   3.218   0.699   7.422  0.3863 -0.1824 -0.7372
 4406SOL    HW124851   3.310   0.700   7.395  0.9815 -0.0885  1.2679
 4406SOL    HW224852   3.195   0.791   7.415 -1.2280 -0.7427 -2.7945
 4407SOL     OW24853   3.212   3.965   3.983  0.5930  0.0609  0.1701
 4407SOL    HW124854   3.271   3.948   3.909 -1.3706 -1.1488 -1.1247
 4407SOL    HW224855   3.265   4.011   4.048  0.3256  1.5876 -0.6794
 4408SOL     OW24856   2.338   3.700   7.738  0.0566 -0.2067 -0.1128
 4408SOL    HW124857   2.267   3.641   7.714 -1.1570  1.2537 -0.1094
 4408SOL    HW224858   2.379   3.735   7.659 -0.0956  1.4980  0.5637
 4409SOL     OW24859   0.677   2.177  14.850 -0.0429 -0.8833  0.0870
 4409SOL    HW124860   0.736   2.185  14.925 -0.8373 -2.1227  0.8576
 4409SOL    HW224861   0.740   2.136  14.791  0.4422 -0.2840  0.2015
 4410SOL     OW24862   0.986   3.573   8.993 -0.5524  0.0209  0.2651
 4410SOL    HW124863   1.004   3.588   9.086  3.5364  0.4184 -0.5736
 4410SOL    HW224864   1.043   3.630   8.942 -0.8003  0.9616  1.0536
 4411SOL     OW24865   0.532   4.192  12.582 -0.6600  0.1210 -0.1562
 4411SOL    HW124866   0.523   4.102  12.616  0.3121 -0.1785 -0.7011
 4411SOL    HW224867   0.566   4.238  12.659  0.9792  0.9700 -1.3974
 4412SOL     OW24868   0.573   1.629   8.111  0.3965 -0.2403  0.5707
 4412SOL    HW124869   0.536   1.711   8.144  0.0633  0.7177 -2.1796
 4412SOL    HW224870   0.631   1.622   8.187 -0.7097  2.0093  1.6398
 4413SOL     OW24871   4.223   0.782  12.415  0.0906  0.4064 -0.0665
 4413SOL    HW124872   4.175   0.804  12.495  3.4349  2.4716  1.3879
 4413SOL    HW224873   4.287   0.853  12.414 -0.1834  0.6429 -0.7372
 4414SOL     OW24874   4.196   0.524   1.064 -0.2271 -0.2234  0.0248
 4414SOL    HW124875   4.137   0.452   1.042 -0.0369 -0.3778  0.0184
 4414SOL    HW224876   4.186   0.538   1.158  1.3785  3.4236 -0.3703
 4415SOL     OW24877   2.260   2.159   7.153 -0.0927  0.8672 -0.3773
 4415SOL    HW124878   2.275   2.232   7.213  2.6562  0.8796 -1.0637
 4415SOL    HW224879   2.174   2.177   7.115 -0.6322 -0.5507  0.1480
 4416SOL     OW24880   2.131   2.759   4.591  0.7779 -0.0291  0.0144
 4416SOL    HW124881   2.156   2.677   4.549 -1.4097 -1.1388  0.9304
 4416SOL    HW224882   2.048   2.764   4.544  0.5128 -0.9235  0.3928
 4417SOL     OW24883   2.215   0.944   8.514 -0.1812 -0.4545  0.1795
 4417SOL    HW124884   2.213   0.907   8.603  2.6379 -2.0815 -0.4314
 4417SOL    HW224885   2.308   0.965   8.504 -0.4013  1.0676  1.3421
 4418SOL     OW24886   2.815   0.402   4.011  0.1642 -0.1340  0.3701
 4418SOL    HW124887   2.837   0.349   3.934 -1.3009  0.9599 -0.7996
 4418SOL    HW224888   2.722   0.384   4.024 -0.0708  0.9875  0.2332
 4419SOL     OW24889   1.239   1.830  11.265 -0.0448  0.1987 -0.2564
 4419SOL    HW124890   1.324   1.860  11.296  0.5012  1.1515 -2.6779
 4419SOL    HW224891   1.192   1.797  11.341 -0.7249  1.3511 -0.1784
 4420SOL     OW24892   1.652   2.891   9.927  0.3830  0.1618  0.4131
 4420SOL    HW124893   1.665   2.823   9.992  2.7719  0.3485  0.1497
 4420SOL    HW224894   1.744   2.910   9.906 -0.1525  0.5112 -1.6220
 4421SOL     OW24895   1.188   2.880   4.190  0.0408 -0.3170 -0.2863
 4421SOL    HW124896   1.133   2.947   4.150  0.0289 -0.3663 -0.3532
 4421SOL    HW224897   1.167   2.900   4.282 -0.1956  1.5924 -0.7690
 4422SOL     OW24898   1.003   0.142   3.985  0.2775 -0.0769  0.3468
 4422SOL    HW124899   1.075   0.088   3.954 -0.4261 -0.7509 -0.1051
 4422SOL    HW224900   1.033   0.162   4.074 -0.5739  0.3996  0.5270
 4423SOL     OW24901   3.445   3.124   6.155 -0.3947 -0.0427  0.3421
 4423SOL    HW124902   3.527   3.147   6.113  0.7802 -0.3758  2.4487
 4423SOL    HW224903   3.450   3.192   6.223 -0.0978 -0.3020  0.5825
 4424SOL     OW24904   0.554   3.065   5.229  0.0521  0.8008  1.1864
 4424SOL    HW124905   0.512   3.002   5.170  0.5475  2.0674 -0.5318
 4424SOL    HW224906   0.473   3.105   5.260 -0.9850 -1.1595  0.9982
 4425SOL     OW24907   2.758   4.466   5.414  0.2439 -0.5682  0.0088
 4425SOL    HW124908   2.742   4.554   5.380  3.8017 -0.4610 -1.3423
 4425SOL    HW224909   2.769   4.477   5.509  0.3475  1.2892 -0.2118
 4426SOL     OW24910   1.424   3.013   9.069  0.0496 -0.2436  0.3115
 4426SOL    HW124911   1.340   3.028   9.111 -0.6119 -0.8617 -0.8160
 4426SOL    HW224912   1.500   3.037   9.123 -0.7114 -0.6285  1.5541
 4427SOL     OW24913   2.591   0.636   1.077  0.2367 -0.1255 -0.0888
 4427SOL    HW124914   2.653   0.607   1.011  1.1329  0.0395  0.6773
 4427SOL    HW224915   2.535   0.562   1.100  1.1298 -0.9750 -0.6865
 4428SOL     OW24916   1.581   3.525   8.254 -0.1401 -0.2088 -0.4108
 4428SOL    HW124917   1.576   3.431   8.269 -3.2969  0.1160  0.5450
 4428SOL    HW224918   1.495   3.558   8.281  1.3923  1.1044  2.7908
 4429SOL     OW24919   1.143   3.173  17.444 -0.2250 -0.0224 -0.2802
 4429SOL    HW124920   1.229   3.138  17.470  0.0097 -0.5539 -1.7436
 4429SOL    HW224921   1.142   3.263  17.475 -0.3494  0.4200 -1.5616
 4430SOL     OW24922   3.732   2.656   2.056 -0.0804 -0.0279  0.7021
 4430SOL    HW124923   3.739   2.592   1.985  0.9451  2.3690 -1.3414
 4430SOL    HW224924   3.663   2.712   2.021  0.4045  0.0358 -0.1566
 4431SOL     OW24925   3.499   3.789   7.357  0.1180 -0.5164 -0.0250
 4431SOL    HW124926   3.444   3.842   7.415  0.6097  1.0747 -1.0408
 4431SOL    HW224927   3.449   3.789   7.276 -0.4599  1.6815  0.3473
 4432SOL     OW24928   2.562   0.220   7.933 -0.3181 -0.4106  0.0365
 4432SOL    HW124929   2.484   0.232   7.878 -0.6598 -0.8098  0.4403
 4432SOL    HW224930   2.618   0.288   7.895 -0.5820 -0.6547 -0.8076
 4433SOL     OW24931   2.106   3.234  12.452  0.1330  0.4301  0.3035
 4433SOL    HW124932   2.031   3.175  12.445  1.3987 -0.8547 -2.3327
 4433SOL    HW224933   2.178   3.171  12.446 -1.6418 -1.4849 -0.9433
 4434SOL     OW24934   3.361   3.324  12.608  0.0991  0.0141  0.0540
 4434SOL    HW124935   3.282   3.361  12.647  0.5963 -0.5794  1.6251
 4434SOL    HW224936   3.375   3.242  12.656  1.0263 -1.2482 -2.3817
 4435SOL     OW24937   0.552   3.238  16.632  0.5429  0.5692  0.0895
 4435SOL    HW124938   0.591   3.229  16.719  0.3034  0.5154  0.1915
 4435SOL    HW224939   0.463   3.206  16.651  1.2173 -0.3379  1.6832
 4436SOL     OW24940   0.035   1.623   8.089  0.2600 -0.3983 -0.2154
 4436SOL    HW124941   0.028   1.717   8.106 -0.6499 -0.5459  0.2599
 4436SOL    HW224942   4.687   1.586   8.058 -0.5458 -0.8749  2.5070
 4437SOL     OW24943   4.167   2.923   9.832 -0.0413  0.8214 -0.0116
 4437SOL    HW124944   4.180   3.009   9.792 -0.4750 -0.3162 -2.6675
 4437SOL    HW224945   4.080   2.932   9.872 -0.5677  1.6235 -1.3116
 4438SOL     OW24946   1.323   0.486   1.342 -0.3289 -0.0371  0.1509
 4438SOL    HW124947   1.313   0.539   1.263 -1.2528 -1.8369 -0.9491
 4438SOL    HW224948   1.417   0.467   1.333 -1.2703 -4.0896 -1.0813
 4439SOL     OW24949   1.951   4.662   7.826 -0.0508 -0.3158 -0.5940
 4439SOL    HW124950   1.918   4.728   7.765 -1.5249 -1.5438 -1.1195
 4439SOL    HW224951   1.971   4.725   7.895 -1.5899  0.4883 -0.8743
 4440SOL     OW24952   1.810   2.172   2.020  0.3795 -0.3111 -0.3348
 4440SOL    HW124953   1.781   2.089   1.980 -1.5860  0.4382 -0.4782
 4440SOL    HW224954   1.863   2.138   2.092 -0.5748  0.6637  0.8177
 4441SOL     OW24955   4.534   4.162   2.295 -0.7090  0.2239  0.4722
 4441SOL    HW124956   4.504   4.115   2.217  0.6774  3.5151 -2.0036
 4441SOL    HW224957   4.521   4.252   2.265  0.7745  0.3123  0.1002
 4442SOL     OW24958   0.677   3.986  16.888 -0.4830 -0.8239  0.1573
 4442SOL    HW124959   0.692   3.893  16.905 -1.3975 -1.2314 -1.2748
 4442SOL    HW224960   0.690   3.993  16.793  0.3365  0.3059  0.3562
 4443SOL     OW24961   4.008   1.625   1.427  0.2837  0.6372 -0.2997
 4443SOL    HW124962   4.086   1.635   1.483 -0.0459  0.3624  0.2054
 4443SOL    HW224963   4.041   1.661   1.344 -0.8422  1.7098 -0.2678
 4444SOL     OW24964   3.211   2.135   8.738  0.2742 -0.0316  0.3334
 4444SOL    HW124965   3.230   2.093   8.822  2.0813  0.8450  0.3627
 4444SOL    HW224966   3.254   2.071   8.681  1.0861  1.8002 -1.1060
 4445SOL     OW24967   4.305   3.886   7.722  0.2172  0.2871 -0.0493
 4445SOL    HW124968   4.365   3.914   7.791  2.2736 -0.5678 -1.4745
 4445SOL    HW224969   4.266   3.807   7.760  0.1590  0.8414  1.0469
 4446SOL     OW24970   2.772   4.233   2.448  0.6394 -0.0743  0.3070
 4446SOL    HW124971   2.754   4.166   2.514 -2.6541  0.5716  0.0490
 4446SOL    HW224972   2.707   4.205   2.384  0.6251  1.4173 -0.3390
 4447SOL     OW24973   1.405   0.356  10.031  0.1403  0.6238  0.4119
 4447SOL    HW124974   1.487   0.360   9.982 -0.5515  1.7535 -0.6702
 4447SOL    HW224975   1.350   0.411   9.976  0.6442  1.6872  0.9619
 4448SOL     OW24976   3.654   2.518  17.131  0.6238 -0.2648  0.0440
 4448SOL    HW124977   3.702   2.484  17.056 -1.8098  0.0725 -1.6876
 4448SOL    HW224978   3.570   2.472  17.125  0.3342  0.3131 -0.3298
 4449SOL     OW24979   1.757   2.048   6.526 -0.4272  0.1741 -0.7981
 4449SOL    HW124980   1.822   1.987   6.562 -2.9948 -1.0285  1.8653
 4449SOL    HW224981   1.816   2.115   6.493 -0.1236 -0.6937 -2.0042
 4450SOL     OW24982   0.483   4.361  12.977  0.4966  0.1300  0.2132
 4450SOL    HW124983   0.520   4.448  12.985  0.2677  0.2887 -0.4317
 4450SOL    HW224984   0.541   4.328  12.908  0.4827  0.6071 -0.0237
 4451SOL     OW24985   3.487   3.736   6.208 -0.5153  0.3835  0.8956
 4451SOL    HW124986   3.511   3.821   6.172  0.8085 -0.0298  0.7880
 4451SOL    HW224987   3.410   3.758   6.260 -0.3960  0.6314  0.9686
 4452SOL     OW24988   1.555   4.233  14.451  0.1108 -0.5187 -0.0448
 4452SOL    HW124989   1.467   4.266  14.470  0.9679  0.9129  1.5252
 4452SOL    HW224990   1.530   4.178  14.377 -2.1427  0.8504 -0.3172
 4453SOL     OW24991   4.289   3.413   7.085 -0.7563  0.0398 -0.2578
 4453SOL    HW124992   4.371   3.463   7.075 -1.5872  1.2943 -0.7381
 4453SOL    HW224993   4.292   3.421   7.180 -0.1938 -0.4562 -0.2321
 4454SOL     OW24994   3.945   1.573   3.562 -0.3093 -0.0383  0.5333
 4454SOL    HW124995   3.909   1.662   3.554  0.3075  0.0701 -0.9374
 4454SOL    HW224996   4.011   1.579   3.494  1.4126  0.8225  2.2640
 4455SOL     OW24997   0.992   2.482   6.708 -0.5283  0.6634 -0.0028
 4455SOL    HW124998   1.036   2.547   6.654 -0.8618 -1.0886 -2.3473
 4455SOL    HW224999   0.990   2.512   6.799 -0.8411 -2.2948  0.9552
 4456SOL     OW25000   1.851   1.242   1.701 -0.0642  0.5301 -0.3399
 4456SOL    HW125001   1.826   1.309   1.638 -0.5357  2.2389  1.6580
 4456SOL    HW225002   1.804   1.274   1.778 -1.2068 -1.1964 -0.3152
 4457SOL     OW25003   1.654   0.233   7.122  0.1964  0.1967  0.3009
 4457SOL    HW125004   1.592   0.258   7.053  0.0848 -1.7305 -0.3029
 4457SOL    HW225005   1.732   0.214   7.069 -0.1566 -0.2503 -0.0592
 4458SOL     OW25006   0.473   1.811   8.952 -0.0895  0.3319 -0.0732
 4458SOL    HW125007   0.493   1.858   9.033  1.9836 -1.7649  0.6055
 4458SOL    HW225008   0.504   1.722   8.969  1.4214  0.2550 -3.3815
 4459SOL     OW25009   1.699   1.658  16.338  0.4091 -0.5963  0.5629
 4459SOL    HW125010   1.678   1.566  16.323 -3.0013  0.3320 -0.3401
 4459SOL    HW225011   1.757   1.645  16.413 -0.0699 -1.2535  0.8225
 4460SOL     OW25012   1.120   0.819   2.184 -0.0210  0.0691  0.6543
 4460SOL    HW125013   1.152   0.864   2.262 -0.7937  1.6953  0.0301
 4460SOL    HW225014   1.106   0.729   2.214  0.5058  0.2512  1.4568
 4461SOL     OW25015   1.630   4.323   3.487  0.1095 -0.5040  0.4037
 4461SOL    HW125016   1.717   4.351   3.517  0.2921 -1.7843  1.0765
 4461SOL    HW225017   1.664   4.314   3.398 -1.0587 -0.1072 -0.0721
 4462SOL     OW25018   3.163   3.513   6.350  0.4215  0.1667 -0.4098
 4462SOL    HW125019   3.120   3.482   6.270  1.4246 -3.2532  0.3765
 4462SOL    HW225020   3.145   3.606   6.341 -0.7167  0.0744  0.7615
 4463SOL     OW25021   0.269   2.897   6.326  0.6450  0.1085  0.2038
 4463SOL    HW125022   0.345   2.865   6.278  1.2213  0.5826  0.8034
 4463SOL    HW225023   0.196   2.865   6.273  0.7293  1.2299 -0.6074
 4464SOL     OW25024   3.092   2.225   4.611  0.5664 -0.3635  0.1180
 4464SOL    HW125025   3.048   2.264   4.687 -0.3421 -1.7990  0.3324
 4464SOL    HW225026   3.159   2.289   4.587  2.7672 -0.8766  4.6899
 4465SOL     OW25027   3.265   0.951   6.024 -0.0847  0.3743  0.7233
 4465SOL    HW125028   3.294   0.890   5.956  4.3511  1.5188  1.6024
 4465SOL    HW225029   3.201   0.895   6.068 -0.1943 -0.8609 -1.0003
 4466SOL     OW25030   1.746   0.569   3.419 -0.2816  0.3631 -0.3570
 4466SOL    HW125031   1.838   0.568   3.392  0.5380 -0.9323  2.5825
 4466SOL    HW225032   1.736   0.660   3.447  1.8404  0.3569  0.4025
 4467SOL     OW25033   1.904   3.805   5.766  0.4678  0.2061  0.1923
 4467SOL    HW125034   1.872   3.888   5.801 -0.7475  0.6443 -1.9622
 4467SOL    HW225035   1.949   3.776   5.846 -0.4702  0.7408  0.9114
 4468SOL     OW25036   4.239   0.125   2.892 -0.4639  0.1516 -0.1545
 4468SOL    HW125037   4.320   0.105   2.844  0.7667  2.5656  0.8911
 4468SOL    HW225038   4.181   0.050   2.899  0.4455 -0.5070  0.3356
 4469SOL     OW25039   1.915   2.078   7.560  0.1974 -0.4146  0.5383
 4469SOL    HW125040   1.973   2.133   7.507 -0.4422 -0.1007  0.1755
 4469SOL    HW225041   1.935   1.992   7.524 -2.1609  0.0160 -1.7970
 4470SOL     OW25042   1.552   1.811   1.483 -1.2003  0.2297 -0.1680
 4470SOL    HW125043   1.485   1.751   1.450 -0.5094 -0.5135 -0.2123
 4470SOL    HW225044   1.495   1.888   1.481 -0.2620  0.8598 -1.8587
 4471SOL     OW25045   0.329   1.378   5.847 -0.3634  0.0138  0.0555
 4471SOL    HW125046   0.424   1.379   5.833 -0.3759  0.2163 -0.0208
 4471SOL    HW225047   0.297   1.457   5.802 -2.2670 -1.4941 -1.2315
 4472SOL     OW25048   2.881   1.972   8.507 -0.2180  0.1039  0.1277
 4472SOL    HW125049   2.893   2.060   8.471  0.6261  0.2537  0.7760
 4472SOL    HW225050   2.830   1.922   8.442 -0.4864 -0.1949  0.5692
 4473SOL     OW25051   1.166   0.465   1.916 -0.1106  0.4820  0.0849
 4473SOL    HW125052   1.261   0.479   1.917  0.0983 -0.9390 -0.1566
 4473SOL    HW225053   1.162   0.370   1.905  0.5947  0.5401 -0.6755
 4474SOL     OW25054   4.246   2.820   9.300 -0.0863 -0.2528  0.1906
 4474SOL    HW125055   4.257   2.808   9.394 -0.7206 -0.4058  0.2426
 4474SOL    HW225056   4.252   2.915   9.301 -1.4805 -0.1312 -3.2240
 4475SOL     OW25057   0.174   1.627   0.342 -0.2585  0.3210 -0.0110
 4475SOL    HW125058   0.152   1.593   0.429 -0.3801  2.7299  0.9118
 4475SOL    HW225059   0.141   1.555   0.288 -0.1543 -0.2489  0.6925
 4476SOL     OW25060   2.220   3.833   4.478 -0.3072 -0.3824 -0.0123
 4476SOL    HW125061   2.165   3.872   4.546  1.2277  0.9660  0.4466
 4476SOL    HW225062   2.195   3.871   4.394 -1.2415  1.1795  0.9568
 4477SOL     OW25063   3.562   4.408   2.785  0.1037 -0.0712 -0.0376
 4477SOL    HW125064   3.633   4.473   2.781  0.6998 -0.6564  1.2505
 4477SOL    HW225065   3.526   4.430   2.870  0.7164  0.0158  0.2022
 4478SOL     OW25066   3.233   1.755   3.597  0.3924 -0.2386 -0.0706
 4478SOL    HW125067   3.202   1.677   3.551 -1.4730  1.0150 -0.9567
 4478SOL    HW225068   3.325   1.753   3.571 -0.0410 -0.8037 -1.5613
 4479SOL     OW25069   0.006   3.946   8.497 -0.0399  0.2541  0.7668
 4479SOL    HW125070   0.063   4.014   8.533 -0.1059  0.6009  0.2259
 4479SOL    HW225071   0.075   3.894   8.454  0.7545  2.2829 -0.4193
 4480SOL     OW25072   0.494   4.015   1.622  0.0781  0.0755  0.3042
 4480SOL    HW125073   0.464   4.083   1.562  4.1853 -0.3654 -2.2337
 4480SOL    HW225074   0.556   4.064   1.676  1.3483 -0.3589 -0.7515
 4481SOL     OW25075   1.208   4.480  17.341  0.2921  0.1911  0.0045
 4481SOL    HW125076   1.150   4.494  17.266  1.2992  1.9330 -0.4450
 4481SOL    HW225077   1.176   4.394  17.369  2.5202 -1.0934 -1.3697
 4482SOL     OW25078   0.274   1.827   0.689 -0.4506 -0.2848 -0.8810
 4482SOL    HW125079   0.243   1.745   0.727  0.1693 -0.6606 -1.1839
 4482SOL    HW225080   0.367   1.822   0.712 -0.7566  2.0261  0.9019
 4483SOL     OW25081   0.734   1.196   3.688 -0.0236 -0.1906 -0.0461
 4483SOL    HW125082   0.769   1.278   3.721 -1.6586  0.7902 -0.7358
 4483SOL    HW225083   0.780   1.133   3.743 -0.8564  1.3254  2.3390
 4484SOL     OW25084   2.741   3.872   6.713  0.0915  0.0701  0.5355
 4484SOL    HW125085   2.800   3.797   6.709 -0.9052 -0.7200  0.5536
 4484SOL    HW225086   2.773   3.928   6.643 -0.7132 -0.9976 -0.6879
 4485SOL     OW25087   4.475   3.602   4.687  0.1539 -0.6887 -0.8143
 4485SOL    HW125088   4.471   3.565   4.598  0.0985  0.4921 -1.3037
 4485SOL    HW225089   4.481   3.527   4.746  2.1291  1.1524  1.3370
 4486SOL     OW25090   2.705   2.328  11.638  0.1776  0.3793 -0.3226
 4486SOL    HW125091   2.668   2.416  11.651 -0.4023  0.0657  0.1532
 4486SOL    HW225092   2.673   2.304  11.551  0.8960 -1.1374 -0.1588
 4487SOL     OW25093   1.841   4.369   7.925  0.5376 -0.6853 -0.2896
 4487SOL    HW125094   1.776   4.361   7.994  1.9445  0.3537  1.1509
 4487SOL    HW225095   1.909   4.404   7.983  2.0655  0.1466 -2.5691
 4488SOL     OW25096   0.753   1.088   3.434  0.1666  0.3141  0.5255
 4488SOL    HW125097   0.748   1.125   3.522 -0.7384  1.7788 -0.1488
 4488SOL    HW225098   0.822   1.025   3.459 -0.3180 -0.0806  0.8741
 4489SOL     OW25099   2.244   2.507   2.580 -0.3969  0.6867 -0.0843
 4489SOL    HW125100   2.302   2.577   2.553  0.1345  0.6218  0.9015
 4489SOL    HW225101   2.312   2.451   2.617 -0.9043 -0.8153 -1.3960
 4490SOL     OW25102   1.708   1.148   2.239 -0.2536 -0.0910 -0.7979
 4490SOL    HW125103   1.706   1.209   2.166 -1.0508  1.8013  0.7960
 4490SOL    HW225104   1.733   1.073   2.185 -1.0178 -0.4066 -0.7087
 4491SOL     OW25105   3.106   0.954   8.007 -0.4821  0.2272 -0.2399
 4491SOL    HW125106   3.092   0.985   7.917 -2.4550 -0.7689 -0.2780
 4491SOL    HW225107   3.190   0.910   7.992  1.3410  4.0374 -1.4025
 4492SOL     OW25108   4.588   2.796   6.776 -0.6147  0.4536  0.5044
 4492SOL    HW125109   4.610   2.765   6.688  1.8938  2.4438  0.4468
 4492SOL    HW225110   4.674   2.824   6.809 -1.2688  2.0852  0.8140
 4493SOL     OW25111   4.156   0.696   7.835  0.4192  0.3128 -0.3682
 4493SOL    HW125112   4.243   0.735   7.840 -0.1469  1.3423  1.6780
 4493SOL    HW225113   4.106   0.758   7.889  0.6205  0.4894 -0.3847
 4494SOL     OW25114   2.215   3.378   3.891  0.4597 -0.3125 -0.3515
 4494SOL    HW125115   2.203   3.472   3.899  2.8901 -0.0629  0.1406
 4494SOL    HW225116   2.183   3.364   3.802  0.1384  1.1690 -0.4643
 4495SOL     OW25117   2.875   1.108  10.252  0.0414  0.3426 -0.0316
 4495SOL    HW125118   2.860   1.174  10.320  0.3926 -0.2113  0.5791
 4495SOL    HW225119   2.869   1.173  10.182 -1.7025 -0.8500 -0.9855
 4496SOL     OW25120   0.589   0.882  17.691  0.4711 -0.3261  0.5234
 4496SOL    HW125121   0.647   0.957  17.705 -0.9854  1.1526 -1.2876
 4496SOL    HW225122   0.546   0.861   0.038 -2.5822  1.1225 -0.6684
 4497SOL     OW25123   1.341   1.981   8.154  0.1830 -0.2327  0.2267
 4497SOL    HW125124   1.401   1.910   8.176  1.8391  0.4093 -2.1866
 4497SOL    HW225125   1.383   2.018   8.076  1.4458  0.1244  1.0879
 4498SOL     OW25126   0.398   3.613   3.933 -0.5123 -0.8170  0.1047
 4498SOL    HW125127   0.315   3.572   3.909 -0.8620 -0.4123  0.6079
 4498SOL    HW225128   0.424   3.634   3.843 -0.7984  0.5513  0.3420
 4499SOL     OW25129   2.137   3.289   8.937 -0.5452  0.3171  0.2199
 4499SOL    HW125130   2.186   3.288   9.020 -2.6240 -2.3136  1.4396
 4499SOL    HW225131   2.122   3.381   8.917 -0.8488  0.4964  1.2634
 4500SOL     OW25132   1.807   4.354   6.551  0.0776  0.1251 -0.8508
 4500SOL    HW125133   1.832   4.263   6.563  1.9258  0.9655  1.8015
 4500SOL    HW225134   1.716   4.348   6.579 -0.2290 -0.3438 -1.9565
 4501SOL     OW25135   0.660   2.691   8.507 -1.0315 -0.1459 -0.3763
 4501SOL    HW125136   0.591   2.747   8.542 -0.5718  0.5468 -0.5683
 4501SOL    HW225137   0.692   2.754   8.443 -0.1132  0.8069  1.0068
 4502SOL     OW25138   0.294   2.667   5.271  0.4363 -0.3449  0.6062
 4502SOL    HW125139   0.288   2.657   5.176 -2.3516 -1.9153  0.9554
 4502SOL    HW225140   0.364   2.732   5.281 -0.7860  0.8492  1.4660
 4503SOL     OW25141   1.823   2.568   1.476  0.3960  0.1300 -0.2262
 4503SOL    HW125142   1.804   2.660   1.494  0.1607 -0.0723  0.5590
 4503SOL    HW225143   1.910   2.565   1.515  0.5922  0.9889 -0.5977
 4504SOL     OW25144   0.549   4.366   5.613  0.1407  0.0822  1.1415
 4504SOL    HW125145   0.558   4.337   5.704  0.3046 -1.7998  0.5207
 4504SOL    HW225146   0.641   4.376   5.589  0.5538  0.0320  2.6677
 4505SOL     OW25147   1.037   4.322  14.303 -0.3864 -0.1710 -0.6948
 4505SOL    HW125148   0.980   4.246  14.289  1.2609 -1.5181 -0.1032
 4505SOL    HW225149   0.981   4.385  14.348 -0.1403 -1.6823  1.7463
 4506SOL     OW25150   1.547   1.942   2.984 -0.3040 -0.1042  0.6034
 4506SOL    HW125151   1.570   2.035   2.973  0.2642 -0.4873 -1.5098
 4506SOL    HW225152   1.519   1.939   3.075  0.9356 -0.9364  0.9595
 4507SOL     OW25153   1.788   4.101   6.552 -0.4248  0.2176  0.3178
 4507SOL    HW125154   1.716   4.074   6.610 -1.3480 -0.2151 -1.0404
 4507SOL    HW225155   1.785   4.027   6.491  1.2207  2.8247 -2.8962
 4508SOL     OW25156   2.233   0.045   6.501 -0.5923 -0.0178  0.3150
 4508SOL    HW125157   2.297   0.025   6.432 -0.4605  1.9182 -0.1278
 4508SOL    HW225158   2.203   0.130   6.468 -0.1558  0.6417  1.6215
 4509SOL     OW25159   0.740   1.419   6.028  0.5343 -0.2113 -0.1677
 4509SOL    HW125160   0.809   1.417   5.962  1.5263  0.7409  0.8206
 4509SOL    HW225161   0.763   1.483   6.096  1.1774 -0.6576  0.0348
 4510SOL     OW25162   3.757   1.337   9.682 -0.8374 -0.1610  0.1988
 4510SOL    HW125163   3.784   1.356   9.592  1.2943 -0.1438  0.8494
 4510SOL    HW225164   3.772   1.419   9.728 -2.5466 -0.6520  1.6125
 4511SOL     OW25165   0.105   2.324  15.511  0.1803  0.5924  0.3162
 4511SOL    HW125166   0.142   2.240  15.486 -1.0225 -0.2922  1.4962
 4511SOL    HW225167   0.034   2.293  15.567  0.6262  2.9191  2.1670
 4512SOL     OW25168   0.442   2.843   8.573  0.6939 -0.0294 -0.6604
 4512SOL    HW125169   0.388   2.803   8.505 -1.6560  1.6920  0.1782
 4512SOL    HW225170   0.385   2.814   8.645  1.1452  1.1664  0.1855
 4513SOL     OW25171   3.010   2.768   8.105 -0.0018  0.1193 -0.1089
 4513SOL    HW125172   3.079   2.723   8.153 -0.0657 -0.4870 -0.5941
 4513SOL    HW225173   3.016   2.849   8.156 -0.8965 -0.0817  0.3204
 4514SOL     OW25174   1.591   0.910   7.322 -0.4224 -0.1880 -0.2892
 4514SOL    HW125175   1.556   0.960   7.396 -3.8138 -0.3780 -1.7364
 4514SOL    HW225176   1.516   0.933   7.266 -0.7686 -2.2102 -0.6533
 4515SOL     OW25177   3.864   3.930  15.480  0.2249 -0.6412 -0.3132
 4515SOL    HW125178   3.888   4.019  15.452 -0.4422 -0.7749 -1.3352
 4515SOL    HW225179   3.938   3.906  15.535 -0.4890  1.0446  1.3782
 4516SOL     OW25180   0.305   1.921   9.317 -0.1423 -0.0154 -0.3431
 4516SOL    HW125181   0.388   1.929   9.270  0.4976 -1.4309  0.5349
 4516SOL    HW225182   0.283   1.828   9.313  1.7216 -0.4504 -0.7077
 4517SOL     OW25183   0.078   4.721   5.179 -0.1768 -0.2338  0.2780
 4517SOL    HW125184   0.100   0.077   5.202 -0.6720  0.7354 -2.9591
 4517SOL    HW225185   4.720   0.007   5.162  0.6426  1.6682 -1.8932
 4518SOL     OW25186   2.485   3.865   4.355  0.2173 -0.1737 -0.3396
 4518SOL    HW125187   2.516   3.953   4.333  0.3647 -0.1996 -0.2318
 4518SOL    HW225188   2.390   3.878   4.348  0.1763 -0.0335  0.5203
 4519SOL     OW25189   2.749   1.267  16.329 -0.1925 -0.2182  0.3164
 4519SOL    HW125190   2.816   1.312  16.381 -0.0286 -1.9411  1.5782
 4519SOL    HW225191   2.748   1.190  16.385  1.3440 -0.8354 -0.5012
 4520SOL     OW25192   2.091   2.868   5.970 -0.2573  0.2402  0.2115
 4520SOL    HW125193   2.157   2.935   5.954 -0.0272 -0.3317 -1.1911
 4520SOL    HW225194   2.006   2.900   5.940 -0.3965  0.6020  0.9598
 4521SOL     OW25195   4.671   3.685   3.765 -0.4998  0.1618 -0.3038
 4521SOL    HW125196   4.641   3.757   3.709 -4.2860 -0.5695  0.7927
 4521SOL    HW225197   4.708   3.624   3.702  1.5366 -0.9244  1.9367
 4522SOL     OW25198   4.167   2.456   0.654  0.1692 -0.3507  0.4653
 4522SOL    HW125199   4.083   2.469   0.610  0.0860 -3.0212 -0.1626
 4522SOL    HW225200   4.170   2.360   0.652 -1.2839 -0.3777 -0.1279
 4523SOL     OW25201   2.765   0.614  15.720  0.0800 -0.1510  0.0438
 4523SOL    HW125202   2.787   0.575  15.635 -1.1389  3.2574 -1.8471
 4523SOL    HW225203   2.679   0.654  15.708  0.2763  0.6333  1.2421
 4524SOL     OW25204   0.586   1.871   9.462 -0.0928 -0.4716 -0.1988
 4524SOL    HW125205   0.654   1.928   9.497  0.9363 -1.0297 -1.2687
 4524SOL    HW225206   0.530   1.844   9.535 -0.5094 -2.1286 -1.1085
 4525SOL     OW25207   2.100   4.713   7.071  0.0142 -0.6901 -0.0391
 4525SOL    HW125208   2.116   0.061   7.117 -3.5208  0.8194 -1.4813
 4525SOL    HW225209   2.091   0.011   6.981 -1.2641 -0.5106  0.1431
 4526SOL     OW25210   3.383   1.230  12.200  0.9646  0.2533 -0.1555
 4526SOL    HW125211   3.449   1.163  12.221  0.4947  0.2861  1.4445
 4526SOL    HW225212   3.311   1.170  12.184  1.6360 -0.7042  0.3961
 4527SOL     OW25213   2.342   0.274  17.676  0.1451 -0.3145 -0.7351
 4527SOL    HW125214   2.314   0.210  17.610  1.0020 -0.5033 -0.9158
 4527SOL    HW225215   2.317   0.241   0.026 -1.7234  1.0208 -0.7476
 4528SOL     OW25216   0.727   0.175   6.110  0.3042  0.1936  0.1114
 4528SOL    HW125217   0.785   0.200   6.182  2.3328 -0.6516 -1.2352
 4528SOL    HW225218   0.654   0.184   6.171  2.0483  1.5176  1.9869
 4529SOL     OW25219   4.225   0.820   4.419 -0.1487  0.0170 -0.1378
 4529SOL    HW125220   4.198   0.755   4.354  3.6131 -0.1917 -1.4921
 4529SOL    HW225221   4.320   0.809   4.418 -0.0809  0.5698  0.6859
 4530SOL     OW25222   2.814   4.559   9.052 -0.1954 -0.1136 -0.2131
 4530SOL    HW125223   2.870   4.537   9.126 -0.2489  0.3945 -0.0266
 4530SOL    HW225224   2.727   4.532   9.082 -0.2950 -0.2573 -0.6217
 4531SOL     OW25225   2.026   4.344  12.883  0.8228  0.1307  0.7981
 4531SOL    HW125226   1.996   4.402  12.953 -0.0450 -0.4763  0.9325
 4531SOL    HW225227   2.116   4.375  12.874  0.7002  0.1855 -0.3053
 4532SOL     OW25228   2.603   3.183  13.779 -0.0861  0.3905 -0.1506
 4532SOL    HW125229   2.689   3.208  13.747  0.4051 -1.1524 -0.0369
 4532SOL    HW225230   2.554   3.160  13.700  1.6413 -1.1048 -0.7742
 4533SOL     OW25231   1.136   3.344   8.142 -0.3993  0.2584  0.3529
 4533SOL    HW125232   1.072   3.377   8.079 -1.0022 -0.2531  0.6975
 4533SOL    HW225233   1.150   3.255   8.111  2.0799  1.4140 -1.7907
 4534SOL     OW25234   3.877   1.963   2.393 -0.5227 -0.0257 -0.1781
 4534SOL    HW125235   3.783   1.950   2.399 -0.1565 -1.9102  1.3821
 4534SOL    HW225236   3.877   2.030   2.324 -2.0602 -1.7430 -1.8328
 4535SOL     OW25237   0.073   1.792   3.486  0.0219  0.4848 -0.6229
 4535SOL    HW125238   0.017   1.720   3.459 -0.4583  0.2928  0.8869
 4535SOL    HW225239   0.124   1.763   3.562 -2.1891 -0.9008  0.3000
 4536SOL     OW25240   4.605   3.622   1.979 -0.5947  0.0733  0.0678
 4536SOL    HW125241   4.559   3.593   1.900 -0.0430 -0.0718 -0.2015
 4536SOL    HW225242   4.552   3.572   2.042 -1.5546  0.8759 -0.1024
 4537SOL     OW25243   1.060   4.688   1.804  0.3957  0.3289  0.1374
 4537SOL    HW125244   1.116   0.008   1.858 -0.0909  1.3312 -0.3728
 4537SOL    HW225245   1.096   4.708   1.717 -0.3684 -0.3902 -0.3494
 4538SOL     OW25246   1.207   3.134   2.174  0.1181 -0.0860  0.1225
 4538SOL    HW125247   1.153   3.056   2.160  0.3786 -0.2213 -0.1148
 4538SOL    HW225248   1.244   3.123   2.262 -1.7006  0.8834  1.0088
 4539SOL     OW25249   0.267   4.187  12.693  0.1106  0.0830  0.0324
 4539SOL    HW125250   0.304   4.162  12.778  1.4705 -0.8360 -0.8316
 4539SOL    HW225251   0.350   4.205  12.648 -0.8442 -1.0585 -2.1530
 4540SOL     OW25252   2.225   2.187  16.143 -0.9283  0.2105 -0.1336
 4540SOL    HW125253   2.197   2.155  16.057  0.0569 -1.5035  0.1793
 4540SOL    HW225254   2.275   2.114  16.180  0.2536  1.9880  1.7279
 4541SOL     OW25255   1.625   1.181   6.137  0.2399 -1.0367  0.2624
 4541SOL    HW125256   1.629   1.201   6.043 -2.5022  0.2567  0.4058
 4541SOL    HW225257   1.578   1.257   6.171 -0.2383 -0.7381 -1.0627
 4542SOL     OW25258   0.087   0.253   5.841  0.1248  0.1918 -0.4605
 4542SOL    HW125259   0.008   0.303   5.820  0.5176  0.9287 -0.1835
 4542SOL    HW225260   0.152   0.315   5.874  0.2598  0.0902 -0.5419
 4543SOL     OW25261   2.982   0.212   1.787  0.2840  0.4330  0.3592
 4543SOL    HW125262   2.911   0.275   1.791  0.5673  0.6590  2.0397
 4543SOL    HW225263   2.993   0.187   1.879 -0.5724  0.1557  0.3809
 4544SOL     OW25264   3.232   2.898  11.844 -0.5613  0.0159 -0.2421
 4544SOL    HW125265   3.183   2.834  11.791  1.5119  0.8994 -3.2127
 4544SOL    HW225266   3.319   2.862  11.824  0.7131  1.9374  1.8910
 4545SOL     OW25267   1.327   1.822   2.610 -0.2775  0.0657 -0.5460
 4545SOL    HW125268   1.267   1.748   2.622 -0.8287  0.4989 -0.6455
 4545SOL    HW225269   1.267   1.885   2.650 -1.3273 -0.4728 -1.2601
 4546SOL     OW25270   0.864   4.496   3.292  0.2921 -0.0869 -0.1556
 4546SOL    HW125271   0.947   4.526   3.255  0.3606  0.9122  0.8347
 4546SOL    HW225272   0.861   4.540   3.377  1.1719 -1.4870  0.6050
 4547SOL     OW25273   3.322   0.147   7.989  0.4730 -0.3717 -0.1939
 4547SOL    HW125274   3.268   0.071   7.970  0.5723 -0.4518 -0.1567
 4547SOL    HW225275   3.400   0.128   7.936  0.3653 -0.1747 -0.4275
 4548SOL     OW25276   4.036   3.229  11.986 -0.7353 -0.6828  0.5324
 4548SOL    HW125277   4.078   3.143  11.974  1.2688  0.5590 -1.2359
 4548SOL    HW225278   4.007   3.226  12.077 -0.4901 -1.0159  0.6015
 4549SOL     OW25279   2.242   0.042  17.177 -0.2581  0.2480 -0.0117
 4549SOL    HW125280   2.227   0.030  17.083  2.5141  0.5482 -0.4683
 4549SOL    HW225281   2.257   4.685  17.201  1.3384  0.3642 -0.5586
 4550SOL     OW25282   0.663   1.038   5.992 -0.0141  0.0387 -0.5220
 4550SOL    HW125283   0.582   1.003   5.955 -1.7003  1.9794  1.2897
 4550SOL    HW225284   0.704   1.055   5.908  1.8232 -0.4243  0.2815
 4551SOL     OW25285   4.678   4.296  15.502  0.3602 -0.0233  0.4589
 4551SOL    HW125286   4.679   4.217  15.447 -2.2773  1.4959 -1.7425
 4551SOL    HW225287   4.659   4.358  15.432 -2.2892 -3.4283 -1.8344
 4552SOL     OW25288   2.809   0.761  15.326 -0.0970 -0.2003 -0.2853
 4552SOL    HW125289   2.809   0.687  15.387 -0.5371 -0.6236 -0.8028
 4552SOL    HW225290   2.749   0.819  15.373 -1.1796 -0.9642 -0.7296
 4553SOL     OW25291   3.395   3.339  15.409 -0.2678  0.6077 -0.3865
 4553SOL    HW125292   3.477   3.308  15.449 -0.4730 -0.9431 -1.1379
 4553SOL    HW225293   3.336   3.351  15.483 -1.8455  2.8941 -2.0108
 4554SOL     OW25294   0.568   3.620   1.884  0.0397  0.3784  0.0892
 4554SOL    HW125295   0.523   3.702   1.866 -2.6005 -1.5684 -2.3602
 4554SOL    HW225296   0.589   3.625   1.977  0.4715 -0.6514  0.0561
 4555SOL     OW25297   0.684   1.819   7.820  0.0426 -0.0369 -0.2236
 4555SOL    HW125298   0.700   1.824   7.726  0.9916 -0.5096 -0.0822
 4555SOL    HW225299   0.693   1.727   7.845 -1.0367  0.3035  1.4730
 4556SOL     OW25300   2.217   1.703   6.909  0.0204  0.2554 -0.3650
 4556SOL    HW125301   2.231   1.708   7.004  0.9174 -0.6803 -0.4489
 4556SOL    HW225302   2.203   1.795   6.889 -0.5837  0.9637  3.2548
 4557SOL     OW25303   1.398   0.353   6.273  0.6145 -0.2234  0.2049
 4557SOL    HW125304   1.331   0.338   6.207  1.3625 -3.5200  0.1729
 4557SOL    HW225305   1.384   0.444   6.299  1.7719  0.1270 -0.4222
 4558SOL     OW25306   1.306   0.981  10.992  0.4321 -0.0351  0.4014
 4558SOL    HW125307   1.224   1.020  11.022 -1.6311 -2.7669 -1.6873
 4558SOL    HW225308   1.364   1.005  11.063  0.2553 -1.0388  0.8822
 4559SOL     OW25309   0.784   3.471   6.485 -0.0020  0.1156  0.4319
 4559SOL    HW125310   0.817   3.537   6.424 -0.8632 -1.1602 -1.3806
 4559SOL    HW225311   0.724   3.539   6.517 -2.9150 -2.3127  0.0308
 4560SOL     OW25312   2.071   2.043  14.989 -0.8565  0.3433 -0.1789
 4560SOL    HW125313   2.045   2.100  15.062  0.4762  0.4411  0.2165
 4560SOL    HW225314   2.013   2.073  14.920  2.7060  1.6835 -2.6010
 4561SOL     OW25315   4.246   4.298   8.682  0.1885 -0.1894  0.2742
 4561SOL    HW125316   4.337   4.269   8.689  0.2380 -0.6265 -2.3355
 4561SOL    HW225317   4.241   4.393   8.696 -2.4923 -0.4042  0.7861
 4562SOL     OW25318   1.485   1.109   5.060 -0.0349  0.0065 -0.0820
 4562SOL    HW125319   1.486   1.124   4.966 -0.5565 -0.3415 -0.1493
 4562SOL    HW225320   1.572   1.074   5.077 -1.1293 -1.9452  1.6284
 4563SOL     OW25321   1.354   2.935  17.233 -0.0265  0.3476  0.5744
 4563SOL    HW125322   1.388   2.950  17.145 -1.0912 -2.0217 -0.2407
 4563SOL    HW225323   1.433   2.909  17.280  0.2005 -2.6185 -1.4347
 4564SOL     OW25324   0.918   3.349  13.464  0.4467 -0.2002  0.3662
 4564SOL    HW125325   0.888   3.264  13.430  0.2996  0.6915 -1.7744
 4564SOL    HW225326   0.846   3.404  13.431 -0.0330 -0.2753  1.3056
 4565SOL     OW25327   0.203   2.195   3.965 -0.6273  0.1822  0.2174
 4565SOL    HW125328   0.144   2.266   3.991  0.3881  0.3390  2.0766
 4565SOL    HW225329   0.223   2.154   4.050 -0.7318 -1.6830 -0.6470
 4566SOL     OW25330   3.134   1.781   2.485 -0.0838  0.2696 -0.4576
 4566SOL    HW125331   3.068   1.716   2.509  0.8137 -1.3856 -2.4689
 4566SOL    HW225332   3.189   1.779   2.563 -1.9598  4.2144  0.9826
 4567SOL     OW25333   3.555   4.610  12.910  0.0744  0.8006  0.5392
 4567SOL    HW125334   3.494   4.614  12.837 -0.3055  1.2904  0.8790
 4567SOL    HW225335   3.493   4.626  12.981 -1.6020  0.2020 -0.8046
 4568SOL     OW25336   1.638   3.414   6.927 -0.2916 -0.2417 -0.3469
 4568SOL    HW125337   1.542   3.424   6.929 -0.2352  0.2655 -0.1741
 4568SOL    HW225338   1.651   3.428   6.834  0.0644  0.5309 -0.1747
 4569SOL     OW25339   2.537   4.517   0.620 -0.6633  0.1514 -0.2615
 4569SOL    HW125340   2.496   4.526   0.707  1.0871  0.5227  0.5188
 4569SOL    HW225341   2.589   4.597   0.613  1.5936 -1.1924  1.4155
 4570SOL     OW25342   3.607   3.737   5.413 -0.4483 -0.8335 -0.1334
 4570SOL    HW125343   3.555   3.724   5.492  1.2876 -0.0487  1.1293
 4570SOL    HW225344   3.543   3.704   5.350 -0.7881 -0.3690 -0.0307
 4571SOL     OW25345   0.557   2.626   7.270  0.0270 -0.0346 -0.9074
 4571SOL    HW125346   0.592   2.710   7.299 -1.1164 -0.7262  2.5518
 4571SOL    HW225347   0.606   2.594   7.195 -0.4784  0.0563 -1.2778
 4572SOL     OW25348   0.999   1.207   5.681 -0.5625  0.2643 -0.5230
 4572SOL    HW125349   0.960   1.200   5.594 -1.2195  0.1617 -0.2198
 4572SOL    HW225350   1.076   1.260   5.660 -1.4158  0.9150 -1.9916
 4573SOL     OW25351   4.163   1.938  17.471 -0.5676 -0.2754 -0.1678
 4573SOL    HW125352   4.206   1.965  17.390  1.5864  0.5628  1.2393
 4573SOL    HW225353   4.151   1.846  17.448  1.5977  0.2698 -3.5285
 4574SOL     OW25354   3.720   1.095   1.541 -0.3566  0.5204 -0.6721
 4574SOL    HW125355   3.663   1.025   1.573  0.4385  0.2141  0.0738
 4574SOL    HW225356   3.792   1.083   1.603 -0.8994  1.2444  0.1037
 4575SOL     OW25357   3.529   0.328   4.060 -0.0132 -0.3833  0.6795
 4575SOL    HW125358   3.513   0.400   4.120 -0.8158  0.5835 -0.7086
 4575SOL    HW225359   3.609   0.301   4.103 -0.2816 -0.0029  1.4096
 4576SOL     OW25360   2.020   1.762   4.535 -0.6032 -0.3803 -0.3894
 4576SOL    HW125361   1.930   1.733   4.522  0.1074 -2.0485 -1.4622
 4576SOL    HW225362   2.054   1.691   4.481  2.9321  1.8974 -1.2457
 4577SOL     OW25363   3.125   3.716   4.642 -0.3582 -0.0454  0.2643
 4577SOL    HW125364   3.054   3.695   4.582 -0.2040 -3.3045  1.1808
 4577SOL    HW225365   3.075   3.755   4.714  0.0603 -0.2563  0.6670
 4578SOL     OW25366   2.316   0.022   1.068 -0.3197 -0.7202 -0.2365
 4578SOL    HW125367   2.300   4.697   1.141 -2.0927 -0.2964 -0.2776
 4578SOL    HW225368   2.249   0.091   1.070 -0.3977 -0.8284  0.8570
 4579SOL     OW25369   0.165   2.087   8.249 -0.4985  0.0603 -0.0341
 4579SOL    HW125370   0.186   2.139   8.327  0.0525 -0.4114  0.1266
 4579SOL    HW225371   0.162   2.000   8.287 -2.0057  0.8228  1.5881
 4580SOL     OW25372   1.137   2.964   7.684  0.3019  0.3599 -0.5956
 4580SOL    HW125373   1.094   2.885   7.652  1.7820 -0.7411  0.1340
 4580SOL    HW225374   1.146   2.942   7.777  0.1839 -1.1647 -0.9462
 4581SOL     OW25375   3.657   0.783  12.518  0.2519  0.2174 -0.2982
 4581SOL    HW125376   3.620   0.724  12.585  0.4076  2.4020  1.6957
 4581SOL    HW225377   3.669   0.731  12.438  0.2684  0.1977 -0.2830
 4582SOL     OW25378   1.702   3.364  16.746 -0.0149  0.7801 -0.2826
 4582SOL    HW125379   1.756   3.438  16.717 -1.0538  2.2228  1.4874
 4582SOL    HW225380   1.733   3.350  16.835 -1.7901 -1.5498 -0.0346
 4583SOL     OW25381   1.564   0.912   2.911 -0.6732 -0.0582 -0.4114
 4583SOL    HW125382   1.495   0.953   2.963  0.1404  0.9062 -0.0931
 4583SOL    HW225383   1.520   0.878   2.833  1.7606  1.6296 -2.5162
 4584SOL     OW25384   2.876   4.450  11.121  0.2105  0.2645 -0.1828
 4584SOL    HW125385   2.960   4.459  11.167 -0.3508  0.5887  0.7889
 4584SOL    HW225386   2.874   4.525  11.061  0.6434  0.4292  0.0057
 4585SOL     OW25387   3.576   2.562   2.518  0.2308  0.1422 -0.1683
 4585SOL    HW125388   3.606   2.610   2.441 -0.0933 -0.1324 -0.4639
 4585SOL    HW225389   3.555   2.478   2.478  0.3041  0.9683 -1.9086
 4586SOL     OW25390   0.064   2.338   7.737 -0.0562 -0.1349 -1.2050
 4586SOL    HW125391   0.080   2.306   7.825 -1.4868  0.3381 -0.7689
 4586SOL    HW225392   4.711   2.302   7.717 -1.1221  0.3378  2.5494
 4587SOL     OW25393   0.225   0.448   2.535  0.1826 -0.3194 -0.2260
 4587SOL    HW125394   0.253   0.536   2.512  1.4124 -0.9286 -1.0540
 4587SOL    HW225395   0.302   0.399   2.506 -0.0006 -0.3624 -0.6291
 4588SOL     OW25396   4.166   2.609   1.901 -0.1745 -0.2102  0.1104
 4588SOL    HW125397   4.113   2.667   1.956 -0.7497  0.3174 -0.9955
 4588SOL    HW225398   4.255   2.640   1.914 -0.8567  0.9404  1.9744
 4589SOL     OW25399   0.352   4.493  16.268  0.5657  0.0140  0.2147
 4589SOL    HW125400   0.273   4.540  16.294  1.9649  1.9547  0.9947
 4589SOL    HW225401   0.321   4.404  16.283  0.3124  0.1788  0.6665
 4590SOL     OW25402   1.452   3.249  16.790 -0.3232  0.3943  0.1494
 4590SOL    HW125403   1.404   3.330  16.810  1.0814  0.9438  1.2653
 4590SOL    HW225404   1.540   3.285  16.784 -0.3482 -0.0653 -2.8982
 4591SOL     OW25405   0.791   2.917  16.302 -0.2886 -0.5094  0.1151
 4591SOL    HW125406   0.791   2.915  16.398  0.3919 -0.0429  0.1180
 4591SOL    HW225407   0.736   2.992  16.283  0.0733 -0.1878  0.3490
 4592SOL     OW25408   2.777   3.742   7.739  0.2998  0.1296 -0.2271
 4592SOL    HW125409   2.686   3.736   7.709 -0.1346 -0.1313  1.1603
 4592SOL    HW225410   2.816   3.821   7.702 -3.0337  2.2060  0.7510
 4593SOL     OW25411   3.560   4.160   7.202 -0.4053 -0.1582 -0.4004
 4593SOL    HW125412   3.473   4.134   7.172 -1.4845  1.9148  0.9806
 4593SOL    HW225413   3.561   4.251   7.174 -0.1529 -0.0143  0.0784
 4594SOL     OW25414   1.520   4.307  15.425  0.5757  0.5097  0.0459
 4594SOL    HW125415   1.491   4.327  15.514  1.2848  0.5260  0.2719
 4594SOL    HW225416   1.438   4.327  15.379  0.9400  0.7056 -0.5204
 4595SOL     OW25417   1.799   0.263   3.249 -0.0620 -0.4630 -0.4214
 4595SOL    HW125418   1.843   0.185   3.214  0.3918  0.3956 -1.7362
 4595SOL    HW225419   1.865   0.305   3.304 -0.5811 -0.7971  0.4573
 4596SOL     OW25420   4.573   3.679  14.486 -0.6634  0.4233 -0.2320
 4596SOL    HW125421   4.609   3.656  14.400  1.6426 -1.8259  1.3398
 4596SOL    HW225422   4.504   3.613  14.488  1.4908 -1.8416 -0.5465
 4597SOL     OW25423   1.947   3.939   4.371 -0.2119 -0.3917 -0.2439
 4597SOL    HW125424   1.939   3.857   4.322  0.7627 -0.5333 -0.1729
 4597SOL    HW225425   1.895   3.997   4.317 -0.2799  2.3059  2.7014
 4598SOL     OW25426   3.143   2.936  16.061  0.4302 -0.0388 -0.0122
 4598SOL    HW125427   3.227   2.943  16.106  0.4971 -1.5786  0.0942
 4598SOL    HW225428   3.099   2.879  16.125 -0.0655  1.9350  1.4081
 4599SOL     OW25429   2.562   4.056  10.862 -0.3690 -0.0603 -0.4278
 4599SOL    HW125430   2.645   4.104  10.858  0.1656 -0.8860  0.8102
 4599SOL    HW225431   2.538   4.070  10.953  1.2614  1.1779 -0.1920
 4600SOL     OW25432   1.635   2.016   4.443  0.6949  0.5000  0.3173
 4600SOL    HW125433   1.721   1.983   4.414 -0.0061 -0.3923 -0.7622
 4600SOL    HW225434   1.628   1.985   4.533  0.5616 -0.6526 -0.0840
 4601SOL     OW25435   2.433   3.787   0.367 -0.1281 -0.1778 -0.1134
 4601SOL    HW125436   2.368   3.728   0.405 -0.3366  1.1515  1.6025
 4601SOL    HW225437   2.393   3.800   0.281 -3.1539 -1.2055  1.1280
 4602SOL     OW25438   0.745   2.957  11.665  0.0532 -0.2685  0.4912
 4602SOL    HW125439   0.790   2.922  11.742  1.0042  1.5204  0.7505
 4602SOL    HW225440   0.801   3.030  11.640 -1.5105  0.8141  0.1953
 4603SOL     OW25441   1.527   2.154   8.438 -0.3024 -0.4495 -0.2037
 4603SOL    HW125442   1.597   2.093   8.416  1.3483  1.4049 -0.1709
 4603SOL    HW225443   1.579   2.233   8.422  0.3430 -0.5494  1.3882
 4604SOL     OW25444   1.304   0.196   6.690  0.5606 -0.5612 -0.2751
 4604SOL    HW125445   1.360   0.168   6.617 -0.9132 -0.5273 -1.4166
 4604SOL    HW225446   1.225   0.142   6.684  1.5835 -1.9892 -0.9822
 4605SOL     OW25447   0.119   2.939   9.824  0.3583  0.0478  0.2050
 4605SOL    HW125448   0.090   2.998   9.894  0.5224 -0.4143  0.6659
 4605SOL    HW225449   0.038   2.889   9.809 -0.4520  1.2447  0.5590
 4606SOL     OW25450   1.823   2.391   2.582 -0.4590  0.0862 -0.2656
 4606SOL    HW125451   1.880   2.363   2.653 -0.2009  1.0468 -0.0958
 4606SOL    HW225452   1.843   2.330   2.512  4.1989  0.2359  0.9540
 4607SOL     OW25453   2.191   4.103  11.108 -0.3547  0.1521 -0.4090
 4607SOL    HW125454   2.158   4.015  11.128 -0.4116  0.5540  1.2661
 4607SOL    HW225455   2.286   4.092  11.117 -0.7657 -2.1349  1.1497
 4608SOL     OW25456   1.446   3.418  17.067  0.0776 -0.2291 -0.0316
 4608SOL    HW125457   1.375   3.391  17.125  0.7182 -0.0746  0.8191
 4608SOL    HW225458   1.402   3.458  16.992  0.0632 -0.8917 -0.3773
 4609SOL     OW25459   2.727   1.813   2.268 -0.3221  0.3105 -0.2652
 4609SOL    HW125460   2.718   1.900   2.230 -1.4833  0.1675 -0.3220
 4609SOL    HW225461   2.785   1.773   2.203 -0.2829 -1.3539  0.8021
 4610SOL     OW25462   0.080   1.260  10.185  0.2827  0.1514  0.3745
 4610SOL    HW125463   0.052   1.223  10.269 -0.7707 -1.4555 -0.6699
 4610SOL    HW225464   0.162   1.212  10.169  0.7762  0.6229  1.4286
 4611SOL     OW25465   2.444   3.363   5.516  0.5938 -0.6939 -0.3355
 4611SOL    HW125466   2.435   3.276   5.554  4.0705 -0.6605  0.5542
 4611SOL    HW225467   2.372   3.417   5.551  0.2254  0.3128 -2.6639
 4612SOL     OW25468   4.411   3.111   2.143 -0.2086  0.8720  0.4549
 4612SOL    HW125469   4.321   3.094   2.171 -0.9481  0.3366 -2.2517
 4612SOL    HW225470   4.413   3.079   2.052 -0.1038  1.1512  0.3597
 4613SOL     OW25471   0.472   3.932   8.508 -0.3346 -0.3228  0.3731
 4613SOL    HW125472   0.537   3.999   8.526 -0.9654 -0.2911  2.4648
 4613SOL    HW225473   0.481   3.924   8.413  1.1878  1.1667  0.3923
 4614SOL     OW25474   4.019   1.257   5.178 -0.2125 -0.3697  0.2845
 4614SOL    HW125475   4.069   1.241   5.258 -0.9341  1.1927  1.0484
 4614SOL    HW225476   3.959   1.329   5.193 -0.5973 -0.3400 -1.4063
 4615SOL     OW25477   3.806   0.439   4.584 -0.5188  0.0822 -0.3055
 4615SOL    HW125478   3.812   0.466   4.675  0.8977 -1.2120 -0.0024
 4615SOL    HW225479   3.867   0.498   4.540  0.0015 -0.4112 -0.2572
 4616SOL     OW25480   0.815   0.695   8.455 -0.0046  0.6404 -0.0875
 4616SOL    HW125481   0.844   0.777   8.414 -1.3680  1.5342  0.7251
 4616SOL    HW225482   0.847   0.700   8.545 -2.3498  0.8241  0.7590
 4617SOL     OW25483   4.003   2.486   8.145  0.2355 -0.3856  0.0419
 4617SOL    HW125484   3.989   2.548   8.073 -0.4365 -0.6213 -0.0253
 4617SOL    HW225485   3.922   2.500   8.195  1.8941  3.0946  1.8256
 4618SOL     OW25486   2.806   4.683  16.724 -0.3319  0.2642 -0.3480
 4618SOL    HW125487   2.838   0.037  16.741  0.4542 -0.7611  3.5661
 4618SOL    HW225488   2.850   4.667  16.640  0.0029 -3.6349  0.5438
 4619SOL     OW25489   4.572   1.287   8.649  0.2005  0.4125  0.0293
 4619SOL    HW125490   4.536   1.222   8.710  0.6348  0.1510  0.0099
 4619SOL    HW225491   4.518   1.272   8.572  1.6288 -0.8321 -0.7343
 4620SOL     OW25492   0.817   3.006   8.543  0.3836 -0.1193  0.3436
 4620SOL    HW125493   0.883   2.938   8.525  2.0218  1.9744 -1.5568
 4620SOL    HW225494   0.864   3.048   8.615  0.2668 -0.6924  0.7613
 4621SOL     OW25495   0.275   4.688   9.108 -0.2177  0.1762  0.0764
 4621SOL    HW125496   0.318   0.010   9.173  0.7989  1.1907 -1.4680
 4621SOL    HW225497   0.274   0.014   9.033 -0.2039  0.3163  0.1880
 4622SOL     OW25498   0.537   4.185   7.201 -0.4360  0.5403  0.3062
 4622SOL    HW125499   0.587   4.204   7.281 -0.3776  1.0866  0.1461
 4622SOL    HW225500   0.603   4.123   7.171 -1.3445  0.4180 -1.4072
 4623SOL     OW25501   1.857   2.815   5.342 -0.0329 -0.4980  0.0223
 4623SOL    HW125502   1.904   2.807   5.259 -1.6715  0.3474 -0.9894
 4623SOL    HW225503   1.844   2.724   5.366 -0.8289 -0.4296 -0.1624
 4624SOL     OW25504   3.609   1.109   7.087  0.1733 -0.5400  0.8009
 4624SOL    HW125505   3.572   1.039   7.033  0.1465  1.3510 -1.6403
 4624SOL    HW225506   3.687   1.137   7.039  0.1460 -0.6729  0.6788
 4625SOL     OW25507   1.002   0.346   1.065  0.1438  0.3977 -0.0401
 4625SOL    HW125508   0.942   0.338   0.990  2.1931 -2.3558 -1.3871
 4625SOL    HW225509   0.965   0.421   1.111 -1.5150  0.4645 -1.4655
 4626SOL     OW25510   3.524   2.307   2.406  0.2493  0.2277 -0.0768
 4626SOL    HW125511   3.611   2.338   2.380 -0.1646  0.5933 -0.9931
 4626SOL    HW225512   3.495   2.280   2.319 -0.5534 -0.6904  0.4751
 4627SOL     OW25513   1.404   4.532   8.754  0.0556 -0.1006  0.2912
 4627SOL    HW125514   1.398   4.602   8.820  0.1376 -0.1360  0.3356
 4627SOL    HW225515   1.318   4.537   8.712 -0.1325  0.8502  0.7915
 4628SOL     OW25516   0.110   0.114   4.214 -0.4963  0.0781 -0.2532
 4628SOL    HW125517   0.114   0.076   4.126 -0.9324 -2.7934  1.0021
 4628SOL    HW225518   0.160   0.196   4.210 -0.1548 -0.1191 -0.0095
 4629SOL     OW25519   2.521   1.578   8.214  0.0705 -0.0732 -0.2186
 4629SOL    HW125520   2.449   1.634   8.242  0.6940  0.8258 -0.4116
 4629SOL    HW225521   2.543   1.634   8.140 -1.1662  1.8697  0.9011
 4630SOL     OW25522   4.053   0.766   6.467  0.3024 -0.6332  0.2411
 4630SOL    HW125523   4.067   0.672   6.479  0.9343 -0.3790  1.5221
 4630SOL    HW225524   4.008   0.763   6.382  0.3338  0.8282  0.1678
 4631SOL     OW25525   3.282   4.311   0.214 -0.1041 -0.1829  0.4855
 4631SOL    HW125526   3.232   4.271   0.142  1.9394  0.8929 -1.5032
 4631SOL    HW225527   3.249   4.399   0.226  0.8176 -0.0741  2.2234
 4632SOL     OW25528   0.970   3.101   6.130 -0.3816 -0.2609  0.1726
 4632SOL    HW125529   0.949   3.036   6.197  0.1131 -0.2809  0.3053
 4632SOL    HW225530   0.926   3.059   6.056 -0.5387 -2.4613  1.5233
 4633SOL     OW25531   2.296   2.062   2.879 -0.3990  0.1037 -0.0881
 4633SOL    HW125532   2.220   2.103   2.837 -0.5477 -0.0476  0.0320
 4633SOL    HW225533   2.332   1.996   2.819 -1.2602  0.7171 -1.2775
 4634SOL     OW25534   2.847   2.875   3.637 -0.5133  0.2613 -0.0356
 4634SOL    HW125535   2.785   2.925   3.690 -0.3739 -0.7119  1.0544
 4634SOL    HW225536   2.870   2.934   3.565 -0.0363  1.0380  0.7576
 4635SOL     OW25537   0.602   3.387   3.930  0.1611 -0.1738 -0.0649
 4635SOL    HW125538   0.592   3.481   3.943 -1.1867 -0.1298 -1.4533
 4635SOL    HW225539   0.673   3.374   3.867 -0.9293  2.6569 -1.8793
 4636SOL     OW25540   3.263   1.132   3.349  0.0561  0.1944 -0.0263
 4636SOL    HW125541   3.351   1.153   3.318  0.0060 -0.3855 -0.5467
 4636SOL    HW225542   3.208   1.208   3.330  0.0687 -0.0670 -1.0626
 4637SOL     OW25543   2.872   0.198   6.187 -0.1302  0.9102  0.2236
 4637SOL    HW125544   2.896   0.114   6.225 -0.8327  0.9270  0.6924
 4637SOL    HW225545   2.821   0.252   6.247 -0.4177  1.0187 -0.1185
 4638SOL     OW25546   4.655   4.086   3.093 -0.1065 -0.2520  0.3392
 4638SOL    HW125547   0.009   4.050   3.108  0.1613  0.3245  0.1390
 4638SOL    HW225548   4.670   4.153   3.027 -0.2406 -1.2360 -0.6827
 4639SOL     OW25549   3.673   0.351   7.980  0.0049 -0.0776  0.3534
 4639SOL    HW125550   3.752   0.306   8.009  0.3615  2.0545  2.6726
 4639SOL    HW225551   3.684   0.339   7.885  1.6713  1.0029  0.4049
 4640SOL     OW25552   4.392   4.583   9.352 -0.5677 -0.9646  0.0927
 4640SOL    HW125553   4.318   4.544   9.306 -1.0543 -1.5143  1.3429
 4640SOL    HW225554   4.393   4.530   9.432 -0.7534 -3.0144 -1.2371
 4641SOL     OW25555   0.389   4.546  11.690  0.2721  0.3746 -0.3655
 4641SOL    HW125556   0.466   4.504  11.652 -0.0011 -1.9750  1.7172
 4641SOL    HW225557   0.437   4.579  11.765  2.3921 -3.0766 -0.1720
 4642SOL     OW25558   3.745   1.873   0.357  0.2458  0.1579 -0.3175
 4642SOL    HW125559   3.703   1.862   0.271  0.0066  0.1534 -0.2006
 4642SOL    HW225560   3.819   1.815   0.345  0.4312  0.2631  0.3449
 4643SOL     OW25561   3.389   3.161   4.305  0.4966  0.1621  0.1130
 4643SOL    HW125562   3.359   3.134   4.218 -2.1848  1.2182  0.7108
 4643SOL    HW225563   3.321   3.111   4.350  1.0750 -1.4549 -0.8191
 4644SOL     OW25564   3.766   2.031   3.510  0.1669  0.8351  0.2655
 4644SOL    HW125565   3.737   2.122   3.510 -2.3913  0.0351 -0.0959
 4644SOL    HW225566   3.741   1.986   3.590  1.8339  1.0834  0.9201
 4645SOL     OW25567   1.643   0.612  15.833  0.1437 -0.0411 -0.4144
 4645SOL    HW125568   1.671   0.532  15.877 -0.5563  0.0111  0.1312
 4645SOL    HW225569   1.617   0.582  15.746 -1.3820 -2.2584  0.8122
 4646SOL     OW25570   1.758   3.413   7.689 -0.0184 -0.6744  0.0735
 4646SOL    HW125571   1.739   3.505   7.708 -0.5850 -0.6970 -0.3701
 4646SOL    HW225572   1.683   3.368   7.728 -1.7122  0.1297 -2.2600
 4647SOL     OW25573   4.142   1.790  10.017  0.0701  0.6311 -0.5414
 4647SOL    HW125574   4.134   1.767   9.924  0.2507  0.0551 -0.4120
 4647SOL    HW225575   4.147   1.885  10.012  2.1277  0.5396 -0.3113
 4648SOL     OW25576   2.906   1.750   6.897 -0.2866 -0.4996 -0.4057
 4648SOL    HW125577   3.000   1.742   6.912 -0.2841 -0.1187 -0.2166
 4648SOL    HW225578   2.901   1.845   6.898  0.2592 -0.4778  0.1370
 4649SOL     OW25579   0.255   0.175   8.940  0.4398 -0.1727  0.4754
 4649SOL    HW125580   0.171   0.216   8.959  0.2544 -0.5388  0.4429
 4649SOL    HW225581   0.250   0.169   8.845 -0.8518 -1.5484  0.6312
 4650SOL     OW25582   1.257   4.130   8.340 -0.0813 -0.1368  0.1763
 4650SOL    HW125583   1.317   4.122   8.267 -0.1521 -2.2274  0.3468
 4650SOL    HW225584   1.308   4.172   8.410  1.8767  0.1904 -1.4621
 4651SOL     OW25585   3.111   4.097  11.429  0.0613 -0.5728  0.0921
 4651SOL    HW125586   3.085   4.179  11.471  1.3423 -0.7109  1.1661
 4651SOL    HW225587   3.126   4.125  11.338 -2.3096 -1.4606 -0.5650
 4652SOL     OW25588   0.724   4.130   8.500 -0.0128  0.1106  0.2434
 4652SOL    HW125589   0.819   4.142   8.494 -0.0035  0.2270  0.6107
 4652SOL    HW225590   0.687   4.194   8.438  0.8167  0.8739  0.5321
 4653SOL     OW25591   1.305   4.521   4.150 -0.1647 -0.1544 -0.0565
 4653SOL    HW125592   1.275   4.580   4.220 -2.9641 -0.5257 -0.9301
 4653SOL    HW225593   1.273   4.575   4.078  1.1601  1.0118  0.2359
 4654SOL     OW25594   1.610   0.079   0.864  0.0219 -0.5130 -0.8367
 4654SOL    HW125595   1.619   0.037   0.778  1.6997  0.2435 -1.0148
 4654SOL    HW225596   1.687   0.134   0.865  0.7547 -1.4991 -2.6429
 4655SOL     OW25597   4.464   0.115   6.668 -0.0154 -0.5314 -0.1365
 4655SOL    HW125598   4.472   0.200   6.711  1.0333  0.0298 -1.4279
 4655SOL    HW225599   4.510   0.062   6.732  0.5834  1.6786  1.2445
 4656SOL     OW25600   0.941   3.870   2.971  0.2740  0.4038  0.4976
 4656SOL    HW125601   0.963   3.787   3.014 -1.1195  0.2752  0.9583
 4656SOL    HW225602   1.024   3.919   2.965 -1.4848  3.2756 -0.1727
 4657SOL     OW25603   1.695   3.287   1.067 -0.1754 -0.4584 -0.8078
 4657SOL    HW125604   1.644   3.303   1.146  0.6601  0.4312 -0.4593
 4657SOL    HW225605   1.619   3.272   1.010 -0.3874 -2.5919  0.0482
 4658SOL     OW25606   0.749   1.492   4.423  0.3534 -0.4844  0.4841
 4658SOL    HW125607   0.696   1.471   4.346  0.9382 -0.0110 -0.0436
 4658SOL    HW225608   0.838   1.466   4.401 -0.1568 -2.5077  0.7884
 4659SOL     OW25609   4.370   2.788   6.947  0.1312  0.2154  0.0766
 4659SOL    HW125610   4.444   2.809   6.890  1.1034 -0.2766  1.1518
 4659SOL    HW225611   4.427   2.764   7.020 -0.8811 -0.6892  0.5684
 4660SOL     OW25612   1.255   4.121   4.886  0.1715 -0.0344  0.0293
 4660SOL    HW125613   1.188   4.086   4.945  0.9226  0.1249  0.9961
 4660SOL    HW225614   1.326   4.057   4.887 -0.9772 -1.2952  0.7041
 4661SOL     OW25615   0.335   4.444   5.044  0.4142 -0.0939  0.5827
 4661SOL    HW125616   0.242   4.436   5.065  0.9093 -0.2629  2.6939
 4661SOL    HW225617   0.370   4.364   5.083  0.7598 -0.9690 -1.5727
 4662SOL     OW25618   2.311   2.335   7.609  0.7298  0.1680 -0.1368
 4662SOL    HW125619   2.236   2.346   7.550  0.6132 -1.8570 -0.3785
 4662SOL    HW225620   2.298   2.240   7.616  1.4476 -0.0595 -1.9274
 4663SOL     OW25621   4.194   3.245   5.588 -0.3978 -0.2831 -0.9632
 4663SOL    HW125622   4.221   3.268   5.677 -0.4024 -4.4800  0.0895
 4663SOL    HW225623   4.101   3.267   5.597 -0.2296 -0.3745  0.9368
 4664SOL     OW25624   2.409   2.551   4.562 -0.1914  0.5575  0.0386
 4664SOL    HW125625   2.359   2.471   4.551  3.0105 -1.8036  2.3886
 4664SOL    HW225626   2.391   2.604   4.485 -1.0513 -0.1000 -0.2036
 4665SOL     OW25627   1.027   3.839   6.012  0.2153 -0.1361 -0.1934
 4665SOL    HW125628   1.069   3.846   6.098 -0.0333  1.9650 -0.2433
 4665SOL    HW225629   0.987   3.926   6.017  0.7923  0.0038  2.2790
 4666SOL     OW25630   1.435   1.473  15.229  0.1419  0.2377 -0.0468
 4666SOL    HW125631   1.401   1.541  15.287  1.0331  0.0130  0.7482
 4666SOL    HW225632   1.354   1.435  15.195 -0.0447  1.8774 -1.4084
 4667SOL     OW25633   2.808   2.410   5.472  0.2734 -0.2190 -1.0004
 4667SOL    HW125634   2.741   2.410   5.404  1.1420  1.0521 -1.8450
 4667SOL    HW225635   2.875   2.373   5.415 -0.4353 -0.5150 -1.6408
 4668SOL     OW25636   0.751   2.883   6.812 -0.3926  0.1356 -0.7092
 4668SOL    HW125637   0.657   2.901   6.808 -0.5843 -1.1949 -2.0670
 4668SOL    HW225638   0.767   2.887   6.907  1.4951 -3.0494 -0.8913
 4669SOL     OW25639   2.129   4.175   8.338  0.0725  0.3289  0.0763
 4669SOL    HW125640   2.201   4.211   8.286 -0.3373  1.1635  0.0815
 4669SOL    HW225641   2.169   4.181   8.425 -1.2143 -0.6103  0.7337
 4670SOL     OW25642   1.820   3.184   6.130 -0.1391  0.0479 -0.4419
 4670SOL    HW125643   1.859   3.097   6.138  0.2010  0.3291  0.9526
 4670SOL    HW225644   1.817   3.218   6.219  1.1867 -0.2827 -0.2683
 4671SOL     OW25645   2.009   0.909   9.715 -0.8023  0.2049  0.1015
 4671SOL    HW125646   2.007   0.940   9.806 -0.1108  1.3310 -0.2644
 4671SOL    HW225647   1.934   0.954   9.675 -0.7569 -0.0190 -0.2323
 4672SOL     OW25648   2.076   3.860   2.112 -0.3567 -0.2665  0.2261
 4672SOL    HW125649   2.047   3.816   2.032  2.0160  0.4477 -0.9997
 4672SOL    HW225650   2.003   3.917   2.136  1.6486  1.7402  1.5426
 4673SOL     OW25651   4.313   3.250   5.836 -0.4030  0.4416 -0.4097
 4673SOL    HW125652   4.298   3.269   5.928  0.5605  0.7868 -0.3322
 4673SOL    HW225653   4.358   3.166   5.846 -0.0181  0.5427 -1.2746
 4674SOL     OW25654   2.555   0.902   1.237 -0.1129 -0.0329 -0.1167
 4674SOL    HW125655   2.589   0.822   1.199 -0.4965  0.0952 -0.7377
 4674SOL    HW225656   2.638   0.944   1.258 -0.6879  0.6331  0.8689
 4675SOL     OW25657   2.804   3.796   8.538 -0.1671  0.2161  0.6210
 4675SOL    HW125658   2.871   3.842   8.588  0.8580 -0.5479 -0.0690
 4675SOL    HW225659   2.797   3.853   8.461  1.9611 -1.2078 -0.6298
 4676SOL     OW25660   3.503   0.551   3.711  0.3907  0.3799  0.0276
 4676SOL    HW125661   3.548   0.635   3.703 -0.7241  1.1073  1.4033
 4676SOL    HW225662   3.413   0.573   3.736 -0.0222  1.8885 -2.7286
 4677SOL     OW25663   0.064   1.418   8.795  0.5134 -0.3017 -0.2605
 4677SOL    HW125664   4.727   1.397   8.736  2.0373 -2.9957 -1.1563
 4677SOL    HW225665   0.119   1.342   8.774 -0.7547 -1.0519 -0.8423
 4678SOL     OW25666   0.243   3.308   8.091  0.4215  0.1360 -0.9248
 4678SOL    HW125667   0.202   3.394   8.106 -2.2257 -0.8011 -2.8825
 4678SOL    HW225668   0.205   3.282   8.007 -0.0445  0.1753 -0.7291
 4679SOL     OW25669   3.929   0.096  13.767  0.3438 -0.5069  0.0761
 4679SOL    HW125670   3.939   0.166  13.831  1.6617 -1.3894  0.8441
 4679SOL    HW225671   3.936   0.023  13.830  0.3427 -1.2667 -0.8044
 4680SOL     OW25672   4.368   0.989   3.049 -0.0013 -0.1848  0.0193
 4680SOL    HW125673   4.318   0.992   2.967  1.3336  0.2035 -0.7845
 4680SOL    HW225674   4.307   0.967   3.119 -1.7252  0.1289 -1.3777
 4681SOL     OW25675   2.458   0.128   2.029 -0.3400 -0.0087 -0.0487
 4681SOL    HW125676   2.481   0.129   2.122 -2.1720 -1.2744  0.4010
 4681SOL    HW225677   2.538   0.156   1.984  0.2321  0.2914  1.1422
 4682SOL     OW25678   4.229   3.621   2.718  0.2512  0.1027  0.7276
 4682SOL    HW125679   4.209   3.688   2.653  0.9578 -0.2337  0.1663
 4682SOL    HW225680   4.317   3.650   2.741 -0.0188  0.7934  0.8812
 4683SOL     OW25681   3.144   2.203  16.643  0.3256  0.5682 -0.7089
 4683SOL    HW125682   3.142   2.256  16.722  0.0671 -1.6429  0.7696
 4683SOL    HW225683   3.217   2.245  16.598 -1.0761 -0.6754 -4.1222
 4684SOL     OW25684   1.574   3.659  14.761 -0.2050  0.1783  0.5455
 4684SOL    HW125685   1.565   3.564  14.774  1.9180 -0.4172 -2.5427
 4684SOL    HW225686   1.487   3.682  14.730 -0.6867 -0.8618  1.1127
 4685SOL     OW25687   2.841   3.273  13.637  0.8318  0.3832 -0.0542
 4685SOL    HW125688   2.920   3.240  13.593 -0.0006 -2.7366  0.8110
 4685SOL    HW225689   2.862   3.362  13.610  0.1643  0.8864  1.1008
 4686SOL     OW25690   2.551   1.703  14.759 -0.8907  0.2126  0.3989
 4686SOL    HW125691   2.597   1.623  14.785 -1.0578 -0.4815 -1.5303
 4686SOL    HW225692   2.602   1.733  14.684  0.6717 -0.3369  1.2229
 4687SOL     OW25693   0.848   2.343   9.130  0.1653 -0.2200  0.2414
 4687SOL    HW125694   0.810   2.401   9.195 -0.5770 -1.2237  0.7050
 4687SOL    HW225695   0.890   2.406   9.072 -0.9695  0.8183  0.5426
 4688SOL     OW25696   2.842   2.693   3.421 -0.2889 -0.0756 -0.0954
 4688SOL    HW125697   2.827   2.759   3.489 -0.0218  0.5203 -0.6148
 4688SOL    HW225698   2.755   2.683   3.383 -2.0111  0.8207  3.5370
 4689SOL     OW25699   1.028   0.238   7.643 -0.3553 -0.5293 -0.5294
 4689SOL    HW125700   1.022   0.147   7.673 -2.6082  0.0066  0.6487
 4689SOL    HW225701   1.023   0.293   7.721 -0.7377 -2.4065  0.7686
 4690SOL     OW25702   2.478   3.139   9.914  0.2103 -0.2071 -0.3688
 4690SOL    HW125703   2.445   3.136  10.004  0.1287  1.9930 -0.3227
 4690SOL    HW225704   2.530   3.059   9.902  0.4319 -0.2566  0.9532
 4691SOL     OW25705   3.362   0.246   1.009 -0.1602 -0.4553  0.5281
 4691SOL    HW125706   3.308   0.307   1.059  0.9756  0.5728  0.4872
 4691SOL    HW225707   3.321   0.164   1.036  0.7377 -0.9499  0.4043
 4692SOL     OW25708   2.022   2.482   7.767  0.0072  0.2006 -0.0739
 4692SOL    HW125709   1.954   2.488   7.833  0.2942  0.3864  0.2052
 4692SOL    HW225710   1.976   2.444   7.692 -1.2123  0.2299  0.6674
 4693SOL     OW25711   2.319   1.268   4.171 -0.2600  0.5692 -0.1843
 4693SOL    HW125712   2.280   1.351   4.143 -1.8558 -0.4393 -1.0268
 4693SOL    HW225713   2.254   1.208   4.133 -0.9821  0.2347  1.5733
 4694SOL     OW25714   0.922   3.636   6.336 -0.0592 -0.4905 -0.2073
 4694SOL    HW125715   0.945   3.720   6.376 -0.6569 -1.0402  1.2734
 4694SOL    HW225716   0.895   3.677   6.254  2.3915 -1.2782 -1.4286
 4695SOL     OW25717   1.174   1.292   5.067 -0.4233  0.3672  0.3798
 4695SOL    HW125718   1.168   1.212   5.119 -0.4415  0.1290  0.0092
 4695SOL    HW225719   1.209   1.257   4.985 -1.6596  0.9125 -0.3967
 4696SOL     OW25720   1.377   4.031   7.335 -0.2015 -0.1159 -0.5569
 4696SOL    HW125721   1.472   4.025   7.324 -0.1707 -2.8429  1.0535
 4696SOL    HW225722   1.346   4.016   7.246  0.7076 -1.7298 -0.6011
 4697SOL     OW25723   3.848   2.177   7.630  0.4746  0.1733 -0.0687
 4697SOL    HW125724   3.943   2.168   7.618  0.1002 -0.7975 -2.3974
 4697SOL    HW225725   3.854   2.237   7.704  1.7175 -1.0905  0.8640
 4698SOL     OW25726   3.064   3.407   6.807  0.3043 -0.2911  0.3289
 4698SOL    HW125727   3.156   3.425   6.786 -0.6798  1.0778 -2.8483
 4698SOL    HW225728   3.063   3.315   6.830 -0.9833 -0.0334  1.2971
 4699SOL     OW25729   2.855   4.569  11.483  0.1402  0.0296 -0.2277
 4699SOL    HW125730   2.922   4.637  11.485  2.1596 -2.0025  0.9777
 4699SOL    HW225731   2.770   4.611  11.498  0.5768  0.9032 -0.1718
 4700SOL     OW25732   0.489   4.562   3.389  0.5082  0.0939 -0.2535
 4700SOL    HW125733   0.423   4.557   3.320  0.3855 -1.7159  0.0051
 4700SOL    HW225734   0.532   4.648   3.382  2.2129 -0.5866  2.0334
 4701SOL     OW25735   4.008   0.474  12.530 -0.6140 -0.5239  0.5105
 4701SOL    HW125736   3.997   0.548  12.589  0.5873  0.9391 -1.0995
 4701SOL    HW225737   3.926   0.474  12.480  1.1661 -0.6059 -2.4745
 4702SOL     OW25738   0.064   4.262   9.476 -0.1147 -0.1188  0.2405
 4702SOL    HW125739   0.127   4.305   9.418 -0.1417  0.0933  0.3674
 4702SOL    HW225740   0.099   4.174   9.493  0.4619  0.8552  4.0385
 4703SOL     OW25741   0.611   4.442  12.141  0.0114  0.2190  0.0895
 4703SOL    HW125742   0.670   4.380  12.099  1.1197  2.4059 -1.5716
 4703SOL    HW225743   0.560   4.380  12.194 -0.7997  1.5909  0.9223
 4704SOL     OW25744   4.380   0.825   5.449 -0.2735  0.0032  0.3108
 4704SOL    HW125745   4.470   0.840   5.420 -0.2610  3.2743  1.9919
 4704SOL    HW225746   4.336   0.891   5.395 -1.0178 -2.4367 -2.0766
 4705SOL     OW25747   4.377   2.815   8.925  0.1969  0.2034 -0.0083
 4705SOL    HW125748   4.440   2.852   8.987  1.7101 -0.0545 -1.3920
 4705SOL    HW225749   4.327   2.891   8.897  0.0895  0.3344  0.5377
 4706SOL     OW25750   1.542   4.207  10.641 -0.1197  0.3983 -0.0800
 4706SOL    HW125751   1.595   4.151  10.585 -0.2836  0.3871 -0.2234
 4706SOL    HW225752   1.457   4.170  10.619 -0.8310  0.8087  1.9745
 4707SOL     OW25753   3.503   3.955   3.449 -0.2856 -1.0608 -0.2720
 4707SOL    HW125754   3.587   3.913   3.433  1.2880  1.0730  2.3256
 4707SOL    HW225755   3.483   3.909   3.531 -0.7889  2.6500  1.6961
 4708SOL     OW25756   3.016   0.445   9.943  0.1343  0.6049  0.4395
 4708SOL    HW125757   3.077   0.372   9.933 -0.6493  0.2307 -1.4550
 4708SOL    HW225758   2.941   0.391   9.970 -0.6586  0.8695 -1.2792
 4709SOL     OW25759   0.720   2.740   2.419  0.2617  0.3618 -0.7272
 4709SOL    HW125760   0.788   2.801   2.447 -0.0687  0.5678 -0.3726
 4709SOL    HW225761   0.686   2.788   2.343  0.0481 -0.6752 -1.2841
 4710SOL     OW25762   1.626   4.160   3.234 -0.3472 -0.5378 -0.2155
 4710SOL    HW125763   1.541   4.202   3.247  1.3382  2.0055  2.5257
 4710SOL    HW225764   1.662   4.200   3.154 -1.2929  0.2607 -0.2395
 4711SOL     OW25765   4.677   0.089   6.016 -0.2723 -0.0803  0.2358
 4711SOL    HW125766   4.712   0.008   5.978  0.6549 -0.0660  1.0697
 4711SOL    HW225767   4.710   0.153   5.954  0.5665  0.6167  1.4102
 4712SOL     OW25768   1.164   4.233   7.904  0.1645  0.1118 -0.4288
 4712SOL    HW125769   1.091   4.206   7.961 -0.7124  2.6798 -0.3343
 4712SOL    HW225770   1.151   4.177   7.827  3.3209 -2.8186  1.1716
 4713SOL     OW25771   4.063   4.345   8.349 -0.1853  0.0793 -0.0586
 4713SOL    HW125772   4.154   4.360   8.326 -0.0431  1.9566  1.7299
 4713SOL    HW225773   4.019   4.367   8.267  1.4259 -2.9150 -1.7326
 4714SOL     OW25774   1.931   0.326   2.913  0.5349 -0.4447  0.2576
 4714SOL    HW125775   1.883   0.257   2.866 -1.6822  1.8029 -0.7599
 4714SOL    HW225776   1.978   0.275   2.979  0.0035  0.0378  1.0113
 4715SOL     OW25777   3.233   0.698   9.319  0.1044 -0.1869 -0.2067
 4715SOL    HW125778   3.266   0.622   9.272 -0.2898  0.4202 -1.4716
 4715SOL    HW225779   3.204   0.667   9.404 -0.1356 -0.0995 -0.2545
 4716SOL     OW25780   0.987   1.202   6.998 -0.3396  0.4465  0.4644
 4716SOL    HW125781   0.951   1.130   6.946 -1.2885  1.5116 -0.3464
 4716SOL    HW225782   1.005   1.268   6.932 -0.3366 -0.9901 -0.9581
 4717SOL     OW25783   1.697   0.026  14.188  0.2523 -0.0393  0.7482
 4717SOL    HW125784   1.603   0.035  14.174  0.6128 -0.2221 -1.8244
 4717SOL    HW225785   1.730   4.713  14.112 -2.5187  2.0108 -1.7233
 4718SOL     OW25786   3.766   4.323   7.613  0.2081  0.3802 -0.6271
 4718SOL    HW125787   3.729   4.252   7.561 -0.2540  0.9004 -1.0171
 4718SOL    HW225788   3.859   4.317   7.589 -0.6453  0.5187 -3.9683
 4719SOL     OW25789   1.063   4.550   2.226 -0.1822  0.1564  0.6831
 4719SOL    HW125790   1.011   4.502   2.290  1.8629 -0.0646  2.1596
 4719SOL    HW225791   1.152   4.537   2.258  0.0022  0.0978  0.1480
 4720SOL     OW25792   0.116   2.297   8.439 -0.2540 -0.1734  0.2001
 4720SOL    HW125793   0.086   2.225   8.494 -0.9485  0.6081  0.8378
 4720SOL    HW225794   0.152   2.357   8.505  2.0555 -2.2416  0.8218
 4721SOL     OW25795   3.829   1.923   5.681  0.5441 -0.1584  0.0160
 4721SOL    HW125796   3.899   1.951   5.741 -0.1685 -2.6015  2.0018
 4721SOL    HW225797   3.806   1.836   5.713  0.2234  0.5429  1.7413
 4722SOL     OW25798   0.827   2.959   5.942 -0.4833 -0.2527  0.2645
 4722SOL    HW125799   0.847   2.923   5.856 -0.4177 -1.4122  0.7712
 4722SOL    HW225800   0.739   2.997   5.934  0.0105  0.2363 -2.6789
 4723SOL     OW25801   3.093   3.751   3.557 -0.0258 -0.7707  0.0760
 4723SOL    HW125802   3.088   3.843   3.531  0.6879 -0.6428  0.3941
 4723SOL    HW225803   3.001   3.727   3.555  0.0289 -1.0531  1.2475
 4724SOL     OW25804   3.605   2.826   9.178 -0.5628 -0.0787  0.0237
 4724SOL    HW125805   3.572   2.819   9.268 -0.1773  1.0622  0.2458
 4724SOL    HW225806   3.694   2.836   9.212 -0.6814 -0.5516  0.4903
 4725SOL     OW25807   3.632   1.742   8.754 -0.3120 -0.6277  1.0958
 4725SOL    HW125808   3.657   1.650   8.752  2.2424  0.1227 -1.8762
 4725SOL    HW225809   3.596   1.753   8.666 -0.0277 -2.6524  0.7478
 4726SOL     OW25810   4.066   1.672   6.110 -0.1779  0.4131 -0.2296
 4726SOL    HW125811   4.082   1.698   6.019  0.0536  0.2356 -0.2401
 4726SOL    HW225812   4.041   1.581   6.094  0.8684 -0.4914  3.3450
 4727SOL     OW25813   2.582   1.269   5.430 -0.0963  0.2920  0.1261
 4727SOL    HW125814   2.601   1.279   5.523 -0.0112 -1.9951  0.3507
 4727SOL    HW225815   2.563   1.359   5.402  0.7833 -0.3816 -2.6184
 4728SOL     OW25816   1.288   3.937   0.967 -0.1528  0.2930  0.6686
 4728SOL    HW125817   1.283   3.987   1.048  2.0288 -0.8861  1.5168
 4728SOL    HW225818   1.220   3.980   0.915  1.2930  1.6358 -0.1453
 4729SOL     OW25819   2.787   0.545   8.088  0.3530  0.2557  0.0758
 4729SOL    HW125820   2.813   0.630   8.053  1.0597 -0.4946 -1.2260
 4729SOL    HW225821   2.835   0.483   8.032  0.5643  0.7822 -0.3210
 4730SOL     OW25822   1.288   3.568   3.711 -0.1263  0.0651 -0.2551
 4730SOL    HW125823   1.324   3.564   3.799  0.2687 -0.2726 -0.4313
 4730SOL    HW225824   1.364   3.600   3.662  1.6637  0.2857  2.7005
 4731SOL     OW25825   0.447   0.588   6.211  1.1084 -0.2426 -0.2172
 4731SOL    HW125826   0.376   0.652   6.216  0.9345 -0.5615  1.6477
 4731SOL    HW225827   0.489   0.621   6.291 -0.9861 -2.1582  1.6676
 4732SOL     OW25828   2.978   3.873   6.978  0.4830  0.0192 -0.4082
 4732SOL    HW125829   2.935   3.958   6.983  0.6716  0.1861 -1.5280
 4732SOL    HW225830   2.905   3.815   6.999 -0.2536  0.3149 -2.1331
 4733SOL     OW25831   0.942   2.580   6.962  0.8262  0.1926 -0.1451
 4733SOL    HW125832   0.847   2.568   6.956  0.6773  1.7135 -0.9252
 4733SOL    HW225833   0.958   2.504   7.017  0.5099 -0.2996 -0.7377
 4734SOL     OW25834   2.041   3.955  16.132 -0.6161 -0.3187  0.5481
 4734SOL    HW125835   1.966   3.896  16.134  0.1306 -1.3182 -0.2878
 4734SOL    HW225836   2.092   3.911  16.063 -1.5780  1.0640 -1.0562
 4735SOL     OW25837   2.266   2.411   1.594 -0.0835  0.1097  0.1043
 4735SOL    HW125838   2.213   2.366   1.660 -0.1781 -0.2722 -0.2362
 4735SOL    HW225839   2.203   2.424   1.523  1.3444  1.0427 -0.9916
 4736SOL     OW25840   3.432   0.829   6.331  0.0238  0.2513 -0.2671
 4736SOL    HW125841   3.367   0.773   6.288  0.0550  1.1676 -1.4849
 4736SOL    HW225842   3.416   0.810   6.424 -0.7873  1.9332 -0.0705
 4737SOL     OW25843   1.229   1.921   4.120 -0.4718  0.1485 -0.5738
 4737SOL    HW125844   1.180   1.984   4.066 -1.0506 -0.2773 -0.5507
 4737SOL    HW225845   1.301   1.894   4.065 -0.5404  0.9972 -1.0904
 4738SOL     OW25846   0.346   0.581   8.539 -0.7414  0.1024 -0.4343
 4738SOL    HW125847   0.310   0.598   8.452  0.4275  2.9722 -0.3605
 4738SOL    HW225848   0.431   0.625   8.533  0.4578 -2.0246  0.9966
 4739SOL     OW25849   0.653   1.799  11.106 -0.3218 -0.1450 -0.1885
 4739SOL    HW125850   0.677   1.804  11.014  0.0300  0.4714 -0.0632
 4739SOL    HW225851   0.733   1.805  11.158  0.1933  0.3461 -1.0447
 4740SOL     OW25852   0.432   1.499   2.142 -0.7950 -0.6617  0.0472
 4740SOL    HW125853   0.389   1.541   2.217 -0.9559  0.2916 -0.5636
 4740SOL    HW225854   0.490   1.434   2.182  0.6495 -0.0562 -1.0447
 4741SOL     OW25855   0.542   2.801  13.131 -0.1159  0.0368 -0.2990
 4741SOL    HW125856   0.613   2.839  13.079  0.4099 -0.9430 -0.2846
 4741SOL    HW225857   0.470   2.798  13.068  1.1575 -0.6979 -1.7198
 4742SOL     OW25858   0.354   1.531   2.607 -0.6910  0.0585  0.0379
 4742SOL    HW125859   0.286   1.543   2.540  0.5434 -1.1801 -1.4459
 4742SOL    HW225860   0.325   1.443   2.633 -1.0642  0.8708  2.3211
 4743SOL     OW25861   2.351   0.986   3.055  0.6500 -0.1215  0.5642
 4743SOL    HW125862   2.411   0.922   3.017 -0.8732 -1.4665  0.4624
 4743SOL    HW225863   2.416   1.051   3.083  1.2864 -0.1333 -0.8553
 4744SOL     OW25864   3.495   1.981   8.157  0.2921 -0.3551  0.3929
 4744SOL    HW125865   3.559   2.037   8.112 -0.6243 -0.6339 -1.2665
 4744SOL    HW225866   3.406   2.001   8.126  0.0036 -0.3059  1.2490
 4745SOL     OW25867   3.441   1.329   9.681 -0.4709 -0.4134  0.3600
 4745SOL    HW125868   3.522   1.360   9.641 -0.1995  0.6137  1.7251
 4745SOL    HW225869   3.378   1.397   9.658  0.3985  0.7541  1.4465
 4746SOL     OW25870   1.693   1.142   5.870 -0.2790 -0.2096  0.6987
 4746SOL    HW125871   1.785   1.128   5.849 -0.4387  0.2317 -0.2990
 4746SOL    HW225872   1.649   1.057   5.878 -0.3544 -0.0400  2.0446
 4747SOL     OW25873   2.020   4.181   5.298 -0.3464  0.0157 -0.0681
 4747SOL    HW125874   1.947   4.131   5.334 -0.1801  1.3189  2.0959
 4747SOL    HW225875   1.978   4.266   5.291 -1.9764 -0.6281  1.8805
 4748SOL     OW25876   1.672   4.186  11.957  0.2948 -0.2130 -0.0872
 4748SOL    HW125877   1.613   4.131  12.008  2.5613 -0.8167  1.9014
 4748SOL    HW225878   1.631   4.179  11.870 -1.1628 -1.7324  0.7186
 4749SOL     OW25879   1.289   0.209   9.657 -0.5697  0.5224 -0.2839
 4749SOL    HW125880   1.347   0.150   9.705  0.3067  0.5280 -1.3423
 4749SOL    HW225881   1.212   0.207   9.714  0.9616 -0.8521  1.7023
 4750SOL     OW25882   3.829   4.479   2.473 -0.2112  0.1533 -0.4538
 4750SOL    HW125883   3.742   4.507   2.502  0.4355  1.7480 -0.0420
 4750SOL    HW225884   3.877   4.553   2.509 -1.9109  0.6793  0.7161
 4751SOL     OW25885   3.298   3.328  14.922  0.4126 -0.0810  0.2353
 4751SOL    HW125886   3.348   3.406  14.898 -1.9229  1.1350 -0.6292
 4751SOL    HW225887   3.303   3.327  15.017  1.7882 -2.5582  0.1427
 4752SOL     OW25888   2.731   4.541   8.646 -0.1391 -0.4678 -0.3892
 4752SOL    HW125889   2.823   4.561   8.627 -0.6258  0.0237 -2.1696
 4752SOL    HW225890   2.680   4.552   8.566 -2.1877  1.0423  1.1282
 4753SOL     OW25891   2.710   2.263   6.441 -0.4705 -0.4981  0.3833
 4753SOL    HW125892   2.756   2.304   6.368  0.1069  1.5410  1.8989
 4753SOL    HW225893   2.731   2.336   6.500 -1.3088  0.4827 -0.5331
 4754SOL     OW25894   1.507   0.668   8.285 -0.1316  0.1759  0.1359
 4754SOL    HW125895   1.416   0.685   8.309  0.2083  1.3746  0.5423
 4754SOL    HW225896   1.545   0.675   8.373  2.1483 -0.9858 -0.7497
 4755SOL     OW25897   3.824   3.864   4.390 -0.0515 -0.6870  0.2972
 4755SOL    HW125898   3.829   3.959   4.400  0.3024 -0.5048 -1.5352
 4755SOL    HW225899   3.889   3.837   4.456 -0.9010  0.8391  1.7368
 4756SOL     OW25900   2.278   3.999   3.864  0.0298  0.6236  0.1953
 4756SOL    HW125901   2.324   4.082   3.850 -1.3460  1.5445  1.1082
 4756SOL    HW225902   2.197   4.027   3.819 -0.0673  0.3132  0.1795
 4757SOL     OW25903   4.511   0.370   2.378  0.0769  0.0119  0.5172
 4757SOL    HW125904   4.518   0.463   2.402  2.0376  0.1242 -0.4688
 4757SOL    HW225905   4.504   0.335   2.467  0.0748 -0.0083  0.5091
 4758SOL     OW25906   2.755   3.198   1.394 -0.1998  0.2769  0.5121
 4758SOL    HW125907   2.755   3.282   1.348 -3.3150 -0.0203 -0.0284
 4758SOL    HW225908   2.845   3.193   1.426  0.5572  0.0619 -1.6156
 4759SOL     OW25909   4.653   2.214   9.560  0.5354 -0.0255 -0.3415
 4759SOL    HW125910   0.010   2.231   9.535  1.1377 -2.6851 -0.0011
 4759SOL    HW225911   4.663   2.235   9.653 -3.0719 -2.4398  0.5790
 4760SOL     OW25912   1.437   0.964   0.042 -0.3072 -0.1192 -0.1665
 4760SOL    HW125913   1.457   0.989   0.132 -0.0221 -0.1509 -0.2197
 4760SOL    HW225914   1.520   0.941   0.000 -0.0573 -1.3889  1.0219
 4761SOL     OW25915   4.618   1.615   8.458 -0.0769  0.1157 -0.2783
 4761SOL    HW125916   4.712   1.609   8.446 -0.1311 -2.0530  0.4813
 4761SOL    HW225917   4.597   1.570   8.540 -0.6950  0.0510 -0.4674
 4762SOL     OW25918   0.570   0.687   3.739 -0.3866 -0.5642 -0.4028
 4762SOL    HW125919   0.560   0.684   3.644  0.2645  2.7910 -0.5769
 4762SOL    HW225920   0.655   0.725   3.758  1.8737 -5.5981 -0.5592
 4763SOL     OW25921   2.799   4.585   4.347  0.0243 -0.2343 -0.2565
 4763SOL    HW125922   2.707   4.608   4.334 -0.7042 -1.9520  1.8272
 4763SOL    HW225923   2.830   4.670   4.377  0.3874 -1.5729  3.2335
 4764SOL     OW25924   3.959   2.743   7.320 -0.1455  0.5383 -0.1523
 4764SOL    HW125925   3.909   2.665   7.346 -1.5632  1.6509  0.4389
 4764SOL    HW225926   3.904   2.785   7.254 -1.6135  0.6656  1.1676
 4765SOL     OW25927   3.001   2.046   3.280 -0.1109 -0.5612  0.1128
 4765SOL    HW125928   3.010   2.141   3.283  2.4006 -0.7795 -0.0632
 4765SOL    HW225929   3.045   2.015   3.201  2.5221  1.9017  0.5856
 4766SOL     OW25930   0.329   4.319   3.723  0.3229  0.2402  0.0881
 4766SOL    HW125931   0.309   4.333   3.631 -0.2618 -2.1049 -0.1457
 4766SOL    HW225932   0.272   4.383   3.766 -1.3520 -0.6879 -0.7566
 4767SOL     OW25933   1.174   0.166   7.416  0.6952  0.1779 -0.1866
 4767SOL    HW125934   1.128   0.223   7.478  0.1164 -0.2334 -0.2413
 4767SOL    HW225935   1.262   0.167   7.455  0.5134  2.6916  0.2239
 4768SOL     OW25936   1.596   0.054   3.006 -0.1673 -0.2635 -0.1598
 4768SOL    HW125937   1.566   0.064   2.915  4.0605  0.4280 -1.4707
 4768SOL    HW225938   1.590   0.144   3.037 -1.6306 -0.2951 -0.3552
 4769SOL     OW25939   4.673   1.834   8.256  0.0725 -0.4375 -0.3010
 4769SOL    HW125940   4.597   1.885   8.284  0.5557 -0.0484  0.2878
 4769SOL    HW225941   4.666   1.755   8.311  2.9830  0.2624  1.0710
 4770SOL     OW25942   1.061   4.571   3.066 -0.0506  0.2613  1.0242
 4770SOL    HW125943   1.055   4.536   2.977  0.4626 -0.9914  1.4813
 4770SOL    HW225944   1.156   4.583   3.062 -0.5889  3.5608 -1.9416
 4771SOL     OW25945   2.451   1.147   1.528 -0.2094 -1.0460 -0.5210
 4771SOL    HW125946   2.467   1.230   1.482  0.7734 -0.2582  1.2458
 4771SOL    HW225947   2.391   1.098   1.472 -0.1962 -1.7454  0.0889
 4772SOL     OW25948   3.687   4.007   4.741  0.1206  0.4003 -0.9473
 4772SOL    HW125949   3.774   4.000   4.780  1.0751  1.2286 -2.9484
 4772SOL    HW225950   3.656   3.921   4.771 -0.9433  0.8379 -0.7968
 4773SOL     OW25951   3.028   2.676   2.746  0.0835  0.1466  0.2640
 4773SOL    HW125952   3.042   2.692   2.840  0.9469 -0.4006  0.2215
 4773SOL    HW225953   3.059   2.762   2.716  1.4403 -0.9758 -1.5399
 4774SOL     OW25954   4.601   2.592  10.493  0.1565  0.1369  0.1562
 4774SOL    HW125955   4.580   2.566  10.404  0.3006  0.0704  0.1414
 4774SOL    HW225956   4.679   2.537  10.502 -1.0859 -1.5008  0.8926
 4775SOL     OW25957   0.720   4.184   5.869  0.0570 -0.1112 -0.1189
 4775SOL    HW125958   0.757   4.248   5.930 -1.0502 -0.0764  0.5103
 4775SOL    HW225959   0.787   4.118   5.853  1.4859  1.5813 -1.0457
 4776SOL     OW25960   0.328   2.721   4.694  0.3438 -0.1509  0.2011
 4776SOL    HW125961   0.351   2.812   4.675  2.5142 -0.8423 -0.5057
 4776SOL    HW225962   0.368   2.682   4.617 -1.2333 -0.9816 -0.1765
 4777SOL     OW25963   2.446   2.162   3.103 -0.2675 -0.5294  0.0674
 4777SOL    HW125964   2.410   2.148   3.015  0.7120  1.2523 -0.6130
 4777SOL    HW225965   2.421   2.253   3.118  1.1874 -0.1183 -0.0616
 4778SOL     OW25966   1.118   2.726   6.404 -0.3681 -0.2150 -0.5746
 4778SOL    HW125967   1.120   2.804   6.349  1.9098 -0.3263 -0.6623
 4778SOL    HW225968   1.170   2.765   6.474 -0.5575 -2.5625  0.8909
 4779SOL     OW25969   4.187   2.229   5.877 -0.6889  0.3214 -0.1699
 4779SOL    HW125970   4.134   2.253   5.801 -1.1956 -3.8026 -1.0991
 4779SOL    HW225971   4.238   2.310   5.877 -0.9450  0.4786  1.8702
 4780SOL     OW25972   1.545   1.177  15.223 -0.4449  0.1447 -0.0934
 4780SOL    HW125973   1.594   1.248  15.265  0.9748  0.4932 -2.3217
 4780SOL    HW225974   1.511   1.234  15.155 -2.0874 -1.7465 -0.8608
 4781SOL     OW25975   1.420   1.033   4.434 -0.3311  0.2385 -0.1341
 4781SOL    HW125976   1.490   1.095   4.454  0.0896  0.1066 -1.1842
 4781SOL    HW225977   1.371   1.085   4.370  0.0317 -0.7736 -1.2422
 4782SOL     OW25978   2.583   3.118   2.110  0.5348 -0.9387 -0.0124
 4782SOL    HW125979   2.596   3.069   2.191  0.4433 -1.2975 -0.2184
 4782SOL    HW225980   2.631   3.062   2.049 -0.0934 -1.0237 -0.4267
 4783SOL     OW25981   1.896   0.669   4.388 -0.6730 -0.3808 -0.3141
 4783SOL    HW125982   1.973   0.619   4.361 -1.6875 -1.1069 -1.8924
 4783SOL    HW225983   1.906   0.674   4.483  1.1740  1.0141 -0.5803
 4784SOL     OW25984   0.938   3.688  14.386  0.3350  0.6930 -0.6489
 4784SOL    HW125985   1.031   3.704  14.371  0.9360 -1.6786  0.5138
 4784SOL    HW225986   0.894   3.735  14.315  0.3479  0.0498 -1.0812
 4785SOL     OW25987   0.889   1.322   5.305  0.2668  0.5911  0.0346
 4785SOL    HW125988   0.982   1.339   5.316  0.5487 -1.4693  0.8442
 4785SOL    HW225989   0.888   1.265   5.228  0.1637 -0.6926  0.9847
 4786SOL     OW25990   1.144   0.189   8.065  0.5611 -0.0425 -0.0883
 4786SOL    HW125991   1.229   0.176   8.022  0.5863  0.0660 -0.0707
 4786SOL    HW225992   1.093   0.248   8.010 -3.4183 -1.6393  1.9005
 4787SOL     OW25993   3.082   3.719   0.967 -0.0936 -0.1831 -0.0144
 4787SOL    HW125994   3.044   3.796   1.008  0.8280  0.7873 -0.9966
 4787SOL    HW225995   3.025   3.692   0.895  0.9260 -3.2111  0.3158
 4788SOL     OW25996   0.692   3.352   2.360 -0.5171  0.0842 -0.0052
 4788SOL    HW125997   0.711   3.284   2.295  1.1506  0.5753 -0.0201
 4788SOL    HW225998   0.640   3.304   2.425  1.0579 -0.2388  1.0066
 4789SOL     OW25999   0.004   3.085  10.025 -0.3028 -0.0609  0.1730
 4789SOL    HW126000   4.661   3.054  10.073 -0.6985  0.4915 -0.1036
 4789SOL    HW226001   4.729   3.179  10.041  2.1962  0.5307 -1.9187
 4790SOL     OW26002   4.646   2.483   5.515 -0.4585 -0.3735  0.1397
 4790SOL    HW126003   4.687   2.462   5.431 -2.3559 -0.6342 -0.7338
 4790SOL    HW226004   4.605   2.567   5.493  0.8632  0.2497  0.0811
 4791SOL     OW26005   2.854   2.042  16.157 -0.7216  0.0064 -0.8120
 4791SOL    HW126006   2.785   2.077  16.214  0.7331  1.2554  0.1687
 4791SOL    HW226007   2.849   2.101  16.082  3.1833 -1.4352 -2.2057
 4792SOL     OW26008   2.649   3.976   0.806  0.2102 -0.2752 -0.6208
 4792SOL    HW126009   2.578   3.966   0.743 -0.6043 -0.5291  0.3318
 4792SOL    HW226010   2.724   3.990   0.748 -0.5194  0.2150 -1.4304
 4793SOL     OW26011   3.589   0.701   2.830 -0.1332  0.0766  0.0299
 4793SOL    HW126012   3.525   0.755   2.784  1.7422  1.3093 -1.1305
 4793SOL    HW226013   3.532   0.643   2.881 -1.0890  1.0298  0.0553
 4794SOL     OW26014   4.006   2.436   7.146  0.4481 -0.3915 -0.4504
 4794SOL    HW126015   4.061   2.487   7.087  1.0851  1.1510  1.4714
 4794SOL    HW226016   4.081   2.392   7.187 -2.1460 -1.2391  3.3931
 4795SOL     OW26017   3.547   2.977   2.457 -0.0843 -0.1516  0.4012
 4795SOL    HW126018   3.452   2.982   2.468 -0.4106 -0.3749 -2.4152
 4795SOL    HW226019   3.563   2.890   2.419 -3.1248  0.0495 -1.3025
 4796SOL     OW26020   1.259   3.475  12.309  0.0461  0.5781 -0.6363
 4796SOL    HW126021   1.324   3.471  12.239  2.1562  1.0684  1.2761
 4796SOL    HW226022   1.293   3.548  12.361  1.4488  0.0109 -0.7622
 4797SOL     OW26023   4.476   1.809  10.859  0.0749 -0.7439  0.5557
 4797SOL    HW126024   4.449   1.897  10.832  2.0210  0.2108  1.7231
 4797SOL    HW226025   4.530   1.825  10.937 -0.4319  3.4890  0.0143
 4798SOL     OW26026   2.265   4.045  12.141 -0.5137 -0.8939  0.0516
 4798SOL    HW126027   2.282   4.139  12.127  1.6224 -1.5073 -1.4303
 4798SOL    HW226028   2.350   4.007  12.119  0.0443  0.3112  0.0917
 4799SOL     OW26029   0.945   2.983   2.952 -0.1001  0.1418  0.0702
 4799SOL    HW126030   0.973   2.976   3.043 -0.9592  1.3125  0.4210
 4799SOL    HW226031   0.950   2.889   2.934  0.3724 -0.0236  1.0710
 4800SOL     OW26032   4.733   2.480   5.032  0.6741 -1.0271 -0.5057
 4800SOL    HW126033   4.647   2.443   5.012  0.7948 -1.6120  0.0850
 4800SOL    HW226034   0.039   2.466   4.946 -3.2652 -0.6790 -2.3963
 4801SOL     OW26035   3.421   1.610   2.477  0.5480  0.4140 -0.1244
 4801SOL    HW126036   3.346   1.558   2.507  0.2688  1.6661  1.3513
 4801SOL    HW226037   3.403   1.626   2.384  1.0833 -0.6169 -0.4060
 4802SOL     OW26038   1.644   2.130  11.040 -0.2002 -0.4357  0.3017
 4802SOL    HW126039   1.571   2.182  11.006  0.9164 -0.2619 -1.8062
 4802SOL    HW226040   1.623   2.141  11.133  0.0525  5.4881 -0.4023
 4803SOL     OW26041   2.585   0.295   5.725 -0.5235  0.5642 -0.2305
 4803SOL    HW126042   2.566   0.304   5.818  2.6943  1.2769  0.3751
 4803SOL    HW226043   2.643   0.371   5.725 -1.2236  1.0943  0.1747
 4804SOL     OW26044   4.466   3.560   1.740  0.0859  0.2857 -0.1638
 4804SOL    HW126045   4.508   3.620   1.679  2.4271 -0.7192  0.4698
 4804SOL    HW226046   4.507   3.478   1.714 -0.8810 -0.3741  0.3936
 4805SOL     OW26047   1.651   3.579   7.277 -0.8504  0.4088 -0.2528
 4805SOL    HW126048   1.744   3.582   7.256 -0.8852  0.2703 -0.4232
 4805SOL    HW226049   1.645   3.635   7.354  1.7349 -0.4014  0.5175
 4806SOL     OW26050   3.094   4.572   1.938  0.2496 -0.5297 -0.2664
 4806SOL    HW126051   3.012   4.580   1.987  1.7243 -0.3398  2.1532
 4806SOL    HW226052   3.159   4.591   2.005 -2.6405  0.4823  2.2531
 4807SOL     OW26053   0.025   2.967   7.267 -0.2420 -0.0754  0.3236
 4807SOL    HW126054   0.033   2.878   7.303 -1.1705  0.5467  2.0690
 4807SOL    HW226055   0.101   2.971   7.209 -1.2417  0.8110 -0.9017
 4808SOL     OW26056   4.352   4.629  17.002 -0.2057  0.7713 -0.4157
 4808SOL    HW126057   4.304   4.702  17.042  1.3844  0.7875  1.4613
 4808SOL    HW226058   4.444   4.651  17.013  0.1523 -0.5305 -0.7740
 4809SOL     OW26059   0.567   2.115   5.539 -0.4389  0.3261 -0.0240
 4809SOL    HW126060   0.515   2.192   5.564 -1.9253 -1.3143  1.8847
 4809SOL    HW226061   0.583   2.083   5.628 -1.9531 -0.9530 -0.2175
 4810SOL     OW26062   3.792   0.736   4.844  0.1448  0.5999  0.5561
 4810SOL    HW126063   3.845   0.812   4.867  2.3501 -0.6641 -0.2599
 4810SOL    HW226064   3.770   0.763   4.755  0.1013  0.5720  0.5586
 4811SOL     OW26065   3.157   1.690   5.549 -0.4273  0.2936  0.2264
 4811SOL    HW126066   3.214   1.626   5.591  0.4529 -0.8306 -2.6572
 4811SOL    HW226067   3.142   1.651   5.462 -2.3655 -0.0566  0.7173
 4812SOL     OW26068   0.269   1.806   2.925  0.0448  0.1206 -0.0482
 4812SOL    HW126069   0.335   1.747   2.889  0.7295  1.7851 -1.5026
 4812SOL    HW226070   0.238   1.855   2.849 -1.3158 -0.2332  0.2765
 4813SOL     OW26071   4.682   4.271   3.440 -0.0770  0.1247 -0.3040
 4813SOL    HW126072   4.623   4.196   3.437  0.4512 -0.2475 -1.3177
 4813SOL    HW226073   0.009   4.248   3.510  1.4558  0.4601 -1.5376
 4814SOL     OW26074   0.651   2.872   1.478 -0.1202  0.4029 -0.6626
 4814SOL    HW126075   0.682   2.908   1.561 -3.0674  0.1326  0.5513
 4814SOL    HW226076   0.736   2.853   1.439 -1.1223 -1.5993 -1.8465
 4815SOL     OW26077   2.577   0.044   3.982  0.1177  0.5913 -0.5871
 4815SOL    HW126078   2.623   4.716   3.924 -2.7519 -1.4300 -0.7178
 4815SOL    HW226079   2.594   4.734   4.065  1.1674 -0.5562 -1.4172
 4816SOL     OW26080   0.720   4.371   4.367  0.1878  0.4117 -0.3765
 4816SOL    HW126081   0.641   4.426   4.366  0.1518  0.3553 -0.5807
 4816SOL    HW226082   0.695   4.299   4.310  0.0559  0.9720 -1.0175
 4817SOL     OW26083   2.733   3.135   2.395 -0.0076 -0.1398  0.2657
 4817SOL    HW126084   2.796   3.070   2.426  1.6111  1.3044  0.0308
 4817SOL    HW226085   2.784   3.216   2.397 -0.0939 -0.1057  0.9375
 4818SOL     OW26086   2.746   0.456   4.907  0.7760  0.1996  0.5899
 4818SOL    HW126087   2.672   0.397   4.915 -0.8758  2.2525  0.4323
 4818SOL    HW226088   2.740   0.475   4.813 -2.0471  1.2120  0.9952
 4819SOL     OW26089   4.649   0.440   7.086 -0.0663 -0.0826 -0.3585
 4819SOL    HW126090   4.716   0.444   7.153 -1.8651  0.9150  1.3857
 4819SOL    HW226091   4.657   0.349   7.060 -1.0608 -0.4859  0.7697
 4820SOL     OW26092   3.456   1.091   2.416  0.1161  0.0547 -0.4465
 4820SOL    HW126093   3.440   1.164   2.476  1.3814  0.5908 -0.7697
 4820SOL    HW226094   3.397   1.119   2.347 -0.4333 -0.2611 -0.1036
 4821SOL     OW26095   0.639   4.116   5.365  0.5076  1.0280  0.3992
 4821SOL    HW126096   0.710   4.052   5.374 -0.4157  0.0463  0.6440
 4821SOL    HW226097   0.685   4.186   5.413  1.6935 -1.2346  2.5363
 4822SOL     OW26098   4.616   4.639  17.073 -0.2302 -0.1938  0.5779
 4822SOL    HW126099   4.640   4.559  17.026  1.0753  0.3308  0.3540
 4822SOL    HW226100   4.650   4.618  17.160  0.5687  1.9451  0.7935
 4823SOL     OW26101   0.839   0.406   4.928 -0.2893 -0.1407 -0.1834
 4823SOL    HW126102   0.882   0.321   4.940  2.7117  1.8419  2.9811
 4823SOL    HW226103   0.787   0.405   5.008 -1.3857 -0.5299 -0.8921
 4824SOL     OW26104   1.612   0.247  11.706 -0.2301  0.3099 -0.5753
 4824SOL    HW126105   1.676   0.183  11.676 -0.6652 -1.4560  2.2796
 4824SOL    HW226106   1.664   0.288  11.776 -0.0195 -2.4115  0.8922
 4825SOL     OW26107   1.171   4.299   6.020  0.2840  1.0724  0.6358
 4825SOL    HW126108   1.200   4.332   5.935  2.4436 -3.4460 -0.3976
 4825SOL    HW226109   1.076   4.299   6.018  0.2871 -2.1623  0.5913
 4826SOL     OW26110   0.923   4.613  14.498  0.0104  0.5137  0.6347
 4826SOL    HW126111   0.996   4.627  14.438  1.5215 -1.9844  1.9120
 4826SOL    HW226112   0.857   4.567  14.447 -0.5157 -1.9101  3.5613
 4827SOL     OW26113   0.399   1.592  13.086  0.4875 -0.1268  1.0095
 4827SOL    HW126114   0.493   1.577  13.075  0.4433 -0.2132  0.7344
 4827SOL    HW226115   0.368   1.551  13.005 -2.0359 -0.2621  2.0495
 4828SOL     OW26116   1.032   2.060  15.741 -0.4244 -0.0118 -0.2722
 4828SOL    HW126117   1.071   2.146  15.726  0.9161 -0.7128 -0.8214
 4828SOL    HW226118   0.948   2.084  15.701  0.1939  2.0695 -0.3190
 4829SOL     OW26119   0.782   3.160   8.894 -0.2961  0.5543 -0.0974
 4829SOL    HW126120   0.740   3.077   8.869  0.0822  0.6096 -0.9033
 4829SOL    HW226121   0.850   3.132   8.955 -0.0914 -2.0559 -1.5406
 4830SOL     OW26122   2.881   4.437   0.495  0.1996  0.1945 -1.0107
 4830SOL    HW126123   2.835   4.521   0.497  1.0474  0.6123  1.0974
 4830SOL    HW226124   2.876   4.419   0.401 -0.4376 -0.2975 -0.8868
 4831SOL     OW26125   0.503   4.476   1.552 -0.3313  0.3520  0.4104
 4831SOL    HW126126   0.492   4.559   1.506 -1.5303  0.2445  0.4972
 4831SOL    HW226127   0.484   4.502   1.643 -2.5021 -0.8926  0.3203
 4832SOL     OW26128   1.594   3.352  15.851 -0.2949 -0.0141 -0.2935
 4832SOL    HW126129   1.675   3.320  15.892  1.0825  2.3262 -1.2087
 4832SOL    HW226130   1.610   3.319  15.763  2.7774 -0.8377  0.5743
 4833SOL     OW26131   3.700   4.707   9.228  0.3836 -0.1440 -1.0513
 4833SOL    HW126132   3.753   0.046   9.198  0.3309  0.8340  1.2774
 4833SOL    HW226133   3.737   4.694   9.315 -4.4002  1.8348  1.2727
 4834SOL     OW26134   3.533   2.405   7.678  0.0034  0.3475  0.1806
 4834SOL    HW126135   3.454   2.457   7.665  0.6062  1.5335  1.2762
 4834SOL    HW226136   3.601   2.468   7.654  0.3516 -0.9725 -2.3060
 4835SOL     OW26137   4.357   2.992  17.034 -0.0744  0.0514 -0.3367
 4835SOL    HW126138   4.326   3.082  17.031 -1.9145 -0.5513  0.4429
 4835SOL    HW226139   4.337   2.964  16.944  0.4171 -0.6553 -0.2257
 4836SOL     OW26140   3.076   2.139   5.131  0.0388  0.2750  1.0106
 4836SOL    HW126141   3.159   2.093   5.121 -0.5657 -1.0278  1.9304
 4836SOL    HW226142   3.057   2.113   5.221 -0.6076  1.9806  1.3662
 4837SOL     OW26143   4.350   0.951   3.526 -0.2389 -0.2482 -0.0384
 4837SOL    HW126144   4.315   0.879   3.578 -0.9779  0.5464  0.5520
 4837SOL    HW226145   4.361   1.017   3.595 -1.3840  1.5298 -1.5453
 4838SOL     OW26146   4.462   4.071  15.262 -0.1155 -0.3426  0.2256
 4838SOL    HW126147   4.480   3.985  15.224 -0.3054 -0.5816  0.6892
 4838SOL    HW226148   4.548   4.113  15.265 -1.3007  1.9974  1.5206
 4839SOL     OW26149   1.733   0.336   0.863 -0.4426 -0.1634 -0.5382
 4839SOL    HW126150   1.769   0.343   0.774  0.6719  1.6284  0.0384
 4839SOL    HW226151   1.646   0.372   0.845 -1.2024 -1.3558  0.8598
 4840SOL     OW26152   3.030   2.680   4.549 -0.2975  0.3419 -0.0230
 4840SOL    HW126153   2.972   2.614   4.586 -2.0323  1.9202  0.1145
 4840SOL    HW226154   3.028   2.651   4.457 -0.6096  0.3472 -0.0160
 4841SOL     OW26155   1.122   1.718   4.257  0.2933  0.5019 -0.5121
 4841SOL    HW126156   1.141   1.805   4.221 -0.2330  0.3898 -1.0370
 4841SOL    HW226157   1.039   1.693   4.219  0.2822 -0.7006  0.3173
 4842SOL     OW26158   3.156   2.851   7.135  0.1371  0.1472 -0.1548
 4842SOL    HW126159   3.208   2.829   7.058  1.1532  1.9931 -0.0185
 4842SOL    HW226160   3.207   2.919   7.179  1.5659 -1.2543  0.3793
 4843SOL     OW26161   4.315   0.405   2.970  0.3962 -0.3003 -0.4280
 4843SOL    HW126162   4.286   0.323   2.932 -1.4438 -0.7208  1.9003
 4843SOL    HW226163   4.342   0.377   3.057  0.1945 -0.2954 -0.3640
 4844SOL     OW26164   2.274   3.237   9.767 -0.5005 -0.3310 -0.0107
 4844SOL    HW126165   2.231   3.295   9.829  0.9795  0.1777  0.5396
 4844SOL    HW226166   2.358   3.215   9.808 -1.6987 -3.2207  0.9133
 4845SOL     OW26167   1.623   4.361  16.887 -0.4580 -0.0563 -0.1399
 4845SOL    HW126168   1.549   4.379  16.946 -0.1920 -1.3792  0.5858
 4845SOL    HW226169   1.684   4.411  16.941 -2.0073  0.0952  1.4704
 4846SOL     OW26170   0.754   0.414   1.194 -0.8601 -0.3054 -0.2738
 4846SOL    HW126171   0.802   0.497   1.197 -0.1805 -0.7243  0.5011
 4846SOL    HW226172   0.734   0.390   1.284 -0.8052  0.0762 -0.1605
 4847SOL     OW26173   1.147   1.956   1.961  0.0596  0.3114 -0.3512
 4847SOL    HW126174   1.113   2.036   1.920  1.0168  0.4580 -0.8479
 4847SOL    HW226175   1.240   1.975   1.950 -0.2009  1.2609 -0.9054
 4848SOL     OW26176   0.786   2.763  11.367 -0.5050 -0.1447 -0.0827
 4848SOL    HW126177   0.881   2.751  11.369 -0.7093 -1.6678  1.0884
 4848SOL    HW226178   0.763   2.704  11.439  1.5626 -0.6998  0.1301
 4849SOL     OW26179   3.786   0.273   4.199  0.3667  0.4042  0.6112
 4849SOL    HW126180   3.875   0.240   4.185 -0.0812  0.5566 -2.5818
 4849SOL    HW226181   3.788   0.264   4.294  0.4866  0.4843  0.6161
 4850SOL     OW26182   4.408   2.183   0.929  0.5121  0.1944  0.3266
 4850SOL    HW126183   4.424   2.273   0.959 -2.6440  0.9630 -0.3315
 4850SOL    HW226184   4.490   2.150   0.891 -1.6797 -4.9007  0.0441
 4851SOL     OW26185   2.665   4.162  16.622  0.0915 -0.4869  0.3780
 4851SOL    HW126186   2.695   4.187  16.710 -1.9433 -0.1882  0.9728
 4851SOL    HW226187   2.571   4.179  16.623  0.1839  0.2240 -3.1268
 4852SOL     OW26188   0.825   2.199   5.430 -0.1537 -0.1715 -0.2910
 4852SOL    HW126189   0.740   2.199   5.473 -0.1859 -0.0114 -0.3517
 4852SOL    HW226190   0.876   2.209   5.510  0.9641  0.9408 -1.1267
 4853SOL     OW26191   0.026   4.164  13.279 -0.1880 -0.2523 -0.7728
 4853SOL    HW126192   4.730   4.240  13.230  5.3863  2.5666  0.0622
 4853SOL    HW226193   0.112   4.199  13.303  1.7575 -4.3395 -1.8915
 4854SOL     OW26194   0.363   4.337   4.247  0.6934 -0.1911  0.0798
 4854SOL    HW126195   0.421   4.261   4.254  0.5850 -0.1932  0.9402
 4854SOL    HW226196   0.400   4.396   4.312 -0.2024 -1.9150  2.1472
 4855SOL     OW26197   0.560   1.957   5.314  0.4315 -0.5211  0.0951
 4855SOL    HW126198   0.561   2.025   5.382 -0.3866  0.0032 -0.4251
 4855SOL    HW226199   0.468   1.958   5.290  0.3906 -0.2036  0.2574
 4856SOL     OW26200   1.009   1.525   4.048 -0.8289 -0.4721  0.0165
 4856SOL    HW126201   0.940   1.590   4.043 -1.0876 -0.6333  1.6197
 4856SOL    HW226202   0.971   1.452   3.999  0.8206 -1.2079 -0.1797
 4857SOL     OW26203   0.508   0.919  10.443 -0.1878  0.4090 -0.0367
 4857SOL    HW126204   0.577   0.863  10.407  1.9583  1.6805  2.1659
 4857SOL    HW226205   0.523   0.905  10.536 -0.0939  2.1943  0.2195
 4858SOL     OW26206   3.851   3.496   5.402 -0.0633 -0.4275 -0.4651
 4858SOL    HW126207   3.870   3.566   5.339 -0.1192 -0.5618 -0.6295
 4858SOL    HW226208   3.799   3.433   5.353 -0.9587 -0.7428  0.8691
 4859SOL     OW26209   1.462   2.286  10.929 -0.2668  0.0458 -0.0573
 4859SOL    HW126210   1.441   2.339  11.006  0.1927  0.5921 -0.3044
 4859SOL    HW226211   1.391   2.226  10.911 -0.0902  0.5463 -2.4179
 4860SOL     OW26212   3.964   2.948   5.476  0.5768  0.3700 -0.1652
 4860SOL    HW126213   3.995   2.875   5.529 -2.6474  1.0538  2.6750
 4860SOL    HW226214   3.925   3.003   5.544 -2.0484 -0.6150 -0.8549
 4861SOL     OW26215   4.436   3.966   7.952  0.2277  0.3516 -0.0163
 4861SOL    HW126216   4.397   4.052   7.966 -0.0165  0.2664 -0.1660
 4861SOL    HW226217   4.396   3.911   8.019  0.4487  0.2045 -0.0065
 4862SOL     OW26218   4.523   0.191  10.018  0.0594 -0.4679 -0.2700
 4862SOL    HW126219   4.577   0.225   9.947  1.3158  1.3729  1.5547
 4862SOL    HW226220   4.492   0.269  10.064 -1.1213 -1.7510  1.0991
 4863SOL     OW26221   3.233   1.004  11.923 -0.5778 -0.2987 -0.1440
 4863SOL    HW126222   3.266   0.966  11.842 -1.1803 -1.6045  0.2219
 4863SOL    HW226223   3.298   1.073  11.939  0.3365 -1.7572  2.3831
 4864SOL     OW26224   0.694   2.254   8.576  0.2672 -0.3317 -1.0434
 4864SOL    HW126225   0.762   2.187   8.562  0.9752  0.3392 -0.8269
 4864SOL    HW226226   0.615   2.201   8.566 -1.1608  1.0785  2.9421
 4865SOL     OW26227   2.363   3.636   7.403 -0.1966 -0.1354  0.0796
 4865SOL    HW126228   2.313   3.701   7.453  1.5547  0.8200  0.5678
 4865SOL    HW226229   2.302   3.562   7.393 -1.2768  0.5784  1.4520
 4866SOL     OW26230   4.354   4.263  13.006  0.6649 -0.5512  0.1315
 4866SOL    HW126231   4.303   4.185  12.988  0.5305 -0.8218  1.7157
 4866SOL    HW226232   4.305   4.327  13.057 -0.0926 -0.4063 -0.7737
 4867SOL     OW26233   2.765   4.324   2.121 -0.0384  0.5115 -0.4902
 4867SOL    HW126234   2.799   4.412   2.105 -2.3866  1.6419  0.7189
 4867SOL    HW226235   2.839   4.276   2.085  0.1838  1.4131 -1.2293
 4868SOL     OW26236   4.355   1.681   8.361  0.3104  0.3169 -0.2544
 4868SOL    HW126237   4.441   1.655   8.394  0.6414 -0.1584 -1.5177
 4868SOL    HW226238   4.359   1.776   8.376 -0.5650  0.2722  0.2911
 4869SOL     OW26239   3.187   3.803  16.049 -0.0351  0.1093 -0.0147
 4869SOL    HW126240   3.225   3.805  16.137  2.6277  1.2803 -1.1942
 4869SOL    HW226241   3.104   3.760  16.070 -0.3496  0.7368  0.0347
 4870SOL     OW26242   4.583   4.713   6.881 -0.2196 -0.2141  0.7868
 4870SOL    HW126243   4.642   4.638   6.883 -1.3725 -1.1980 -1.8624
 4870SOL    HW226244   4.511   4.679   6.933 -0.6499 -0.7571 -0.1681
 4871SOL     OW26245   4.557   2.721   8.076 -0.1043 -0.4843  0.2290
 4871SOL    HW126246   4.565   2.645   8.135  2.1847  0.1071  0.6689
 4871SOL    HW226247   4.490   2.691   8.015 -2.3588  1.3942  1.7748
 4872SOL     OW26248   2.155   2.860   9.031 -0.0285 -0.0109 -0.6654
 4872SOL    HW126249   2.167   2.922   8.959  1.8444 -1.8266 -1.9039
 4872SOL    HW226250   2.195   2.911   9.102 -0.8075 -0.2477 -0.0644
 4873SOL     OW26251   0.724   1.957   8.060 -0.1356  0.3358 -0.8531
 4873SOL    HW126252   0.636   1.970   8.097  1.0714  0.6215  1.9565
 4873SOL    HW226253   0.712   1.898   7.986  0.1741 -3.0400  1.7770
 4874SOL     OW26254   1.580   1.062   8.851 -0.0306 -0.8403 -0.1562
 4874SOL    HW126255   1.589   1.007   8.773  0.6251 -2.0111  0.7422
 4874SOL    HW226256   1.653   1.039   8.908  1.6123  0.1766 -1.8473
 4875SOL     OW26257   3.437   0.154   9.193  0.5803  0.1429  0.1665
 4875SOL    HW126258   3.530   0.132   9.192  0.4041 -0.5794 -0.0078
 4875SOL    HW226259   3.443   0.213   9.268 -0.2012  1.3541 -0.7048
 4876SOL     OW26260   4.107   2.259   6.864 -0.3591 -0.1785  0.1450
 4876SOL    HW126261   4.017   2.286   6.881 -1.0030 -2.8509  0.8756
 4876SOL    HW226262   4.096   2.243   6.771 -3.7677  2.5733  0.0592
 4877SOL     OW26263   2.168   2.827   0.292  0.3249  0.4183 -0.2261
 4877SOL    HW126264   2.125   2.773   0.358  0.0366 -0.5670 -1.2094
 4877SOL    HW226265   2.179   2.906   0.345 -0.0114  0.9057 -0.8882
 4878SOL     OW26266   1.942   3.320   5.923 -0.2528 -0.2426  0.0115
 4878SOL    HW126267   1.906   3.265   5.993  3.5537 -2.5131  0.1435
 4878SOL    HW226268   1.982   3.396   5.965  1.0451 -0.6255 -0.5311
 4879SOL     OW26269   2.653   3.129   5.424 -0.6154 -0.1570 -0.0388
 4879SOL    HW126270   2.596   3.195   5.386 -1.0459 -0.3092  0.3453
 4879SOL    HW226271   2.594   3.057   5.448 -2.4755  1.5766  0.5175
 4880SOL     OW26272   2.535   3.955  16.833  0.3067 -0.7608  0.2833
 4880SOL    HW126273   2.564   3.912  16.752 -0.5769  1.1933 -1.0759
 4880SOL    HW226274   2.614   3.993  16.870  1.2417  1.0480 -3.6004
 4881SOL     OW26275   2.437   0.596  10.571  0.7279 -0.1469  0.0106
 4881SOL    HW126276   2.413   0.669  10.628  1.7902 -2.0669  2.8964
 4881SOL    HW226277   2.475   0.543  10.641 -2.1505 -1.6547  0.4048
 4882SOL     OW26278   2.982   1.498  17.352  0.2736  1.0449  0.4548
 4882SOL    HW126279   3.000   1.516  17.444 -0.5620 -2.1717  1.2629
 4882SOL    HW226280   3.055   1.550  17.318  1.7371 -1.2585  0.0702
 4883SOL     OW26281   3.055   1.639   4.415 -0.4219  0.4096  0.0247
 4883SOL    HW126282   3.079   1.556   4.375 -1.6061  0.5427 -0.9703
 4883SOL    HW226283   2.969   1.657   4.376  0.1563  1.9065 -0.5762
 4884SOL     OW26284   2.767   0.324   9.999 -0.4088 -0.7045  0.3915
 4884SOL    HW126285   2.703   0.288  10.062  1.6336 -2.9490  1.1915
 4884SOL    HW226286   2.805   0.245   9.960 -0.9696  0.3653 -2.2649
 4885SOL     OW26287   0.575   0.364   5.903  0.1583 -0.4524 -0.2200
 4885SOL    HW126288   0.619   0.281   5.883  0.9341 -0.5963  2.1673
 4885SOL    HW226289   0.529   0.379   5.821 -0.2800 -2.2430 -0.3084
 4886SOL     OW26290   4.420   1.916   5.098  0.2804 -0.3700 -0.2486
 4886SOL    HW126291   4.450   2.003   5.071  0.8558 -1.0334 -1.7576
 4886SOL    HW226292   4.497   1.860   5.099  0.6595  0.1284 -1.6295
 4887SOL     OW26293   0.099   1.313   0.259  0.4273  0.3478  0.8048
 4887SOL    HW126294   0.067   1.223   0.262 -3.0742  1.4993 -0.8184
 4887SOL    HW226295   0.189   1.290   0.278  0.2531 -1.2267 -0.2713
 4888SOL     OW26296   0.554   3.209   9.531 -0.0397  0.1735  0.1274
 4888SOL    HW126297   0.465   3.197   9.564  0.0619 -1.3274 -0.1250
 4888SOL    HW226298   0.540   3.168   9.445 -1.5254  1.0235 -0.0348
 4889SOL     OW26299   4.515   2.866   2.359 -0.2954  0.2138 -0.5867
 4889SOL    HW126300   4.586   2.892   2.300  0.8415 -0.8747  0.3037
 4889SOL    HW226301   4.508   2.950   2.404  0.6596  0.0103 -0.0763
 4890SOL     OW26302   3.014   1.154   6.023 -0.0457  0.4683 -0.5541
 4890SOL    HW126303   2.922   1.129   6.013  0.2555 -0.5973 -0.7084
 4890SOL    HW226304   3.035   1.091   6.092  1.9852 -0.3711 -1.9389
 4891SOL     OW26305   2.921   3.021   6.823 -0.2629  0.0630 -0.0256
 4891SOL    HW126306   2.840   3.035   6.873  2.0581  0.9608  3.4445
 4891SOL    HW226307   2.869   3.004   6.744  0.5547  1.3970 -0.8511
 4892SOL     OW26308   2.257   2.642   9.643  0.7260  0.1269  0.3706
 4892SOL    HW126309   2.229   2.652   9.553  0.2230  1.6756  0.6993
 4892SOL    HW226310   2.306   2.723   9.656 -1.1647  1.3087  0.0835
 4893SOL     OW26311   3.896   1.903   7.652  0.8139  0.5804 -0.7712
 4893SOL    HW126312   3.865   1.994   7.652 -1.1684 -0.1081 -0.1697
 4893SOL    HW226313   3.961   1.900   7.582  1.4438  1.2802 -0.2124
 4894SOL     OW26314   2.466   3.306   9.460  0.3517  0.0382  0.0045
 4894SOL    HW126315   2.558   3.301   9.488  0.8106 -1.0505 -1.7220
 4894SOL    HW226316   2.435   3.383   9.507  0.0907  0.3405 -0.6660
 4895SOL     OW26317   1.355   3.386   4.417 -0.2409 -0.0055 -0.2474
 4895SOL    HW126318   1.361   3.317   4.483  1.0202 -0.9796 -1.3642
 4895SOL    HW226319   1.392   3.460   4.466 -0.0299 -1.3114  1.5573
 4896SOL     OW26320   2.470   1.715   3.012  0.0904 -0.4915 -0.0941
 4896SOL    HW126321   2.471   1.771   3.090 -0.9337  0.8730 -1.0681
 4896SOL    HW226322   2.563   1.690   3.012  0.0791 -0.5370  0.2589
 4897SOL     OW26323   2.576   3.367  15.460  0.2599  0.0403  0.5376
 4897SOL    HW126324   2.560   3.457  15.487 -0.5704 -0.1426  0.6325
 4897SOL    HW226325   2.606   3.374  15.369 -2.7963 -0.2549 -0.4788
 4898SOL     OW26326   1.807   1.105   1.306  0.0366 -0.5817  0.6381
 4898SOL    HW126327   1.901   1.116   1.300 -0.4324  2.1481 -1.7153
 4898SOL    HW226328   1.768   1.189   1.283  2.3963  0.2066 -0.3844
 4899SOL     OW26329   1.738   2.750   6.087  0.5042  0.8162 -0.1994
 4899SOL    HW126330   1.799   2.796   6.029  0.5320  1.7084  0.5358
 4899SOL    HW226331   1.658   2.769   6.038 -0.4559 -1.4842  0.4894
 4900SOL     OW26332   2.325   4.496  11.950  0.0673  0.4028  0.4850
 4900SOL    HW126333   2.298   4.535  11.868  1.1138 -0.9981 -0.5394
 4900SOL    HW226334   2.257   4.428  11.947  0.2896  0.1758  0.5369
 4901SOL     OW26335   2.281   1.342   8.931 -0.6084  0.4244 -0.2809
 4901SOL    HW126336   2.270   1.254   8.896  1.9156 -0.3267  0.8784
 4901SOL    HW226337   2.195   1.347   8.974  1.4644  0.5184  3.7670
 4902SOL     OW26338   3.025   0.662  15.692  0.7809  0.4000  0.0936
 4902SOL    HW126339   3.083   0.632  15.761  2.2331 -0.3902 -1.4610
 4902SOL    HW226340   2.940   0.639  15.730  0.7106  0.5907  0.0518
 4903SOL     OW26341   4.363   1.673   2.217 -0.2613  0.3964  0.1836
 4903SOL    HW126342   4.290   1.734   2.227 -0.7512  0.1036 -1.6055
 4903SOL    HW226343   4.392   1.682   2.126 -1.2626  0.0551 -0.1631
 4904SOL     OW26344   0.157   2.156   4.269 -0.3181  0.1815 -0.2995
 4904SOL    HW126345   0.246   2.143   4.301 -0.7479  0.5397  1.0411
 4904SOL    HW226346   0.150   2.251   4.280 -2.0681 -0.0064  0.2061
 4905SOL     OW26347   3.781   2.936   9.640 -0.0266 -0.3093  0.2770
 4905SOL    HW126348   3.726   2.909   9.567 -0.8892  4.1706 -0.6986
 4905SOL    HW226349   3.794   2.855   9.689 -0.8257  0.1782  1.2884
 4906SOL     OW26350   0.322   2.228   5.109  0.7300 -0.5907  0.5477
 4906SOL    HW126351   0.247   2.247   5.053  0.1566  0.6141  1.7570
 4906SOL    HW226352   0.291   2.150   5.154  1.6113 -1.5811 -0.5528
 4907SOL     OW26353   3.253   4.174   2.427  0.0233 -0.4575 -0.3280
 4907SOL    HW126354   3.219   4.086   2.415  1.7870 -0.9220 -1.9571
 4907SOL    HW226355   3.230   4.218   2.345 -0.8121 -1.2102 -0.4942
 4908SOL     OW26356   1.731   4.313   3.052 -0.4554  0.2637  0.3787
 4908SOL    HW126357   1.801   4.328   2.988 -0.1628 -1.9431  0.1834
 4908SOL    HW226358   1.738   4.396   3.098 -0.4489  1.0267 -1.0187
 4909SOL     OW26359   3.600   3.934   5.683  0.4802 -0.5167 -0.5252
 4909SOL    HW126360   3.595   3.959   5.590 -1.2761  1.4577  0.1183
 4909SOL    HW226361   3.593   3.839   5.680  1.7871 -0.6568  0.7900
 4910SOL     OW26362   2.769   2.098  12.744 -0.2473  0.6515 -0.2140
 4910SOL    HW126363   2.825   2.164  12.703  0.5064 -0.5603 -1.1435
 4910SOL    HW226364   2.796   2.026  12.687  1.4825  1.9124 -1.0178
 4911SOL     OW26365   2.571   0.193  16.599 -0.1410  0.0380  0.3207
 4911SOL    HW126366   2.666   0.205  16.599 -0.1202 -0.0785 -0.4590
 4911SOL    HW226367   2.566   0.129  16.670  1.6685 -1.3656 -0.7752
 4912SOL     OW26368   3.739   1.933   3.985 -0.1749  0.2992  0.1271
 4912SOL    HW126369   3.802   2.005   3.985 -3.0957  2.8537 -1.7645
 4912SOL    HW226370   3.665   1.982   3.948 -1.8284 -0.5652  2.2751
 4913SOL     OW26371   0.022   0.145   7.854  0.7458 -0.8039 -0.5998
 4913SOL    HW126372   0.081   0.152   7.778  1.2080  0.3844 -0.1293
 4913SOL    HW226373   4.681   0.174   7.803  0.8444 -0.7295 -0.7028
 4914SOL     OW26374   0.664   3.062   6.582 -0.0743  0.5124 -0.2483
 4914SOL    HW126375   0.624   3.128   6.637  2.1855  1.7064 -0.0345
 4914SOL    HW226376   0.722   3.019   6.646  0.0100  0.7207 -0.1864
 4915SOL     OW26377   3.875   3.281   7.492 -0.0130  0.7369  0.0120
 4915SOL    HW126378   3.824   3.307   7.568  1.2410  2.2529  0.3581
 4915SOL    HW226379   3.923   3.364   7.483 -0.5574  1.0447 -0.0410
 4916SOL     OW26380   0.594   2.505   8.867 -0.6388 -0.4850  0.3917
 4916SOL    HW126381   0.556   2.591   8.882  0.4521 -0.2501  1.8364
 4916SOL    HW226382   0.684   2.515   8.897 -1.0555  2.7462  0.4782
 4917SOL     OW26383   3.036   2.962  10.888  0.6445  0.1695 -0.1837
 4917SOL    HW126384   3.000   2.984  10.974  1.7405  0.8590  0.0947
 4917SOL    HW226385   3.129   2.971  10.905  1.3303 -0.5584 -3.5642
 4918SOL     OW26386   2.980   1.788  17.356 -0.0217 -0.4182 -0.6796
 4918SOL    HW126387   2.964   1.773  17.449 -0.5461 -0.6878 -0.8109
 4918SOL    HW226388   3.040   1.862  17.353  1.9038 -2.0282 -1.6018
 4919SOL     OW26389   2.509   0.279   1.782 -0.0565  0.1981  0.1307
 4919SOL    HW126390   2.428   0.237   1.813 -0.2723 -1.1553 -2.2481
 4919SOL    HW226391   2.473   0.367   1.770 -2.0538 -0.6624 -0.1372
 4920SOL     OW26392   1.385   0.134  11.082 -0.8007 -0.2162 -0.0382
 4920SOL    HW126393   1.364   0.042  11.102 -0.7105  0.1559  1.7454
 4920SOL    HW226394   1.308   0.158  11.030 -1.2064 -4.3175 -1.3623
 4921SOL     OW26395   0.113   3.977   9.457  0.0274  0.2004  0.0378
 4921SOL    HW126396   0.168   3.904   9.486 -0.3260 -0.1089 -0.0811
 4921SOL    HW226397   0.129   3.967   9.363 -1.3871  1.5399 -0.3402
 4922SOL     OW26398   1.042   4.502   9.234  0.1595 -0.3702  0.1999
 4922SOL    HW126399   1.116   4.502   9.295  1.4358  0.2152 -1.3284
 4922SOL    HW226400   1.098   4.485   9.158 -0.3993 -2.8189  0.3434
 4923SOL     OW26401   1.341   1.491   8.626 -0.2791  0.4500  0.4214
 4923SOL    HW126402   1.310   1.434   8.556 -0.0483 -1.1313  1.6106
 4923SOL    HW226403   1.384   1.435   8.692  1.5044  0.5677 -0.6426
 4924SOL     OW26404   1.708   1.230   8.515  0.2493 -0.6539  0.4208
 4924SOL    HW126405   1.781   1.255   8.571  0.8810  1.2619 -1.2641
 4924SOL    HW226406   1.684   1.319   8.486  1.5032 -1.0518 -1.8926
 4925SOL     OW26407   3.826   2.091   8.430  0.1979 -0.0111 -1.0287
 4925SOL    HW126408   3.858   2.004   8.408 -0.5486 -0.1253 -1.6491
 4925SOL    HW226409   3.878   2.142   8.368  1.8331 -0.5930 -0.1252
 4926SOL     OW26410   0.800   4.192   2.487  0.4195  0.6792 -0.3539
 4926SOL    HW126411   0.710   4.222   2.497  0.3231  0.2046  0.2096
 4926SOL    HW226412   0.788   4.137   2.410 -0.9389 -0.0756  0.4092
 4927SOL     OW26413   0.506   4.473  10.891  0.8782 -0.1516 -0.5320
 4927SOL    HW126414   0.600   4.461  10.884  1.1610  1.5165  0.3811
 4927SOL    HW226415   0.493   4.562  10.860 -2.1288  0.0870  1.3209
 4928SOL     OW26416   3.348   0.712   6.833 -0.1843 -0.2040 -0.3148
 4928SOL    HW126417   3.425   0.759   6.866 -0.2910 -0.4760  0.3188
 4928SOL    HW226418   3.357   0.625   6.870 -0.9193 -0.4200 -0.6342
 4929SOL     OW26419   4.612   2.245   2.284 -0.2287 -0.0952 -0.2904
 4929SOL    HW126420   4.636   2.337   2.294  2.2096 -0.5277 -2.2927
 4929SOL    HW226421   4.680   2.206   2.229 -0.6974 -2.5077  0.8661
 4930SOL     OW26422   0.729   3.395   4.551  0.1764  0.0732  0.0416
 4930SOL    HW126423   0.752   3.468   4.609  0.5941 -0.2798  0.3214
 4930SOL    HW226424   0.746   3.323   4.612 -0.4926  1.1612  1.5326
 4931SOL     OW26425   3.464   3.352   9.542  0.4392  0.0071  0.3974
 4931SOL    HW126426   3.470   3.353   9.446  0.6792 -1.8613  0.3813
 4931SOL    HW226427   3.384   3.405   9.549 -0.8992 -1.5467 -2.9840
 4932SOL     OW26428   2.210   4.552   8.008  0.0596 -0.3092  0.0555
 4932SOL    HW126429   2.259   4.577   8.086 -1.0621 -2.2737  1.4100
 4932SOL    HW226430   2.131   4.532   8.059 -0.1545  2.4907  0.7757
 4933SOL     OW26431   1.004   2.186   5.618  0.2165 -0.5184 -0.0747
 4933SOL    HW126432   1.007   2.091   5.606  2.6098 -0.2493 -1.5261
 4933SOL    HW226433   1.042   2.189   5.706  1.0027 -0.4763 -0.4127
 4934SOL     OW26434   1.032   2.808   4.692 -0.1091 -0.2886 -0.3049
 4934SOL    HW126435   1.006   2.731   4.742 -0.7720 -0.8018 -1.4293
 4934SOL    HW226436   1.122   2.784   4.671  0.1538  3.1260 -3.0939
 4935SOL     OW26437   1.836   2.404  11.616 -0.1196  0.2014 -0.4665
 4935SOL    HW126438   1.924   2.370  11.596 -0.1043 -0.1242  0.1282
 4935SOL    HW226439   1.782   2.330  11.643  0.1170 -0.2129 -1.1292
 4936SOL     OW26440   4.239   4.433  16.102  0.3290  0.0111 -0.6563
 4936SOL    HW126441   4.237   4.468  16.013  4.3253  0.3491 -0.5999
 4936SOL    HW226442   4.205   4.508  16.152 -0.4000  0.5844 -2.0309
 4937SOL     OW26443   1.786   4.599   3.052  0.6565  0.6691  0.2117
 4937SOL    HW126444   1.725   4.671   3.039  0.2460  0.2639 -0.0710
 4937SOL    HW226445   1.859   4.640   3.100  1.1109 -0.4957  0.5087
 4938SOL     OW26446   2.096   3.622   0.036 -0.0603 -0.3568 -0.0204
 4938SOL    HW126447   2.022   3.577   0.076 -0.3186  0.3215  0.2826
 4938SOL    HW226448   2.104   3.570  17.693 -2.5843  0.3477 -0.7534
 4939SOL     OW26449   0.381   2.553   5.844 -0.1068 -0.3004 -0.3805
 4939SOL    HW126450   0.440   2.508   5.784  1.2348 -0.1397  0.8316
 4939SOL    HW226451   0.295   2.550   5.800  0.2126 -0.6324 -0.9854
 4940SOL     OW26452   0.267   1.194   9.437 -0.2844  0.4443 -0.1805
 4940SOL    HW126453   0.303   1.251   9.369 -1.1770 -0.2423 -1.2332
 4940SOL    HW226454   0.178   1.212   9.406 -0.9725 -1.5044  0.6476
 4941SOL     OW26455   4.531   1.561   6.915 -0.5762 -0.1394 -0.0501
 4941SOL    HW126456   4.531   1.533   6.824 -1.9806  1.0057 -0.3957
 4941SOL    HW226457   4.622   1.582   6.934 -0.3707 -0.7155 -0.3941
 4942SOL     OW26458   1.979   4.636  17.715 -0.2329  0.5466 -0.3588
 4942SOL    HW126459   1.961   4.582  17.639  3.4803  1.8982 -2.1710
 4942SOL    HW226460   1.967   4.726  17.683 -2.3462 -1.1515 -4.3213
 4943SOL     OW26461   1.156   0.577   8.611  0.2060 -0.0312  0.1221
 4943SOL    HW126462   1.130   0.552   8.522  0.3776  0.6973 -0.1372
 4943SOL    HW226463   1.250   0.558   8.613  0.2017  0.2767  2.3052
 4944SOL     OW26464   3.386   4.323  15.468 -0.6542 -0.0544  1.1811
 4944SOL    HW126465   3.338   4.251  15.425 -0.7830  1.3518 -1.0412
 4944SOL    HW226466   3.313   4.371  15.507 -2.1331 -1.4959  0.2073
 4945SOL     OW26467   2.781   1.638   6.052 -0.4812  0.0213 -0.7320
 4945SOL    HW126468   2.698   1.683   6.035 -0.2283  1.0871  0.8972
 4945SOL    HW226469   2.844   1.695   6.009  1.3443 -0.4373  1.3318
 4946SOL     OW26470   2.123   4.141   9.568 -0.2282 -0.2337  0.6509
 4946SOL    HW126471   2.157   4.077   9.631 -2.7884  0.1400  2.3907
 4946SOL    HW226472   2.084   4.200   9.632  0.3699 -0.4267  1.1944
 4947SOL     OW26473   0.615   3.992   9.664 -0.5341 -0.0961 -0.0640
 4947SOL    HW126474   0.627   4.084   9.643 -1.8022  0.1170  0.1393
 4947SOL    HW226475   0.586   3.962   9.578 -0.5745 -0.1770 -0.0227
 4948SOL     OW26476   0.376   3.420   1.103 -0.0510 -0.7491  1.2069
 4948SOL    HW126477   0.405   3.345   1.155 -2.9624 -0.9884  2.4757
 4948SOL    HW226478   0.344   3.477   1.172 -0.1271 -0.7991  1.2127
 4949SOL     OW26479   2.778   4.407   4.129  0.6112  0.2529  0.0519
 4949SOL    HW126480   2.777   4.467   4.204 -1.1042 -1.8344  1.6775
 4949SOL    HW226481   2.687   4.398   4.104  1.2517 -0.0196 -2.1780
 4950SOL     OW26482   0.019   4.341  14.277  0.1884 -0.5489  0.1167
 4950SOL    HW126483   4.677   4.342  14.220 -0.6365 -2.1015  1.2077
 4950SOL    HW226484   4.724   4.283  14.347 -0.0266 -0.4802  0.0842
 4951SOL     OW26485   0.660   1.056   6.680  0.1550  0.1964  0.3322
 4951SOL    HW126486   0.599   1.046   6.753 -1.9217  0.9619 -1.3193
 4951SOL    HW226487   0.637   1.145   6.653  1.1209  0.3347 -0.0510
 4952SOL     OW26488   3.542   0.279   3.771  0.0256 -0.4368 -0.1201
 4952SOL    HW126489   3.517   0.368   3.746 -1.5010 -0.8309 -0.0304
 4952SOL    HW226490   3.553   0.278   3.867 -0.3076  0.1505 -0.0717
 4953SOL     OW26491   3.105   2.988   3.867 -0.6532 -1.0360 -0.3589
 4953SOL    HW126492   3.121   2.926   3.796  0.3854 -0.3310 -0.7584
 4953SOL    HW226493   3.023   2.965   3.911  0.2701 -3.0171  0.3145
 4954SOL     OW26494   0.317   1.116   2.017  0.1288  0.6074 -0.3639
 4954SOL    HW126495   0.390   1.056   2.010 -1.6962 -1.7031  0.5038
 4954SOL    HW226496   0.257   1.079   1.953 -0.0747  0.3129 -0.0006
 4955SOL     OW26497   2.971   2.338   8.929  0.3052 -0.2201  0.1757
 4955SOL    HW126498   2.950   2.285   8.852 -0.9793  2.1739 -1.1303
 4955SOL    HW226499   2.980   2.272   8.998  2.6578 -1.0006 -0.9000
 4956SOL     OW26500   2.109   1.799   7.239 -0.9501 -0.2733 -0.0578
 4956SOL    HW126501   2.200   1.828   7.239 -1.6265  1.8717  1.3918
 4956SOL    HW226502   2.077   1.851   7.314 -1.3143 -0.1071 -0.3262
 4957SOL     OW26503   2.917   2.460   0.471 -0.1886  0.0275  0.2742
 4957SOL    HW126504   2.981   2.510   0.523 -0.2327 -1.3937  1.6754
 4957SOL    HW226505   2.893   2.400   0.541 -0.2346 -0.2222  0.0449
 4958SOL     OW26506   3.241   3.533  15.832  0.7422 -0.0772  0.1560
 4958SOL    HW126507   3.201   3.449  15.809 -1.1702  1.3177 -1.5876
 4958SOL    HW226508   3.234   3.567  15.743 -0.8592 -1.0164 -0.0624
 4959SOL     OW26509   4.426   0.058   0.005 -0.3443  0.5366  0.4377
 4959SOL    HW126510   4.518   0.071  17.715  0.2954 -0.8038  2.0815
 4959SOL    HW226511   4.430   0.057   0.100  0.0950 -0.1460  0.4105
 4960SOL     OW26512   1.326   2.955   8.550 -0.7765  0.1036 -0.1285
 4960SOL    HW126513   1.306   2.997   8.634 -0.6863 -1.6450  0.7854
 4960SOL    HW226514   1.415   2.986   8.533 -1.1371  1.3070  0.1859
 4961SOL     OW26515   2.428   3.868   3.629  0.6939  0.0876 -0.1449
 4961SOL    HW126516   2.356   3.807   3.611  0.0221  0.6445  0.6416
 4961SOL    HW226517   2.417   3.899   3.719  1.0136  0.2721 -0.1679
 4962SOL     OW26518   0.258   2.318   0.015 -0.3699  0.0879 -0.4328
 4962SOL    HW126519   0.316   2.268   0.072 -1.1679 -0.3541 -0.0029
 4962SOL    HW226520   0.203   2.247  17.718 -1.0284 -0.1230  1.1162
 4963SOL     OW26521   1.746   1.632   4.800  0.1746  0.4333 -0.2759
 4963SOL    HW126522   1.791   1.685   4.867 -1.6331  1.0331  0.4687
 4963SOL    HW226523   1.752   1.704   4.737  0.8518  1.9951  1.5706
 4964SOL     OW26524   0.921   0.512  10.732 -0.4709 -0.7278  0.3474
 4964SOL    HW126525   0.936   0.521  10.826  0.9406 -1.7005  0.2154
 4964SOL    HW226526   0.964   0.429  10.714 -2.0948 -2.1665  3.0441
 4965SOL     OW26527   0.614   3.686  17.654 -1.1868  0.0564 -0.1329
 4965SOL    HW126528   0.566   3.713  17.732 -3.3062  0.8200 -1.7108
 4965SOL    HW226529   0.681   3.640  17.706  0.3350 -0.1126 -2.2094
 4966SOL     OW26530   1.115   4.193   1.655  0.0256 -0.0926 -0.5802
 4966SOL    HW126531   1.069   4.176   1.573  0.4009  0.8282 -0.9870
 4966SOL    HW226532   1.049   4.248   1.698  0.6567  0.3046 -0.1170
 4967SOL     OW26533   0.679   3.692   4.348 -0.5124  0.3164  0.2764
 4967SOL    HW126534   0.652   3.716   4.436  0.7583  0.5834  0.5963
 4967SOL    HW226535   0.617   3.730   4.286 -0.4045 -0.7133 -0.4648
 4968SOL     OW26536   1.581   4.695   0.359 -0.5322 -0.0728  0.2854
 4968SOL    HW126537   1.653   4.690   0.422  0.1353 -0.3580 -0.5067
 4968SOL    HW226538   1.633   4.718   0.282 -0.3094  0.4353  0.5860
 4969SOL     OW26539   1.707   3.259   1.978 -0.2135  0.2010 -0.1041
 4969SOL    HW126540   1.611   3.263   1.978 -0.2900 -2.1323  0.8727
 4969SOL    HW226541   1.726   3.203   2.052  2.1268 -0.0913 -0.9126
 4970SOL     OW26542   1.342   0.540  10.757  0.3188 -0.0322  0.0549
 4970SOL    HW126543   1.423   0.511  10.799  0.0560  2.4281  2.2617
 4970SOL    HW226544   1.306   0.596  10.826 -0.0697 -0.0551 -0.1316
 4971SOL     OW26545   1.485   4.417  10.794  0.5525 -0.3308  0.1912
 4971SOL    HW126546   1.492   4.372  10.709  0.9190 -0.1252  0.1122
 4971SOL    HW226547   1.412   4.372  10.835 -1.0936  1.2939 -0.9501
 4972SOL     OW26548   3.013   0.786   2.128 -0.2517 -0.3994 -0.3038
 4972SOL    HW126549   2.965   0.782   2.211  1.0294  0.2480  0.4794
 4972SOL    HW226550   2.949   0.778   2.058 -0.0186  0.8583 -0.6607
 4973SOL     OW26551   2.486   0.617   9.165 -0.4225  0.3666  0.1635
 4973SOL    HW126552   2.455   0.604   9.255  1.5722 -0.4229  0.7432
 4973SOL    HW226553   2.569   0.664   9.166 -0.1497 -0.1283  1.1739
 4974SOL     OW26554   3.012   4.667  13.639 -0.5000  0.3718 -0.4276
 4974SOL    HW126555   2.923   4.644  13.664 -0.0649 -1.1345 -0.2515
 4974SOL    HW226556   3.053   4.582  13.660  0.6041  1.1042  0.3851
 4975SOL     OW26557   3.962   3.428  13.724  0.3491 -0.2140 -0.3429
 4975SOL    HW126558   3.904   3.449  13.650  0.6329 -1.5250 -0.9275
 4975SOL    HW226559   3.894   3.395  13.783 -0.6740  0.2286 -1.2700
 4976SOL     OW26560   2.256   3.826  10.442  0.3378 -0.6647 -0.1992
 4976SOL    HW126561   2.285   3.736  10.454 -1.1396 -1.1194 -0.0940
 4976SOL    HW226562   2.290   3.850  10.529  0.0398 -1.2378  0.0760
 4977SOL     OW26563   1.508   4.069   5.527 -0.1249 -0.9111 -0.0819
 4977SOL    HW126564   1.582   4.128   5.518  0.1346 -1.3852 -1.0565
 4977SOL    HW226565   1.523   4.032   5.614 -0.7769 -1.4942 -0.2200
 4978SOL     OW26566   2.362   3.216  10.529  0.0264 -0.4712 -0.0158
 4978SOL    HW126567   2.385   3.155  10.459  1.0696 -0.1587  0.0477
 4978SOL    HW226568   2.447   3.237  10.568 -0.3584 -2.3381  1.8411
 4979SOL     OW26569   2.392   0.455   7.378  0.0903  0.1907 -0.1244
 4979SOL    HW126570   2.394   0.375   7.327  0.1873  1.0581 -1.4844
 4979SOL    HW226571   2.480   0.488   7.356  1.5722 -1.8182  2.7394
 4980SOL     OW26572   3.924   0.334   0.998 -0.0488 -0.1207 -0.1632
 4980SOL    HW126573   3.898   0.269   0.932  2.1840 -1.8566  0.7131
 4980SOL    HW226574   3.840   0.363   1.035 -0.2494 -0.3709 -0.4137
 4981SOL     OW26575   2.126   0.295   1.209  0.0426 -0.2475 -0.2404
 4981SOL    HW126576   2.046   0.257   1.172 -0.4241  0.1011  0.4145
 4981SOL    HW226577   2.120   0.249   1.293  3.0567  0.7289  0.5166
 4982SOL     OW26578   2.934   2.343   6.814  0.1853 -0.5310  0.7876
 4982SOL    HW126579   2.912   2.388   6.732 -2.1233 -1.8866  0.6472
 4982SOL    HW226580   2.845   2.332   6.849  0.3983 -2.6649  0.6776
 4983SOL     OW26581   1.058   4.302   3.200 -0.2123 -0.2184 -0.7491
 4983SOL    HW126582   1.081   4.329   3.288  0.5918  1.0159 -1.3287
 4983SOL    HW226583   1.043   4.385   3.153  3.3014  1.6532  1.4588
 4984SOL     OW26584   1.182   1.102  15.278 -0.1645 -0.2500 -0.2715
 4984SOL    HW126585   1.243   1.146  15.336  0.7814  0.2441 -1.6449
 4984SOL    HW226586   1.182   1.009  15.299 -0.3427  0.0971  1.2058
 4985SOL     OW26587   1.426   4.001   2.963 -0.4329  0.8872 -0.2745
 4985SOL    HW126588   1.435   3.912   2.929 -0.2721  0.6774  0.3148
 4985SOL    HW226589   1.513   3.990   3.001 -0.0558 -1.2037 -1.7302
 4986SOL     OW26590   2.652   4.415   7.983 -0.0102  0.1318 -0.1606
 4986SOL    HW126591   2.661   4.509   7.969  0.7788  0.3292  1.7061
 4986SOL    HW226592   2.635   4.414   8.077 -0.1500 -1.7350 -0.2020
 4987SOL     OW26593   1.358   0.194   7.839 -0.4732 -0.0841  0.5094
 4987SOL    HW126594   1.442   0.240   7.841 -0.4581 -0.1008  0.3050
 4987SOL    HW226595   1.352   0.180   7.744  1.0756 -0.0399  0.4114
 4988SOL     OW26596   2.974   4.595   7.380 -0.0816  0.1301 -0.2872
 4988SOL    HW126597   2.926   4.578   7.299 -1.9324  1.1819  0.5909
 4988SOL    HW226598   3.067   4.599   7.358 -0.3629  2.4526 -1.0971
 4989SOL     OW26599   0.749   3.730   3.584 -0.1379  0.5317 -0.3029
 4989SOL    HW126600   0.786   3.671   3.519  0.0788 -0.5242  0.7835
 4989SOL    HW226601   0.824   3.788   3.596 -1.4037  2.1598 -0.2447
 4990SOL     OW26602   1.699   4.312   0.272 -0.0320 -0.2580  1.1128
 4990SOL    HW126603   1.780   4.270   0.301  0.5898  1.7616  2.2541
 4990SOL    HW226604   1.727   4.393   0.230 -1.1206  0.3960  1.6603
 4991SOL     OW26605   0.360   2.897   2.341 -0.2004 -0.1393  0.2024
 4991SOL    HW126606   0.450   2.927   2.331 -0.0723 -0.2340  1.1234
 4991SOL    HW226607   0.305   2.974   2.323 -3.2115 -2.6284 -1.2587
 4992SOL     OW26608   2.214   2.616   3.101 -0.4850  0.5130  0.3738
 4992SOL    HW126609   2.163   2.613   3.182 -0.8310 -0.2432  0.1285
 4992SOL    HW226610   2.248   2.704   3.118 -2.3046  1.7450 -2.3605
 4993SOL     OW26611   1.470   0.532   7.054  0.9863  0.8719  0.1076
 4993SOL    HW126612   1.376   0.545   7.071  0.5374 -0.5972 -1.2181
 4993SOL    HW226613   1.495   0.596   6.986  0.4745  0.1119 -0.8003
 4994SOL     OW26614   0.375   0.892   6.629  0.5674 -0.3616 -0.6076
 4994SOL    HW126615   0.361   0.986   6.638 -1.5434 -0.8143  0.6776
 4994SOL    HW226616   0.337   0.847   6.704 -2.0659 -0.1062 -1.8003
 4995SOL     OW26617   4.260   2.063   9.026  0.1445  0.1061  0.3273
 4995SOL    HW126618   4.227   2.151   9.043  0.1418 -0.0374  1.0502
 4995SOL    HW226619   4.258   2.065   8.930  0.0458 -0.2768  0.3203
 4996SOL     OW26620   2.201   1.411   6.887  0.2092  0.0249 -0.1482
 4996SOL    HW126621   2.237   1.488   6.844  2.8509 -1.0691  0.0807
 4996SOL    HW226622   2.284   1.365   6.901  0.1052 -0.1483 -0.0988
 4997SOL     OW26623   3.165   1.209  16.129 -0.1761 -0.1823 -0.2120
 4997SOL    HW126624   3.145   1.272  16.061  0.4205 -0.2414 -0.4459
 4997SOL    HW226625   3.192   1.260  16.206  0.5019 -3.1001  1.4819
 4998SOL     OW26626   3.748   2.835   7.502  0.2161 -0.7742  0.4808
 4998SOL    HW126627   3.831   2.883   7.505 -1.3432  1.8701  1.8179
 4998SOL    HW226628   3.672   2.894   7.507 -1.1906 -2.6198  1.1810
 4999SOL     OW26629   2.626   2.216   8.737 -0.0668 -1.1178 -0.0802
 4999SOL    HW126630   2.712   2.230   8.697 -0.4195  1.6137  0.1639
 4999SOL    HW226631   2.651   2.152   8.803  0.3109  1.8782  2.6501
 5000SOL     OW26632   0.340   2.908  11.708  0.0555 -0.5204  0.1105
 5000SOL    HW126633   0.262   2.855  11.693 -0.2503  0.4384 -1.7356
 5000SOL    HW226634   0.337   2.904  11.803  0.4938  0.2290  0.1576
 5001SOL     OW26635   4.231   0.249   5.847  0.2578  0.7188 -0.6597
 5001SOL    HW126636   4.299   0.185   5.823  0.1936  0.4229 -0.0732
 5001SOL    HW226637   4.277   0.303   5.911 -0.2443 -1.1480  1.2824
 5002SOL     OW26638   0.831   2.457   7.514  0.8151 -0.1489 -0.1907
 5002SOL    HW126639   0.878   2.432   7.594  0.8281  0.6306  0.0441
 5002SOL    HW226640   0.778   2.531   7.544 -1.2615 -1.1661 -1.3664
 5003SOL     OW26641   4.262   2.504   5.118 -0.3892  0.5317 -0.4185
 5003SOL    HW126642   4.286   2.442   5.187  0.5391 -0.5851 -1.7388
 5003SOL    HW226643   4.191   2.453   5.077  1.8440 -1.8780 -1.3331
 5004SOL     OW26644   0.828   1.416   8.462 -0.2210  0.1619 -0.2401
 5004SOL    HW126645   0.899   1.422   8.526  1.1421  0.8622 -1.8029
 5004SOL    HW226646   0.781   1.342   8.502  0.0431 -0.2262 -0.6443
 5005SOL     OW26647   0.662   0.108   9.259  0.3616 -0.6284 -0.1606
 5005SOL    HW126648   0.649   0.042   9.190  0.1563 -0.6986 -0.0552
 5005SOL    HW226649   0.752   0.084   9.282  0.1179  0.4104  1.8984
 5006SOL     OW26650   2.537   4.225   4.125 -0.8745  0.0476  0.0061
 5006SOL    HW126651   2.447   4.209   4.151 -1.2656 -0.4447 -1.6737
 5006SOL    HW226652   2.575   4.196   4.208  2.4399  3.1097 -0.4406
 5007SOL     OW26653   1.027   3.396   4.848  0.1909 -0.1611  0.3179
 5007SOL    HW126654   1.080   3.320   4.873 -0.2070 -1.2418 -2.0795
 5007SOL    HW226655   0.998   3.419   4.936 -2.1827 -0.5487 -0.3603
 5008SOL     OW26656   2.753   2.599   2.523  0.0342  0.2055 -0.0980
 5008SOL    HW126657   2.796   2.670   2.475 -0.4554  0.2652 -0.4485
 5008SOL    HW226658   2.828   2.541   2.533  0.4763  0.6112 -1.0543
 5009SOL     OW26659   4.606   4.084   4.787 -0.8038 -0.1666 -0.1036
 5009SOL    HW126660   4.649   4.083   4.872 -2.2443 -0.8212  0.6114
 5009SOL    HW226661   4.579   3.993   4.777 -0.1891 -0.3348 -0.2475
 5010SOL     OW26662   0.795   0.034   7.123  0.4997 -0.2225 -0.4889
 5010SOL    HW126663   0.888   0.028   7.147  1.4027  5.0208 -2.7277
 5010SOL    HW226664   0.759   0.107   7.174 -0.9627 -1.8918  0.8729
 5011SOL     OW26665   1.259   1.308   8.096 -0.0523 -0.0841 -0.4338
 5011SOL    HW126666   1.249   1.380   8.158  0.0326  0.1438 -0.6852
 5011SOL    HW226667   1.213   1.349   8.023 -0.1699  0.9884  0.2451
 5012SOL     OW26668   3.743   4.428  11.130  0.1479 -0.2316  0.0985
 5012SOL    HW126669   3.707   4.451  11.045  0.5115 -2.4613 -0.6607
 5012SOL    HW226670   3.798   4.357  11.097 -0.6344  0.1006 -1.8802
 5013SOL     OW26671   0.457   2.657   8.296 -0.5622 -0.0379  0.3512
 5013SOL    HW126672   0.420   2.570   8.279  0.9790 -0.8515  1.0467
 5013SOL    HW226673   0.536   2.633   8.346 -1.3664 -2.3879  0.5220
 5014SOL     OW26674   1.256   4.538   1.064  0.1365  0.3061 -0.4944
 5014SOL    HW126675   1.344   4.502   1.059  0.0659  0.0528  0.0736
 5014SOL    HW226676   1.240   4.572   0.976 -0.4257  2.0242  0.2748
 5015SOL     OW26677   0.975   1.390   4.671  0.4319  0.4200  0.4087
 5015SOL    HW126678   0.971   1.413   4.764 -0.4772  0.1854  0.4224
 5015SOL    HW226679   1.002   1.472   4.629  0.4961 -0.4960 -1.3610
 5016SOL     OW26680   1.124   3.806  12.990  0.0024 -0.3396  0.6568
 5016SOL    HW126681   1.193   3.740  13.006 -0.3143 -0.5120  1.2896
 5016SOL    HW226682   1.054   3.770  13.045  0.0279 -2.5787 -0.7553
 5017SOL     OW26683   2.030   4.667   3.710 -0.1549 -0.9129 -0.6903
 5017SOL    HW126684   1.954   4.622   3.674 -0.2693 -1.6299  0.4693
 5017SOL    HW226685   1.996   0.022   3.718  1.4332 -0.2229 -1.4403
 5018SOL     OW26686   2.366   2.126  15.404  0.1878  0.2653 -0.2239
 5018SOL    HW126687   2.333   2.156  15.319  1.9711 -2.1362 -1.7466
 5018SOL    HW226688   2.296   2.160  15.461 -1.2078 -1.9110 -0.6447
 5019SOL     OW26689   2.411   2.738   4.377 -0.2453 -0.2097  0.1523
 5019SOL    HW126690   2.328   2.747   4.329 -2.0566 -0.5868  3.1791
 5019SOL    HW226691   2.438   2.829   4.375  1.1475 -0.6310  0.0492
 5020SOL     OW26692   2.399   1.929   5.546  0.1196 -0.4647 -0.0628
 5020SOL    HW126693   2.457   1.980   5.489  0.6853 -1.6929 -0.5913
 5020SOL    HW226694   2.322   1.909   5.492 -0.8174 -0.5888  1.3345
 5021SOL     OW26695   4.364   3.273  16.893 -0.1418 -0.7354  0.1817
 5021SOL    HW126696   4.450   3.234  16.883 -0.3026 -0.7501 -1.2551
 5021SOL    HW226697   4.371   3.338  16.963  0.0700 -2.1934  1.5113
 5022SOL     OW26698   4.143   4.491   6.191 -0.0338 -0.8848 -0.3760
 5022SOL    HW126699   4.155   4.577   6.230 -3.0349 -0.1314 -1.0938
 5022SOL    HW226700   4.213   4.436   6.225  0.2673  1.2590  2.4157
 5023SOL     OW26701   3.619   4.412   1.961 -0.0822  0.3001  0.6649
 5023SOL    HW126702   3.612   4.377   2.050 -2.5700  0.9355  0.7065
 5023SOL    HW226703   3.675   4.489   1.971  0.3072  0.0843  0.1730
 5024SOL     OW26704   1.748   3.154   5.606 -0.4512  0.3473  0.2518
 5024SOL    HW126705   1.714   3.207   5.533 -0.0183  0.0933 -0.1387
 5024SOL    HW226706   1.681   3.184   5.667 -0.4965 -0.7091  0.7284
 5025SOL     OW26707   2.186   1.519   4.030 -0.3500  0.2110 -0.8844
 5025SOL    HW126708   2.135   1.568   3.966 -0.2487  1.4834  0.0155
 5025SOL    HW226709   2.272   1.524   3.987  0.5184  0.0974  0.8065
 5026SOL     OW26710   0.006   0.959   5.161  0.4622  0.3674  0.0727
 5026SOL    HW126711   4.694   0.948   5.244  1.0093  1.5201  0.5307
 5026SOL    HW226712   4.670   0.931   5.103  2.0515 -2.6741 -0.3705
 5027SOL     OW26713   1.863   2.072   5.883  0.1595 -0.0106 -0.3417
 5027SOL    HW126714   1.923   2.100   5.953 -1.6059 -0.0009  1.1483
 5027SOL    HW226715   1.795   2.139   5.891 -1.4703 -1.8474  1.1715
 5028SOL     OW26716   1.949   1.101   3.445 -0.0237  0.6830  0.1814
 5028SOL    HW126717   2.011   1.031   3.429  1.2607  1.5960  1.1696
 5028SOL    HW226718   1.908   1.114   3.359 -2.4030 -1.0534  1.0834
 5029SOL     OW26719   2.609   3.372  11.280  0.1356  0.1552 -0.1683
 5029SOL    HW126720   2.599   3.459  11.240  2.8885 -0.2918 -1.8342
 5029SOL    HW226721   2.678   3.381  11.346 -0.5738  0.4874  0.5345
 5030SOL     OW26722   2.595   3.774  14.526 -0.2266 -0.5206  0.1844
 5030SOL    HW126723   2.504   3.755  14.502 -0.6391  1.4335  0.1882
 5030SOL    HW226724   2.647   3.795  14.449 -0.2926 -2.4330 -0.3969
 5031SOL     OW26725   3.752   3.424   7.695  0.1228 -0.1568 -0.2033
 5031SOL    HW126726   3.668   3.384   7.672 -0.4511  0.6856  0.4190
 5031SOL    HW226727   3.724   3.491   7.758 -0.0460  1.2903 -1.8187
 5032SOL     OW26728   1.177   1.203  12.265  0.1462 -0.2688  0.3945
 5032SOL    HW126729   1.239   1.131  12.257  0.3306 -0.0075 -0.5016
 5032SOL    HW226730   1.222   1.273  12.219  0.3482  0.3946  1.5924
 5033SOL     OW26731   0.052   0.255   2.451 -0.7536  0.1467  0.0132
 5033SOL    HW126732   0.088   0.200   2.521  0.0489 -1.6291 -1.7890
 5033SOL    HW226733   0.102   0.336   2.461  0.4176 -0.6499  0.5710
 5034SOL     OW26734   2.417   1.972   5.814 -0.0285  0.1083 -0.0177
 5034SOL    HW126735   2.387   1.972   5.723 -2.2482 -0.1191  0.7166
 5034SOL    HW226736   2.333   1.982   5.859 -1.4505 -1.7943 -2.2313
 5035SOL     OW26737   0.005   1.146   0.987  0.5536 -0.1429 -0.2736
 5035SOL    HW126738   4.645   1.127   0.984  0.0496  2.4647 -0.5154
 5035SOL    HW226739   0.022   1.074   1.048  0.4203 -0.1418 -0.2353
 5036SOL     OW26740   2.022   1.372  10.512  0.1661  0.5536 -0.6268
 5036SOL    HW126741   1.995   1.300  10.569 -0.3411 -0.1735 -1.7691
 5036SOL    HW226742   1.988   1.353  10.424  0.8047  0.9727 -0.9655
 5037SOL     OW26743   3.731   3.888   3.847  0.4576  0.3033  0.2566
 5037SOL    HW126744   3.783   3.885   3.927 -0.2784 -2.3262  0.6382
 5037SOL    HW226745   3.707   3.980   3.852 -0.3240  0.1060  0.1898
 5038SOL     OW26746   1.029   3.933   2.683  0.0612 -0.8228  0.0022
 5038SOL    HW126747   0.987   4.010   2.721 -3.1296 -3.0584  0.9625
 5038SOL    HW226748   0.962   3.895   2.626  0.9147  1.7736 -2.7056
 5039SOL     OW26749   1.618   2.418   1.406 -0.4945 -0.4734 -0.5842
 5039SOL    HW126750   1.702   2.462   1.415 -0.2955 -0.7016 -1.3182
 5039SOL    HW226751   1.604   2.394   1.498 -0.2835  1.6357  0.0049
 5040SOL     OW26752   3.460   4.445   6.731 -0.0517 -0.1800  0.3305
 5040SOL    HW126753   3.435   4.369   6.783  1.8934  0.0680  1.6310
 5040SOL    HW226754   3.381   4.457   6.679  0.1210 -2.0276 -0.3667
 5041SOL     OW26755   4.420   4.094   9.420 -0.4857 -0.4433 -0.0532
 5041SOL    HW126756   4.330   4.079   9.449 -0.6739  0.2895 -0.2547
 5041SOL    HW226757   4.451   4.055   9.502 -1.0575  0.0957  0.4140
 5042SOL     OW26758   0.694   4.475   2.222 -0.3656 -0.1346 -0.6010
 5042SOL    HW126759   0.639   4.401   2.194  0.8052 -1.2853  0.1215
 5042SOL    HW226760   0.722   4.504   2.136 -0.6853  0.4323 -0.5105
 5043SOL     OW26761   0.782   0.783   7.824  0.0001  0.7323 -0.6682
 5043SOL    HW126762   0.867   0.772   7.866 -0.8670 -0.5680  0.7634
 5043SOL    HW226763   0.778   0.876   7.804  0.8399  0.9345  0.1204
 5044SOL     OW26764   2.600   0.005  17.218  0.1384  0.0665  0.3483
 5044SOL    HW126765   2.523   0.018  17.274 -0.0268  0.4302  0.0324
 5044SOL    HW226766   2.599   4.644  17.208 -0.0509  0.0625  0.4021
 5045SOL     OW26767   0.030   2.088   2.083  0.3057  0.2417  0.1683
 5045SOL    HW126768   4.683   2.038   2.080  0.4299  0.1624 -1.6745
 5045SOL    HW226769   0.098   2.021   2.078 -0.7144 -0.7774 -0.0342
 5046SOL     OW26770   0.664   0.195  12.535  0.0114 -0.2708 -0.2143
 5046SOL    HW126771   0.742   0.226  12.582  0.9035 -4.5403  1.1237
 5046SOL    HW226772   0.650   0.270  12.478  1.2437 -0.6383 -0.9833
 5047SOL     OW26773   0.605   2.779   9.993  0.4598  0.2557  0.1218
 5047SOL    HW126774   0.660   2.787   9.916  0.5341  2.0425  0.3680
 5047SOL    HW226775   0.598   2.867  10.030  1.0861 -0.2161  1.3617
 5048SOL     OW26776   3.036   4.406   2.425 -0.0080  0.0618  0.7251
 5048SOL    HW126777   2.960   4.357   2.395 -0.2598  0.1422  1.2329
 5048SOL    HW226778   3.103   4.393   2.358 -0.4944  0.9070  0.0756
 5049SOL     OW26779   2.436   4.678   5.764  0.6638 -0.3526  0.2504
 5049SOL    HW126780   2.396   0.023   5.729 -1.8841 -1.4421  0.7136
 5049SOL    HW226781   2.516   4.718   5.799  1.2031  1.5089 -3.0918
 5050SOL     OW26782   3.484   0.495   6.932  0.0409  0.4767 -0.0908
 5050SOL    HW126783   3.556   0.434   6.951  0.3494  1.3363  1.5016
 5050SOL    HW226784   3.450   0.494   7.021  2.0119  1.5558  0.6879
 5051SOL     OW26785   0.093   1.134   3.001 -0.2770 -0.0354 -0.5663
 5051SOL    HW126786   0.001   1.158   2.993 -0.7862 -2.2938 -1.4505
 5051SOL    HW226787   0.093   1.113   3.095  1.3575  1.3901 -0.2508
 5052SOL     OW26788   3.376   1.257   5.550  0.6131  0.2780 -0.1854
 5052SOL    HW126789   3.453   1.238   5.496  1.6004  0.4249  1.1871
 5052SOL    HW226790   3.301   1.215   5.508  2.0019 -0.6737 -1.7561
 5053SOL     OW26791   1.545   3.543   2.951  0.0232 -0.2446  0.1943
 5053SOL    HW126792   1.539   3.576   3.041 -0.0312  1.3724 -0.4061
 5053SOL    HW226793   1.502   3.458   2.957 -1.6303  0.5142 -0.9106
 5054SOL     OW26794   3.668   0.624  15.775  0.2769  0.2549 -0.2119
 5054SOL    HW126795   3.643   0.532  15.784 -0.1555  0.3711 -0.2303
 5054SOL    HW226796   3.625   0.666  15.850 -0.4989 -0.0102 -0.5111
 5055SOL     OW26797   3.749   2.533   2.986 -0.2406 -0.4164 -0.2058
 5055SOL    HW126798   3.753   2.606   2.924  0.0545 -0.5731 -0.3715
 5055SOL    HW226799   3.722   2.457   2.934 -0.6016  0.1342 -0.8288
 5056SOL     OW26800   0.259   3.702   7.189 -0.5441  0.2383  0.4296
 5056SOL    HW126801   0.314   3.776   7.216  0.0861  0.3667 -1.2571
 5056SOL    HW226802   0.172   3.721   7.224 -1.1270  1.0447 -1.4798
 5057SOL     OW26803   1.869   4.430   4.467 -0.3785  0.6350  0.6649
 5057SOL    HW126804   1.797   4.367   4.459 -1.0816  1.5515 -0.3003
 5057SOL    HW226805   1.899   4.416   4.556 -1.4386  1.7560  1.1971
 5058SOL     OW26806   1.225   4.729  14.999  0.3808 -0.0530  0.1643
 5058SOL    HW126807   1.200   0.078  14.960  1.2429 -0.0419 -0.3565
 5058SOL    HW226808   1.143   4.707  15.044  0.4731 -1.2288 -0.2458
 5059SOL     OW26809   2.235   1.006   9.122  0.0390  0.2561  0.0041
 5059SOL    HW126810   2.231   0.924   9.171  0.1334  0.4671  0.3660
 5059SOL    HW226811   2.234   1.070   9.193  0.8035 -0.2362  0.4627
 5060SOL     OW26812   0.428   3.296   4.136  0.1337  0.0689  0.1069
 5060SOL    HW126813   0.399   3.369   4.191  1.6297 -0.3212  1.4232
 5060SOL    HW226814   0.504   3.336   4.094  1.2165 -0.6503  1.3717
 5061SOL     OW26815   0.727   3.795   6.015  0.6323  0.2805 -0.0669
 5061SOL    HW126816   0.640   3.770   5.983  0.6795 -0.9322  0.7326
 5061SOL    HW226817   0.699   3.835   6.098 -0.6612  1.5179 -1.1080
 5062SOL     OW26818   3.179   1.787  14.106 -0.3823 -0.7298  0.1340
 5062SOL    HW126819   3.137   1.869  14.079  3.2530  1.1326  0.1225
 5062SOL    HW226820   3.269   1.803  14.078 -0.4163  1.0433  1.0424
 5063SOL     OW26821   3.562   4.565  13.319 -0.1283  0.1912 -0.1301
 5063SOL    HW126822   3.515   4.648  13.313  0.2058  0.4100  0.2325
 5063SOL    HW226823   3.513   4.527  13.392  1.6367 -0.8147  0.5477
 5064SOL     OW26824   0.011   4.464   4.720  0.1304  0.3598  0.1919
 5064SOL    HW126825   0.075   4.529   4.748  2.9121 -1.1914 -2.7232
 5064SOL    HW226826   0.068   4.422   4.656 -1.2934 -0.1371 -0.7718
 5065SOL     OW26827   4.382   2.798   9.970  0.4622 -0.2801  0.3047
 5065SOL    HW126828   4.353   2.710   9.946  4.7994 -1.1549 -1.7480
 5065SOL    HW226829   4.317   2.843   9.916  0.3509 -0.0075  0.6691
 5066SOL     OW26830   2.289   3.008   2.220 -0.4139  0.0850 -0.7554
 5066SOL    HW126831   2.314   2.947   2.150 -0.9525  1.0790 -1.8103
 5066SOL    HW226832   2.362   2.994   2.281 -1.4467 -2.2481 -0.0217
 5067SOL     OW26833   4.567   3.003   7.459  0.7123 -0.1613  0.3842
 5067SOL    HW126834   4.627   2.998   7.384  1.1527 -0.1911  0.7370
 5067SOL    HW226835   4.597   2.928   7.510  1.9638  0.1120  0.0520
 5068SOL     OW26836   3.204   3.049   4.129  0.2453  0.1386  0.7198
 5068SOL    HW126837   3.243   3.056   4.042 -1.2632  2.2565  0.2315
 5068SOL    HW226838   3.176   2.957   4.140  1.2160 -0.3271 -0.7562
 5069SOL     OW26839   4.147   2.450   2.712  0.5155  0.1241 -0.5469
 5069SOL    HW126840   4.122   2.413   2.797  0.9176 -1.0454 -0.9269
 5069SOL    HW226841   4.241   2.434   2.717  0.3964 -1.6153 -3.9806
 5070SOL     OW26842   0.271   2.845  10.091  0.1449 -0.0830  0.4095
 5070SOL    HW126843   0.288   2.774  10.029 -0.2494  0.3647 -0.2124
 5070SOL    HW226844   0.223   2.910  10.040 -0.9906 -1.7749 -0.6692
 5071SOL     OW26845   2.837   1.367   7.920  0.1878  0.6412  0.3722
 5071SOL    HW126846   2.910   1.428   7.935  0.2442 -0.0009  2.7038
 5071SOL    HW226847   2.869   1.282   7.950  0.6776  1.3929  1.9683
 5072SOL     OW26848   2.862   0.176  12.317 -0.3539 -0.1585  0.1719
 5072SOL    HW126849   2.791   0.235  12.339 -0.0400  0.3294 -0.1114
 5072SOL    HW226850   2.925   0.212  12.379 -0.9982  1.5923 -0.1876
 5073SOL     OW26851   4.459   3.463  15.715  0.0916 -0.1948 -0.0622
 5073SOL    HW126852   4.553   3.465  15.696 -0.3874 -1.2716 -2.5356
 5073SOL    HW226853   4.464   3.402  15.789 -2.1064 -0.1820  0.0964
 5074SOL     OW26854   2.408   0.942  10.618 -0.2781  0.4632 -0.1939
 5074SOL    HW126855   2.471   0.964  10.550 -0.3199  0.7148 -0.1496
 5074SOL    HW226856   2.459   0.922  10.697 -0.8090  2.0712  0.5422
 5075SOL     OW26857   3.726   4.689   7.514 -0.4322 -0.1555 -0.8107
 5075SOL    HW126858   3.731   4.612   7.458 -1.3405  0.8528 -2.2772
 5075SOL    HW226859   3.799   0.008   7.481  0.2366 -0.5521 -0.0025
 5076SOL     OW26860   2.895   0.069   8.625  0.4124  0.1094  0.3880
 5076SOL    HW126861   2.830   0.081   8.556  1.6465 -1.3600 -1.0116
 5076SOL    HW226862   2.846   0.103   8.700 -0.0496 -0.7451  0.4706
 5077SOL     OW26863   3.871   2.865   3.987 -0.5175  0.4840  0.6591
 5077SOL    HW126864   3.966   2.879   3.993 -0.3037 -1.3097  1.3660
 5077SOL    HW226865   3.852   2.833   4.075  0.0829 -0.7219  0.3538
 5078SOL     OW26866   2.276   3.301  13.340  0.8530  0.0890  0.0093
 5078SOL    HW126867   2.197   3.308  13.287  0.9991 -0.3923 -0.2660
 5078SOL    HW226868   2.348   3.353  13.305  0.5723  0.2446 -0.3353
 5079SOL     OW26869   0.911   4.338  15.887 -0.2249 -0.1269  0.0767
 5079SOL    HW126870   0.880   4.258  15.930 -2.5766  1.8627  2.1234
 5079SOL    HW226871   1.004   4.330  15.909  0.1065  0.5231 -1.0806
 5080SOL     OW26872   3.609   3.806  15.110 -0.4976  0.4734  0.2232
 5080SOL    HW126873   3.639   3.879  15.055  0.6278 -0.6584 -0.6641
 5080SOL    HW226874   3.517   3.815  15.085  0.1870 -0.0974 -2.5083
 5081SOL     OW26875   2.182   0.203   8.210 -0.5538  0.2659 -0.2608
 5081SOL    HW126876   2.170   0.127   8.268 -0.9402 -0.5080 -1.3478
 5081SOL    HW226877   2.277   0.213   8.221 -0.9747  1.1036  2.6933
 5082SOL     OW26878   1.272   0.003   2.432 -0.5870  0.1243  0.1119
 5082SOL    HW126879   1.334   4.700   2.494  1.3026  1.2125 -1.1044
 5082SOL    HW226880   1.215   4.661   2.422 -1.4854  0.4760  2.5975
 5083SOL     OW26881   3.766   3.855   7.425  0.4970  0.1853 -0.0596
 5083SOL    HW126882   3.819   3.806   7.488 -0.7729  0.7603  1.4171
 5083SOL    HW226883   3.696   3.794   7.403  1.4847 -0.9659 -0.0337
 5084SOL     OW26884   4.209   4.243  11.486  0.0465 -0.2601  0.2427
 5084SOL    HW126885   4.169   4.328  11.502 -0.3478 -0.5815  0.9453
 5084SOL    HW226886   4.133   4.189  11.465  1.1128 -1.5490 -0.3341
 5085SOL     OW26887   3.487   2.842   3.903 -0.6831  0.0592 -0.0224
 5085SOL    HW126888   3.575   2.836   3.865 -0.4665 -0.7747  0.5920
 5085SOL    HW226889   3.472   2.930   3.936  1.4780  1.8453 -3.8219
 5086SOL     OW26890   2.748   0.693  17.586  0.3696 -0.3429 -0.0429
 5086SOL    HW126891   2.718   0.642  17.661  0.6653  0.0402  0.3413
 5086SOL    HW226892   2.690   0.659  17.519  1.4997 -0.7246 -0.8312
 5087SOL     OW26893   1.091   4.033  11.701  0.4782  0.5009  0.2926
 5087SOL    HW126894   1.089   3.999  11.790 -2.5114 -1.1028 -0.3990
 5087SOL    HW226895   1.184   4.015  11.688  0.5942  0.9693  0.4595
 5088SOL     OW26896   2.255   1.746  17.677  0.2656  0.1683 -0.3173
 5088SOL    HW126897   2.252   1.654  17.652 -1.9646  0.4786 -1.1907
 5088SOL    HW226898   2.170   1.758  17.719  0.9915  3.6307  0.1475
 5089SOL     OW26899   1.723   1.110   4.930  0.0756  0.4191  0.2979
 5089SOL    HW126900   1.752   1.182   4.986  1.3794 -0.5895  0.9234
 5089SOL    HW226901   1.804   1.074   4.893  0.5248  1.7187  0.0142
 5090SOL     OW26902   2.667   1.466  14.822  0.6593 -0.0435  0.0273
 5090SOL    HW126903   2.726   1.483  14.895  0.5725  0.3210  0.0144
 5090SOL    HW226904   2.661   1.371  14.818 -0.4190  0.1095 -2.1428
 5091SOL     OW26905   2.459   4.209   3.842  0.2388  0.2531  0.4820
 5091SOL    HW126906   2.538   4.154   3.841  0.6957  0.9072  0.2335
 5091SOL    HW226907   2.464   4.243   3.931  0.7628 -2.8964  1.6308
 5092SOL     OW26908   0.827   3.844  10.007 -0.2575 -0.5824  0.0102
 5092SOL    HW126909   0.776   3.804   9.937  1.8742 -0.1853 -1.7775
 5092SOL    HW226910   0.770   3.839  10.084 -2.8757 -0.2827 -1.9338
 5093SOL     OW26911   0.537   0.317   2.991 -0.0143 -0.4283 -0.2678
 5093SOL    HW126912   0.463   0.357   2.945  1.3255  2.3018 -0.0558
 5093SOL    HW226913   0.542   0.230   2.952  0.3053 -0.5029 -0.0558
 5094SOL     OW26914   2.178   0.195   2.143  0.2743  0.5359  0.0713
 5094SOL    HW126915   2.163   0.226   2.232 -2.2049 -2.9942  0.9084
 5094SOL    HW226916   2.271   0.171   2.150 -0.4217 -1.5122  2.5737
 5095SOL     OW26917   3.541   0.985  12.276 -0.1139  0.3391 -0.0567
 5095SOL    HW126918   3.635   0.973  12.289 -0.3354  2.5652  3.6547
 5095SOL    HW226919   3.519   0.933  12.199  1.5348  0.8673 -0.8824
 5096SOL     OW26920   3.228   2.563   7.382 -0.5615 -0.5724  0.5106
 5096SOL    HW126921   3.149   2.585   7.333 -1.1143  0.7633  1.9951
 5096SOL    HW226922   3.291   2.525   7.321  0.2880 -1.3581  1.8714
 5097SOL     OW26923   1.209   2.107   3.316 -0.0546  0.1620  0.4955
 5097SOL    HW126924   1.237   2.022   3.283 -1.9234  0.7977 -2.7432
 5097SOL    HW226925   1.235   2.101   3.408  1.6695 -0.1275 -0.0139
 5098SOL     OW26926   1.702   0.871   9.955  0.0353 -0.3387 -0.8026
 5098SOL    HW126927   1.789   0.839   9.930 -0.0925  0.2848 -2.0405
 5098SOL    HW226928   1.651   0.794   9.981  0.0661 -0.2533 -0.4861
 5099SOL     OW26929   0.274   3.786  10.211  0.6619 -0.0693  0.1998
 5099SOL    HW126930   0.248   3.867  10.256  2.6099  0.2359  0.7618
 5099SOL    HW226931   0.205   3.770  10.147 -0.7681  2.3530  1.1403
 5100SOL     OW26932   2.190   1.858   1.207 -0.9083 -0.2197 -0.4102
 5100SOL    HW126933   2.247   1.928   1.176 -0.0548 -0.5025  0.5474
 5100SOL    HW226934   2.110   1.910   1.216 -0.3304  0.4243  0.8812
 5101SOL     OW26935   1.991   0.380   3.431 -0.1250  0.6112 -0.4364
 5101SOL    HW126936   2.048   0.438   3.381  1.6020 -1.5102 -0.9258
 5101SOL    HW226937   1.999   0.411   3.521 -1.3764  0.2618 -0.1996
 5102SOL     OW26938   2.998   2.399   2.402 -0.7732 -0.0335 -0.4430
 5102SOL    HW126939   3.019   2.328   2.340  1.2252 -0.3865  0.6466
 5102SOL    HW226940   3.011   2.345   2.480  1.2191  0.1390 -0.6435
 5103SOL     OW26941   2.445   2.385   6.132 -0.3268 -0.6164 -0.3098
 5103SOL    HW126942   2.518   2.446   6.124 -2.3535  2.1547  2.0822
 5103SOL    HW226943   2.373   2.431   6.088 -0.7818  0.9045  2.0193
 5104SOL     OW26944   1.552   4.323   8.326 -0.2167  0.2126 -0.6159
 5104SOL    HW126945   1.556   4.302   8.233  1.4250  0.2934 -0.5630
 5104SOL    HW226946   1.625   4.273   8.362 -1.8325 -1.4353  0.3690
 5105SOL     OW26947   3.293   0.398   6.147 -0.2094  0.4996  0.1233
 5105SOL    HW126948   3.313   0.482   6.190  2.4343 -0.1095  0.0857
 5105SOL    HW226949   3.298   0.419   6.054 -0.4716  0.1322  0.0303
 5106SOL     OW26950   2.956   1.134   7.298  0.1317  0.4466  0.1054
 5106SOL    HW126951   2.940   1.126   7.392 -1.8397  0.2728 -0.2324
 5106SOL    HW226952   3.049   1.154   7.308 -0.0684  0.7466  1.3754
 5107SOL     OW26953   4.223   2.777   6.720 -0.4579 -0.0387  0.0776
 5107SOL    HW126954   4.270   2.787   6.803 -2.4532  1.2094  1.0456
 5107SOL    HW226955   4.147   2.726   6.748 -0.3139 -0.3385 -0.0692
 5108SOL     OW26956   0.270   1.066   7.203 -0.1893  0.1836  0.4129
 5108SOL    HW126957   0.194   1.017   7.171 -0.0366 -0.2003  0.6478
 5108SOL    HW226958   0.241   1.157   7.190 -0.3381  0.1014  0.1499
 5109SOL     OW26959   1.515   4.584   1.037  0.0964  0.2428 -0.5520
 5109SOL    HW126960   1.532   4.668   0.994  2.2753 -1.1534 -2.4559
 5109SOL    HW226961   1.549   4.533   0.963 -0.5082 -2.2484  0.8926
 5110SOL     OW26962   3.039   4.199   4.733  0.5273 -0.1985  0.6376
 5110SOL    HW126963   3.010   4.221   4.645  0.5785  1.1663  0.9551
 5110SOL    HW226964   2.986   4.119   4.740 -0.2398  0.3740  1.3835
 5111SOL     OW26965   2.421   2.538  15.823  0.3542  0.0019  0.7510
 5111SOL    HW126966   2.328   2.514  15.829  1.4031 -3.7666  1.6289
 5111SOL    HW226967   2.414   2.619  15.773  2.2800 -2.7191 -3.8607
 5112SOL     OW26968   4.416   2.252   6.683 -0.8391 -0.9642  0.7740
 5112SOL    HW126969   4.361   2.261   6.606  0.1757  0.6968  0.2450
 5112SOL    HW226970   4.368   2.301   6.750 -1.0577  0.2371 -0.2581
 5113SOL     OW26971   3.276   2.461   9.914  0.0506  0.1285 -0.3858
 5113SOL    HW126972   3.327   2.538   9.937  1.3093 -1.1602  1.1892
 5113SOL    HW226973   3.277   2.419  10.000 -1.7710  0.5105 -0.1811
 5114SOL     OW26974   1.768   1.670   3.097  0.0284  0.3154 -0.2671
 5114SOL    HW126975   1.820   1.722   3.036  0.2081  1.3033  0.7148
 5114SOL    HW226976   1.823   1.592   3.097  0.1508  0.4018  0.1629
 5115SOL     OW26977   1.070   0.766   8.260  0.5695 -0.3385  0.6723
 5115SOL    HW126978   1.065   0.680   8.301 -0.8469  0.4625  2.2120
 5115SOL    HW226979   1.012   0.824   8.310 -0.0288  1.2629 -1.8856
 5116SOL     OW26980   0.253   1.803  10.913  0.5430 -1.2125 -0.0689
 5116SOL    HW126981   0.327   1.772  10.861  0.0220 -0.1955 -1.4098
 5116SOL    HW226982   0.193   1.829  10.843  0.4224  0.4836  0.6571
 5117SOL     OW26983   0.831   0.394  11.242 -0.2259 -0.3094 -0.9814
 5117SOL    HW126984   0.882   0.443  11.307  1.4994 -0.3996 -2.2670
 5117SOL    HW226985   0.746   0.385  11.286 -1.0388 -0.2063 -2.5354
 5118SOL     OW26986   4.470   0.741   4.425 -0.0666  0.3200  0.0100
 5118SOL    HW126987   4.483   0.658   4.379 -1.8825  0.7193 -1.2301
 5118SOL    HW226988   4.561   0.766   4.442  0.0651 -0.6654  0.8089
 5119SOL     OW26989   3.298   2.526  13.919 -0.0098 -0.4096 -0.0478
 5119SOL    HW126990   3.212   2.500  13.950 -0.2645  0.3515 -0.1210
 5119SOL    HW226991   3.317   2.452  13.860 -1.6078 -2.3663  1.9125
 5120SOL     OW26992   0.180   4.064   3.230  0.3127 -0.5007 -0.5778
 5120SOL    HW126993   0.231   4.078   3.310  1.3760 -0.1858 -1.3166
 5120SOL    HW226994   0.184   3.969   3.229 -0.3616 -0.5207 -0.8934
 5121SOL     OW26995   1.535   4.593   2.084 -0.0537 -0.3347  0.1234
 5121SOL    HW126996   1.469   4.541   2.039 -1.2851  0.4025  1.0834
 5121SOL    HW226997   1.480   4.666   2.112 -2.3348 -1.9037 -0.2026
 5122SOL     OW26998   4.642   3.805   0.464  0.3251 -0.2821  0.6759
 5122SOL    HW126999   4.632   3.761   0.380 -1.0957 -0.3720  0.9028
 5122SOL    HW227000   4.584   3.745   0.511 -2.7696  2.4512  0.3331
 5123SOL     OW27001   2.786   4.613  10.893 -0.1077 -0.4016  0.4364
 5123SOL    HW127002   2.778   4.679  10.963 -2.6472 -0.4236  0.1686
 5123SOL    HW227003   2.704   4.611  10.844  0.8636 -0.6332 -1.1658
 5124SOL     OW27004   3.574   2.007   4.806 -0.2378 -0.3117  0.5629
 5124SOL    HW127005   3.666   2.008   4.833 -1.0304  0.9396  3.1976
 5124SOL    HW227006   3.538   1.951   4.874 -0.4335  0.5986  1.2041
 5125SOL     OW27007   1.606   0.957   1.469 -0.4968 -0.0970 -0.5538
 5125SOL    HW127008   1.686   0.991   1.430 -0.4614  1.8849  1.2781
 5125SOL    HW227009   1.611   0.865   1.443 -0.3919  0.7667 -3.5757
 5126SOL     OW27010   0.075   1.459   5.171 -0.0209  0.1483 -0.2825
 5126SOL    HW127011   0.146   1.472   5.108 -0.0113  1.9200  0.0913
 5126SOL    HW227012   4.731   1.470   5.116 -1.1460  0.1983  1.3142
 5127SOL     OW27013   0.574   1.277   0.193  0.3754  0.7069 -0.1535
 5127SOL    HW127014   0.649   1.219   0.178 -0.9952 -0.6279 -1.8835
 5127SOL    HW227015   0.621   1.336   0.251 -0.6170 -0.9615  2.3359
 5128SOL     OW27016   0.302   1.947   8.799  0.3296 -0.0780 -0.3026
 5128SOL    HW127017   0.352   1.889   8.856 -0.4541 -0.9629 -0.5129
 5128SOL    HW227018   0.231   1.959   8.863  1.6452  0.2586  1.0982
 5129SOL     OW27019   2.791   1.853   5.224  0.8592 -0.6995 -0.1876
 5129SOL    HW127020   2.697   1.859   5.204  1.0311 -0.9721 -1.0696
 5129SOL    HW227021   2.825   1.892   5.144 -1.4040  1.6730  0.0102
 5130SOL     OW27022   3.221   1.088   4.258 -0.7775  0.5449 -0.1258
 5130SOL    HW127023   3.253   1.002   4.285 -0.2221  0.2641 -1.6609
 5130SOL    HW227024   3.224   1.136   4.341 -1.2883 -0.3497  0.4039
 5131SOL     OW27025   4.574   3.779   3.379 -0.2228 -0.4677  0.2424
 5131SOL    HW127026   4.555   3.743   3.293 -0.1033  0.0892 -0.0109
 5131SOL    HW227027   4.639   3.717   3.413 -0.0949 -1.1950 -1.3428
 5132SOL     OW27028   4.216   3.061   8.913 -0.2169  0.5200  0.4285
 5132SOL    HW127029   4.268   3.105   8.845 -0.4832 -0.3318 -0.3334
 5132SOL    HW227030   4.196   3.127   8.980 -2.4978  0.7503 -0.4454
 5133SOL     OW27031   2.594   0.896  12.364 -0.3258 -0.2680 -0.1123
 5133SOL    HW127032   2.537   0.832  12.321  1.0701 -1.4540 -0.1600
 5133SOL    HW227033   2.536   0.966  12.397  0.3927  0.8739 -1.2585
 5134SOL     OW27034   1.550   1.442   3.965  0.1244  0.1254  0.0803
 5134SOL    HW127035   1.474   1.458   3.910  0.7157 -0.8544 -0.9998
 5134SOL    HW227036   1.507   1.430   4.050  1.9859 -0.6626  0.9065
 5135SOL     OW27037   2.406   3.896  15.342  0.5844 -0.2680  0.3304
 5135SOL    HW127038   2.387   3.830  15.276 -0.7641  0.8340 -0.3944
 5135SOL    HW227039   2.364   3.857  15.419 -0.0112 -1.7140 -0.7331
 5136SOL     OW27040   0.512   3.720  12.395  0.4081 -0.2953  0.1674
 5136SOL    HW127041   0.606   3.734  12.400  0.3412 -0.3222  1.6090
 5136SOL    HW227042   0.494   3.698  12.487  1.6910  0.9637  0.7264
 5137SOL     OW27043   2.111   4.614   2.722  0.0629  0.3847 -0.6144
 5137SOL    HW127044   2.042   4.680   2.716  1.6054  1.8418 -2.2725
 5137SOL    HW227045   2.090   4.562   2.645  2.5529 -0.2367 -0.8433
 5138SOL     OW27046   0.824   0.847   7.119  0.3514  0.3745  0.1175
 5138SOL    HW127047   0.736   0.849   7.156  0.9664 -0.1688  1.5968
 5138SOL    HW227048   0.847   0.755   7.104 -1.2290  0.3108 -2.0163
 5139SOL     OW27049   2.398   1.114   5.262  0.0141  0.1495 -0.7077
 5139SOL    HW127050   2.450   1.161   5.327  0.5645 -2.7446  0.9503
 5139SOL    HW227051   2.469   1.072   5.213  1.5050  1.3267  0.4489
 5140SOL     OW27052   4.155   1.950   5.673 -0.0058 -0.0088 -0.0700
 5140SOL    HW127053   4.108   1.971   5.754 -0.8437 -4.0736  0.4773
 5140SOL    HW227054   4.230   2.010   5.677 -0.2311  0.2092  0.9518
 5141SOL     OW27055   0.244   4.005   5.154 -0.1886 -0.4028 -0.1118
 5141SOL    HW127056   0.240   4.038   5.244 -4.3157  0.4205 -0.6197
 5141SOL    HW227057   0.255   3.911   5.169  3.1049  0.1801  1.1237
 5142SOL     OW27058   1.772   3.031   7.797 -0.1655  0.0963  0.3446
 5142SOL    HW127059   1.820   3.072   7.869 -0.7610  1.1333  0.1436
 5142SOL    HW227060   1.806   3.086   7.726 -0.4486 -0.7084 -0.4180
 5143SOL     OW27061   1.114   1.988   2.426 -0.3715  0.4971 -0.1837
 5143SOL    HW127062   1.196   1.956   2.389 -1.2256 -1.7534 -0.1492
 5143SOL    HW227063   1.077   1.903   2.452  1.0902 -0.0697  0.0519
 5144SOL     OW27064   1.267   0.624   0.430 -0.5190  0.2356  0.1263
 5144SOL    HW127065   1.198   0.610   0.365 -2.0671 -0.5999  1.9398
 5144SOL    HW227066   1.225   0.597   0.512 -1.0264 -0.9210 -0.5227
 5145SOL     OW27067   1.353   1.785   5.745 -0.2836 -0.4913  0.0809
 5145SOL    HW127068   1.381   1.866   5.703  0.2662 -0.1303  1.1393
 5145SOL    HW227069   1.280   1.765   5.687  0.6871 -0.3179 -1.2052
 5146SOL     OW27070   1.243   4.123   3.864  0.0429 -0.5926 -0.2593
 5146SOL    HW127071   1.179   4.058   3.894 -0.4633 -0.0626 -0.1816
 5146SOL    HW227072   1.203   4.161   3.786 -0.3434  0.6986  0.5703
 5147SOL     OW27073   2.230   3.779   6.459 -0.5591  0.3372 -0.2984
 5147SOL    HW127074   2.245   3.816   6.372  0.6258  0.3868 -0.0796
 5147SOL    HW227075   2.316   3.737   6.465 -1.7225 -1.5262  3.4626
 5148SOL     OW27076   1.299   1.288   5.833 -0.3662  0.5296 -0.2637
 5148SOL    HW127077   1.301   1.257   5.742  2.3493 -0.1005  0.0093
 5148SOL    HW227078   1.317   1.212   5.887  1.1730  1.2475  0.2147
 5149SOL     OW27079   3.565   3.299   2.234  0.0343  0.5043 -0.0479
 5149SOL    HW127080   3.599   3.212   2.214  0.0633  0.2995  0.8878
 5149SOL    HW227081   3.485   3.292   2.182 -2.2026 -2.2933  3.6903
 5150SOL     OW27082   0.744   3.244   3.560 -0.2906 -0.1714 -0.0163
 5150SOL    HW127083   0.658   3.284   3.573  0.2936  0.9937  0.2786
 5150SOL    HW227084   0.732   3.160   3.604  0.5349 -0.0514  0.4459
 5151SOL     OW27085   3.343   3.899   3.752  0.1809  0.6039 -0.0779
 5151SOL    HW127086   3.432   3.863   3.746  1.0776  2.5666  1.7336
 5151SOL    HW227087   3.294   3.823   3.719 -0.3091  0.7954  0.2246
 5152SOL     OW27088   4.719   0.188   7.025  0.0702  0.4412 -0.3957
 5152SOL    HW127089   0.062   0.140   6.995 -0.9720 -0.7130 -1.2548
 5152SOL    HW227090   4.652   0.130   6.989  0.2010  0.6407 -0.9535
 5153SOL     OW27091   4.195   1.504   5.680 -0.1886 -0.3252  0.1661
 5153SOL    HW127092   4.196   1.420   5.633  0.7076 -0.4113  0.3268
 5153SOL    HW227093   4.256   1.480   5.750  0.1100  2.0417  0.6945
 5154SOL     OW27094   2.714   4.239  11.338 -0.4588  0.0004 -0.1096
 5154SOL    HW127095   2.730   4.158  11.291  2.1313 -0.4517  1.5515
 5154SOL    HW227096   2.720   4.298  11.263  1.2150 -0.8367 -0.6326
 5155SOL     OW27097   2.672   2.927   2.748  0.0018  0.2946  1.0179
 5155SOL    HW127098   2.703   2.865   2.814 -0.9135 -0.1752  1.0047
 5155SOL    HW227099   2.749   2.920   2.691 -0.6284 -2.6305  0.5050
 5156SOL     OW27100   0.209   0.825  12.096  0.3379 -0.7567  0.4341
 5156SOL    HW127101   0.275   0.757  12.079  0.9948 -0.6715  2.6111
 5156SOL    HW227102   0.150   0.804  12.024 -1.1247 -0.2408  1.4858
 5157SOL     OW27103   3.781   4.151   4.408 -0.2800 -0.4914  0.1885
 5157SOL    HW127104   3.818   4.218   4.464 -0.6269 -0.2887  0.1764
 5157SOL    HW227105   3.708   4.110   4.455 -0.3364 -1.3802 -0.6672
 5158SOL     OW27106   1.333   3.259   3.682  0.5414 -0.0808 -0.0373
 5158SOL    HW127107   1.312   3.223   3.768  1.0382  1.6918  0.8253
 5158SOL    HW227108   1.390   3.330   3.709 -0.1329  0.8267 -1.0069
 5159SOL     OW27109   1.820   0.973   2.060  0.3873  0.3057 -0.2241
 5159SOL    HW127110   1.894   0.922   2.030 -0.6463 -1.5649  0.4244
 5159SOL    HW227111   1.742   0.950   2.010  1.0038 -1.0359 -0.5369
 5160SOL     OW27112   0.993   4.497   7.824 -0.1333 -0.3016  0.3521
 5160SOL    HW127113   0.929   4.431   7.851  0.2096  0.2204  2.4857
 5160SOL    HW227114   1.078   4.456   7.834 -1.0429 -2.0953  0.7524
 5161SOL     OW27115   0.257   3.378   6.119 -0.3890 -0.0005  0.4310
 5161SOL    HW127116   0.335   3.354   6.169  0.9067  1.6959 -0.7401
 5161SOL    HW227117   0.220   3.290   6.113  1.9749 -1.0058  0.5774
 5162SOL     OW27118   0.051   3.282   9.067 -0.1280  0.0773  0.2527
 5162SOL    HW127119   0.097   3.332   8.999 -0.6353 -0.6125 -0.5938
 5162SOL    HW227120   0.109   3.213   9.096  0.6950  0.6441 -0.0504
 5163SOL     OW27121   2.385   2.631   2.249 -0.1773  0.7852  0.0517
 5163SOL    HW127122   2.304   2.612   2.201 -0.0963  2.4392 -0.7441
 5163SOL    HW227123   2.418   2.708   2.203  3.5762 -0.7243  0.2207
 5164SOL     OW27124   4.174   3.286   7.739  0.2664  0.0911  0.1852
 5164SOL    HW127125   4.081   3.276   7.757 -0.1684  1.8688 -1.0489
 5164SOL    HW227126   4.175   3.353   7.671 -2.0045 -1.4137 -1.2859
 5165SOL     OW27127   2.718   3.293   4.841 -0.1385 -0.0428  0.1943
 5165SOL    HW127128   2.700   3.245   4.922  0.8279 -1.5171 -0.4745
 5165SOL    HW227129   2.689   3.232   4.774 -0.7133  1.6661 -1.1234
 5166SOL     OW27130   3.626   4.350  15.316 -0.2094 -0.3109 -0.4614
 5166SOL    HW127131   3.550   4.360  15.374 -2.0334 -1.3861 -2.6671
 5166SOL    HW227132   3.619   4.260  15.286  0.2895 -1.4076  2.6807
 5167SOL     OW27133   3.827   0.490   4.028  0.3855  0.8360  0.2252
 5167SOL    HW127134   3.823   0.415   4.087 -0.4130 -0.3206 -1.3185
 5167SOL    HW227135   3.774   0.562   4.063 -0.8139  0.3693 -0.6298
 5168SOL     OW27136   1.907   2.040   2.601  0.3586  0.1685 -0.2358
 5168SOL    HW127137   1.974   1.976   2.625 -1.1434 -2.7383 -3.8273
 5168SOL    HW227138   1.863   2.039   2.686  1.1617  0.8593  0.1743
 5169SOL     OW27139   4.088   0.840  12.642  0.5671  0.3280  0.1129
 5169SOL    HW127140   4.056   0.916  12.691 -2.8066 -0.6168 -0.6303
 5169SOL    HW227141   4.056   0.768  12.695 -1.5894  0.3929 -1.1250
 5170SOL     OW27142   1.861   2.187   8.124 -0.6470 -0.0719  0.1756
 5170SOL    HW127143   1.941   2.150   8.161 -0.7520  0.7788  1.2756
 5170SOL    HW227144   1.817   2.110   8.089  0.1573 -0.6032  0.3423
 5171SOL     OW27145   3.719   1.677   9.141 -0.0589 -0.0826 -0.5826
 5171SOL    HW127146   3.778   1.605   9.119 -0.7940 -0.8918  0.0793
 5171SOL    HW227147   3.686   1.643   9.224  3.1920 -1.0537  0.3474
 5172SOL     OW27148   2.275   0.635  11.549  0.0577  0.0047  0.3652
 5172SOL    HW127149   2.321   0.603  11.627  1.4927  0.7531 -0.1684
 5172SOL    HW227150   2.324   0.582  11.486 -0.2014 -0.2365  0.3681
 5173SOL     OW27151   2.315   4.563   2.894  0.0243 -0.3770 -0.3173
 5173SOL    HW127152   2.330   4.471   2.873 -1.7430 -0.4476 -1.2665
 5173SOL    HW227153   2.236   4.588   2.845  0.6077  1.1846 -0.4620
 5174SOL     OW27154   1.002   3.213   6.460  0.2238  0.1126 -0.0090
 5174SOL    HW127155   0.912   3.241   6.443  0.0165 -0.7993 -0.3562
 5174SOL    HW227156   1.043   3.299   6.448  1.8775 -0.4843  1.3207
 5175SOL     OW27157   4.036   1.721   1.195  0.2273  0.0741  0.3463
 5175SOL    HW127158   4.065   1.660   1.128  1.1043 -1.0185  1.7248
 5175SOL    HW227159   3.949   1.752   1.169  0.9878 -1.1247 -3.5191
 5176SOL     OW27160   3.306   1.823  15.861 -0.3913  0.5377 -0.8765
 5176SOL    HW127161   3.256   1.900  15.837 -1.0200  0.3654 -0.1208
 5176SOL    HW227162   3.391   1.858  15.835 -0.1303  1.1371  0.7514
 5177SOL     OW27163   2.960   3.643   4.455 -0.0359  0.0107  0.1994
 5177SOL    HW127164   2.957   3.669   4.363 -0.8685 -1.0240 -0.0701
 5177SOL    HW227165   2.866   3.624   4.458  0.0137 -0.2976 -0.1810
 5178SOL     OW27166   3.813   3.320   3.910 -0.2136 -0.1167  0.0089
 5178SOL    HW127167   3.884   3.383   3.899 -0.6054  0.0872 -1.3598
 5178SOL    HW227168   3.864   3.258   3.963  0.5303  1.3422  0.9990
 5179SOL     OW27169   3.036   1.814   8.635 -0.3579  0.0172 -0.4585
 5179SOL    HW127170   2.991   1.808   8.719 -0.7572 -2.4995 -0.8569
 5179SOL    HW227171   2.976   1.870   8.585  2.6863  1.1144 -2.9116
 5180SOL     OW27172   0.441   4.305   6.626 -0.2759 -0.5742 -0.0248
 5180SOL    HW127173   0.449   4.382   6.683 -0.5577  0.6031 -1.5532
 5180SOL    HW227174   0.426   4.231   6.685 -1.7722  1.3190  1.9814
 5181SOL     OW27175   2.580   4.021   9.118 -0.5816  0.5156 -0.0103
 5181SOL    HW127176   2.541   4.107   9.135 -2.1777 -0.4484  1.1657
 5181SOL    HW227177   2.523   3.950   9.148 -0.5075  0.4895  0.0686
 5182SOL     OW27178   0.738   3.640   8.263  0.2504 -0.0998  0.4038
 5182SOL    HW127179   0.754   3.586   8.340  2.5614  3.4370  2.4271
 5182SOL    HW227180   0.741   3.722   8.313  3.9935 -1.1601  1.9020
 5183SOL     OW27181   1.561   0.934   6.287  0.2626  0.6845  0.1155
 5183SOL    HW127182   1.501   0.984   6.343 -2.3515  0.0781 -2.1199
 5183SOL    HW227183   1.561   0.990   6.209 -0.9303 -0.1321 -0.4696
 5184SOL     OW27184   4.386   2.126  16.104  0.3654  0.2586  0.1152
 5184SOL    HW127185   4.320   2.155  16.167  0.5871  2.3241 -0.6108
 5184SOL    HW227186   4.430   2.058  16.156  1.3797  1.6491  1.0603
 5185SOL     OW27187   0.455   0.165  16.404 -0.0495 -0.2564 -0.1229
 5185SOL    HW127188   0.509   0.243  16.417  1.2948 -1.0908 -0.7769
 5185SOL    HW227189   0.370   0.209  16.410 -0.5005 -1.1716  0.2119
 5186SOL     OW27190   1.868   1.575   5.194 -0.4927  0.5086  0.3261
 5186SOL    HW127191   1.815   1.586   5.273 -3.1564 -0.8691 -1.2668
 5186SOL    HW227192   1.951   1.606   5.231 -0.5051  0.4749  0.3826
 5187SOL     OW27193   4.216   1.409   8.641  0.4418 -0.0105 -0.4583
 5187SOL    HW127194   4.179   1.467   8.708  0.9364 -0.1342 -0.0832
 5187SOL    HW227195   4.183   1.325   8.673 -0.3260  1.0800  1.6297
 5188SOL     OW27196   1.937   3.107   8.386 -0.4340 -0.2883 -0.1656
 5188SOL    HW127197   1.881   3.087   8.311 -0.8817  1.4224 -0.2862
 5188SOL    HW227198   1.888   3.174   8.433  1.0901  0.9404 -0.3355
 5189SOL     OW27199   1.411   3.776   7.427 -0.3387  0.1279  0.0009
 5189SOL    HW127200   1.496   3.813   7.449 -0.5861 -1.4624  3.6716
 5189SOL    HW227201   1.356   3.854   7.416  0.2771  0.2327 -2.2388
 5190SOL     OW27202   1.739   4.125   8.354  0.5406 -0.3516 -0.2858
 5190SOL    HW127203   1.803   4.072   8.307  0.8605 -0.3975  0.2031
 5190SOL    HW227204   1.787   4.200   8.389  0.4424 -0.7372  0.6763
 5191SOL     OW27205   3.940   0.607   8.463 -0.3569  0.2655 -0.2502
 5191SOL    HW127206   3.875   0.631   8.396 -0.4250 -0.7841 -0.5653
 5191SOL    HW227207   3.882   0.595   8.538 -0.8033  1.6226 -0.3911
 5192SOL     OW27208   0.340   1.258   0.322 -0.3792  0.0816 -0.2454
 5192SOL    HW127209   0.416   1.272   0.266 -1.0869  0.0174 -1.2315
 5192SOL    HW227210   0.323   1.164   0.327 -3.6648  0.6100 -1.5697
 5193SOL     OW27211   3.868   0.156   8.101 -0.2365 -0.0413  0.3772
 5193SOL    HW127212   3.958   0.145   8.073 -0.6985  0.5291 -1.3444
 5193SOL    HW227213   3.826   0.076   8.069  2.7066 -1.6048  0.4815
 5194SOL     OW27214   3.086   3.241  13.531 -0.0971  0.6263  0.3527
 5194SOL    HW127215   3.173   3.267  13.559  0.0322  0.1943  0.3483
 5194SOL    HW227216   3.062   3.299  13.458  1.6055  0.8553 -0.0279
 5195SOL     OW27217   2.592   1.000   5.092 -0.1948  0.9098 -1.0040
 5195SOL    HW127218   2.681   1.029   5.073  0.8535 -2.4306 -1.3090
 5195SOL    HW227219   2.549   0.983   5.008 -3.3730 -2.0232  1.1722
 5196SOL     OW27220   2.394   3.105   5.584 -0.1090  0.2046 -0.3117
 5196SOL    HW127221   2.322   3.114   5.522  0.3923  1.0166 -0.7932
 5196SOL    HW227222   2.363   3.040   5.646  0.7510  0.9628  0.9314
 5197SOL     OW27223   3.274   2.453   6.569  0.3439 -0.2091  0.3550
 5197SOL    HW127224   3.210   2.383   6.559 -0.0945  0.1074  0.9561
 5197SOL    HW227225   3.306   2.460   6.479  0.4707  1.1331  0.4941
 5198SOL     OW27226   1.460   4.224   0.959 -0.5946  0.1457  0.0927
 5198SOL    HW127227   1.401   4.187   1.024 -2.4246  1.2988 -0.8975
 5198SOL    HW227228   1.446   4.174   0.879 -1.0437  1.0146 -0.3774
 5199SOL     OW27229   3.516   0.667   5.111 -0.1122 -0.2811  0.1823
 5199SOL    HW127230   3.513   0.718   5.030 -1.0539 -0.3596  0.1674
 5199SOL    HW227231   3.427   0.635   5.128 -0.3299  0.5979  0.6826
 5200SOL     OW27232   0.537   1.980   6.315 -0.1341 -0.3080 -0.0841
 5200SOL    HW127233   0.460   1.927   6.334  0.8606 -1.5001  0.7273
 5200SOL    HW227234   0.601   1.915   6.347  0.3027  0.4981  0.7051
 5201SOL     OW27235   4.037   4.089   9.870 -0.0693 -0.0495 -0.3442
 5201SOL    HW127236   4.049   4.155   9.938 -1.2888  0.4181 -0.5727
 5201SOL    HW227237   3.941   4.082   9.869 -0.2015  1.7191 -0.5983
 5202SOL     OW27238   2.768   4.293  13.308 -0.3270  0.2509 -0.2004
 5202SOL    HW127239   2.708   4.277  13.381 -0.5626  1.9464 -0.0250
 5202SOL    HW227240   2.715   4.269  13.231 -0.2254 -0.7209  0.0334
 5203SOL     OW27241   2.392   1.981   2.614  0.1337 -0.0417 -0.0651
 5203SOL    HW127242   2.401   2.044   2.543  1.3278  2.2486  2.1240
 5203SOL    HW227243   2.477   1.937   2.624  0.4482 -0.0199 -2.6092
 5204SOL     OW27244   2.909   1.743   6.294  0.6524 -0.1198 -0.1402
 5204SOL    HW127245   2.860   1.780   6.221 -0.7099 -0.8338  0.4108
 5204SOL    HW227246   2.961   1.820   6.321 -1.8193  0.7458  2.1824
 5205SOL     OW27247   1.541   1.626  16.000  0.3508  0.1233 -0.0556
 5205SOL    HW127248   1.509   1.537  15.985 -0.2251  0.4317 -0.6723
 5205SOL    HW227249   1.483   1.666  15.935  1.9543 -0.4182 -1.8218
 5206SOL     OW27250   1.800   1.654   8.925  0.2890 -0.0939  0.4613
 5206SOL    HW127251   1.720   1.651   8.872 -0.3289  0.9095  1.3263
 5206SOL    HW227252   1.763   1.621   9.007  1.1605 -0.8387  0.5514
 5207SOL     OW27253   1.069   2.505   7.790 -0.5881 -0.0877 -0.2047
 5207SOL    HW127254   1.128   2.452   7.737 -1.1610 -0.7220 -0.2120
 5207SOL    HW227255   1.069   2.590   7.747  1.1243  0.0368  0.0447
 5208SOL     OW27256   3.875   1.195   7.569 -0.7418 -0.2049 -0.3133
 5208SOL    HW127257   3.809   1.230   7.509 -2.1642  0.3361  1.5804
 5208SOL    HW227258   3.872   1.104   7.538  0.0515 -0.0111 -0.9562
 5209SOL     OW27259   0.358   2.860   7.796  0.1639 -0.1462 -0.1046
 5209SOL    HW127260   0.308   2.870   7.715 -0.5205 -0.7960  0.2336
 5209SOL    HW227261   0.412   2.939   7.787 -0.6407  0.3783 -0.3834
 5210SOL     OW27262   2.863   0.556   7.090  0.3983  0.7522  0.0378
 5210SOL    HW127263   2.902   0.581   7.174 -1.3475 -0.0544  1.0841
 5210SOL    HW227264   2.946   0.554   7.042  0.3162  0.8336 -0.1056
 5211SOL     OW27265   4.230   3.281   4.094  0.3217  0.1805  0.7311
 5211SOL    HW127266   4.185   3.239   4.020 -0.5922  0.8054  0.9332
 5211SOL    HW227267   4.159   3.291   4.157 -0.3863  1.8552 -0.3494
 5212SOL     OW27268   2.887   1.306   2.444 -0.3424 -0.0791 -0.6100
 5212SOL    HW127269   2.828   1.231   2.435  0.0498 -0.2895 -1.3231
 5212SOL    HW227270   2.972   1.274   2.416  0.2303  1.1731 -0.3168
 5213SOL     OW27271   3.481   3.811  14.611  0.3331  0.5499 -0.1087
 5213SOL    HW127272   3.544   3.766  14.667  0.1050 -0.1840 -0.4469
 5213SOL    HW227273   3.477   3.745  14.541  0.9951  0.0442  0.3287
 5214SOL     OW27274   2.021   3.236   3.084 -0.1346 -0.0101 -0.3360
 5214SOL    HW127275   2.020   3.140   3.076  0.3699 -0.0786  0.3667
 5214SOL    HW227276   2.101   3.245   3.032  0.0900  1.5003  0.2779
 5215SOL     OW27277   4.393   3.401   7.887  0.2290 -0.3829  0.2550
 5215SOL    HW127278   4.388   3.329   7.949 -1.2289 -1.5728 -1.2279
 5215SOL    HW227279   4.317   3.384   7.830  1.7377 -4.4431 -0.5479
 5216SOL     OW27280   4.349   2.500   5.894 -0.9625  0.4121 -0.2625
 5216SOL    HW127281   4.445   2.503   5.890 -0.7882 -2.1705  1.9639
 5216SOL    HW227282   4.327   2.577   5.946 -1.4079 -1.9121  2.9824
 5217SOL     OW27283   0.769   4.659   4.905  0.2593  0.0896 -0.2492
 5217SOL    HW127284   0.756   4.578   4.856  0.2025  0.4625 -0.8522
 5217SOL    HW227285   0.710   4.652   4.980  1.0000  0.5021  0.3841
 5218SOL     OW27286   1.097   0.718   1.062 -0.0624  0.1210 -0.1426
 5218SOL    HW127287   1.176   0.680   1.101  0.9721  2.3044 -0.1078
 5218SOL    HW227288   1.137   0.760   0.986 -1.1242  2.1502  0.4009
 5219SOL     OW27289   0.839   3.908   9.527 -0.0179 -0.1012 -0.1921
 5219SOL    HW127290   0.886   3.826   9.542  0.5046  0.4377  1.1075
 5219SOL    HW227291   0.785   3.902   9.606 -0.5336  0.5914 -0.4845
 5220SOL     OW27292   4.562   3.014   3.360  0.4501 -0.2997  0.1139
 5220SOL    HW127293   4.550   3.085   3.297  0.9881  1.3739  1.8733
 5220SOL    HW227294   4.573   3.055   3.446  2.7609  1.9957 -1.2715
 5221SOL     OW27295   1.064   1.566   8.532 -0.2417  0.4394  0.7453
 5221SOL    HW127296   1.006   1.639   8.553  2.2595  2.8257 -0.6297
 5221SOL    HW227297   1.144   1.619   8.525  0.3077 -0.5054 -0.1581
 5222SOL     OW27298   4.609   0.875   0.071  0.1026  0.2928  0.4307
 5222SOL    HW127299   4.547   0.824   0.019 -0.1200  0.6390  0.3659
 5222SOL    HW227300   4.607   0.822   0.151  2.6157 -0.8748 -0.2586
 5223SOL     OW27301   0.101   0.954   3.840  0.3995  0.2214  0.1705
 5223SOL    HW127302   0.154   0.894   3.789 -0.4051 -0.7790  0.5168
 5223SOL    HW227303   0.147   0.951   3.924  2.2583  2.0321 -0.7882
 5224SOL     OW27304   1.563   0.258  17.274  0.0687  0.3634 -0.0261
 5224SOL    HW127305   1.603   0.344  17.285 -0.9684  0.8444 -0.0001
 5224SOL    HW227306   1.522   0.234  17.357 -0.0950 -0.3944 -0.3235
 5225SOL     OW27307   1.999   1.887  16.062  0.7093  0.2108  0.4204
 5225SOL    HW127308   1.926   1.826  16.055  2.2750 -1.6672  0.7204
 5225SOL    HW227309   1.977   1.933  15.980  0.4237  0.6198  0.7245
 5226SOL     OW27310   2.891   3.111  14.114  0.4643  0.1611  0.6317
 5226SOL    HW127311   2.913   3.023  14.084  0.8590  0.5095 -0.1015
 5226SOL    HW227312   2.819   3.104  14.177  0.3031 -1.3908  0.2651
 5227SOL     OW27313   3.714   1.032   6.590  0.1320 -0.4065 -0.5239
 5227SOL    HW127314   3.702   0.948   6.635  1.0057  0.9259  2.1891
 5227SOL    HW227315   3.660   1.078   6.654  1.4679  0.2766  0.1148
 5228SOL     OW27316   1.988   0.156   4.407  0.2628  0.3411 -0.2429
 5228SOL    HW127317   1.965   0.227   4.347  0.9892  1.4313  0.7782
 5228SOL    HW227318   1.936   0.082   4.373  0.2475  0.3933 -0.3348
 5229SOL     OW27319   1.480   2.531   4.506 -0.2330 -0.0654  0.3573
 5229SOL    HW127320   1.395   2.575   4.500 -0.4080 -0.7245 -2.0283
 5229SOL    HW227321   1.460   2.463   4.442  0.0589  0.3200 -0.1469
 5230SOL     OW27322   4.463   3.801  12.386 -0.4235  0.6062  0.1849
 5230SOL    HW127323   4.370   3.794  12.410 -0.1148 -1.2854  0.8095
 5230SOL    HW227324   4.503   3.714  12.384  0.3201  0.9767 -0.9287
 5231SOL     OW27325   0.008   4.035  15.402 -0.6458  0.1725 -0.1410
 5231SOL    HW127326   0.103   4.025  15.402 -0.5907  0.6651 -0.6755
 5231SOL    HW227327   4.716   3.945  15.382 -0.2771 -0.1489  0.8448
 5232SOL     OW27328   0.197   0.809   6.845  0.2500 -1.2769  0.1495
 5232SOL    HW127329   0.132   0.781   6.780 -0.0418  0.7634 -0.4432
 5232SOL    HW227330   0.200   0.730   6.898  0.8036 -0.7511  0.9050
 5233SOL     OW27331   3.171   2.168   6.754 -0.5680 -0.4525 -0.0185
 5233SOL    HW127332   3.112   2.239   6.778  1.0877  0.8510  0.2570
 5233SOL    HW227333   3.132   2.155   6.667 -1.5602 -0.1962  0.3891
 5234SOL     OW27334   2.959   4.383   8.693  0.1807  0.4408  0.4212
 5234SOL    HW127335   2.982   4.350   8.780  1.0165  3.0520  1.2191
 5234SOL    HW227336   2.867   4.404   8.708  0.5749  0.9059  2.1790
 5235SOL     OW27337   0.621   2.651  14.331 -0.2136 -0.0507  0.7020
 5235SOL    HW127338   0.589   2.707  14.260 -2.2673 -1.3811  0.5739
 5235SOL    HW227339   0.561   2.577  14.340 -0.4656  0.0900  0.1789
 5236SOL     OW27340   3.646   4.185   8.256  0.0513 -0.5103  0.2728
 5236SOL    HW127341   3.557   4.186   8.221  0.9426  3.4419 -1.9400
 5236SOL    HW227342   3.642   4.244   8.331  0.0168  0.7365 -0.6914
 5237SOL     OW27343   1.862   1.587  13.149 -0.6128  0.3976  0.0610
 5237SOL    HW127344   1.913   1.520  13.193 -0.5443 -0.4062 -1.2295
 5237SOL    HW227345   1.825   1.636  13.222  0.1181 -1.4565  1.6603
 5238SOL     OW27346   2.265   1.494  10.580  0.3765  0.4331  0.2018
 5238SOL    HW127347   2.291   1.485  10.489 -0.1292 -0.4266  0.1482
 5238SOL    HW227348   2.187   1.439  10.576  0.0593  0.7828  1.3880
 5239SOL     OW27349   3.970   1.075   9.506 -0.4139  0.5624  0.0903
 5239SOL    HW127350   4.004   1.153   9.548  1.2893  0.2432 -0.7204
 5239SOL    HW227351   3.877   1.090   9.488 -0.4170 -0.1362 -0.4791
 5240SOL     OW27352   4.282   4.712   5.077 -0.2185 -0.1981 -0.1965
 5240SOL    HW127353   4.273   4.647   5.146 -3.1388 -0.2600 -0.6656
 5240SOL    HW227354   4.192   0.005   5.062 -0.3484 -0.6447 -0.2331
 5241SOL     OW27355   1.695   2.674   2.247 -0.4609 -0.2217 -0.1633
 5241SOL    HW127356   1.779   2.712   2.271  1.4838 -3.9498 -1.0819
 5241SOL    HW227357   1.709   2.638   2.159  0.8052 -0.3335  0.0802
 5242SOL     OW27358   4.425   3.555   6.069 -0.2116  0.7035  0.6840
 5242SOL    HW127359   4.375   3.474   6.066  1.5434 -0.3472 -0.2594
 5242SOL    HW227360   4.443   3.560   6.163 -2.0000 -0.2719  1.0573
 5243SOL     OW27361   4.349   3.782   5.974  0.0555  0.2270 -0.5877
 5243SOL    HW127362   4.259   3.769   5.944 -0.1436 -0.1162  0.1377
 5243SOL    HW227363   4.377   3.695   6.003  1.7125  0.5568 -1.1901
 5244SOL     OW27364   0.166   0.049   2.609  0.3193  0.8428  0.2829
 5244SOL    HW127365   0.260   0.067   2.615  0.5360 -0.0749 -0.2922
 5244SOL    HW227366   0.142   0.081   2.696 -0.1928  0.1397  0.3939
 5245SOL     OW27367   2.554   2.378  16.120  0.1678 -0.9198 -0.4985
 5245SOL    HW127368   2.590   2.334  16.197  0.9679 -0.5830 -0.6805
 5245SOL    HW227369   2.529   2.302  16.068  0.5501 -0.5796 -1.1660
 5246SOL     OW27370   1.407   3.411  11.550 -0.1638  0.1306 -0.3529
 5246SOL    HW127371   1.456   3.431  11.470  2.7519 -1.1986  1.0970
 5246SOL    HW227372   1.333   3.366  11.508  1.1622 -1.2249 -1.2377
 5247SOL     OW27373   4.349   1.459   9.300  0.7472 -0.1362  0.0606
 5247SOL    HW127374   4.355   1.541   9.250  2.6091  0.5231  1.3362
 5247SOL    HW227375   4.267   1.419   9.275 -0.0692  0.4493  1.7760
 5248SOL     OW27376   0.090   0.380   5.461  0.1485 -0.3185  0.1209
 5248SOL    HW127377   0.015   0.320   5.464  0.1399 -0.2386  1.7090
 5248SOL    HW227378   0.153   0.339   5.520 -1.4388 -2.1700  0.5604
 5249SOL     OW27379   4.292   1.825   6.197 -0.0805  0.1072 -0.2153
 5249SOL    HW127380   4.259   1.914   6.202  2.2957  1.1200 -2.2879
 5249SOL    HW227381   4.235   1.795   6.127 -3.4253  1.3699  1.9980
 5250SOL     OW27382   2.420   1.246   7.617  0.3996 -0.7817  0.1405
 5250SOL    HW127383   2.368   1.285   7.547  1.9588  0.6314 -0.2278
 5250SOL    HW227384   2.352   1.194   7.659 -2.0303 -0.6006 -3.5651
 5251SOL     OW27385   1.125   2.677  15.893  0.1467 -0.3892 -0.0084
 5251SOL    HW127386   1.099   2.617  15.964  0.0104  2.8725  2.6743
 5251SOL    HW227387   1.070   2.653  15.818 -1.3670  0.4547  0.8315
 5252SOL     OW27388   3.103   2.656  11.737 -0.1591 -0.2011 -0.5354
 5252SOL    HW127389   3.181   2.601  11.729  1.4986  2.3315 -1.5442
 5252SOL    HW227390   3.043   2.621  11.670 -0.4303 -0.9256  0.0842
 5253SOL     OW27391   3.478   1.470   8.230  0.9530  0.1556 -0.0560
 5253SOL    HW127392   3.519   1.545   8.188 -1.8707  2.2188  0.8591
 5253SOL    HW227393   3.389   1.505   8.238  0.6762 -0.2697 -1.3852
 5254SOL     OW27394   0.023   2.774   5.428 -0.0099 -0.2344  0.0611
 5254SOL    HW127395   0.116   2.760   5.446 -0.1053 -2.0949 -0.8890
 5254SOL    HW227396   0.013   2.842   5.494 -1.0939 -1.1528  0.8470
 5255SOL     OW27397   4.597   4.374   6.051  0.4327  0.0355 -0.9604
 5255SOL    HW127398   4.667   4.334   6.102  0.1578 -0.1123 -0.6968
 5255SOL    HW227399   4.550   4.428   6.114  1.6793 -2.5518  2.1677
 5256SOL     OW27400   3.883   1.687   5.072  0.3946  0.1952 -0.1496
 5256SOL    HW127401   3.895   1.628   5.147 -1.7950 -0.0814 -0.0043
 5256SOL    HW227402   3.892   1.767   5.124 -0.2620 -0.0075  0.2755
 5257SOL     OW27403   1.178   0.446   9.485 -0.6431 -0.1011  0.2129
 5257SOL    HW127404   1.196   0.507   9.557  0.4964 -0.4778  0.2560
 5257SOL    HW227405   1.101   0.486   9.445 -1.6128 -1.9015  0.2804
 5258SOL     OW27406   0.482   0.637   8.047  0.3947 -0.3002  0.6569
 5258SOL    HW127407   0.476   0.561   8.105 -0.6384 -2.3203 -2.1104
 5258SOL    HW227408   0.424   0.702   8.087 -2.2857 -1.1182 -1.8700
 5259SOL     OW27409   4.690   2.795   5.905  0.3411 -0.0871  0.0838
 5259SOL    HW127410   4.599   2.788   5.877  0.5567  0.8532 -0.8678
 5259SOL    HW227411   0.005   2.778   5.824 -1.0089 -1.0206 -0.5361
 5260SOL     OW27412   3.535   0.186   5.709 -0.4872 -0.2870  0.6501
 5260SOL    HW127413   3.628   0.163   5.699 -1.1794 -1.7687 -2.4105
 5260SOL    HW227414   3.537   0.279   5.687  0.0423 -0.8392 -1.5798
 5261SOL     OW27415   0.779   2.205   3.854  0.1743 -0.0203  0.2411
 5261SOL    HW127416   0.786   2.296   3.883  1.7549 -0.2258  0.4562
 5261SOL    HW227417   0.853   2.183   3.798 -0.5192 -1.0885 -0.2618
 5262SOL     OW27418   4.573   2.025   6.374 -0.3154  0.0944 -0.3731
 5262SOL    HW127419   4.535   2.101   6.419  0.6309  0.0342  0.5376
 5262SOL    HW227420   4.502   1.964   6.392 -1.3659  2.3487  2.9984
 5263SOL     OW27421   0.901   3.324   2.004 -0.7137 -0.1223  0.8574
 5263SOL    HW127422   0.834   3.283   2.059 -1.7118 -0.8561 -0.8925
 5263SOL    HW227423   0.981   3.273   2.010  0.5946  1.8991  0.4552
 5264SOL     OW27424   4.001   2.496   4.105  0.8833  0.2247 -0.7836
 5264SOL    HW127425   4.038   2.510   4.192  1.3136  0.2752 -0.9770
 5264SOL    HW227426   3.976   2.587   4.092 -0.5978 -0.2513 -1.2609
 5265SOL     OW27427   4.576   4.194   8.977  0.2971 -0.2032 -0.1793
 5265SOL    HW127428   4.535   4.231   9.055 -0.5374 -1.5881  0.0479
 5265SOL    HW227429   4.513   4.123   8.966  0.0743  0.3361 -2.5144
 5266SOL     OW27430   4.398   0.816   7.834 -0.0705 -0.2156 -0.4686
 5266SOL    HW127431   4.491   0.796   7.825  0.4859  1.8376  0.7719
 5266SOL    HW227432   4.392   0.912   7.833  1.6997 -0.0942  0.6077
 5267SOL     OW27433   0.531   3.943  17.248 -0.0786  0.1650  0.0965
 5267SOL    HW127434   0.547   3.861  17.295  3.3657  1.4278  1.1990
 5267SOL    HW227435   0.441   3.962  17.273 -0.0709  0.4447 -0.0808
 5268SOL     OW27436   2.255   1.950   3.849 -0.3511 -0.0223 -0.8158
 5268SOL    HW127437   2.310   1.874   3.829 -0.1247  0.7645 -3.1597
 5268SOL    HW227438   2.269   1.996   3.766 -4.2636  1.4628 -0.6639
 5269SOL     OW27439   1.249   3.550   8.330  0.3864  0.2822  0.2060
 5269SOL    HW127440   1.210   3.484   8.274  1.6037  0.0383 -0.3535
 5269SOL    HW227441   1.206   3.543   8.415 -0.3708  0.9841 -0.1155
 5270SOL     OW27442   2.095   1.708  10.600  0.2463  0.1622  0.0036
 5270SOL    HW127443   2.071   1.668  10.684 -2.6065  0.4219 -0.6922
 5270SOL    HW227444   2.166   1.647  10.581 -0.6361 -1.4471  1.8141
 5271SOL     OW27445   1.615   2.534  15.726 -0.7571 -0.3838 -0.1078
 5271SOL    HW127446   1.590   2.625  15.709  1.0917  0.0705 -0.4033
 5271SOL    HW227447   1.643   2.546  15.817 -0.0196  0.9024 -0.5089
 5272SOL     OW27448   1.315   3.490  16.831  0.2948  0.1846  0.8849
 5272SOL    HW127449   1.223   3.510  16.814  0.1588 -0.8399  0.3851
 5272SOL    HW227450   1.358   3.549  16.769 -2.8869  1.0803 -0.4635
 5273SOL     OW27451   0.662   2.120   5.971 -0.3995  0.3096  0.7178
 5273SOL    HW127452   0.739   2.157   5.929 -1.3347 -1.1535 -2.3097
 5273SOL    HW227453   0.637   2.191   6.031  0.9721  0.1115  1.5062
 5274SOL     OW27454   0.604   4.069   7.715  0.0405 -0.4328 -0.7485
 5274SOL    HW127455   0.520   4.112   7.699 -0.3747 -1.0552 -0.2580
 5274SOL    HW227456   0.659   4.148   7.722 -0.7110  0.1081 -0.9859
 5275SOL     OW27457   1.779   2.529   9.305 -0.0968  0.5870  0.0156
 5275SOL    HW127458   1.714   2.569   9.246 -0.3441  0.8715  0.4861
 5275SOL    HW227459   1.760   2.567   9.390  2.2331 -0.2715  0.9034
 5276SOL     OW27460   0.836   1.114  15.866 -0.4223 -0.5783 -0.3004
 5276SOL    HW127461   0.882   1.083  15.788 -0.6088 -0.6115 -0.3979
 5276SOL    HW227462   0.881   1.062  15.933 -1.1344 -2.6067 -1.3821
 5277SOL     OW27463   2.561   0.571   1.811  0.2643 -0.3239 -0.1233
 5277SOL    HW127464   2.501   0.590   1.883  0.2335 -0.9853  0.0335
 5277SOL    HW227465   2.561   0.649   1.755 -0.0379 -0.8219 -0.8216
 5278SOL     OW27466   1.183   3.136  12.197 -0.2348 -0.5341  0.3539
 5278SOL    HW127467   1.254   3.166  12.140 -0.4157  0.3619  0.5998
 5278SOL    HW227468   1.162   3.051  12.158  0.4283 -0.3769 -0.3503
 5279SOL     OW27469   3.876   1.475   9.057  0.2218  0.5912  0.2784
 5279SOL    HW127470   3.883   1.431   8.973 -1.3250  1.6361 -0.3981
 5279SOL    HW227471   3.946   1.441   9.113  0.6814  3.9036  1.6975
 5280SOL     OW27472   1.476   0.676   4.970  0.1516  0.4410 -0.1025
 5280SOL    HW127473   1.414   0.608   4.942  0.1319  0.2309  0.4494
 5280SOL    HW227474   1.559   0.637   4.941  0.4614 -0.1684  1.5638
 5281SOL     OW27475   0.133   0.378  15.098  0.3213  0.4935 -0.5127
 5281SOL    HW127476   0.225   0.369  15.072  0.4821 -0.9093  0.5127
 5281SOL    HW227477   0.133   0.407  15.189 -1.5749  0.7305 -0.5857
 5282SOL     OW27478   3.834   2.289  10.346 -0.3147  0.4220  0.2955
 5282SOL    HW127479   3.891   2.236  10.290 -2.2621 -2.7450  1.3212
 5282SOL    HW227480   3.751   2.277  10.299  1.2887  1.1166 -2.6952
 5283SOL     OW27481   2.111   2.239   1.743  0.1236 -0.2252 -0.4114
 5283SOL    HW127482   2.062   2.183   1.683 -2.5449  0.1755  1.3809
 5283SOL    HW227483   2.167   2.178   1.793  1.7272  0.4647 -1.3614
 5284SOL     OW27484   1.495   4.040   8.473  0.1521 -0.1967  0.4262
 5284SOL    HW127485   1.575   4.082   8.441  1.2380 -3.6957 -1.4642
 5284SOL    HW227486   1.452   4.107   8.526 -0.2739 -2.0672  2.4619
 5285SOL     OW27487   4.334   0.094  11.816  0.7849  0.6564 -0.1692
 5285SOL    HW127488   4.413   0.102  11.761  2.2842 -1.7163  1.6647
 5285SOL    HW227489   4.308   0.186  11.823 -0.8657  0.1416  0.4075
 5286SOL     OW27490   1.497   3.325   7.290  0.1414  0.0099 -0.3368
 5286SOL    HW127491   1.444   3.366   7.359  0.1395 -1.4728  0.5301
 5286SOL    HW227492   1.529   3.402   7.242 -1.3103  0.1941 -1.0093
 5287SOL     OW27493   2.382   0.660   8.650  0.7767 -0.0791  0.5034
 5287SOL    HW127494   2.471   0.636   8.625 -0.0612 -1.1467 -1.4914
 5287SOL    HW227495   2.382   0.661   8.745 -1.4839  3.2285  0.4543
 5288SOL     OW27496   0.073   2.889   3.598  0.7106 -0.0794 -0.6087
 5288SOL    HW127497   0.054   2.982   3.615 -1.3724 -0.9320  1.6518
 5288SOL    HW227498   0.142   2.884   3.663 -0.6463 -1.3848  0.7178
 5289SOL     OW27499   3.280   1.468   1.469  0.8874 -0.3416  0.0374
 5289SOL    HW127500   3.196   1.476   1.516  1.2657  0.5012  0.5769
 5289SOL    HW227501   3.268   1.401   1.402  1.1823 -0.7255  0.3677
 5290SOL     OW27502   3.528   3.169  13.774  1.1713  1.0912 -0.4784
 5290SOL    HW127503   3.477   3.088  13.772 -0.8334  2.2273  3.3405
 5290SOL    HW227504   3.554   3.173  13.866  3.1882 -0.2166 -0.9895
 5291SOL     OW27505   0.440   3.733  13.288  0.2486 -0.4924  0.2690
 5291SOL    HW127506   0.373   3.734  13.356  0.5499 -0.2329  0.5643
 5291SOL    HW227507   0.427   3.825  13.263 -0.9510 -0.2996  1.6519
 5292SOL     OW27508   4.019   2.877  10.830 -0.3953 -0.5999 -0.1321
 5292SOL    HW127509   3.977   2.828  10.901  0.6893  1.6217  2.0686
 5292SOL    HW227510   4.099   2.826  10.815 -0.4602 -1.2629  1.7947
 5293SOL     OW27511   1.475   1.381   2.858  0.2160 -0.1958  0.1385
 5293SOL    HW127512   1.441   1.466   2.884 -0.2500 -0.8100  1.5763
 5293SOL    HW227513   1.425   1.346   2.784  0.2420  0.1879 -0.0600
 5294SOL     OW27514   2.396   2.425   3.127 -0.2779  0.1606  0.4210
 5294SOL    HW127515   2.463   2.464   3.071 -1.4340 -0.4087 -1.3543
 5294SOL    HW227516   2.317   2.471   3.103 -2.4372 -1.8407  3.6029
 5295SOL     OW27517   1.199   4.349   5.045 -0.3567 -0.2264 -0.3425
 5295SOL    HW127518   1.247   4.424   5.010  1.9770 -1.7735 -0.4536
 5295SOL    HW227519   1.224   4.285   4.978 -2.8067  0.7287 -2.2044
 5296SOL     OW27520   2.371   3.491   7.969 -0.1189 -0.2956  0.1549
 5296SOL    HW127521   2.380   3.410   7.918 -2.4409  0.7800 -1.9914
 5296SOL    HW227522   2.387   3.550   7.895 -1.0520 -0.8191 -0.4645
 5297SOL     OW27523   1.601   1.258   4.530 -0.8098  0.3492 -0.0267
 5297SOL    HW127524   1.677   1.299   4.571  0.5730  0.1206 -2.3693
 5297SOL    HW227525   1.592   1.302   4.445  0.6183 -0.8535 -0.7947
 5298SOL     OW27526   1.043   4.344  11.571 -0.0682  0.0245  0.4131
 5298SOL    HW127527   1.134   4.330  11.595  0.5196  0.8645 -1.3117
 5298SOL    HW227528   0.998   4.327  11.653  1.3131  0.7398  1.3071
 5299SOL     OW27529   0.047   2.939   2.690  0.0018  0.1245 -0.3847
 5299SOL    HW127530   0.084   3.027   2.687  0.2476 -0.0083 -1.4768
 5299SOL    HW227531   4.705   2.942   2.747 -1.1906 -1.4708 -1.9061
 5300SOL     OW27532   4.583   2.017  11.314 -0.0922  0.1875 -0.0032
 5300SOL    HW127533   4.515   2.083  11.329 -2.8748 -2.8915  0.8099
 5300SOL    HW227534   4.623   2.015  11.401  0.3714  2.0158 -0.1772
 5301SOL     OW27535   0.342   1.603   1.758  0.4473  0.2922 -0.5721
 5301SOL    HW127536   0.247   1.609   1.749  0.2630 -1.8633 -0.0472
 5301SOL    HW227537   0.350   1.635   1.848  0.5530 -0.5814 -0.2738
 5302SOL     OW27538   3.831   4.690  11.454  0.3413 -0.2461  0.1579
 5302SOL    HW127539   3.841   0.050  11.466 -1.1763  0.0875 -1.0954
 5302SOL    HW227540   3.813   4.660  11.543  2.1349  0.5769  0.7852
 5303SOL     OW27541   4.407   4.081   4.439  0.0540 -0.1825 -0.0009
 5303SOL    HW127542   4.375   4.166   4.469 -0.2279  0.6851 -2.7900
 5303SOL    HW227543   4.497   4.082   4.472  0.5514 -1.1482 -1.3345
 5304SOL     OW27544   3.012   2.460  17.192  0.2350 -0.0040  0.3850
 5304SOL    HW127545   3.029   2.379  17.144  1.0196  0.4160 -0.0501
 5304SOL    HW227546   3.002   2.521  17.119 -0.3181 -0.4792  0.0635
 5305SOL     OW27547   3.279   2.930   4.720  0.3069 -0.0839 -0.7679
 5305SOL    HW127548   3.363   2.934   4.766  0.1592  2.2160 -0.6768
 5305SOL    HW227549   3.256   2.844   4.753  1.7813 -0.0719  0.3094
 5306SOL     OW27550   1.953   1.996   1.251 -0.4880 -0.4867  0.2312
 5306SOL    HW127551   1.941   2.072   1.194 -1.6424 -3.6685 -3.7559
 5306SOL    HW227552   1.862   1.968   1.256 -0.8501  0.3837 -1.6043
 5307SOL     OW27553   2.289   4.392   0.790  0.4083  0.5393 -0.1903
 5307SOL    HW127554   2.295   4.296   0.787  0.2637  0.3932  4.0204
 5307SOL    HW227555   2.337   4.393   0.873  0.3667 -0.2603 -0.1555
 5308SOL     OW27556   4.443   0.706  16.416 -0.1627 -0.2256  0.6089
 5308SOL    HW127557   4.505   0.639  16.388 -1.8320 -1.0951 -0.9830
 5308SOL    HW227558   4.396   0.718  16.334  0.9539  0.3355  0.0431
 5309SOL     OW27559   1.513   1.501   7.338 -0.1105  0.1314 -0.5594
 5309SOL    HW127560   1.419   1.482   7.334 -0.5466  2.8799 -3.4943
 5309SOL    HW227561   1.545   1.452   7.262  0.7463 -1.3126  0.7422
 5310SOL     OW27562   3.867   1.268   1.364 -0.3641  0.1397 -0.2540
 5310SOL    HW127563   3.847   1.187   1.410 -1.9069  0.3611 -0.5120
 5310SOL    HW227564   3.959   1.259   1.339  0.5423 -1.9639  3.9602
 5311SOL     OW27565   1.608   2.849   2.432  0.2135  0.2299  0.3347
 5311SOL    HW127566   1.627   2.767   2.387 -0.3929 -1.6493  3.5315
 5311SOL    HW227567   1.696   2.865   2.465  1.0268 -0.2248 -1.6255
 5312SOL     OW27568   2.375   2.678   1.599 -0.3628  0.0519  0.2462
 5312SOL    HW127569   2.438   2.606   1.602 -1.3623 -0.8660 -0.7648
 5312SOL    HW227570   2.297   2.623   1.592  0.7145 -1.3064 -1.1356
 5313SOL     OW27571   2.947   4.670   5.352 -0.5299 -0.2043 -0.3794
 5313SOL    HW127572   2.930   4.681   5.446 -0.1264 -0.2785 -0.2943
 5313SOL    HW227573   2.863   4.706   5.325 -0.4876  0.4840  0.3899
 5314SOL     OW27574   0.811   3.624  15.028 -0.6954  0.0197  0.7785
 5314SOL    HW127575   0.786   3.618  15.120 -0.7128 -0.1732  0.7604
 5314SOL    HW227576   0.735   3.660  14.981 -0.1316  0.8527  0.4896
 5315SOL     OW27577   1.610   4.213  16.621 -0.0403 -0.5520  0.0146
 5315SOL    HW127578   1.598   4.276  16.692 -2.0166 -0.2300 -0.6080
 5315SOL    HW227579   1.684   4.255  16.577  0.6713  0.2273  1.9697
 5316SOL     OW27580   1.411   0.418  11.617 -0.1098  0.3089 -0.6616
 5316SOL    HW127581   1.463   0.360  11.672 -2.1857 -0.0586  0.8791
 5316SOL    HW227582   1.472   0.444  11.547  1.7579 -0.9964  0.4870
 5317SOL     OW27583   3.757   3.917   2.735  0.0293  0.0995 -0.7542
 5317SOL    HW127584   3.811   3.992   2.758 -0.5437  0.2990 -0.0625
 5317SOL    HW227585   3.684   3.953   2.685 -0.9223 -0.7692 -0.0050
 5318SOL     OW27586   2.140   4.455   3.171  0.0341 -0.2490  0.1408
 5318SOL    HW127587   2.223   4.409   3.157  1.3182  1.9526  0.4525
 5318SOL    HW227588   2.138   4.464   3.267  0.1397  2.2513 -0.0998
 5319SOL     OW27589   1.246   0.705   7.300 -0.2320 -0.2901 -0.7584
 5319SOL    HW127590   1.222   0.613   7.303 -0.1492 -0.2634  0.4708
 5319SOL    HW227591   1.331   0.702   7.255  0.7097 -0.4447  1.0224
 5320SOL     OW27592   1.043   3.061   4.730 -0.6947  0.1955  0.3078
 5320SOL    HW127593   1.127   3.048   4.774 -0.7267 -1.4472 -0.1184
 5320SOL    HW227594   1.015   2.970   4.722  1.0345 -0.3027 -0.0922
 5321SOL     OW27595   0.064   2.666   9.062  0.2562 -0.1364 -0.5392
 5321SOL    HW127596   4.721   2.721   9.078  0.9834  0.7245 -0.0344
 5321SOL    HW227597   0.072   2.618   9.144  2.9970 -0.2210 -0.8731
 5322SOL     OW27598   0.688   1.449   9.477  0.3066  0.1462 -0.4383
 5322SOL    HW127599   0.606   1.479   9.517  0.3200 -1.6942  0.9930
 5322SOL    HW227600   0.670   1.355   9.476 -2.2220  0.5926  2.4678
 5323SOL     OW27601   3.561   2.457   0.067 -0.2716  0.0378  0.0559
 5323SOL    HW127602   3.470   2.486   0.065 -0.5255 -0.7531  0.3157
 5323SOL    HW227603   3.598   2.527   0.014 -0.7954 -0.7997 -1.4098
 5324SOL     OW27604   0.247   3.943   6.490 -0.7194  0.2820  0.2093
 5324SOL    HW127605   0.182   3.874   6.482 -0.7469  0.5306 -1.7555
 5324SOL    HW227606   0.212   3.998   6.560  0.3719  1.4005 -0.1275
 5325SOL     OW27607   3.780   4.224  14.020 -0.1919 -0.0512 -0.1443
 5325SOL    HW127608   3.816   4.139  13.995 -2.7178 -0.9451 -0.7059
 5325SOL    HW227609   3.773   4.276  13.939  1.9990 -4.1075 -2.9707
 5326SOL     OW27610   1.470   1.783   1.749 -0.1109  0.2204  0.5058
 5326SOL    HW127611   1.464   1.690   1.725  2.0220  0.3674 -0.5728
 5326SOL    HW227612   1.527   1.797   1.674 -0.3184  0.8160  0.4642
 5327SOL     OW27613   3.076   3.170   1.475  0.3210 -0.3371 -0.1046
 5327SOL    HW127614   3.088   3.159   1.381 -0.9897  2.2625 -0.5829
 5327SOL    HW227615   3.051   3.081   1.498  1.0189 -0.6648 -0.6163
 5328SOL     OW27616   4.244   2.319   1.909  0.1265 -0.1627  0.2472
 5328SOL    HW127617   4.205   2.405   1.893  2.1887  0.8116  0.4424
 5328SOL    HW227618   4.237   2.325   2.004  1.5182 -2.0364  0.4657
 5329SOL     OW27619   3.263   1.332   7.909  0.6206  0.2169 -0.3461
 5329SOL    HW127620   3.337   1.390   7.895 -0.8425  1.9423 -0.9142
 5329SOL    HW227621   3.273   1.297   7.998 -3.1784  0.7433  0.2749
 5330SOL     OW27622   0.415   1.533   7.902 -0.3369 -0.1264 -0.5017
 5330SOL    HW127623   0.473   1.550   7.976  0.1796  0.5251 -1.0559
 5330SOL    HW227624   0.461   1.488   7.832 -1.5438 -1.3527 -0.4965
 5331SOL     OW27625   1.440   2.438   0.974  0.4076 -0.1996  0.1730
 5331SOL    HW127626   1.490   2.369   1.019 -0.0557 -1.3699 -1.1224
 5331SOL    HW227627   1.511   2.499   0.953 -0.5277 -0.2739 -3.1565
 5332SOL     OW27628   1.298   1.257   1.046  0.7219  0.3970 -0.1108
 5332SOL    HW127629   1.350   1.218   1.115  1.2395  2.5315  0.7088
 5332SOL    HW227630   1.217   1.263   1.096 -0.0115  0.4661 -1.2860
 5333SOL     OW27631   0.027   3.007   8.895  0.1478  0.7405 -0.2734
 5333SOL    HW127632   0.071   3.063   8.958  1.7842  0.5119 -1.2069
 5333SOL    HW227633   0.008   3.073   8.828 -0.3854  0.6292 -0.2282
 5334SOL     OW27634   4.145   4.134   2.343 -0.7455 -0.2301 -0.8757
 5334SOL    HW127635   4.207   4.061   2.346  0.5898  0.8869 -1.6000
 5334SOL    HW227636   4.186   4.192   2.279  1.1028  0.1726  0.6847
 5335SOL     OW27637   4.473   1.100   8.840 -0.2401 -0.4574 -0.0745
 5335SOL    HW127638   4.540   1.033   8.824  1.8335  1.3689  0.8964
 5335SOL    HW227639   4.403   1.041   8.811 -0.0303 -0.7644  0.0431
 5336SOL     OW27640   2.872   0.729   2.349 -0.3308  0.5058  0.0377
 5336SOL    HW127641   2.821   0.649   2.333  0.7318 -0.4950  1.6729
 5336SOL    HW227642   2.911   0.730   2.436  0.5107 -0.5345 -0.3213
 5337SOL     OW27643   4.724   2.517  15.283 -0.1885  0.0418 -0.1534
 5337SOL    HW127644   4.656   2.544  15.222  0.2149  1.3177 -0.0561
 5337SOL    HW227645   0.039   2.459  15.226  2.0280  2.2229 -0.4858
 5338SOL     OW27646   2.987   1.540   8.557  0.7462  0.3574  0.1773
 5338SOL    HW127647   2.933   1.523   8.480 -0.7696  1.0794  1.0834
 5338SOL    HW227648   2.989   1.635   8.565  2.1177  0.6843 -4.4050
 5339SOL     OW27649   1.972   3.777   9.286  0.1266  0.1838  0.5622
 5339SOL    HW127650   1.881   3.805   9.295 -0.0903 -0.5262  0.5461
 5339SOL    HW227651   1.980   3.683   9.303 -1.1320  0.1904  1.1890
 5340SOL     OW27652   2.729   0.174   2.994 -0.3852 -0.0409  0.0444
 5340SOL    HW127653   2.694   0.086   3.009 -1.7985  0.4885 -0.0831
 5340SOL    HW227654   2.821   0.167   3.018 -0.5182  1.6222  1.0580
 5341SOL     OW27655   1.444   3.780   8.517 -0.1696 -0.1998 -0.2826
 5341SOL    HW127656   1.409   3.761   8.430  1.3619  0.3110 -1.0103
 5341SOL    HW227657   1.472   3.872   8.512  1.3049 -0.6517 -0.3464
 5342SOL     OW27658   3.204   2.994   9.318  0.3749 -0.3924 -0.2478
 5342SOL    HW127659   3.128   2.940   9.341 -1.1288  1.8241 -0.0179
 5342SOL    HW227660   3.263   2.988   9.393  0.6699  1.9998 -0.2730
 5343SOL     OW27661   4.221   2.658   7.825  0.3988  0.2637  0.3125
 5343SOL    HW127662   4.217   2.678   7.731 -3.7809  0.5226  0.5622
 5343SOL    HW227663   4.305   2.700   7.845 -1.4921  3.7031  1.0166
 5344SOL     OW27664   1.168   0.575   0.682 -0.2679 -0.1696 -0.2093
 5344SOL    HW127665   1.169   0.662   0.722  1.9453 -0.6674  0.8331
 5344SOL    HW227666   1.182   0.507   0.747 -2.6157 -1.5546 -1.1618
 5345SOL     OW27667   2.034   1.318   2.118  0.3865 -0.2615 -0.5114
 5345SOL    HW127668   2.126   1.340   2.106 -0.6386  3.8937 -0.9551
 5345SOL    HW227669   2.029   1.268   2.037  2.6703  0.3424 -1.0342
 5346SOL     OW27670   1.513   0.631  11.186 -0.2510  0.3169 -0.2729
 5346SOL    HW127671   1.482   0.701  11.243  1.1481 -0.2503  1.1947
 5346SOL    HW227672   1.538   0.557  11.242 -0.4157  0.4171 -0.0671
 5347SOL     OW27673   0.936   0.426   2.398  0.1162  0.6453  0.6992
 5347SOL    HW127674   0.980   0.502   2.436  0.7131  0.4330  0.4353
 5347SOL    HW227675   1.001   0.356   2.404  0.6816  0.9418 -1.9803
 5348SOL     OW27676   3.666   2.923   2.714  0.1058 -0.0165  0.0948
 5348SOL    HW127677   3.600   2.952   2.777  1.4846  0.3421  1.3741
 5348SOL    HW227678   3.620   2.966   2.642 -2.4618  0.3359  1.9279
 5349SOL     OW27679   1.633   2.396   6.810  0.3015  0.5560  0.1972
 5349SOL    HW127680   1.545   2.416   6.778  0.0272  0.1291  0.6720
 5349SOL    HW227681   1.632   2.300   6.803 -0.7223  0.5995 -0.1911
 5350SOL     OW27682   4.074   1.317   1.843  0.6099  0.5980  0.1617
 5350SOL    HW127683   4.145   1.334   1.782  0.6586 -0.8002 -0.1782
 5350SOL    HW227684   4.003   1.376   1.816  0.3481  0.6579  0.9607
 5351SOL     OW27685   0.715   0.258   7.325  0.2309  0.0147 -0.1633
 5351SOL    HW127686   0.795   0.310   7.325 -0.8013  1.6415 -3.6253
 5351SOL    HW227687   0.655   0.321   7.364  1.1992 -1.4564  3.6560
 5352SOL     OW27688   4.201   1.368  15.908  0.1534 -0.3666  0.3299
 5352SOL    HW127689   4.149   1.321  15.974  1.4558  1.8409  2.9511
 5352SOL    HW227690   4.250   1.296  15.868 -0.7235 -0.9794  0.3475
 5353SOL     OW27691   3.923   3.324   2.822 -0.2808 -0.1979  1.1638
 5353SOL    HW127692   3.828   3.311   2.833 -0.6356  0.9392 -0.5390
 5353SOL    HW227693   3.960   3.236   2.819  1.4144  0.6322 -1.8895
 5354SOL     OW27694   4.535   3.241   6.849  0.4926 -0.8830 -0.2880
 5354SOL    HW127695   4.464   3.178   6.862  0.5510 -0.9524 -0.3056
 5354SOL    HW227696   4.485   3.321   6.866 -0.5011 -1.4010 -0.7640
 5355SOL     OW27697   1.758   3.731  10.677 -0.0735  0.6005  0.1063
 5355SOL    HW127698   1.741   3.727  10.771 -1.5396 -0.5782 -0.2158
 5355SOL    HW227699   1.675   3.770  10.653 -0.5568  0.0868  0.9313
 5356SOL     OW27700   0.290   1.828  10.249 -0.3083 -0.0273  0.2272
 5356SOL    HW127701   0.303   1.907  10.196  0.2508  0.2119  0.7272
 5356SOL    HW227702   0.297   1.762  10.180  0.2274  1.3026 -0.9837
 5357SOL     OW27703   0.476   1.296   6.852 -0.3546  0.3814  0.3412
 5357SOL    HW127704   0.434   1.239   6.917  0.4187  0.1042  0.5971
 5357SOL    HW227705   0.465   1.246   6.772 -0.4229 -1.8611  1.7603
 5358SOL     OW27706   4.327   2.857   7.365 -0.4272  0.2160 -0.0117
 5358SOL    HW127707   4.355   2.830   7.277  1.2611 -0.4279  0.7341
 5358SOL    HW227708   4.414   2.862   7.402 -1.0473 -0.5711  1.5331
 5359SOL     OW27709   1.294   3.545   4.966 -0.3532  0.2802  0.4662
 5359SOL    HW127710   1.338   3.515   4.887  0.1654  0.3839  0.7215
 5359SOL    HW227711   1.229   3.603   4.927 -1.7626 -1.9324 -0.5131
 5360SOL     OW27712   1.562   4.582   6.481 -0.0107 -0.4206  0.6786
 5360SOL    HW127713   1.581   4.670   6.513 -0.4630  0.4438 -1.4131
 5360SOL    HW227714   1.484   4.603   6.429  0.2911  2.8722  1.5743
 5361SOL     OW27715   1.686   3.473   6.674 -0.8736  0.2299  0.0442
 5361SOL    HW127716   1.637   3.490   6.594 -0.3827 -1.2384 -0.5540
 5361SOL    HW227717   1.740   3.407   6.633 -1.6347  0.1371 -0.8109
 5362SOL     OW27718   3.605   2.887   6.554 -0.2139 -0.0419  0.3163
 5362SOL    HW127719   3.637   2.878   6.464 -0.9209  3.2077 -0.2552
 5362SOL    HW227720   3.512   2.866   6.544  0.0313 -0.8757 -0.2676
 5363SOL     OW27721   2.681   4.471   2.562 -1.1430  0.1883 -0.5896
 5363SOL    HW127722   2.622   4.428   2.625  1.5707 -0.6634  1.3693
 5363SOL    HW227723   2.729   4.399   2.521  0.6811  0.5519  0.9040
 5364SOL     OW27724   0.220   1.736   7.838 -0.0587 -0.2175 -0.0567
 5364SOL    HW127725   0.277   1.794   7.889 -1.1180 -0.7567  1.7458
 5364SOL    HW227726   0.253   1.647   7.848  1.0082  0.0771 -0.9319
 5365SOL     OW27727   2.962   1.672  11.864  0.0089 -1.1058  0.2106
 5365SOL    HW127728   2.994   1.741  11.805 -0.3274 -0.8431  0.3309
 5365SOL    HW227729   2.880   1.637  11.830  0.3113 -0.1336 -1.5075
 5366SOL     OW27730   1.855   1.016   6.180  0.9518  0.1282  0.0332
 5366SOL    HW127731   1.786   1.075   6.150  0.4034  0.2033  1.4283
 5366SOL    HW227732   1.895   1.062   6.254 -1.2094  0.1607  1.1676
 5367SOL     OW27733   0.280   0.382   6.793  0.0922 -0.2459 -0.2991
 5367SOL    HW127734   0.186   0.388   6.806 -0.0671 -1.3703 -0.9216
 5367SOL    HW227735   0.283   0.376   6.698  2.2701  1.9539 -0.3892
 5368SOL     OW27736   3.253   1.818  17.541  0.2435  0.3174  1.0472
 5368SOL    HW127737   3.197   1.894  17.525 -0.6912 -0.2272  1.6774
 5368SOL    HW227738   3.186   1.749  17.538 -0.5073  1.1314 -0.7288
 5369SOL     OW27739   1.816   0.153   5.473  0.1602  0.3136 -0.1278
 5369SOL    HW127740   1.896   0.182   5.516 -0.2181  2.4209 -0.8444
 5369SOL    HW227741   1.756   0.220   5.508 -1.5046 -1.3637  0.2476
 5370SOL     OW27742   2.452   1.124   7.892 -0.2665 -0.5776  0.3248
 5370SOL    HW127743   2.398   1.118   7.970 -2.0072  1.3324 -0.7129
 5370SOL    HW227744   2.530   1.172   7.918  1.2107 -2.7494 -0.1347
 5371SOL     OW27745   1.571   2.819   4.722  0.3991  0.0509 -0.1477
 5371SOL    HW127746   1.524   2.895   4.755  2.4312  0.6560  1.3342
 5371SOL    HW227747   1.657   2.861   4.718  0.1092  0.8381  2.1378
 5372SOL     OW27748   0.703   3.277   7.184  0.3777  0.1409  0.0371
 5372SOL    HW127749   0.744   3.202   7.227 -0.9046  1.0194  2.7882
 5372SOL    HW227750   0.737   3.277   7.094 -1.1492  2.2696 -0.5347
 5373SOL     OW27751   2.673   2.285   2.774  0.0202 -0.3702  0.3582
 5373SOL    HW127752   2.693   2.235   2.696  3.1432  0.5917  0.5584
 5373SOL    HW227753   2.739   2.354   2.765  0.2257 -0.2735  2.4603
 5374SOL     OW27754   0.918   3.192  11.648  0.6727  0.5287  0.2363
 5374SOL    HW127755   0.845   3.224  11.701 -0.8003 -1.7909 -0.4061
 5374SOL    HW227756   0.992   3.185  11.708 -0.3416 -0.0703  1.4112
 5375SOL     OW27757   0.231   2.533   8.904  0.2111  0.2135 -0.6711
 5375SOL    HW127758   0.183   2.450   8.908 -0.7953  0.8690  0.4819
 5375SOL    HW227759   0.175   2.592   8.954 -1.0572 -0.6315 -1.1050
 5376SOL     OW27760   0.712   4.195   7.404  0.0241  0.0449 -0.1266
 5376SOL    HW127761   0.732   4.105   7.429  0.4328 -0.0530 -0.8205
 5376SOL    HW227762   0.740   4.244   7.482 -2.5981  1.6892 -0.1996
 5377SOL     OW27763   2.518   3.281   6.967 -0.1413  0.6196 -0.2422
 5377SOL    HW127764   2.448   3.240   6.916  0.4550 -0.4724 -0.1838
 5377SOL    HW227765   2.539   3.361   6.919 -3.4927  0.9080 -1.2036
 5378SOL     OW27766   3.443   0.472   2.602  0.0092 -0.1005  0.3679
 5378SOL    HW127767   3.518   0.525   2.576  0.2989 -1.1541 -0.9752
 5378SOL    HW227768   3.465   0.395   2.549 -0.2239 -0.4716  0.8075
 5379SOL     OW27769   0.375   0.453   7.626 -0.3383  0.2093  0.0454
 5379SOL    HW127770   0.405   0.536   7.663 -0.5996 -0.0389  0.8139
 5379SOL    HW227771   0.286   0.479   7.600 -0.2641  0.2381 -0.1803
 5380SOL     OW27772   1.498   2.802   5.969  0.0687  0.6610  0.2979
 5380SOL    HW127773   1.473   2.794   5.876  0.4900 -2.6582  0.4819
 5380SOL    HW227774   1.437   2.872   5.995 -1.3130  0.8385 -3.3227
 5381SOL     OW27775   3.549   0.624   5.910 -0.3868  0.2901  0.0253
 5381SOL    HW127776   3.462   0.585   5.910 -0.2455 -0.0366 -0.8976
 5381SOL    HW227777   3.573   0.603   5.820 -0.3188 -2.2409  0.6374
 5382SOL     OW27778   1.631   2.364   2.014  0.5077  0.2405 -0.0396
 5382SOL    HW127779   1.693   2.296   2.039  2.3414  1.5186 -1.0920
 5382SOL    HW227780   1.593   2.379   2.100  0.5923  1.4370 -0.2113
 5383SOL     OW27781   4.363   2.224   2.394 -0.1075  0.3472  0.0718
 5383SOL    HW127782   4.442   2.264   2.357  0.1744  0.0001  0.3004
 5383SOL    HW227783   4.362   2.141   2.346 -0.0661  1.1339 -1.2996
 5384SOL     OW27784   2.238   0.925   6.850 -0.0326  0.7621  0.2360
 5384SOL    HW127785   2.252   0.856   6.915  0.6413  0.4939 -0.1993
 5384SOL    HW227786   2.201   0.987   6.913  1.3460  0.6182  1.1827
 5385SOL     OW27787   3.909   3.639  12.784 -0.2315  0.0601  0.7083
 5385SOL    HW127788   3.952   3.719  12.754 -0.3615  0.4718  1.6422
 5385SOL    HW227789   3.967   3.570  12.750  2.0535  1.6792  1.3484
 5386SOL     OW27790   0.358   1.347   9.014  0.6750 -0.0651 -0.1286
 5386SOL    HW127791   0.378   1.255   9.032  1.4615  0.3043  0.9073
 5386SOL    HW227792   0.266   1.331   8.997  0.4042  1.7463 -0.4061
 5387SOL     OW27793   0.719   1.902   2.593  0.0546  0.1246 -0.1852
 5387SOL    HW127794   0.746   1.840   2.526 -3.5542 -2.2966  0.5711
 5387SOL    HW227795   0.646   1.848   2.624  0.0036  0.9494  1.1375
 5388SOL     OW27796   3.003   3.565   3.030 -0.0991 -0.9214  0.0800
 5388SOL    HW127797   3.044   3.588   2.946  1.3564  0.7973  1.2507
 5388SOL    HW227798   2.984   3.655   3.057  0.6391 -0.4262 -1.0153
 5389SOL     OW27799   0.731   3.409   4.289  0.1038 -0.4175 -0.4915
 5389SOL    HW127800   0.708   3.502   4.287  0.1023 -0.4335 -1.1555
 5389SOL    HW227801   0.734   3.398   4.384  0.7263  0.1130 -0.4549
 5390SOL     OW27802   1.288   2.607   6.887 -0.1383  0.8048 -0.0843
 5390SOL    HW127803   1.305   2.573   6.975 -0.5673 -0.2948 -0.4202
 5390SOL    HW227804   1.327   2.538   6.833 -0.5541  0.6252 -0.1621
 5391SOL     OW27805   0.541   4.624  11.953 -0.4957  0.3936  0.8853
 5391SOL    HW127806   0.627   4.614  11.912 -1.3017 -3.4501  0.1307
 5391SOL    HW227807   0.554   4.582  12.039 -1.1715 -0.4743  0.5668
 5392SOL     OW27808   0.731   1.088   2.838 -0.3703  0.5596 -0.0163
 5392SOL    HW127809   0.680   1.062   2.915 -0.6867 -2.5312 -1.2766
 5392SOL    HW227810   0.748   1.179   2.866  2.4086 -0.4058  1.4893
 5393SOL     OW27811   1.812   4.522   0.898  0.2490 -0.2308  0.3896
 5393SOL    HW127812   1.731   4.487   0.861 -0.4090  0.5359  1.1196
 5393SOL    HW227813   1.796   4.502   0.991  0.8789 -0.7471  0.3888
 5394SOL     OW27814   3.655   0.630   6.503 -0.3531  0.8298 -0.3187
 5394SOL    HW127815   3.563   0.610   6.487 -0.4037  1.5292 -0.8604
 5394SOL    HW227816   3.695   0.611   6.418 -3.3722  1.6935 -1.9322
 5395SOL     OW27817   2.192   0.847   8.778  0.1872  0.0933  0.1280
 5395SOL    HW127818   2.128   0.797   8.829  0.8455  1.1689  2.0086
 5395SOL    HW227819   2.237   0.777   8.730  0.4452  0.7948 -0.6459
 5396SOL     OW27820   0.173   3.435   8.897  0.1401  0.0332  0.5208
 5396SOL    HW127821   0.140   3.380   8.826 -2.5963  0.1180  1.7324
 5396SOL    HW227822   0.248   3.482   8.861  0.6651  1.9235  4.1032
 5397SOL     OW27823   2.551   1.244   6.377 -0.6270 -0.2483  0.0870
 5397SOL    HW127824   2.581   1.281   6.294 -0.9316 -2.7852 -1.1480
 5397SOL    HW227825   2.623   1.184   6.398 -1.0565 -0.5915  0.5529
 5398SOL     OW27826   2.312   4.695  15.285 -0.2289 -0.4237  0.0429
 5398SOL    HW127827   2.290   4.602  15.296  1.1021 -0.6128  1.0105
 5398SOL    HW227828   2.407   4.685  15.281 -0.0956 -0.1380  2.5450
 5399SOL     OW27829   3.959   1.458   6.364  0.2106 -0.4040  0.4577
 5399SOL    HW127830   3.894   1.528   6.363  1.3249  0.6444  0.4233
 5399SOL    HW227831   3.913   1.385   6.324  0.5644 -0.7177  0.6202
 5400SOL     OW27832   1.014   3.956  14.430  0.8468 -0.6676 -0.4372
 5400SOL    HW127833   0.947   3.976  14.495 -1.0700 -3.0875 -1.6828
 5400SOL    HW227834   0.959   3.944  14.353 -0.2176  0.9821  0.0774
 5401SOL     OW27835   1.125   1.783   8.813 -0.2391  0.3300  0.3745
 5401SOL    HW127836   1.192   1.720   8.839 -0.6267 -1.6547 -3.3251
 5401SOL    HW227837   1.045   1.731   8.811  0.9448 -1.4998  0.9271
 5402SOL     OW27838   0.036   3.692   5.024 -0.1111 -0.2309 -0.0160
 5402SOL    HW127839   0.125   3.693   5.058  0.1942  1.1030 -0.8631
 5402SOL    HW227840   0.016   3.785   5.018  0.5139  0.0120  1.9328
 5403SOL     OW27841   3.200   0.733   3.658  0.5129 -0.1236  0.2236
 5403SOL    HW127842   3.171   0.655   3.706 -2.1427  2.1133  2.2729
 5403SOL    HW227843   3.192   0.698   3.570 -2.3203  0.8524  0.0965
 5404SOL     OW27844   0.359   3.791   4.751 -0.5336  0.6311 -0.3087
 5404SOL    HW127845   0.369   3.846   4.829 -0.0068  2.1667 -1.4687
 5404SOL    HW227846   0.284   3.832   4.709 -0.1027 -0.0901 -1.7841
 5405SOL     OW27847   2.461   3.739   9.351  0.4371 -0.9255  0.1656
 5405SOL    HW127848   2.438   3.752   9.443  2.6062  2.4877  0.2452
 5405SOL    HW227849   2.376   3.716   9.315  1.8357 -1.9553 -2.4876
 5406SOL     OW27850   2.413   1.098   4.849  0.6587  0.3166 -0.5096
 5406SOL    HW127851   2.467   1.177   4.856 -2.1316  2.3293 -1.9188
 5406SOL    HW227852   2.474   1.036   4.808 -0.5119 -2.1198  1.4073
 5407SOL     OW27853   4.340   1.276   0.950  0.1825 -0.4182 -0.5696
 5407SOL    HW127854   4.334   1.338   1.023 -1.3208 -0.6188 -0.5139
 5407SOL    HW227855   4.409   1.216   0.980  0.3233  0.7966  1.5559
 5408SOL     OW27856   2.749   2.503   4.965 -0.3291  0.0363  0.1562
 5408SOL    HW127857   2.654   2.492   4.962 -0.2987  0.1221 -1.3290
 5408SOL    HW227858   2.762   2.591   5.001  0.6957 -0.0391 -0.0355
 5409SOL     OW27859   2.270   1.758   3.271 -0.3381 -0.2204 -0.1036
 5409SOL    HW127860   2.328   1.735   3.343 -0.7059 -2.0540 -0.3976
 5409SOL    HW227861   2.182   1.742   3.306 -0.7267  1.0221 -0.5016
 5410SOL     OW27862   0.794   0.766   9.247  0.6310  0.5007 -0.0556
 5410SOL    HW127863   0.699   0.762   9.231  0.3146  0.8432  1.7945
 5410SOL    HW227864   0.810   0.852   9.208 -1.4488  0.9453  0.0332
 5411SOL     OW27865   2.456   1.769   8.919  0.3536  0.7173  0.2589
 5411SOL    HW127866   2.421   1.852   8.951  0.4248  1.4647 -1.6153
 5411SOL    HW227867   2.379   1.719   8.896  0.8301 -0.9157  2.1907
 5412SOL     OW27868   4.041   3.415   5.086  0.2111  0.2882 -0.2720
 5412SOL    HW127869   3.970   3.357   5.061  1.5146 -0.7296 -1.6689
 5412SOL    HW227870   4.081   3.443   5.003 -2.4711 -1.7471 -2.2408
 5413SOL     OW27871   2.534   3.984   6.961 -0.1437  0.0141 -0.1253
 5413SOL    HW127872   2.533   3.963   7.055 -1.4329 -0.5437 -0.2584
 5413SOL    HW227873   2.566   4.074   6.963 -1.5285  0.4761  1.1278
 5414SOL     OW27874   1.525   4.438   5.063 -0.0890  0.4228  0.6363
 5414SOL    HW127875   1.584   4.505   5.029 -0.3676  0.0594 -0.5736
 5414SOL    HW227876   1.478   4.422   4.981  1.1049 -0.7952  0.1939
 5415SOL     OW27877   4.278   0.834   0.839  0.4620  0.4732 -0.0249
 5415SOL    HW127878   4.196   0.866   0.800 -0.3763 -1.0735  0.4893
 5415SOL    HW227879   4.254   0.821   0.931 -1.4622  2.5333 -0.2332
 5416SOL     OW27880   1.594   2.652   8.515  0.1288 -0.3325 -0.1389
 5416SOL    HW127881   1.507   2.615   8.499 -0.7332  0.9984  1.4006
 5416SOL    HW227882   1.633   2.674   8.430 -1.5621  1.2451 -0.5061
 5417SOL     OW27883   2.868   2.380  10.934  0.4636 -0.1023 -0.0777
 5417SOL    HW127884   2.854   2.380  11.028  1.4459  0.8880  0.0578
 5417SOL    HW227885   2.834   2.465  10.906 -0.4186  0.6558  3.2915
 5418SOL     OW27886   0.210   3.435   7.443  0.3920  0.1021 -0.3736
 5418SOL    HW127887   0.222   3.513   7.497  0.5326  1.3181 -2.1794
 5418SOL    HW227888   0.127   3.449   7.398 -0.5988 -0.0207  1.4305
 5419SOL     OW27889   4.404   3.150   2.825 -0.5896 -0.2676  0.1926
 5419SOL    HW127890   4.316   3.121   2.801  0.7329 -2.7867 -1.5626
 5419SOL    HW227891   4.399   3.243   2.800  1.0464 -0.3034 -0.2262
 5420SOL     OW27892   2.617   2.659  13.351  0.0205  0.7647  0.3692
 5420SOL    HW127893   2.525   2.644  13.331 -0.0017  0.1799  0.9238
 5420SOL    HW227894   2.625   2.754  13.364  1.5374  0.4833  1.4327
 5421SOL     OW27895   2.266   2.331  16.849  0.3668 -0.4169  0.0735
 5421SOL    HW127896   2.261   2.238  16.870 -1.2047 -0.0724  1.2470
 5421SOL    HW227897   2.359   2.351  16.844  0.0799  0.1757 -3.1172
 5422SOL     OW27898   3.975   4.649  13.589 -0.0077  0.5630 -0.0614
 5422SOL    HW127899   3.944   4.700  13.514  0.3884  0.8463 -0.0292
 5422SOL    HW227900   3.983   4.710  13.662  2.9357  0.2749 -0.1261
 5423SOL     OW27901   1.572   1.178   7.789  0.1005 -0.0434 -0.0533
 5423SOL    HW127902   1.600   1.088   7.776 -0.7600 -0.0624 -1.7751
 5423SOL    HW227903   1.594   1.219   7.706 -0.7229 -0.7296 -0.6067
 5424SOL     OW27904   4.337   0.845   8.961  0.1038 -0.0077  0.1484
 5424SOL    HW127905   4.260   0.797   8.932 -0.8263  2.0924 -0.9154
 5424SOL    HW227906   4.323   0.860   9.054 -1.8212 -2.4082  0.2375
 5425SOL     OW27907   3.598   0.981   4.029  0.2703 -0.1038  0.3416
 5425SOL    HW127908   3.681   1.010   4.065  0.4689 -1.4732  1.0016
 5425SOL    HW227909   3.560   0.936   4.105 -1.0963 -0.5783 -0.6055
 5426SOL     OW27910   3.091   0.608   8.773 -0.0174  0.0315  0.2041
 5426SOL    HW127911   3.128   0.630   8.858 -1.7467 -1.5575  1.3685
 5426SOL    HW227912   3.155   0.538   8.755  0.0424 -0.0885  0.9112
 5427SOL     OW27913   3.328   0.038   1.446  0.0190 -0.4792 -0.1189
 5427SOL    HW127914   3.338   4.679   1.463  0.1425 -0.4177  0.1445
 5427SOL    HW227915   3.299   0.072   1.530 -1.2930  1.1875 -1.2353
 5428SOL     OW27916   1.350   2.605   3.409 -0.3430  0.4246  0.1758
 5428SOL    HW127917   1.367   2.593   3.315 -2.2944 -0.8240 -0.0115
 5428SOL    HW227918   1.255   2.589   3.404 -0.1836 -0.7524  1.2412
 5429SOL     OW27919   2.780   2.753   5.320  0.6302  0.2617 -0.1343
 5429SOL    HW127920   2.865   2.779   5.283  2.2601 -0.4565  3.0774
 5429SOL    HW227921   2.730   2.738   5.240  1.7924 -2.4625 -0.3380
 5430SOL     OW27922   4.494   4.561   2.457 -0.1701 -0.0874 -0.4246
 5430SOL    HW127923   4.422   4.607   2.501  1.0549 -0.5565  2.0806
 5430SOL    HW227924   4.541   4.640   2.431  0.9206 -0.6979 -0.3029
 5431SOL     OW27925   1.132   2.392   1.849  0.0038 -0.0548  0.4569
 5431SOL    HW127926   1.194   2.330   1.887 -2.5262 -3.5367 -1.1577
 5431SOL    HW227927   1.126   2.451   1.924  0.6667  0.5235  0.0605
 5432SOL     OW27928   1.647   4.326  17.254 -0.1623 -0.1380 -0.0223
 5432SOL    HW127929   1.702   4.306  17.178 -0.6124 -2.4191  0.2635
 5432SOL    HW227930   1.652   4.239  17.293 -0.7729  0.1250  0.6243
 5433SOL     OW27931   2.469   3.653   1.321 -0.1009 -0.7290  0.0292
 5433SOL    HW127932   2.530   3.582   1.299  0.9524  0.4994 -0.9945
 5433SOL    HW227933   2.411   3.642   1.246 -2.9971  2.5934  1.7543
 5434SOL     OW27934   2.905   0.830  13.473 -0.2739  0.6124  0.1719
 5434SOL    HW127935   2.962   0.882  13.417 -0.6322  0.7224 -0.0965
 5434SOL    HW227936   2.956   0.755  13.502 -1.1233  0.4748  1.3350
 5435SOL     OW27937   2.382   3.189  14.264  0.0484  0.3649 -0.5073
 5435SOL    HW127938   2.373   3.128  14.338 -0.7583  1.8316  0.6165
 5435SOL    HW227939   2.289   3.213  14.265 -0.2400 -0.6862 -3.1899
 5436SOL     OW27940   0.516   2.327   1.752  0.1662 -0.1559  0.3815
 5436SOL    HW127941   0.557   2.380   1.684  0.3759 -2.0155 -0.9452
 5436SOL    HW227942   0.424   2.353   1.747  0.1281 -0.8689 -2.4951
 5437SOL     OW27943   2.592   4.028   7.787 -0.0274 -0.4424 -0.0801
 5437SOL    HW127944   2.553   4.115   7.777 -0.0798 -0.7388 -2.4150
 5437SOL    HW227945   2.512   3.978   7.797  0.2570 -1.3189 -2.1466
 5438SOL     OW27946   1.480   4.148   0.022  0.4155 -0.1291 -0.0562
 5438SOL    HW127947   1.547   4.103   0.073  1.5734  1.8994  0.2124
 5438SOL    HW227948   1.448   4.216   0.081 -1.6261 -0.4783 -0.7436
 5439SOL     OW27949   2.089   0.475   4.712  0.4164 -0.3817 -0.7157
 5439SOL    HW127950   2.088   0.385   4.679 -3.0150 -0.2115 -1.1492
 5439SOL    HW227951   2.109   0.453   4.803  0.5140  1.6269 -0.2699
 5440SOL     OW27952   3.293   3.290   9.056  0.1945 -0.1629  0.4801
 5440SOL    HW127953   3.353   3.218   9.072  1.5947  0.5520 -1.5615
 5440SOL    HW227954   3.211   3.248   9.084 -1.4020  2.7540  0.2607
 5441SOL     OW27955   0.895   3.730  15.650  0.5020  0.5163  0.5233
 5441SOL    HW127956   0.870   3.752  15.740 -0.0640 -0.3914  0.5882
 5441SOL    HW227957   0.977   3.779  15.645 -0.2016  1.6546  0.1932
 5442SOL     OW27958   1.047   2.371   4.017  0.0116  0.3924 -0.4034
 5442SOL    HW127959   1.141   2.386   4.007  0.0809  1.3051  1.5940
 5442SOL    HW227960   1.019   2.457   3.985  3.8097  1.4474 -0.8665
 5443SOL     OW27961   1.053   3.684  10.058  0.1308  0.3560  0.5322
 5443SOL    HW127962   1.100   3.733  10.126 -0.7376  2.0495 -0.0680
 5443SOL    HW227963   0.977   3.742  10.045 -0.1371 -0.5586 -1.9881
 5444SOL     OW27964   0.864   3.693   2.076 -0.1149 -0.6231 -0.7694
 5444SOL    HW127965   0.874   3.663   1.986 -1.4180  0.5424 -1.2991
 5444SOL    HW227966   0.795   3.759   2.068 -0.4897 -0.6265  2.4025
 5445SOL     OW27967   0.197   4.338   1.367 -0.0681 -0.4570  0.3471
 5445SOL    HW127968   0.121   4.395   1.378 -1.5761 -2.7844  1.9616
 5445SOL    HW227969   0.233   4.387   1.293 -0.7214 -2.6173 -1.4478
 5446SOL     OW27970   3.527   4.639   6.104 -0.0427  0.2469  0.0850
 5446SOL    HW127971   3.441   4.610   6.135  0.1030 -2.2812 -1.8884
 5446SOL    HW227972   3.585   4.622   6.178 -0.4414  0.6052  0.4839
 5447SOL     OW27973   1.942   0.515   1.231  0.4249  0.0811 -0.3254
 5447SOL    HW127974   2.024   0.510   1.181  0.2919  0.2436 -0.5615
 5447SOL    HW227975   1.915   0.423   1.225  0.8521 -0.1685  1.8477
 5448SOL     OW27976   2.012   0.114  16.958  0.0693 -0.0079  0.7568
 5448SOL    HW127977   2.049   0.026  16.961  0.4096  0.0975 -0.2478
 5448SOL    HW227978   1.948   0.115  16.886  0.8708 -1.1434  0.0345
 5449SOL     OW27979   0.901   2.696   1.674 -0.2229  0.2847 -0.6163
 5449SOL    HW127980   0.921   2.788   1.696  1.5743  0.3523 -2.4657
 5449SOL    HW227981   0.991   2.669   1.654  0.9642  3.4810  0.3386
 5450SOL     OW27982   3.234   2.049   7.080  0.0869 -0.0981  0.0797
 5450SOL    HW127983   3.202   2.139   7.080  2.2019  0.6445  1.0185
 5450SOL    HW227984   3.283   2.041   7.162 -1.0054 -2.7415  0.5070
 5451SOL     OW27985   2.817   4.372   1.290  0.3450 -0.1025 -0.4476
 5451SOL    HW127986   2.877   4.322   1.235  0.3693  1.8450 -2.1568
 5451SOL    HW227987   2.873   4.406   1.359  0.0997 -0.2391 -0.1787
 5452SOL     OW27988   3.501   4.608   3.421  0.2810 -0.2616 -0.0598
 5452SOL    HW127989   3.522   4.666   3.494  2.5157  0.7962 -1.5295
 5452SOL    HW227990   3.408   4.595   3.438  0.1601  0.7926  0.0484
 5453SOL     OW27991   2.337   4.287   0.206  0.3828 -0.1226  0.1906
 5453SOL    HW127992   2.265   4.327   0.254  1.6338  0.8139  1.2679
 5453SOL    HW227993   2.408   4.328   0.254  0.6478 -1.6255  1.0791
 5454SOL     OW27994   0.421   2.731   6.041 -0.2498  0.2554 -0.1921
 5454SOL    HW127995   0.404   2.677   5.964 -0.5843  0.1965 -0.0773
 5454SOL    HW227996   0.443   2.811   5.993 -1.2391 -0.2511 -1.5075
 5455SOL     OW27997   0.032   4.545   9.450 -0.1326  0.7126 -0.7117
 5455SOL    HW127998   0.031   4.636   9.477  0.8514  0.5808 -0.2243
 5455SOL    HW227999   4.712   4.494   9.510 -1.5637  0.3980 -2.2611
 5456SOL     OW28000   4.177   3.421   3.692  0.3918 -0.5233  0.3542
 5456SOL    HW128001   4.230   3.343   3.706 -0.3660 -0.8180  1.6031
 5456SOL    HW228002   4.168   3.404   3.598 -1.3565  0.4319  0.3555
 5457SOL     OW28003   0.030   0.274   3.027 -0.0879  0.1791  0.3417
 5457SOL    HW128004   4.680   0.312   3.002 -0.4454 -0.7833  0.0940
 5457SOL    HW228005   0.050   0.337   3.096 -1.8482  0.5390  0.5187
 5458SOL     OW28006   3.948   3.817   7.846  0.6160 -0.5496 -0.0616
 5458SOL    HW128007   3.982   3.896   7.888 -2.7810  1.6390 -1.3955
 5458SOL    HW228008   3.922   3.767   7.923 -0.5269 -0.4397 -0.3729
 5459SOL     OW28009   2.469   3.704   6.838  0.1829  0.1455  0.2343
 5459SOL    HW128010   2.525   3.763   6.787 -0.6758  1.3893  0.7140
 5459SOL    HW228011   2.438   3.761   6.909  0.7428 -1.9528  2.1554
 5460SOL     OW28012   2.452   2.068   2.238 -0.4567 -0.3605 -0.4195
 5460SOL    HW128013   2.459   2.105   2.327 -0.9817  0.2998 -0.6498
 5460SOL    HW228014   2.392   2.134   2.201 -1.4527 -1.5582 -0.9311
 5461SOL     OW28015   3.023   3.229   5.886 -0.0999 -0.3141 -0.6459
 5461SOL    HW128016   2.993   3.139   5.898 -1.9264  0.3903  0.0366
 5461SOL    HW228017   3.112   3.217   5.852  0.1430  1.6052 -0.6535
 5462SOL     OW28018   0.986   0.038  13.953  0.5083 -0.1424  0.6232
 5462SOL    HW128019   1.003   0.126  13.921 -1.4024 -0.2910 -0.8003
 5462SOL    HW228020   0.957   4.733  13.870  1.8836  0.0804  0.0325
 5463SOL     OW28021   4.529   4.500   5.030 -0.0828 -0.7710 -0.5147
 5463SOL    HW128022   4.508   4.437   5.098  1.6198  1.9039  2.4713
 5463SOL    HW228023   4.528   4.443   4.953 -0.3041 -0.7810 -0.5028
 5464SOL     OW28024   1.799   3.630   3.589  0.3695 -0.0631 -0.1255
 5464SOL    HW128025   1.874   3.659   3.537  1.4836 -1.4144  0.7420
 5464SOL    HW228026   1.822   3.537   3.599  0.4892 -0.0218 -0.0254
 5465SOL     OW28027   3.308   0.906   7.046 -0.6756  0.4890 -0.3561
 5465SOL    HW128028   3.404   0.903   7.043 -0.5915  1.1902  1.3462
 5465SOL    HW228029   3.282   0.823   7.006  1.6299 -1.0656  1.3250
 5466SOL     OW28030   0.885   1.615   7.246 -0.4247  0.3960  0.0386
 5466SOL    HW128031   0.883   1.687   7.184  2.5056 -0.2942 -0.8661
 5466SOL    HW228032   0.951   1.653   7.304  0.9503 -0.8487 -0.7235
 5467SOL     OW28033   1.862   0.335  17.009  0.0161  0.1212  0.2975
 5467SOL    HW128034   1.927   0.266  16.996 -0.4088 -0.0362 -1.0360
 5467SOL    HW228035   1.898   0.405  16.955  0.0289 -0.8468 -0.9577
 5468SOL     OW28036   3.336   2.723   6.116  0.5416  0.2641  0.7268
 5468SOL    HW128037   3.419   2.756   6.081  1.3108 -0.0546  2.2641
 5468SOL    HW228038   3.302   2.670   6.043  0.9721 -0.3010  0.9381
 5469SOL     OW28039   1.459   3.394   2.248  0.7196 -0.3258 -0.1968
 5469SOL    HW128040   1.546   3.416   2.282  0.8637 -0.5706 -0.4044
 5469SOL    HW228041   1.400   3.463   2.279  1.0248 -0.1878  0.0863
 5470SOL     OW28042   3.636   4.300   8.527  0.5697 -0.1245 -0.4159
 5470SOL    HW128043   3.721   4.304   8.572  1.3986 -1.0084 -1.9101
 5470SOL    HW228044   3.619   4.394   8.534 -1.3090 -0.4358 -1.0135
 5471SOL     OW28045   2.704   2.450   8.512  0.3782 -0.1137 -0.6704
 5471SOL    HW128046   2.773   2.513   8.532  1.4123 -1.1417 -1.0149
 5471SOL    HW228047   2.632   2.513   8.516 -1.8768 -2.7838  0.5651
 5472SOL     OW28048   3.372   4.497   4.295 -0.1001  0.8512 -0.1580
 5472SOL    HW128049   3.326   4.461   4.219 -1.0164  1.6822  0.0086
 5472SOL    HW228050   3.307   4.544   4.347 -0.7194 -0.7605  0.5173
 5473SOL     OW28051   3.401   3.151   8.803  0.4478 -0.5819  0.4962
 5473SOL    HW128052   3.324   3.156   8.860 -1.1239  0.3476 -1.7163
 5473SOL    HW228053   3.463   3.111   8.864 -0.4296 -0.4860  1.4747
 5474SOL     OW28054   2.964   0.090   4.465 -0.4563 -0.4912  0.2449
 5474SOL    HW128055   3.013   0.148   4.523 -1.4205  1.1971 -0.6121
 5474SOL    HW228056   2.892   0.150   4.445 -0.7103 -0.3707  1.5388
 5475SOL     OW28057   0.403   0.999   5.862  0.2025  0.3597 -0.6170
 5475SOL    HW128058   0.316   0.990   5.822  0.4587 -2.6821 -0.4486
 5475SOL    HW228059   0.434   1.074   5.810 -1.3183  1.4634  0.0694
 5476SOL     OW28060   0.274   0.414   2.823 -0.2529  0.1128  0.7520
 5476SOL    HW128061   0.210   0.484   2.834 -1.3702 -0.9974  1.2776
 5476SOL    HW228062   0.265   0.405   2.728  0.1164  1.3750  0.6013
 5477SOL     OW28063   3.398   0.448   6.547 -0.7181  0.3071  0.3171
 5477SOL    HW128064   3.389   0.424   6.455 -2.6460 -0.1264  0.6117
 5477SOL    HW228065   3.476   0.401   6.577 -1.3592 -0.0296  1.4766
 5478SOL     OW28066   2.570   4.055   1.066  0.2556 -0.3464 -0.3911
 5478SOL    HW128067   2.610   4.030   0.982 -1.5436  1.2139 -1.7083
 5478SOL    HW228068   2.489   4.005   1.054  0.7187 -1.6786  2.0373
 5479SOL     OW28069   1.102   0.570   3.545  0.0268  0.4820 -0.4173
 5479SOL    HW128070   1.148   0.524   3.475 -0.6365  0.2877 -0.7329
 5479SOL    HW228071   1.096   0.498   3.609 -3.8120  2.6349  1.6664
 5480SOL     OW28072   4.187   0.734   3.634  0.0276 -0.2599  0.7340
 5480SOL    HW128073   4.130   0.684   3.575  1.6256  0.1856 -1.1614
 5480SOL    HW228074   4.116   0.792   3.662  0.0943 -0.6581  1.7420
 5481SOL     OW28075   1.214   4.628   3.674  0.3899  0.1889 -0.4489
 5481SOL    HW128076   1.220   4.700   3.611 -2.0963 -0.4736 -1.4189
 5481SOL    HW228077   1.295   4.580   3.660 -0.1581 -0.4638 -1.3516
 5482SOL     OW28078   0.247   2.823  14.223  0.0793 -0.1817 -0.2544
 5482SOL    HW128079   0.231   2.848  14.314 -0.9804 -0.7973 -0.2686
 5482SOL    HW228080   0.225   2.730  14.222 -1.0737  0.0921 -0.8899
 5483SOL     OW28081   3.988   1.586   9.339  0.5840 -0.3259 -0.9256
 5483SOL    HW128082   3.967   1.678   9.327  2.2809 -0.0133 -1.4952
 5483SOL    HW228083   4.030   1.590   9.424 -1.0146  1.7199 -0.2496
 5484SOL     OW28084   0.989   1.364  17.346  0.0160 -0.1545  0.1409
 5484SOL    HW128085   0.988   1.379  17.252 -0.3644 -1.5101 -0.0647
 5484SOL    HW228086   0.895   1.352  17.356 -0.1672  0.6043 -0.7536
 5485SOL     OW28087   0.255   2.448   4.519 -0.6630  0.0971  0.5017
 5485SOL    HW128088   0.309   2.526   4.505 -0.3496 -0.0214  1.0743
 5485SOL    HW228089   0.213   2.434   4.433  1.1061 -1.8194 -0.0475
 5486SOL     OW28090   4.462   4.223   7.738  0.4415  0.3410  0.2226
 5486SOL    HW128091   4.434   4.243   7.828  1.9605 -3.1797  1.4586
 5486SOL    HW228092   4.552   4.197   7.753 -0.3941 -0.6596  3.5376
 5487SOL     OW28093   4.051   2.759   5.638 -0.4925  0.4913  0.3911
 5487SOL    HW128094   4.011   2.720   5.716 -0.7931  0.4377  0.2124
 5487SOL    HW228095   4.126   2.701   5.624 -2.3089 -2.3240  2.1792
 5488SOL     OW28096   1.466   2.813   1.488  0.1010 -0.4382 -0.0663
 5488SOL    HW128097   1.426   2.737   1.447  0.1600 -0.3544 -0.2792
 5488SOL    HW228098   1.481   2.791   1.580 -0.3627 -1.9505 -0.3475
 5489SOL     OW28099   2.979   1.775   0.554 -0.4750 -0.1294  0.2763
 5489SOL    HW128100   3.005   1.795   0.644 -0.3843 -0.8243  0.4081
 5489SOL    HW228101   3.052   1.820   0.512 -1.0046 -0.5563 -1.0884
 5490SOL     OW28102   4.696   1.301   6.076  0.1249 -0.7401  0.0280
 5490SOL    HW128103   0.019   1.225   6.069  0.4542 -0.1330 -4.2462
 5490SOL    HW228104   4.723   1.333   6.162 -2.4774  0.7629  0.3130
 5491SOL     OW28105   2.365   4.581   1.932  0.3952 -0.0487  0.2281
 5491SOL    HW128106   2.386   4.674   1.926  0.5924 -0.0570  0.7686
 5491SOL    HW228107   2.441   4.533   1.898  1.2113  0.8687  0.7617
 5492SOL     OW28108   2.408   3.468  12.169 -0.2218 -0.0477 -0.0395
 5492SOL    HW128109   2.360   3.487  12.250  0.8205 -2.2969  1.0978
 5492SOL    HW228110   2.364   3.386  12.148 -0.7432  0.0660  0.6104
 5493SOL     OW28111   4.552   1.454   6.657  0.5014 -0.1675 -0.0141
 5493SOL    HW128112   4.586   1.382   6.605  1.3692  1.4499 -1.7027
 5493SOL    HW228113   4.580   1.531   6.607 -2.1419  0.6225 -0.2763
 5494SOL     OW28114   1.154   2.102   3.905 -0.5155  0.1150  0.1357
 5494SOL    HW128115   1.247   2.122   3.915  0.1417 -2.9940  0.2331
 5494SOL    HW228116   1.118   2.190   3.892 -0.0822  0.4791  1.3673
 5495SOL     OW28117   3.840   1.998   4.902 -0.3205 -0.6990  0.0101
 5495SOL    HW128118   3.835   1.994   4.998 -2.8573 -2.4093 -0.2149
 5495SOL    HW228119   3.898   1.925   4.879 -1.1219 -1.8962  1.8153
 5496SOL     OW28120   3.252   1.197   7.330 -0.2099  0.4292  0.0793
 5496SOL    HW128121   3.275   1.266   7.393 -2.6384 -0.2548  1.7288
 5496SOL    HW228122   3.288   1.237   7.251  0.3744 -0.3674 -0.0489
 5497SOL     OW28123   0.729   1.155   6.333 -0.0104  0.1475 -0.0823
 5497SOL    HW128124   0.651   1.177   6.283  0.0073  0.3357 -0.0279
 5497SOL    HW228125   0.705   1.196   6.416  0.8272 -0.0950  0.2826
 5498SOL     OW28126   1.246   4.204   5.289 -0.0914  0.1867  0.0388
 5498SOL    HW128127   1.192   4.247   5.223 -0.8152 -0.4956  0.1716
 5498SOL    HW228128   1.335   4.237   5.281  0.9460 -2.5216  0.3213
 5499SOL     OW28129   1.314   0.139   3.062  0.2652  0.1599 -0.2483
 5499SOL    HW128130   1.310   0.047   3.038  1.1272  0.3664 -1.1334
 5499SOL    HW228131   1.394   0.145   3.114  0.3657 -0.4573 -0.3356
 5500SOL     OW28132   3.042   1.731  14.393  0.1412 -0.7997  0.5140
 5500SOL    HW128133   3.127   1.762  14.362  0.1179 -1.6729 -0.4203
 5500SOL    HW228134   2.984   1.739  14.317 -0.3787  0.9554  1.1096
 5501SOL     OW28135   2.436   2.926   5.202 -0.7594 -0.2344 -0.2640
 5501SOL    HW128136   2.378   2.857   5.169 -2.5861  0.8259  0.7568
 5501SOL    HW228137   2.454   2.974   5.122 -0.0250  0.8547  0.5452
 5502SOL     OW28138   3.277   4.625  11.886 -0.6154  0.4309 -0.4127
 5502SOL    HW128139   3.246   4.581  11.808 -3.0426 -0.1184  0.8728
 5502SOL    HW228140   3.363   4.582  11.891 -0.1395  1.3528 -0.4940
 5503SOL     OW28141   4.537   1.936  17.423 -0.3013  0.0414 -0.1902
 5503SOL    HW128142   4.474   1.947  17.351 -0.8941 -2.0436  0.0017
 5503SOL    HW228143   4.514   1.849  17.457  3.3270 -0.4289  0.9909
 5504SOL     OW28144   2.292   3.304   9.233 -0.1116 -0.0211  0.1681
 5504SOL    HW128145   2.339   3.289   9.315 -2.1928  1.2403  1.5785
 5504SOL    HW228146   2.347   3.367   9.186 -0.3608 -0.0581 -0.1745
 5505SOL     OW28147   1.970   3.942   3.180  0.1447 -0.6146 -0.1535
 5505SOL    HW128148   1.982   4.033   3.152  1.8118 -0.8958 -0.3252
 5505SOL    HW228149   2.020   3.911   3.105  2.0632  2.7649 -0.2890
 5506SOL     OW28150   2.534   3.080   4.968  0.3602 -0.3336 -0.7056
 5506SOL    HW128151   2.573   3.024   4.901  1.3198 -0.6735  0.1616
 5506SOL    HW228152   2.470   3.117   4.906  0.8690 -0.2597 -1.1830
 5507SOL     OW28153   3.468   4.268   1.790 -0.4555 -0.2872 -0.1802
 5507SOL    HW128154   3.538   4.300   1.848 -0.1401 -1.5492  0.1303
 5507SOL    HW228155   3.403   4.249   1.857 -1.7592  0.4644 -1.2363
 5508SOL     OW28156   0.184   1.551   9.539  0.0190 -0.2871  0.2952
 5508SOL    HW128157   0.217   1.615   9.477  0.6224  0.8547  1.7810
 5508SOL    HW228158   0.153   1.486   9.476  0.0770  0.4396 -0.4790
 5509SOL     OW28159   1.995   0.210  15.364  0.0177  0.1829 -0.4313
 5509SOL    HW128160   1.929   0.232  15.299 -0.7772  1.2815  0.7631
 5509SOL    HW228161   1.953   0.255  15.437  1.2292  1.9808 -0.8237
 5510SOL     OW28162   3.903   2.792  13.755  0.4117 -0.1278  0.1152
 5510SOL    HW128163   3.848   2.832  13.688 -0.1114  1.0911  1.2491
 5510SOL    HW228164   3.980   2.776  13.701 -0.4645 -0.9132 -0.8857
 5511SOL     OW28165   2.212   0.904  13.330 -0.2329  0.1570  0.3088
 5511SOL    HW128166   2.306   0.919  13.335 -0.2475 -0.0499  1.2340
 5511SOL    HW228167   2.205   0.828  13.387  2.4034 -1.5529 -1.6658
 5512SOL     OW28168   0.890   0.162   6.862  0.3187 -0.1045  0.3578
 5512SOL    HW128169   0.818   0.164   6.799  0.8818 -0.5206 -0.3018
 5512SOL    HW228170   0.855   0.219   6.931  1.7254  1.5854 -0.3193
 5513SOL     OW28171   4.232   2.102   4.184  0.6081  0.0857 -0.1531
 5513SOL    HW128172   4.153   2.118   4.236  2.0319  0.5557  1.8353
 5513SOL    HW228173   4.257   2.190   4.156 -0.3960  0.3895 -0.1163
 5514SOL     OW28174   1.481   0.662   6.713 -0.5737  0.3214 -0.3535
 5514SOL    HW128175   1.443   0.750   6.709  0.6488  0.9136  0.8534
 5514SOL    HW228176   1.409   0.604   6.736  0.0428 -0.1989  0.2846
 5515SOL     OW28177   0.030   3.474   1.742 -0.1546  0.3241  0.5234
 5515SOL    HW128178   0.114   3.495   1.783 -0.6686  0.8027  1.3432
 5515SOL    HW228179   0.019   3.555   1.693 -1.7830  0.1207  0.5634
 5516SOL     OW28180   1.246   0.794  12.303  0.1596 -0.6455  0.9416
 5516SOL    HW128181   1.260   0.863  12.237  1.6169 -0.4970  1.4147
 5516SOL    HW228182   1.266   0.841  12.384  0.8529  1.1217 -0.2444
 5517SOL     OW28183   0.276   0.577  11.493 -0.2419 -0.2500 -0.4774
 5517SOL    HW128184   0.359   0.549  11.531 -0.4688 -1.3461 -0.7945
 5517SOL    HW228185   0.302   0.558  11.403  2.5302  0.3052  0.2111
 5518SOL     OW28186   3.100   1.017   5.714 -0.4921 -0.3728  0.0556
 5518SOL    HW128187   3.029   0.964   5.678 -1.1119 -0.9124  2.0900
 5518SOL    HW228188   3.059   1.059   5.789  1.5092 -0.7312  1.3701
 5519SOL     OW28189   0.378   3.763   1.615 -0.0257  0.3362  0.3606
 5519SOL    HW128190   0.427   3.840   1.644 -1.8602  1.0317  1.5991
 5519SOL    HW228191   0.296   3.779   1.660 -1.1542 -0.9911 -1.2314
 5520SOL     OW28192   0.850   3.068  12.946  0.2973  0.2142 -0.3641
 5520SOL    HW128193   0.922   3.006  12.943  1.4338  1.4481  1.3400
 5520SOL    HW228194   0.779   3.023  12.901  1.2412  1.2015 -2.8735
 5521SOL     OW28195   0.223   2.877  11.304  0.2947  0.2481 -0.0158
 5521SOL    HW128196   0.159   2.808  11.317 -2.0137  2.3241 -0.5099
 5521SOL    HW228197   0.255   2.848  11.218 -1.2927  2.4476 -1.3338
 5522SOL     OW28198   1.227   2.554   7.393  0.3764 -0.7464  0.1279
 5522SOL    HW128199   1.227   2.648   7.374 -3.8733 -1.0613 -1.3744
 5522SOL    HW228200   1.238   2.525   7.303 -3.1639  0.1335 -0.5857
 5523SOL     OW28201   1.415   1.320   6.424 -0.1184  0.5735  0.1549
 5523SOL    HW128202   1.488   1.371   6.460  1.7755 -2.2997  0.3624
 5523SOL    HW228203   1.432   1.340   6.331  0.4390  3.0470  0.7807
 5524SOL     OW28204   3.326   3.461   8.814 -0.3575  0.0220 -0.2529
 5524SOL    HW128205   3.309   3.406   8.890 -0.0647  0.2296 -0.0385
 5524SOL    HW228206   3.255   3.429   8.759  0.7675 -1.1683 -1.0158
 5525SOL     OW28207   3.712   3.478   1.789 -0.6056  0.3546 -0.0387
 5525SOL    HW128208   3.773   3.412   1.757 -0.1362  1.1065 -0.6981
 5525SOL    HW228209   3.631   3.427   1.789 -0.9991  0.9709  1.7298
 5526SOL     OW28210   0.118   3.388   5.831  0.6569 -0.2458 -0.7304
 5526SOL    HW128211   0.122   3.474   5.873 -0.2668  0.3453 -1.8522
 5526SOL    HW228212   0.024   3.390   5.813  0.3779 -0.5566  0.6651
 5527SOL     OW28213   2.764   0.362   1.774  0.4740  0.5155  0.0507
 5527SOL    HW128214   2.682   0.327   1.810  0.8269 -1.0790 -0.6948
 5527SOL    HW228215   2.726   0.435   1.724  0.2528 -0.1027 -0.6859
 5528SOL     OW28216   2.399   0.620   6.312 -0.4102  0.1756  0.0313
 5528SOL    HW128217   2.344   0.697   6.325  0.9422  1.1032  0.2825
 5528SOL    HW228218   2.383   0.613   6.218  1.3377 -1.2192 -0.1640
 5529SOL     OW28219   0.554   0.151  15.810 -0.2091 -0.3121 -0.3190
 5529SOL    HW128220   0.498   0.094  15.863  1.4220 -0.3089  1.3973
 5529SOL    HW228221   0.624   0.087  15.797 -0.0486  0.1573 -1.7603
 5530SOL     OW28222   2.030   4.467   6.990  0.3836  0.5618  0.4021
 5530SOL    HW128223   2.062   4.543   7.038 -0.8657  1.7064 -0.5605
 5530SOL    HW228224   1.948   4.495   6.948  0.6414  1.5162  0.5382
 5531SOL     OW28225   4.533   3.757  13.709  0.0740  0.2142  0.0287
 5531SOL    HW128226   4.562   3.706  13.785  0.7869  0.6504  0.0433
 5531SOL    HW228227   4.528   3.840  13.755  0.0317  0.1052  0.2206
 5532SOL     OW28228   2.787   3.966   5.098  0.4483  0.0069  0.0579
 5532SOL    HW128229   2.879   3.987   5.112 -0.0668  2.6914 -0.7398
 5532SOL    HW228230   2.751   3.987   5.184  2.5173 -0.3020  1.0056
 5533SOL     OW28231   1.506   2.574   3.023  0.1190 -0.3768 -0.0604
 5533SOL    HW128232   1.437   2.628   3.062  0.7636  0.4850 -0.1076
 5533SOL    HW228233   1.554   2.639   2.972  2.2511 -1.8325  0.1115
 5534SOL     OW28234   3.684   1.083   9.587  0.2367  0.2669  0.0228
 5534SOL    HW128235   3.697   1.041   9.672  3.5471  0.5883 -0.3431
 5534SOL    HW228236   3.706   1.172   9.615 -0.3822 -0.0237  1.4293
 5535SOL     OW28237   1.756   0.904  12.791  0.5577  0.2997  0.1965
 5535SOL    HW128238   1.679   0.937  12.837  0.3596  0.5055 -0.2841
 5535SOL    HW228239   1.815   0.913  12.866  1.1721 -0.1060 -0.2346
 5536SOL     OW28240   2.527   1.642   7.948 -0.2008 -0.3891 -0.1093
 5536SOL    HW128241   2.558   1.593   7.872 -2.6224  0.0071 -1.3496
 5536SOL    HW228242   2.580   1.721   7.946 -1.4396  0.4058 -1.1423
 5537SOL     OW28243   4.450   1.208   5.029  0.1966  0.0452 -0.0228
 5537SOL    HW128244   4.441   1.119   4.993 -1.7242  0.5830 -0.8495
 5537SOL    HW228245   4.446   1.198   5.124  0.4385  1.5340  0.1341
 5538SOL     OW28246   2.342   3.553   8.486  0.4619  0.3246 -0.0007
 5538SOL    HW128247   2.376   3.465   8.498 -0.8362  0.0003  1.3238
 5538SOL    HW228248   2.249   3.532   8.471  1.1279 -3.1059  0.6830
 5539SOL     OW28249   1.844   4.598   1.860  0.1885 -0.5337  0.3831
 5539SOL    HW128250   1.781   4.548   1.911 -0.4276 -0.9298 -0.7534
 5539SOL    HW228251   1.904   4.621   1.931 -0.8669 -2.6907  1.9764
 5540SOL     OW28252   0.219   0.744   8.711 -0.0168  0.7043 -0.8599
 5540SOL    HW128253   0.133   0.704   8.697  0.1406  0.4313 -1.0237
 5540SOL    HW228254   0.269   0.701   8.642  2.3224 -0.7519  1.7692
 5541SOL     OW28255   2.934   0.369  17.538  0.4109  0.8699 -0.0499
 5541SOL    HW128256   2.976   0.284  17.549 -0.5793  0.0916 -2.1745
 5541SOL    HW228257   2.850   0.344  17.577 -1.1672 -0.3994 -4.1870
 5542SOL     OW28258   2.494   3.331  16.941 -0.2522  0.0420 -0.1718
 5542SOL    HW128259   2.510   3.370  17.027 -0.3741 -1.5929  0.6018
 5542SOL    HW228260   2.492   3.236  16.956 -0.0530  0.5195  2.8113
 5543SOL     OW28261   0.597   3.070   9.287 -0.1928 -1.0124 -0.1147
 5543SOL    HW128262   0.574   3.073   9.194 -1.9285  3.6588  0.4861
 5543SOL    HW228263   0.518   3.028   9.323  1.0260 -1.7123  1.7439
 5544SOL     OW28264   2.246   3.502   1.364 -0.2316  0.3457 -0.8545
 5544SOL    HW128265   2.339   3.523   1.371 -0.3040 -0.2087  1.5366
 5544SOL    HW228266   2.221   3.594   1.376  1.7727  0.7317  0.3384
 5545SOL     OW28267   4.405   0.115   0.591 -0.7411  0.5449  0.3710
 5545SOL    HW128268   4.399   0.201   0.633  3.7825  0.8474  0.4243
 5545SOL    HW228269   4.419   0.064   0.671 -0.3287 -0.7607 -0.5455
 5546SOL     OW28270   2.224   1.635   8.835  0.2982  0.0028 -0.1486
 5546SOL    HW128271   2.157   1.703   8.839  0.4357  0.2065 -1.3517
 5546SOL    HW228272   2.175   1.572   8.887 -0.5151  0.9908  0.2705
 5547SOL     OW28273   0.435   3.887  15.177  0.3474 -0.5163 -0.4385
 5547SOL    HW128274   0.465   3.803  15.143  1.3389 -0.1318 -0.4937
 5547SOL    HW228275   0.432   3.925  15.090 -1.0321  1.6574  0.5363
 5548SOL     OW28276   0.530   2.857   0.471  0.3626  0.1020  0.4639
 5548SOL    HW128277   0.473   2.934   0.472  1.5186  0.9697 -0.8793
 5548SOL    HW228278   0.465   2.788   0.485 -0.8081  1.0500 -0.2317
 5549SOL     OW28279   0.499   2.374   1.459  0.2395 -0.0501 -0.0245
 5549SOL    HW128280   0.556   2.430   1.406  2.7853  0.4876  3.2974
 5549SOL    HW228281   0.504   2.289   1.415 -2.2134 -1.1826  1.9185
 5550SOL     OW28282   3.728   0.620  16.635  0.4101 -0.5126  0.0155
 5550SOL    HW128283   3.664   0.684  16.667  0.5833 -0.7615  0.8480
 5550SOL    HW228284   3.740   0.640  16.542 -0.9377  0.4308  0.0414
 5551SOL     OW28285   0.549   3.919   9.395 -0.0719 -0.5585 -0.8195
 5551SOL    HW128286   0.559   3.832   9.357  1.1477 -0.8812  0.2200
 5551SOL    HW228287   0.508   3.964   9.321  0.2348  0.7971 -0.1676
 5552SOL     OW28288   3.180   0.242  12.528 -0.3206 -0.1431  0.0035
 5552SOL    HW128289   3.225   0.326  12.516 -2.7677  1.0065 -1.0513
 5552SOL    HW228290   3.091   0.278  12.529 -0.4048 -0.3356 -1.7144
 5553SOL     OW28291   2.054   3.943   3.436  0.2017  0.0394 -0.2460
 5553SOL    HW128292   2.012   4.028   3.450  0.7914  0.1110  1.1221
 5553SOL    HW228293   2.007   3.928   3.354 -1.4909 -0.5505  0.8387
 5554SOL     OW28294   3.014   1.704   7.631  0.2003  0.1714 -0.1291
 5554SOL    HW128295   3.096   1.689   7.678 -0.2885  0.0029  0.6730
 5554SOL    HW228296   3.011   1.798   7.613  3.2523  0.4059  0.6117
 5555SOL     OW28297   1.282   2.718   3.104  0.0692 -0.4866 -0.2724
 5555SOL    HW128298   1.308   2.802   3.140  0.9167  0.4205 -3.0002
 5555SOL    HW228299   1.188   2.720   3.125  0.6396 -0.7262  2.2590
 5556SOL     OW28300   1.359   1.949   2.299 -0.0402 -0.4243  0.0076
 5556SOL    HW128301   1.420   1.941   2.373 -0.7781  0.0886  0.6733
 5556SOL    HW228302   1.361   1.861   2.262 -2.7235 -0.1836 -0.7221
 5557SOL     OW28303   2.163   0.923   7.434 -0.2925  0.4541  0.4736
 5557SOL    HW128304   2.242   0.892   7.390  0.1048  1.5042  0.4528
 5557SOL    HW228305   2.141   0.846   7.487 -1.6542  1.0612  0.7945
 5558SOL     OW28306   1.676   0.396   6.714 -0.3745 -0.4358 -0.8562
 5558SOL    HW128307   1.641   0.468   6.662 -1.9079 -1.2018 -0.8622
 5558SOL    HW228308   1.726   0.442   6.781 -0.4671 -1.0162 -0.3940
 5559SOL     OW28309   3.651   4.330   3.167 -0.4668  0.2995 -0.1443
 5559SOL    HW128310   3.592   4.255   3.179  0.9704 -1.2160 -2.5086
 5559SOL    HW228311   3.596   4.408   3.166 -0.6567  0.1303 -3.1092
 5560SOL     OW28312   0.745   2.720   3.954 -0.1717 -0.1676  0.1178
 5560SOL    HW128313   0.723   2.713   4.047  1.4898  0.1119  0.5276
 5560SOL    HW228314   0.657   2.743   3.926  0.4220 -1.0954 -2.5518
 5561SOL     OW28315   0.514   1.661   2.904 -0.2346 -0.1128  0.7316
 5561SOL    HW128316   0.510   1.567   2.922  0.2503 -0.3521 -0.4571
 5561SOL    HW228317   0.532   1.698   2.991 -2.8836  0.6126  0.9654
 5562SOL     OW28318   1.747   1.654   2.644 -0.6703 -0.0468 -0.0013
 5562SOL    HW128319   1.830   1.661   2.690 -1.0915 -2.5861  1.1684
 5562SOL    HW228320   1.689   1.656   2.720 -0.1929 -0.8537  0.3773
 5563SOL     OW28321   4.192   0.978   5.861 -0.3132  0.2138 -0.0122
 5563SOL    HW128322   4.223   0.931   5.783 -2.1028 -0.3040 -0.4269
 5563SOL    HW228323   4.163   1.063   5.827  2.9854  0.8420 -1.2461
 5564SOL     OW28324   3.137   3.696   5.141  0.0860 -0.4453 -0.7531
 5564SOL    HW128325   3.129   3.616   5.089  0.4159 -0.4437 -0.8070
 5564SOL    HW228326   3.051   3.709   5.181  0.6043  2.0891 -0.4383
 5565SOL     OW28327   0.915   0.945   8.408 -0.2287  0.1020  0.0165
 5565SOL    HW128328   0.904   0.977   8.497 -2.4019  0.4992 -0.4075
 5565SOL    HW228329   0.937   1.025   8.362  0.3805 -0.2461 -0.3035
 5566SOL     OW28330   4.733   0.259   9.851 -0.3537  0.0148 -0.0972
 5566SOL    HW128331   0.077   0.218   9.813 -0.4635  0.0066 -0.3154
 5566SOL    HW228332   0.033   0.344   9.880  0.1886 -0.5350  0.8476
 5567SOL     OW28333   4.243   2.313   3.919 -0.2592 -0.7968  0.0094
 5567SOL    HW128334   4.239   2.382   3.853  1.4141 -1.2466 -0.5619
 5567SOL    HW228335   4.215   2.362   3.997  1.4379  1.6438 -0.9205
 5568SOL     OW28336   0.027   0.219  16.538 -0.5995 -0.1873  0.3316
 5568SOL    HW128337   0.069   0.229  16.623  0.6210  1.2248 -0.4335
 5568SOL    HW228338   4.671   0.248  16.544 -0.5619 -0.5068  2.2889
 5569SOL     OW28339   3.349   2.053  10.227  0.1165  0.2209 -0.3494
 5569SOL    HW128340   3.441   2.062  10.251 -0.0118 -2.1370  1.0434
 5569SOL    HW228341   3.345   1.957  10.227  3.4431  0.0698  0.7868
 5570SOL     OW28342   3.672   1.127   4.955 -0.4986  0.5944 -0.0885
 5570SOL    HW128343   3.578   1.134   4.939 -0.0359 -1.1775 -3.4301
 5570SOL    HW228344   3.699   1.214   4.924 -1.2742  0.6583 -0.5672
 5571SOL     OW28345   2.741   1.677   2.658  0.3051  0.2422  0.7038
 5571SOL    HW128346   2.673   1.610   2.671 -0.1829  0.6954  0.5008
 5571SOL    HW228347   2.710   1.742   2.722  0.6122  1.9102 -0.8618
 5572SOL     OW28348   0.707   1.895   1.644 -0.1333  0.7852 -0.0423
 5572SOL    HW128349   0.789   1.891   1.693  1.5662 -1.3182 -3.0863
 5572SOL    HW228350   0.735   1.946   1.568  1.7338 -0.0903  0.0720
 5573SOL     OW28351   3.342   3.653   7.641  0.2336  0.0206 -0.0038
 5573SOL    HW128352   3.276   3.643   7.710 -0.8325  1.3716 -0.8502
 5573SOL    HW228353   3.334   3.747   7.625 -2.2335 -0.3311 -0.8322
 5574SOL     OW28354   3.458   2.241   6.832 -0.0365 -0.7068 -0.2323
 5574SOL    HW128355   3.484   2.230   6.740 -2.5588  0.9243 -1.1421
 5574SOL    HW228356   3.374   2.197   6.822 -0.7537 -0.1813  3.6779
 5575SOL     OW28357   0.890   2.173   7.493  0.1703  0.1709  0.1035
 5575SOL    HW128358   0.807   2.138   7.461  0.9196 -0.0339 -1.5819
 5575SOL    HW228359   0.858   2.263   7.507 -0.8573  0.1075 -1.8575
 5576SOL     OW28360   3.241   4.634   4.499  0.0297  0.2953  0.2232
 5576SOL    HW128361   3.245   4.729   4.512 -1.8884  0.3093  0.6919
 5576SOL    HW228362   3.310   4.608   4.560  0.1573 -1.5234 -0.7173
 5577SOL     OW28363   1.603   0.299   2.594  0.2526 -0.0237  0.2319
 5577SOL    HW128364   1.597   0.392   2.616 -0.9282 -0.1466  0.4314
 5577SOL    HW228365   1.563   0.251   2.666 -1.3685  1.0826  0.0766
 5578SOL     OW28366   3.078   1.298   8.675 -0.1050  0.2839 -0.1793
 5578SOL    HW128367   3.018   1.361   8.635  0.4790  2.0367  1.6910
 5578SOL    HW228368   3.113   1.341   8.753  1.1976  0.1837 -0.7175
 5579SOL     OW28369   2.976   0.990   6.277 -0.1503 -0.1472 -0.3559
 5579SOL    HW128370   3.018   0.919   6.326  0.4644 -2.4785 -4.3105
 5579SOL    HW228371   2.887   0.967   6.305 -0.2272 -0.6338 -1.0041
 5580SOL     OW28372   0.351   1.673   3.327  0.3864  0.1795  0.1432
 5580SOL    HW128373   0.273   1.693   3.274 -0.8195  0.7699  2.1270
 5580SOL    HW228374   0.375   1.755   3.371 -1.8577 -0.2969  2.2830
 5581SOL     OW28375   4.207   2.030   3.356  0.9919 -0.2636  0.3943
 5581SOL    HW128376   4.135   2.028   3.292  2.9363 -2.1177 -1.7187
 5581SOL    HW228377   4.202   1.939   3.385  0.1273  0.3103  2.0401
 5582SOL     OW28378   1.552   0.389   0.080  0.4031 -0.2935 -0.3567
 5582SOL    HW128379   1.601   0.375  17.735  0.2150  0.6761 -0.6301
 5582SOL    HW228380   1.573   0.479   0.104 -0.3396 -0.1807 -0.1142
 5583SOL     OW28381   0.250   1.977   5.251 -0.1722  0.0408  0.5342
 5583SOL    HW128382   0.234   1.882   5.252 -0.7060  0.1212 -2.3443
 5583SOL    HW228383   0.162   2.006   5.229 -0.1164  0.0532  0.3320
 5584SOL     OW28384   1.423   0.300  10.566 -0.3689 -0.5414 -0.7348
 5584SOL    HW128385   1.399   0.321  10.476  0.3060  1.7932 -0.3925
 5584SOL    HW228386   1.410   0.388  10.604  1.1176 -1.6437  2.3772
 5585SOL     OW28387   0.190   1.282   0.835  0.4550  0.4956 -0.5677
 5585SOL    HW128388   0.143   1.226   0.897  0.7355 -1.0219 -1.7254
 5585SOL    HW228389   0.192   1.369   0.873  0.4103  0.8247 -1.3312
 5586SOL     OW28390   1.513   3.067  15.809  0.1514 -0.2184 -0.2960
 5586SOL    HW128391   1.426   3.075  15.847  0.5637  0.3693  0.5345
 5586SOL    HW228392   1.536   3.159  15.820 -0.8856  0.0637 -0.4876
 5587SOL     OW28393   4.665   0.027   2.859 -0.2820  0.2382  0.1622
 5587SOL    HW128394   0.006   0.077   2.892 -1.4007  2.7879 -1.1068
 5587SOL    HW228395   4.713   4.691   2.816  0.4907 -0.3968  2.0434
 5588SOL     OW28396   2.131   2.139   5.673 -0.3989  0.5390  0.3843
 5588SOL    HW128397   2.172   2.225   5.658 -0.5609  0.2550 -1.7708
 5588SOL    HW228398   2.178   2.112   5.751 -1.8603 -1.2663  0.6284
 5589SOL     OW28399   4.690   1.710   0.694 -0.6891  0.0148  0.0120
 5589SOL    HW128400   4.651   1.650   0.758 -0.3860  0.0653  0.2448
 5589SOL    HW228401   0.029   1.664   0.654 -0.5642 -0.2266  0.5169
 5590SOL     OW28402   0.765   0.525  13.888  0.4797 -0.2163 -0.0408
 5590SOL    HW128403   0.698   0.516  13.820  1.4838  0.8905 -1.1934
 5590SOL    HW228404   0.752   0.619  13.905  1.3524 -0.2170  0.6168
 5591SOL     OW28405   0.572   0.578   2.129  0.0358  0.0320 -0.0528
 5591SOL    HW128406   0.574   0.665   2.169 -0.0446 -0.0799  0.1918
 5591SOL    HW228407   0.514   0.547   2.199 -1.0078  1.2047 -0.4018
 5592SOL     OW28408   0.751   1.550  17.138  0.9089 -0.7437  0.2514
 5592SOL    HW128409   0.746   1.610  17.212 -0.4559 -1.1620  0.4989
 5592SOL    HW228410   0.672   1.503  17.166  0.9238 -1.1601 -0.4104
 5593SOL     OW28411   0.597   1.063  14.824  0.3961  0.0982 -0.0479
 5593SOL    HW128412   0.689   1.089  14.828 -0.0592  1.3611  2.2651
 5593SOL    HW228413   0.565   1.123  14.756  1.9352  2.4906  1.3223
 5594SOL     OW28414   1.119   4.013   6.745  0.4800  0.4857  0.2360
 5594SOL    HW128415   1.066   4.060   6.809  0.2450  2.3397 -1.3410
 5594SOL    HW228416   1.177   3.964   6.804 -1.7478 -1.4153  0.8482
 5595SOL     OW28417   3.960   1.909  13.412 -0.2404  0.5987  0.3769
 5595SOL    HW128418   3.980   1.843  13.346 -1.6187 -0.0146  0.5825
 5595SOL    HW228419   3.965   1.985  13.353  0.7381 -0.9647 -1.5442
 5596SOL     OW28420   3.442   4.148   7.654  0.2524  0.1324 -0.1344
 5596SOL    HW128421   3.486   4.222   7.696 -0.0723  1.4506 -2.1563
 5596SOL    HW228422   3.494   4.131   7.576  1.6372 -3.0349  1.4888
 5597SOL     OW28423   2.916   1.942  15.839 -0.2592 -0.3482 -0.4964
 5597SOL    HW128424   2.857   2.016  15.825  0.1380 -0.2063 -1.4424
 5597SOL    HW228425   2.939   1.923  15.748 -3.2700 -3.6624 -0.5973
 5598SOL     OW28426   2.211   1.516   8.446  0.5870  0.1347  0.5585
 5598SOL    HW128427   2.233   1.492   8.536 -0.5713 -1.4538  0.4051
 5598SOL    HW228428   2.215   1.439   8.389  2.6230  0.3614  0.3940
 5599SOL     OW28429   2.206   2.844   8.120 -0.1441 -0.0030 -0.0369
 5599SOL    HW128430   2.217   2.787   8.044 -0.3642  1.4280 -1.1178
 5599SOL    HW228431   2.208   2.927   8.073  1.8729 -0.5924 -0.9718
 5600SOL     OW28432   0.221   0.451  11.004 -0.1981  0.4023  0.4551
 5600SOL    HW128433   0.126   0.441  10.996 -0.1627  0.3668  0.0978
 5600SOL    HW228434   0.264   0.399  10.936 -3.4432 -0.9573 -0.5488
 5601SOL     OW28435   3.714   1.741   3.775  0.0021  1.0014  0.0821
 5601SOL    HW128436   3.795   1.712   3.732 -0.5256  1.5752 -1.3138
 5601SOL    HW228437   3.749   1.782   3.854  0.8036 -0.4286  0.4774
 5602SOL     OW28438   0.209   1.951   2.688  0.6136  0.1230 -0.1718
 5602SOL    HW128439   0.190   2.003   2.610  1.1334  1.6756  0.7241
 5602SOL    HW228440   0.271   1.888   2.651  1.0039  0.2518  0.2506
 5603SOL     OW28441   3.452   4.500  13.553  0.6099 -0.3151  0.2223
 5603SOL    HW128442   3.381   4.558  13.524  0.0020 -1.4488 -0.5654
 5603SOL    HW228443   3.403   4.423  13.582 -0.3647  0.4452  0.6181
 5604SOL     OW28444   2.741   0.403   2.365 -0.3537 -0.2982 -0.2636
 5604SOL    HW128445   2.713   0.313   2.352  1.4243 -0.9910  0.6906
 5604SOL    HW228446   2.832   0.409   2.337  0.0666 -0.4279  1.0732
 5605SOL     OW28447   1.711   1.650   3.992 -0.0538 -0.3010  0.3697
 5605SOL    HW128448   1.652   1.686   3.925 -1.1506 -2.3434  0.2192
 5605SOL    HW228449   1.674   1.562   3.999  1.1987 -0.8421  0.0425
 5606SOL     OW28450   2.715   1.793   0.527 -0.0350  0.6400  0.3478
 5606SOL    HW128451   2.808   1.775   0.542 -0.1984  0.3699  1.0475
 5606SOL    HW228452   2.672   1.759   0.606 -1.8614 -0.6252 -1.2084
 5607SOL     OW28453   0.089   1.082   2.720  0.1867  0.1239 -0.7448
 5607SOL    HW128454   0.051   1.060   2.805  1.7329 -0.6078 -0.2430
 5607SOL    HW228455   0.174   1.114   2.750  0.5742 -1.3516 -0.2806
 5608SOL     OW28456   4.651   1.806   9.516 -0.4283 -0.1385  0.0015
 5608SOL    HW128457   4.570   1.857   9.525 -1.9738 -2.4719 -0.8436
 5608SOL    HW228458   4.716   1.855   9.567  1.3487 -2.5541  0.0603
 5609SOL     OW28459   4.177   4.713   6.746  0.2892 -0.5010  0.6625
 5609SOL    HW128460   4.209   0.066   6.723 -1.8791 -0.5846 -2.6368
 5609SOL    HW228461   4.082   4.720   6.741  0.3816 -1.0230 -1.7501
 5610SOL     OW28462   3.195   2.860   8.920  0.0876 -0.6821  0.3381
 5610SOL    HW128463   3.178   2.820   9.006  1.1022 -0.7856  0.4979
 5610SOL    HW228464   3.287   2.882   8.936  0.0738  0.1367 -0.6983
 5611SOL     OW28465   1.368   3.423   2.542  0.0461 -0.2920 -0.1552
 5611SOL    HW128466   1.323   3.425   2.627  2.3817  1.9688  1.0302
 5611SOL    HW228467   1.314   3.478   2.486  0.1204  0.7722  0.8227
 5612SOL     OW28468   4.168   3.962   6.897 -0.2191 -0.1113  0.3920
 5612SOL    HW128469   4.096   4.015   6.862 -0.1008 -1.2026 -1.4599
 5612SOL    HW228470   4.187   4.005   6.981 -1.2900 -0.0114  0.5851
 5613SOL     OW28471   3.159   2.803   9.688  0.4026 -0.4667  0.5180
 5613SOL    HW128472   3.142   2.748   9.765 -0.9069 -1.0101 -0.1570
 5613SOL    HW228473   3.069   2.809   9.655 -0.0308 -0.0618  1.7855
 5614SOL     OW28474   4.511   1.536   7.542  0.3167 -0.5322 -0.0960
 5614SOL    HW128475   4.592   1.540   7.491  2.0780 -0.3694  2.7159
 5614SOL    HW228476   4.531   1.468   7.607  0.9173 -0.0839  0.1968
 5615SOL     OW28477   3.741   4.550   7.749  0.6337 -0.0661  0.0170
 5615SOL    HW128478   3.740   4.457   7.727 -0.5829  0.2831 -1.4014
 5615SOL    HW228479   3.742   4.600   7.667 -1.4887 -0.5525 -0.3181
 5616SOL     OW28480   0.647   1.691   9.984  0.0527  0.3783 -0.3468
 5616SOL    HW128481   0.609   1.777   9.961  0.2086 -0.3701 -3.4590
 5616SOL    HW228482   0.715   1.678   9.918  0.2127 -1.5531  0.2118
 5617SOL     OW28483   1.254   4.410   6.551  0.0322  0.2826 -0.0263
 5617SOL    HW128484   1.192   4.347   6.516  2.0002 -3.2294  2.7724
 5617SOL    HW228485   1.283   4.454   6.471  1.6080 -1.0022 -0.1532
 5618SOL     OW28486   1.897   1.270  10.257 -0.1386  0.7653  0.2222
 5618SOL    HW128487   1.848   1.254  10.176 -1.4187 -0.5382  1.2572
 5618SOL    HW228488   1.955   1.195  10.246  0.9063  1.6562 -0.2994
 5619SOL     OW28489   3.025   0.129   3.621 -0.7182  0.0129 -0.0252
 5619SOL    HW128490   3.014   0.099   3.531  1.7495 -1.0666  0.0445
 5619SOL    HW228491   2.960   0.199   3.635 -0.0142  1.1400 -2.3588
 5620SOL     OW28492   3.034   0.258   4.712 -0.1154  0.0106 -0.4483
 5620SOL    HW128493   3.084   0.331   4.750 -2.2453 -0.6554  3.6635
 5620SOL    HW228494   3.026   0.202   4.790 -1.4352  1.0356  0.1464
 5621SOL     OW28495   3.567   1.853   0.155  0.3127 -0.0245  0.1142
 5621SOL    HW128496   3.525   1.817   0.076 -0.8531 -2.4020  1.8284
 5621SOL    HW228497   3.596   1.938   0.121 -2.1757  1.4172  1.6103
 5622SOL     OW28498   3.185   3.418  13.972  0.8025 -0.2376  0.1090
 5622SOL    HW128499   3.128   3.368  13.914 -1.5919  1.2887  1.1612
 5622SOL    HW228500   3.238   3.463  13.906  0.4553 -1.8640 -1.2836
 5623SOL     OW28501   3.961   0.543   5.007  0.3941  0.1557 -0.2969
 5623SOL    HW128502   4.002   0.496   4.934 -1.3387  0.6672 -1.5661
 5623SOL    HW228503   3.928   0.624   4.969 -1.2690 -0.7304 -0.7340
 5624SOL     OW28504   0.834   2.332   1.412  0.1475  0.5003 -0.3692
 5624SOL    HW128505   0.820   2.344   1.318 -2.0126  0.6752 -0.0305
 5624SOL    HW228506   0.929   2.348   1.411  0.6268 -2.3755 -0.2000
 5625SOL     OW28507   1.431   2.026  16.062  0.3954 -0.5145 -0.6948
 5625SOL    HW128508   1.336   2.020  16.046  0.2262 -0.2133  0.1616
 5625SOL    HW228509   1.452   1.959  16.128  2.0004 -1.0026 -1.7052
 5626SOL     OW28510   0.309   3.275   7.242 -0.1038 -0.5538 -0.3021
 5626SOL    HW128511   0.284   3.313   7.158  1.7238  0.1783 -0.5077
 5626SOL    HW228512   0.291   3.343   7.308  1.5246  0.3979 -0.8424
 5627SOL     OW28513   3.517   3.568  13.690 -0.3869 -0.0567  0.4511
 5627SOL    HW128514   3.552   3.551  13.603 -0.9988  2.4929 -0.2843
 5627SOL    HW228515   3.591   3.614  13.728  1.0146 -0.6977 -1.5267
 5628SOL     OW28516   3.484   3.532   3.801  0.0719  0.8576  0.3103
 5628SOL    HW128517   3.523   3.603   3.751 -0.9705 -0.0535 -1.7716
 5628SOL    HW228518   3.393   3.562   3.794  0.0199  0.7493  0.5186
 5629SOL     OW28519   0.274   4.351   6.377 -0.9037 -0.6893  0.2154
 5629SOL    HW128520   0.310   4.290   6.441 -0.3067  0.1527  0.6770
 5629SOL    HW228521   0.350   4.408   6.377 -0.1040 -1.7606  0.4772
 5630SOL     OW28522   4.120   2.189  13.465 -0.6153  0.0443 -0.1215
 5630SOL    HW128523   4.194   2.143  13.504 -0.5130  0.2667 -0.0574
 5630SOL    HW228524   4.049   2.171  13.527  0.2856 -1.9843  0.3359
 5631SOL     OW28525   4.075   1.865   4.098 -0.7297  0.4998 -0.3823
 5631SOL    HW128526   4.012   1.847   4.168 -1.3885  4.7781  0.0994
 5631SOL    HW228527   4.131   1.932   4.136  0.6071 -0.2212 -1.0838
 5632SOL     OW28528   3.547   1.024   8.019  0.1761  0.4825 -0.2982
 5632SOL    HW128529   3.523   1.116   8.027  0.1443  0.4992 -0.5810
 5632SOL    HW228530   3.471   0.982   8.059 -0.0334  1.9728  0.8614
 5633SOL     OW28531   2.149   3.499   4.539 -0.3204  0.1775  0.0434
 5633SOL    HW128532   2.097   3.451   4.474 -1.8243  0.4673  1.0183
 5633SOL    HW228533   2.092   3.569   4.572 -1.8242 -0.9749 -0.0773
 5634SOL     OW28534   2.983   1.995   6.941 -0.0059 -0.3639  0.7876
 5634SOL    HW128535   2.968   2.086   6.917  0.5887 -0.3715  0.4056
 5634SOL    HW228536   3.062   2.011   6.991 -0.4260 -0.4929  1.4841
 5635SOL     OW28537   2.698   3.077   6.980 -0.0343 -0.3594 -0.3288
 5635SOL    HW128538   2.620   3.132   6.986 -0.0154 -0.4741  0.9974
 5635SOL    HW228539   2.754   3.125   7.041 -0.0087 -1.1561  0.2719
 5636SOL     OW28540   1.179   0.744  13.845 -0.2205 -0.1107  0.4935
 5636SOL    HW128541   1.137   0.661  13.866 -1.4321 -0.2717 -2.4774
 5636SOL    HW228542   1.196   0.779  13.932 -3.0885  1.0405  0.6021
 5637SOL     OW28543   1.151   2.151  11.239 -0.2031  0.0472 -0.3312
 5637SOL    HW128544   1.160   2.227  11.182  0.4812 -1.0266 -1.6644
 5637SOL    HW228545   1.108   2.079  11.192  1.3728 -0.6906 -0.6343
 5638SOL     OW28546   4.530   1.707   6.051  0.1828  0.0073 -0.4208
 5638SOL    HW128547   4.554   1.800   6.049 -0.3287  0.0859 -2.5008
 5638SOL    HW228548   4.439   1.710   6.080  0.4635  1.1677  0.3739
 5639SOL     OW28549   1.989   1.358  14.012 -0.0204  0.5270  0.0572
 5639SOL    HW128550   1.948   1.388  13.930  0.1802 -1.1143 -0.6530
 5639SOL    HW228551   1.983   1.263  13.998  1.6258  0.2935  1.0085
 5640SOL     OW28552   0.172   3.057  10.318 -0.1361  0.0576  0.3013
 5640SOL    HW128553   0.260   3.067  10.355  0.1894  0.1439 -0.4796
 5640SOL    HW228554   0.191   2.979  10.265 -0.2911  1.0867 -1.2711
 5641SOL     OW28555   3.989   3.419   3.235 -0.3580 -0.2335 -0.3158
 5641SOL    HW128556   3.975   3.477   3.310  0.9002 -2.8935  1.9942
 5641SOL    HW228557   3.963   3.488   3.174 -2.3134  0.0854  0.8875
 5642SOL     OW28558   4.034   3.574   8.489  0.0680  0.1316 -0.2122
 5642SOL    HW128559   3.967   3.565   8.422 -0.4815 -0.6085  0.4470
 5642SOL    HW228560   4.116   3.591   8.442 -0.0654 -0.0111 -0.4948
 5643SOL     OW28561   1.253   0.756  10.901 -0.2564 -0.7058  0.1218
 5643SOL    HW128562   1.161   0.782  10.901  0.3105  1.2502  1.8808
 5643SOL    HW228563   1.291   0.842  10.917 -3.2866  0.6811 -0.1857
 5644SOL     OW28564   2.919   3.292  12.152  0.0974 -0.2171  0.0820
 5644SOL    HW128565   2.968   3.340  12.219 -0.4867  0.3821  0.0836
 5644SOL    HW228566   2.905   3.207  12.193  0.4412 -0.2063  0.2212
 5645SOL     OW28567   0.489   3.915  15.604  0.0515 -0.0743  0.5482
 5645SOL    HW128568   0.516   3.987  15.547 -0.8580  0.4198  0.7330
 5645SOL    HW228569   0.554   3.856  15.566 -0.4126 -0.1409 -0.1408
 5646SOL     OW28570   2.702   1.236  16.036 -0.4894 -0.4916 -0.2688
 5646SOL    HW128571   2.708   1.265  16.127  0.5372  1.2358 -0.8889
 5646SOL    HW228572   2.793   1.252  16.010 -0.5840 -1.5101 -1.2367
 5647SOL     OW28573   3.433   3.764   7.981 -0.0220  1.2189 -0.0632
 5647SOL    HW128574   3.397   3.725   8.061 -0.9456 -1.5039 -1.8003
 5647SOL    HW228575   3.364   3.830   7.970 -1.6914 -0.3962  0.5509
 5648SOL     OW28576   3.936   1.388   8.717  0.0029 -0.2500 -0.2990
 5648SOL    HW128577   3.930   1.399   8.622  1.2921 -3.0460 -0.7148
 5648SOL    HW228578   4.010   1.447   8.729 -0.0742 -0.4189  1.0045
 5649SOL     OW28579   1.945   1.055   8.369  0.0804  0.6408  0.2544
 5649SOL    HW128580   1.994   0.973   8.357 -1.5586 -0.3140  0.0474
 5649SOL    HW228581   1.852   1.032   8.369  0.1210  0.4673 -0.6303
 5650SOL     OW28582   4.573   1.014   3.388 -0.0511 -0.0976  0.6540
 5650SOL    HW128583   4.633   1.026   3.461  0.2900 -2.4333  0.7526
 5650SOL    HW228584   4.500   0.969   3.430 -1.6688  0.8270 -1.1405
 5651SOL     OW28585   1.541   4.203   2.051 -0.2310 -0.1348  0.2795
 5651SOL    HW128586   1.521   4.157   1.969 -1.5323  0.9807 -0.0166
 5651SOL    HW228587   1.497   4.151   2.118 -1.7124  0.6135 -0.1329
 5652SOL     OW28588   4.375   0.158   7.893  0.0058 -0.8381  0.5005
 5652SOL    HW128589   4.402   0.240   7.935 -1.8664  0.8973 -1.6906
 5652SOL    HW228590   4.285   0.181   7.871 -0.4106 -2.3468  0.6450
 5653SOL     OW28591   0.841   1.822   7.057  0.1347 -0.2053 -0.2164
 5653SOL    HW128592   0.897   1.897   7.076 -0.7119  0.2154  0.6804
 5653SOL    HW228593   0.765   1.863   7.015 -0.1247 -3.3970 -2.8667
 5654SOL     OW28594   1.113   1.257   2.326 -0.2058 -0.1861 -0.5960
 5654SOL    HW128595   1.090   1.345   2.358  0.1953 -0.4723  0.4776
 5654SOL    HW228596   1.182   1.292   2.269  1.3327 -2.2667  0.0049
 5655SOL     OW28597   1.906   1.605   6.490  0.6071 -0.3869 -0.1700
 5655SOL    HW128598   1.997   1.625   6.466  0.4626 -0.3442 -0.6795
 5655SOL    HW228599   1.897   1.516   6.456  2.4846 -0.2880 -0.9503
 5656SOL     OW28600   0.799   0.319   3.203 -0.1113  0.1658 -0.5652
 5656SOL    HW128601   0.834   0.310   3.115 -1.5967 -0.4879 -1.0827
 5656SOL    HW228602   0.738   0.245   3.209  0.9131 -0.7176 -1.0669
 5657SOL     OW28603   2.515   3.526   6.103  0.0250 -0.7364  0.1493
 5657SOL    HW128604   2.444   3.552   6.161  1.6573  1.2900  1.2127
 5657SOL    HW228605   2.577   3.485   6.164  0.0027  1.3858  1.6054
 5658SOL     OW28606   2.029   2.496   4.726 -0.5637  0.1759  0.0178
 5658SOL    HW128607   1.955   2.548   4.693 -0.4514 -0.3178 -0.9972
 5658SOL    HW228608   2.088   2.506   4.651 -0.8491 -1.3282 -0.4088
 5659SOL     OW28609   3.425   4.086   9.090  0.2646 -0.1863  0.4313
 5659SOL    HW128610   3.367   4.144   9.139  0.2554  0.8756 -0.8474
 5659SOL    HW228611   3.511   4.123   9.112  0.4977  0.0246 -0.8570
 5660SOL     OW28612   1.030   2.644   5.190 -0.1410  0.1924 -0.1577
 5660SOL    HW128613   1.027   2.559   5.234  1.2113  0.8588  1.2205
 5660SOL    HW228614   0.937   2.654   5.169  0.3528  1.7547 -1.6001
 5661SOL     OW28615   0.293   1.572  10.041 -0.1525 -0.1740  0.1945
 5661SOL    HW128616   0.221   1.525  10.084 -1.4455  2.0501  0.4577
 5661SOL    HW228617   0.257   1.564   9.952  2.5532 -1.4517 -0.7892
 5662SOL     OW28618   1.797   4.542  17.026 -0.1416 -0.2203 -0.5370
 5662SOL    HW128619   1.849   4.503  17.095 -0.6860  1.7179  0.9909
 5662SOL    HW228620   1.768   4.623  17.069 -1.7929 -0.0291 -1.9978
 5663SOL     OW28621   0.856   2.772  12.888 -0.3933  0.7981  0.5751
 5663SOL    HW128622   0.906   2.698  12.853 -0.0738  0.9416  0.7196
 5663SOL    HW228623   0.868   2.751  12.981  2.4659  0.2931  0.0929
 5664SOL     OW28624   1.879   1.587  16.549 -0.1400 -0.3116  0.3113
 5664SOL    HW128625   1.952   1.530  16.573  0.9304  0.7160 -0.4505
 5664SOL    HW228626   1.852   1.609  16.638 -1.1093 -1.5518  0.3174
 5665SOL     OW28627   4.638   4.676  10.767  0.0997  0.6973  0.3932
 5665SOL    HW128628   4.728   4.688  10.798  0.5707  1.2433 -1.1968
 5665SOL    HW228629   4.646   4.725  10.685  3.8372 -0.8748 -0.2193
 5666SOL     OW28630   1.833   1.693   5.741  0.2535  0.4932 -0.8616
 5666SOL    HW128631   1.866   1.605   5.761  1.0568  0.9602 -0.1574
 5666SOL    HW228632   1.744   1.672   5.711  0.3618 -0.6652 -0.3666
 5667SOL     OW28633   3.786   1.912   6.038 -0.0023 -0.5777 -0.1429
 5667SOL    HW128634   3.699   1.945   6.060 -0.2958 -0.5031 -1.4459
 5667SOL    HW228635   3.762   1.833   5.989  1.5194 -0.7923 -0.5445
 5668SOL     OW28636   1.434   4.364   3.194 -0.1249  0.2673  0.0195
 5668SOL    HW128637   1.339   4.368   3.185  0.2312  0.9137 -3.1827
 5668SOL    HW228638   1.454   4.456   3.209 -0.1384  0.3685 -0.5919
 5669SOL     OW28639   4.467   3.225   6.398  0.3409  0.3560 -0.6581
 5669SOL    HW128640   4.457   3.157   6.464 -0.9823 -0.4785 -1.7269
 5669SOL    HW228641   4.548   3.269   6.425  1.9947 -2.3997 -1.1189
 5670SOL     OW28642   3.147   2.763   5.069  0.1363 -0.3501 -1.0250
 5670SOL    HW128643   3.147   2.686   5.126  0.6100 -0.7609 -1.5838
 5670SOL    HW228644   3.153   2.730   4.979 -1.7283  0.6706 -1.5417
 5671SOL     OW28645   3.004   1.066  16.286  0.1188 -0.0560 -0.0512
 5671SOL    HW128646   2.964   1.138  16.335  1.8219  1.3100 -0.6469
 5671SOL    HW228647   3.046   1.119  16.218 -0.6899  0.0623 -0.4543
 5672SOL     OW28648   0.063   2.558   6.645  0.1064  0.4749 -0.6273
 5672SOL    HW128649   0.027   2.630   6.594 -1.1280  0.1581 -0.2127
 5672SOL    HW228650   4.726   2.497   6.624 -1.1108  2.3384 -1.8922
 5673SOL     OW28651   0.376   3.014   9.412  0.0268  0.0061 -0.2610
 5673SOL    HW128652   0.316   2.941   9.394 -1.8431  1.8105 -1.3427
 5673SOL    HW228653   0.343   3.048   9.496 -0.3491 -2.1501  0.4626
 5674SOL     OW28654   3.235   3.007   9.952  0.4418  0.2833  0.3380
 5674SOL    HW128655   3.158   3.049   9.991 -0.1075 -0.6514  0.2550
 5674SOL    HW228656   3.297   3.016  10.024  0.3631 -0.2503  0.4704
 5675SOL     OW28657   0.038   0.677   3.944 -0.8231 -0.1319  0.1958
 5675SOL    HW128658   0.007   0.672   3.854 -0.3544  0.2236  0.0180
 5675SOL    HW228659   0.124   0.718   3.939 -1.7616  1.5081 -2.3491
 5676SOL     OW28660   2.841   3.804  11.509  0.0792  0.0743 -0.2731
 5676SOL    HW128661   2.833   3.758  11.593 -2.4712  2.4902  0.7812
 5676SOL    HW228662   2.797   3.888  11.520 -0.7985 -0.4703  0.3303
 5677SOL     OW28663   4.148   0.863  16.395 -0.2871  0.1788 -0.7242
 5677SOL    HW128664   4.131   0.769  16.408  1.9215  0.1111  1.7111
 5677SOL    HW228665   4.225   0.845  16.340 -0.7523  1.8335 -1.9118
 5678SOL     OW28666   4.137   3.229   5.343  0.1797  0.1101  0.0653
 5678SOL    HW128667   4.074   3.157   5.334  0.5514 -0.3515  1.1491
 5678SOL    HW228668   4.179   3.220   5.428  1.0928  2.5370 -0.1403
 5679SOL     OW28669   3.160   0.183   8.768  0.0275  0.5503 -0.7990
 5679SOL    HW128670   3.209   0.152   8.844 -0.3459 -0.8911 -1.1456
 5679SOL    HW228671   3.070   0.158   8.791  0.1501  0.1426 -0.7505
 5680SOL     OW28672   0.398   1.522   6.512 -0.1910  0.1136 -0.3785
 5680SOL    HW128673   0.483   1.515   6.470 -1.7916  0.2138 -3.6333
 5680SOL    HW228674   0.391   1.614   6.536 -1.1501 -0.0652  0.0338
 5681SOL     OW28675   0.838   2.570  10.380  0.0691  0.2513 -0.1467
 5681SOL    HW128676   0.893   2.637  10.422  1.4387 -0.5411 -0.6783
 5681SOL    HW228677   0.866   2.500  10.439 -1.3152  0.8196  1.2003
 5682SOL     OW28678   3.343   2.670   2.679 -0.4585 -1.2053  0.4177
 5682SOL    HW128679   3.416   2.631   2.630  0.4480 -0.3639  1.1051
 5682SOL    HW228680   3.277   2.600   2.671 -0.2636 -1.3418 -0.0263
 5683SOL     OW28681   4.317   0.339   6.097  0.3842 -0.2489 -0.4010
 5683SOL    HW128682   4.405   0.323   6.130  0.8073 -2.5587 -2.6453
 5683SOL    HW228683   4.271   0.309   6.175 -0.5065 -0.7138 -1.1019
 5684SOL     OW28684   2.498   1.909   8.225  0.2027  0.4934  0.4329
 5684SOL    HW128685   2.486   2.003   8.241 -0.9633  0.3816  0.2445
 5684SOL    HW228686   2.417   1.869   8.256  0.4281  0.7961  1.4125
 5685SOL     OW28687   4.232   1.017   5.307 -0.2169 -0.3778  0.1809
 5685SOL    HW128688   4.187   1.080   5.363  0.9413  1.8230 -1.3888
 5685SOL    HW228689   4.217   1.045   5.216  0.1489 -0.9101 -0.0423
 5686SOL     OW28690   4.149   2.568   9.259 -0.5354 -0.4042  0.4012
 5686SOL    HW128691   4.179   2.656   9.282 -0.7869  0.1420 -1.3611
 5686SOL    HW228692   4.065   2.591   9.220 -0.3937  0.6363  0.7089
 5687SOL     OW28693   1.399   2.985   3.581 -0.0746 -0.1047 -0.2808
 5687SOL    HW128694   1.309   2.983   3.550 -0.8626  1.2371  1.9428
 5687SOL    HW228695   1.397   3.053   3.648  0.4420  0.9250 -1.3048
 5688SOL     OW28696   0.723   1.121   1.364 -0.4685  0.1326  0.0777
 5688SOL    HW128697   0.694   1.184   1.430 -1.1730  1.7678 -1.8037
 5688SOL    HW228698   0.761   1.040   1.400 -0.3480  0.1730  0.0423
 5689SOL     OW28699   4.019   0.808   9.521 -0.4658  0.3763 -0.1779
 5689SOL    HW128700   3.994   0.769   9.437 -1.0117  0.4629 -0.0540
 5689SOL    HW228701   3.996   0.900   9.510  1.6400  0.7627 -1.3633
 5690SOL     OW28702   1.902   0.677   2.034  0.4467  0.1148 -0.0261
 5690SOL    HW128703   1.906   0.688   2.129 -0.7088 -2.6809  0.3722
 5690SOL    HW228704   1.931   0.587   2.017  2.2444  1.1164 -2.2837
 5691SOL     OW28705   3.968   0.776   6.840  0.1971  0.2458  0.0980
 5691SOL    HW128706   4.011   0.856   6.869  1.4245 -0.4000  0.0473
 5691SOL    HW228707   4.040   0.718   6.817 -1.4292 -0.6490 -2.7942
 5692SOL     OW28708   0.569   3.808   4.108  0.0016 -0.0052  0.3594
 5692SOL    HW128709   0.517   3.800   4.028  0.6246  1.6954 -0.2082
 5692SOL    HW228710   0.641   3.862   4.078 -0.8676  1.8959  1.6942
 5693SOL     OW28711   3.420   2.865  15.435  0.2090 -0.3123  0.2434
 5693SOL    HW128712   3.471   2.878  15.515 -0.6813  2.6244  0.3373
 5693SOL    HW228713   3.477   2.800  15.394  0.1928 -0.3138  0.2231
 5694SOL     OW28714   0.048   0.612  11.634  0.6185 -0.2156 -0.7069
 5694SOL    HW128715   0.139   0.596  11.608  0.0759 -0.5912 -2.3465
 5694SOL    HW228716   0.025   0.694  11.592  0.0504  1.0715  2.1149
 5695SOL     OW28717   1.297   0.659   0.058  0.1900  0.0542  0.2138
 5695SOL    HW128718   1.232   0.703   0.002  1.4567  0.5398 -0.8739
 5695SOL    HW228719   1.241   0.608   0.116  2.8163 -0.9869  1.8195
 5696SOL     OW28720   0.398   0.457   3.679 -0.4494  0.4925  0.0359
 5696SOL    HW128721   0.471   0.519   3.691  0.3365 -0.3560 -0.3420
 5696SOL    HW228722   0.339   0.501   3.618  1.8237 -1.1206 -3.2934
 5697SOL     OW28723   3.100   0.173   9.899  0.0385 -0.4082 -0.1143
 5697SOL    HW128724   3.015   0.140   9.869 -0.6817  1.2852  0.0095
 5697SOL    HW228725   3.158   0.121   9.843 -1.1648 -0.5275 -1.2549
 5698SOL     OW28726   1.599   1.174  10.971 -0.0538 -0.2205  0.4557
 5698SOL    HW128727   1.612   1.250  10.914 -0.9767  0.4273  1.1090
 5698SOL    HW228728   1.627   1.194  11.060 -0.0080  2.3056 -0.1382
 5699SOL     OW28729   0.109   1.235   9.024  0.3340 -0.0500  0.0122
 5699SOL    HW128730   0.086   1.159   9.077 -0.8727  1.1790  1.2655
 5699SOL    HW228731   0.041   1.302   9.034 -0.1242 -0.2832 -1.6009
 5700SOL     OW28732   3.562   3.065   0.701  0.3860  0.4443 -0.2018
 5700SOL    HW128733   3.502   3.064   0.626  0.1425  0.5425 -0.0109
 5700SOL    HW228734   3.577   3.158   0.714 -0.6277  1.3148 -5.0553
 5701SOL     OW28735   2.585   2.080   7.327 -0.2640 -0.6611  1.0398
 5701SOL    HW128736   2.629   2.047   7.405  2.2370  0.2203  0.0321
 5701SOL    HW228737   2.640   2.058   7.252 -0.3499  1.2059  0.4262
 5702SOL     OW28738   1.491   0.120  11.933 -0.8248 -0.2049  0.9654
 5702SOL    HW128739   1.527   0.085  11.852 -0.3254  0.7964  0.7666
 5702SOL    HW228740   1.567   0.127  11.991  0.7711 -0.4932 -1.1272
 5703SOL     OW28741   0.439   3.004   4.976  0.5667 -0.2709  0.5083
 5703SOL    HW128742   0.447   2.980   4.883  0.7254 -0.9378  0.6946
 5703SOL    HW228743   0.401   3.092   4.970  0.2124 -0.4822 -0.3499
 5704SOL     OW28744   3.449   1.152   9.471  0.3413  0.2504  0.0626
 5704SOL    HW128745   3.483   1.066   9.445 -1.1165 -0.2195 -0.2682
 5704SOL    HW228746   3.489   1.168   9.557 -0.6188  0.4231  0.4781
 5705SOL     OW28747   3.602   2.155   0.328 -0.5469 -0.0775 -0.2918
 5705SOL    HW128748   3.642   2.068   0.325  0.0756  0.1356  2.5296
 5705SOL    HW228749   3.565   2.162   0.240 -1.1968 -1.3679 -0.1204
 5706SOL     OW28750   2.541   4.070  15.005  0.0256 -0.3938 -0.3575
 5706SOL    HW128751   2.497   3.996  14.962 -0.4875 -1.0268  1.2758
 5706SOL    HW228752   2.474   4.138  15.003 -0.8880 -1.3032 -0.5458
 5707SOL     OW28753   0.929   1.870   5.521  0.6863  0.1286  0.0413
 5707SOL    HW128754   1.003   1.865   5.582  0.0926 -1.5296  0.6179
 5707SOL    HW228755   0.853   1.858   5.577  0.5084 -0.3842 -0.3086
 5708SOL     OW28756   4.564   0.521   4.333 -0.4599  0.2801 -0.4109
 5708SOL    HW128757   4.529   0.432   4.338 -1.8318  0.7578 -1.4350
 5708SOL    HW228758   4.559   0.536   4.239  0.1425  0.5382 -0.4019
 5709SOL     OW28759   2.233   1.199  13.419 -0.3223  0.0774 -0.1487
 5709SOL    HW128760   2.151   1.151  13.428 -0.6044  0.3969 -1.0093
 5709SOL    HW228761   2.286   1.166  13.347  0.9315  1.1632  0.2706
 5710SOL     OW28762   3.220   4.631  13.432 -0.0155  0.3651 -0.6322
 5710SOL    HW128763   3.228   4.717  13.391 -0.0614  0.7187  0.0993
 5710SOL    HW228764   3.133   4.633  13.471  0.4290  0.8739  0.3375
 5711SOL     OW28765   1.069   1.963  11.087  0.2775  0.3624  0.3532
 5711SOL    HW128766   1.134   1.903  11.123  0.3997  0.8813  0.9963
 5711SOL    HW228767   1.078   1.964  10.991  3.8277  0.8080  0.7066
 5712SOL     OW28768   1.094   3.446   6.951  0.1266  0.0361 -0.0647
 5712SOL    HW128769   1.046   3.419   7.029  0.2707  0.0876  0.0412
 5712SOL    HW228770   1.025   3.474   6.890 -1.1191 -1.4832  0.6617
 5713SOL     OW28771   2.863   3.062   4.594  0.1564  0.1994  0.4388
 5713SOL    HW128772   2.767   3.070   4.596  0.2295  1.5167 -1.4472
 5713SOL    HW228773   2.889   3.129   4.532  0.1304 -1.2822 -1.1512
 5714SOL     OW28774   4.690   4.471   5.586  0.1914  0.5210  0.3790
 5714SOL    HW128775   4.702   4.378   5.606 -0.2421  0.5674  0.8606
 5714SOL    HW228776   0.002   4.484   5.502  0.5001  0.0897  0.4825
 5715SOL     OW28777   4.363   4.423   9.588 -0.2244 -0.5436  0.6083
 5715SOL    HW128778   4.325   4.344   9.626 -2.4975  0.2938  0.0635
 5715SOL    HW228779   4.453   4.411   9.618  0.7800  2.1962 -1.3626
 5716SOL     OW28780   0.404   3.181   6.958  0.6387  0.8571  0.1179
 5716SOL    HW128781   0.386   3.157   7.049  1.2122  2.7114  0.7327
 5716SOL    HW228782   0.421   3.275   6.972 -1.4633  1.3749 -0.7162
 5717SOL     OW28783   2.700   1.901  17.504  0.4763  0.3647 -0.0411
 5717SOL    HW128784   2.651   1.845  17.565  1.8715 -1.2361 -0.3889
 5717SOL    HW228785   2.636   1.922  17.437 -0.5795 -0.0876  0.8191
 5718SOL     OW28786   1.189   4.631  10.219  0.2696 -0.4175  0.0901
 5718SOL    HW128787   1.105   4.637  10.265  0.2741  0.2109  0.0060
 5718SOL    HW228788   1.227   4.718  10.219 -3.6241  1.2883  0.9105
 5719SOL     OW28789   1.014   3.117   7.210  0.0092  0.3283 -0.3275
 5719SOL    HW128790   0.977   3.133   7.297  1.3817  1.9902 -0.0493
 5719SOL    HW228791   0.951   3.049   7.187  0.6830 -0.3607 -0.1460
 5720SOL     OW28792   3.102   0.057   5.159  0.0413 -0.0545 -0.2881
 5720SOL    HW128793   3.052   0.075   5.079 -0.4571 -1.2007 -0.2330
 5720SOL    HW228794   3.032   0.022   5.214 -2.4486  2.1943 -1.9621
 5721SOL     OW28795   0.205   0.230   7.638  0.1282 -0.0965  0.3329
 5721SOL    HW128796   0.158   0.228   7.554  1.0445  0.4843 -0.1973
 5721SOL    HW228797   0.280   0.287   7.623 -0.1189 -0.4093 -2.1199
 5722SOL     OW28798   4.262   1.593   6.369  0.5722 -0.3023  0.2309
 5722SOL    HW128799   4.222   1.614   6.285  0.6238 -0.1780  0.2368
 5722SOL    HW228800   4.187   1.586   6.428  0.2333  1.3233 -0.0248
 5723SOL     OW28801   0.676   2.164   0.495  0.2607 -1.0161 -0.1804
 5723SOL    HW128802   0.649   2.126   0.579  0.5236 -0.4464  0.1637
 5723SOL    HW228803   0.725   2.240   0.527 -0.4340 -0.7438  0.2393
 5724SOL     OW28804   0.296   0.585   4.335 -0.5244  0.0730  0.6001
 5724SOL    HW128805   0.234   0.546   4.397 -1.1379  2.9993  1.8396
 5724SOL    HW228806   0.266   0.676   4.325 -0.1585  0.1643  0.3240
 5725SOL     OW28807   0.689   0.483   8.346  0.3534  0.4321 -0.0933
 5725SOL    HW128808   0.733   0.564   8.374  0.1932  0.2237  0.7575
 5725SOL    HW228809   0.709   0.437   8.428  0.2222 -2.2730 -1.5813
 5726SOL     OW28810   4.668   1.720   2.022  0.7560  0.1906  0.1235
 5726SOL    HW128811   4.579   1.735   1.991  0.4091  0.0130  1.0512
 5726SOL    HW228812   4.668   1.626   2.003  1.2247  0.3784 -0.8056
 5727SOL     OW28813   3.329   3.593   6.616 -0.2227 -0.7515  0.1893
 5727SOL    HW128814   3.383   3.602   6.695  1.1029  1.1852 -0.9455
 5727SOL    HW228815   3.381   3.553   6.547  1.3723  0.1159  0.8857
 5728SOL     OW28816   3.833   0.660   7.899  0.1177 -0.2125 -0.3371
 5728SOL    HW128817   3.756   0.651   7.956  1.0646  1.0102  1.1486
 5728SOL    HW228818   3.898   0.684   7.965  1.0205  0.3825 -1.4393
 5729SOL     OW28819   1.839   2.494  16.769  0.4189 -0.2934  0.4648
 5729SOL    HW128820   1.798   2.455  16.847 -0.8526  0.3669  0.1230
 5729SOL    HW228821   1.774   2.552  16.731 -0.7669 -1.3061  0.9354
 5730SOL     OW28822   4.379   4.307   6.262 -0.0503 -0.2986 -0.1571
 5730SOL    HW128823   4.305   4.275   6.315  0.7467 -1.1868  0.4108
 5730SOL    HW228824   4.440   4.233   6.265  0.2476  0.0103  1.4224
 5731SOL     OW28825   4.474   4.556   8.318  0.4685 -0.0257  0.0295
 5731SOL    HW128826   4.516   4.640   8.301 -1.0088  0.4736 -1.1804
 5731SOL    HW228827   4.383   4.569   8.347  0.4945  2.2257 -0.8988
 5732SOL     OW28828   4.683   1.222   6.519  0.1286  0.1308  0.2745
 5732SOL    HW128829   0.001   1.144   6.539 -0.1789 -0.1898 -0.1596
 5732SOL    HW228830   4.705   1.238   6.427 -1.2005  1.5106  0.1933
 5733SOL     OW28831   1.631   4.145   4.529 -0.1083  0.2354  0.4782
 5733SOL    HW128832   1.659   4.095   4.606  2.7988  1.9231  0.4930
 5733SOL    HW228833   1.696   4.123   4.463  0.2859  2.6452  0.0737
 5734SOL     OW28834   0.710   2.800   4.403 -0.4558 -0.6397 -0.3312
 5734SOL    HW128835   0.763   2.753   4.468  1.0678  1.2237 -0.2338
 5734SOL    HW228836   0.715   2.890   4.435  1.2852 -1.2141  1.0172
 5735SOL     OW28837   0.306   1.609   6.796 -0.1651 -0.3474 -0.3508
 5735SOL    HW128838   0.338   1.666   6.727  2.4238 -0.4786  0.7298
 5735SOL    HW228839   0.281   1.532   6.746  1.2531  0.1807 -1.8421
 5736SOL     OW28840   2.988   3.494   8.938  0.2002  0.0686 -0.0452
 5736SOL    HW128841   3.032   3.439   8.873 -1.4724  0.1670 -1.2624
 5736SOL    HW228842   2.948   3.557   8.878  0.2051 -1.3668 -1.5489
 5737SOL     OW28843   1.831   3.237   2.357  0.7535 -0.6111 -0.0471
 5737SOL    HW128844   1.823   3.173   2.287 -0.0079 -1.1961  0.5758
 5737SOL    HW228845   1.742   3.267   2.373  0.1471 -2.1267 -0.6518
 5738SOL     OW28846   3.332   2.831   7.404 -0.3838  0.4397  0.2532
 5738SOL    HW128847   3.288   2.748   7.386 -2.7697  1.8446 -0.4201
 5738SOL    HW228848   3.278   2.863   7.477 -1.4672 -0.2601 -0.2344
 5739SOL     OW28849   0.272   2.707   5.557 -0.0029 -0.5368  0.1420
 5739SOL    HW128850   0.305   2.698   5.467 -0.6112 -2.2041  0.0879
 5739SOL    HW228851   0.340   2.748   5.611  0.0455  1.9151 -1.7859
 5740SOL     OW28852   2.378   1.036  14.643  0.3437 -0.6305 -0.5011
 5740SOL    HW128853   2.469   1.017  14.620  0.2024 -1.0661 -0.7018
 5740SOL    HW228854   2.366   0.980  14.720 -2.8673  0.8805  0.0968
 5741SOL     OW28855   1.119   2.095   9.018  0.7611  0.2882  0.4175
 5741SOL    HW128856   1.156   2.153   8.952  0.0036  1.5147  1.0554
 5741SOL    HW228857   1.042   2.062   8.972  1.2979 -0.0182 -0.2599
 5742SOL     OW28858   0.041   4.094  14.994 -0.2508  0.1655  0.4899
 5742SOL    HW128859   0.068   4.152  14.923  1.0098 -2.1450 -0.9519
 5742SOL    HW228860   0.031   4.015  14.940 -1.4956  0.7035 -0.0772
 5743SOL     OW28861   3.040   4.187   0.097 -0.5842 -0.7931 -0.0287
 5743SOL    HW128862   2.978   4.189   0.023 -0.6493 -1.2243  0.0191
 5743SOL    HW228863   3.008   4.118   0.154 -1.3163  0.5972  1.2582
 5744SOL     OW28864   2.688   3.334   6.618 -0.6615  0.2714 -0.3295
 5744SOL    HW128865   2.676   3.243   6.643 -2.4579  0.7746  0.6989
 5744SOL    HW228866   2.605   3.355   6.575 -1.8004 -0.6488  1.4021
 5745SOL     OW28867   3.384   3.195   2.698 -0.3242  0.3034  0.1886
 5745SOL    HW128868   3.355   3.127   2.637 -0.4584  0.0698  0.5140
 5745SOL    HW228869   3.397   3.268   2.638 -0.5644  1.7280  1.8903
 5746SOL     OW28870   1.505   1.839  15.122 -0.1618  0.6312  0.3100
 5746SOL    HW128871   1.584   1.800  15.160 -0.4883 -1.2530 -0.9378
 5746SOL    HW228872   1.447   1.858  15.195 -0.9199  0.6118 -0.2836
 5747SOL     OW28873   1.082   3.049  15.355 -0.1793 -0.0231 -0.3774
 5747SOL    HW128874   1.111   2.987  15.288 -0.8818  0.6742 -1.3135
 5747SOL    HW228875   1.080   2.998  15.436  0.2296  0.9748  0.2639
 5748SOL     OW28876   1.048   2.973   4.419 -0.0108  0.5747  0.2488
 5748SOL    HW128877   1.037   3.068   4.419 -0.5311  0.5157  0.2496
 5748SOL    HW228878   0.999   2.936   4.493  1.4404 -2.1871 -0.1513
 5749SOL     OW28879   2.905   3.356   2.326 -0.4420  0.0226  0.2825
 5749SOL    HW128880   2.965   3.425   2.355  1.8636 -2.0854  0.5061
 5749SOL    HW228881   2.838   3.401   2.274 -0.5097  1.2670  1.4395
 5750SOL     OW28882   4.617   3.414   8.576 -0.2225 -0.3056 -0.4585
 5750SOL    HW128883   4.667   3.424   8.495 -1.3430 -0.4416 -1.1683
 5750SOL    HW228884   4.645   3.490   8.627 -1.9606  0.8020 -1.1301
 5751SOL     OW28885   2.006   0.117  17.314  0.1709  0.3050  0.1378
 5751SOL    HW128886   2.088   0.094  17.271 -0.3693  0.4749 -0.9771
 5751SOL    HW228887   1.945   0.109  17.240 -2.3113  0.9736  2.1143
 5752SOL     OW28888   4.700   0.254   9.131 -0.1950 -0.0687 -0.5289
 5752SOL    HW128889   4.637   0.296   9.189  1.0958  1.0910  0.0550
 5752SOL    HW228890   4.650   0.248   9.049 -2.1369 -2.0956  0.8284
 5753SOL     OW28891   0.226   1.028   5.323 -0.3463 -0.1894  0.9758
 5753SOL    HW128892   0.218   1.062   5.412 -3.7098 -0.6605  0.8480
 5753SOL    HW228893   0.136   0.999   5.307 -0.1347 -1.5544  2.2854
 5754SOL     OW28894   3.459   3.954   0.059 -0.1646  0.0949  0.3703
 5754SOL    HW128895   3.436   3.868   0.025 -0.7670 -0.0251  1.0760
 5754SOL    HW228896   3.462   4.003  17.713  0.1432 -0.5396 -0.0002
 5755SOL     OW28897   2.045   2.247   6.782 -0.1333  0.1924  0.7109
 5755SOL    HW128898   1.964   2.297   6.776 -0.6170 -0.6334  0.3757
 5755SOL    HW228899   2.100   2.279   6.710 -0.0032 -2.1589 -0.2221
 5756SOL     OW28900   3.374   2.702  10.029 -0.1494 -0.4366  0.1219
 5756SOL    HW128901   3.332   2.723  10.113  1.2795  1.7962  0.2944
 5756SOL    HW228902   3.465   2.731  10.042  0.1005 -1.4056  0.5016
 5757SOL     OW28903   2.051   3.322   4.207  0.1504  0.4396  0.0405
 5757SOL    HW128904   2.112   3.251   4.187  0.0285 -0.0720  1.4837
 5757SOL    HW228905   2.103   3.402   4.214 -2.7529  2.5723 -2.5843
 5758SOL     OW28906   0.253   2.805  15.685  0.2173 -0.3486  0.1492
 5758SOL    HW128907   0.311   2.873  15.650  0.1793 -0.9320 -1.0556
 5758SOL    HW228908   0.225   2.756  15.607  1.8069 -2.2820  0.8069
 5759SOL     OW28909   1.009   4.281   7.371 -0.4847  0.2077 -0.1090
 5759SOL    HW128910   0.925   4.251   7.336  0.3665 -3.1881  0.7760
 5759SOL    HW228911   1.067   4.294   7.297 -0.0613  0.0090  0.1930
 5760SOL     OW28912   0.063   3.095   5.850 -0.3359 -0.4090 -0.1339
 5760SOL    HW128913   0.052   3.077   5.757  0.1092  0.8113 -0.4173
 5760SOL    HW228914   0.103   3.181   5.848  0.4480 -0.8262 -2.6176
 5761SOL     OW28915   2.220   2.109   8.853 -0.2399  0.5780  0.1807
 5761SOL    HW128916   2.151   2.093   8.918 -1.9667  1.5500 -1.4071
 5761SOL    HW228917   2.178   2.178   8.801 -1.5571 -1.6184 -1.6996
 5762SOL     OW28918   1.244   4.600   4.440  0.3309  0.3367  0.1238
 5762SOL    HW128919   1.169   4.654   4.461  0.4256  0.9337 -1.1348
 5762SOL    HW228920   1.198   4.519   4.418  0.6835 -0.2131  1.3724
 5763SOL     OW28921   0.631   1.541   3.505 -0.6103  0.1294 -0.4161
 5763SOL    HW128922   0.566   1.500   3.562 -0.4959  1.9112  0.9996
 5763SOL    HW228923   0.646   1.624   3.551  1.5215 -0.1325 -0.6637
 5764SOL     OW28924   0.836   3.838   8.417  0.1280 -0.1372  0.0555
 5764SOL    HW128925   0.800   3.920   8.451  1.9217  1.6503 -2.3242
 5764SOL    HW228926   0.875   3.806   8.498  2.6679  1.9094 -0.3410
 5765SOL     OW28927   1.209   2.419   5.558  0.3075  0.4758 -0.3748
 5765SOL    HW128928   1.157   2.424   5.638  2.1622  0.4407  0.8415
 5765SOL    HW228929   1.269   2.348   5.580  1.9454  2.1711  0.6009
 5766SOL     OW28930   4.366   2.326   5.546  0.5744  0.8763 -0.1259
 5766SOL    HW128931   4.458   2.333   5.572  0.0521 -0.3745  2.0540
 5766SOL    HW228932   4.370   2.231   5.531  0.2188  0.6508  1.2281
 5767SOL     OW28933   1.211   1.015   3.407 -0.2217  0.0172  0.5928
 5767SOL    HW128934   1.210   1.033   3.501 -1.8146  1.5235  0.2883
 5767SOL    HW228935   1.120   0.989   3.391 -1.1894  3.3586  0.6093
 5768SOL     OW28936   0.879   2.427   2.064 -0.2412 -0.1893  0.7285
 5768SOL    HW128937   0.861   2.445   2.156  0.7704  0.8073  0.7187
 5768SOL    HW228938   0.848   2.509   2.024  3.9732  0.9764 -0.1037
 5769SOL     OW28939   2.891   4.150  12.128  0.0675 -0.0689 -0.6532
 5769SOL    HW128940   2.913   4.076  12.184  2.6597 -0.2259 -1.9110
 5769SOL    HW228941   2.808   4.178  12.167 -1.1479 -1.4786 -2.2053
 5770SOL     OW28942   1.881   0.642   4.727  0.2235 -0.3828 -0.0308
 5770SOL    HW128943   1.965   0.596   4.727  1.0029  1.0500 -0.6993
 5770SOL    HW228944   1.821   0.569   4.709 -1.2614  0.0620  3.0744
 5771SOL     OW28945   0.809   3.651   3.927 -0.5762  1.1707 -0.0934
 5771SOL    HW128946   0.816   3.600   3.846 -0.0922 -0.7735  1.1709
 5771SOL    HW228947   0.871   3.602   3.982 -0.3742 -0.4875 -1.7806
 5772SOL     OW28948   0.840   3.408   5.639  0.6599 -0.1582 -0.5362
 5772SOL    HW128949   0.936   3.404   5.641  0.6717  0.4495  0.2505
 5772SOL    HW228950   0.822   3.456   5.720 -0.8149 -0.4404 -0.7062
 5773SOL     OW28951   4.140   0.092   5.509  0.4409  0.0044 -0.4272
 5773SOL    HW128952   4.127   0.106   5.415 -1.7961 -1.1566 -0.2728
 5773SOL    HW228953   4.186   0.174   5.529 -0.8558  0.6900 -0.2746
 5774SOL     OW28954   2.598   4.463   1.516 -0.3316 -0.2833 -0.0099
 5774SOL    HW128955   2.622   4.487   1.605 -0.7688  1.9610 -0.4764
 5774SOL    HW228956   2.515   4.418   1.532 -0.4458  0.9815  2.8932
 5775SOL     OW28957   0.948   3.322   5.153  0.4551 -0.2326  0.6737
 5775SOL    HW128958   0.964   3.391   5.218  1.6152 -0.4810  0.6645
 5775SOL    HW228959   1.010   3.252   5.175  0.2981 -0.2457  1.0607
 5776SOL     OW28960   2.429   1.242   6.986 -0.2079  0.1355 -0.5726
 5776SOL    HW128961   2.503   1.200   6.942 -0.0278  0.0105 -0.1445
 5776SOL    HW228962   2.472   1.326   7.002 -0.2568 -0.2061  1.2911
 5777SOL     OW28963   2.975   4.598  16.492 -0.0202  0.1819  0.1315
 5777SOL    HW128964   2.949   4.537  16.422  0.5947 -3.2392  2.8616
 5777SOL    HW228965   2.974   4.675  16.436 -0.8382 -1.0812 -1.5889
 5778SOL     OW28966   0.958   0.218   1.914  0.1998  0.1192 -0.0297
 5778SOL    HW128967   0.892   0.287   1.921 -0.3497 -0.4614  0.5672
 5778SOL    HW228968   0.944   0.165   1.993  1.0206 -0.5910 -0.3642
 5779SOL     OW28969   1.290   2.037   9.210 -0.2642 -0.9864 -0.2069
 5779SOL    HW128970   1.380   2.048   9.182  0.2153 -2.6169  0.6771
 5779SOL    HW228971   1.242   2.050   9.128 -2.1818 -2.5128  0.6595
 5780SOL     OW28972   1.287   2.480   8.098 -0.4919  0.2614 -0.4425
 5780SOL    HW128973   1.243   2.395   8.094 -0.3301  0.0242  2.3983
 5780SOL    HW228974   1.236   2.536   8.041 -1.2839  0.4372  0.4394
 5781SOL     OW28975   2.548   1.055  14.406 -0.1910 -0.4094  0.6563
 5781SOL    HW128976   2.493   0.980  14.383 -2.8802  2.0098 -0.7726
 5781SOL    HW228977   2.486   1.125  14.383  1.6237  0.5755 -1.2899
 5782SOL     OW28978   4.034   0.480   0.759 -0.2521 -0.0239  0.2382
 5782SOL    HW128979   4.018   0.436   0.843  2.5968 -0.8685  0.3459
 5782SOL    HW228980   4.043   0.568   0.795  1.7379  0.6665 -1.9176
 5783SOL     OW28981   2.045   1.186   6.443  0.3310 -0.0578 -0.2405
 5783SOL    HW128982   2.037   1.126   6.517 -0.2856  1.2469  0.7496
 5783SOL    HW228983   2.131   1.160   6.409 -0.1430 -1.9057 -0.0052
 5784SOL     OW28984   2.194   1.530  11.839 -0.4103 -0.3746 -0.0052
 5784SOL    HW128985   2.233   1.477  11.909  1.4160 -1.3400 -1.7572
 5784SOL    HW228986   2.147   1.469  11.782  0.5808  0.2840 -1.5188
 5785SOL     OW28987   4.196   3.107   5.054  0.5180 -0.2152 -0.2160
 5785SOL    HW128988   4.168   3.150   5.135  1.1435  1.0895 -0.6739
 5785SOL    HW228989   4.161   3.166   4.988 -2.2005  1.1689  2.4492
 5786SOL     OW28990   4.491   1.209   3.161 -0.3205  0.5513 -0.1183
 5786SOL    HW128991   4.467   1.153   3.087  2.4883 -1.3128  0.3680
 5786SOL    HW228992   4.512   1.142   3.227 -0.9149  0.1529 -0.3320
 5787SOL     OW28993   1.685   3.394   5.181  0.4003  0.3360 -0.1979
 5787SOL    HW128994   1.688   3.487   5.162  2.4128  0.3461  0.1968
 5787SOL    HW228995   1.743   3.355   5.115  2.4936  1.7874  0.7860
 5788SOL     OW28996   3.340   3.768  15.039  0.2286 -0.1462  0.5036
 5788SOL    HW128997   3.245   3.773  15.033  0.2215  1.0168  1.4602
 5788SOL    HW228998   3.357   3.693  14.983  1.2197 -0.5730  1.3825
 5789SOL     OW28999   2.105   1.402   1.088 -0.0388  0.1571 -0.1552
 5789SOL    HW129000   2.128   1.490   1.059  1.6673 -0.5578 -0.9683
 5789SOL    HW229001   2.112   1.356   1.004  0.9400 -0.6437  0.3593
 5790SOL     OW29002   3.910   1.497   2.608  0.3165 -0.1654 -0.3788
 5790SOL    HW129003   3.826   1.484   2.563 -0.7121  0.5377  1.3199
 5790SOL    HW229004   3.882   1.534   2.692  1.5657 -0.3413  0.1143
 5791SOL     OW29005   3.545   1.381  17.509 -0.1990 -0.1861 -0.3693
 5791SOL    HW129006   3.579   1.294  17.490  1.3276 -0.1015  2.1174
 5791SOL    HW229007   3.621   1.409  17.559  1.9246  0.4395 -3.9311
 5792SOL     OW29008   0.933   3.096   2.341 -0.3587  0.2771 -0.0551
 5792SOL    HW129009   0.871   3.075   2.411 -0.5219  2.6340  0.5161
 5792SOL    HW229010   0.998   3.139   2.397 -0.1705 -0.0537 -0.0203
 5793SOL     OW29011   1.360   4.371   8.006 -0.1268  0.5085  0.0403
 5793SOL    HW129012   1.287   4.314   7.981  0.9852 -0.2444 -1.5410
 5793SOL    HW229013   1.414   4.373   7.927 -0.2647  1.4955 -0.0222
 5794SOL     OW29014   3.938   4.010   7.261  0.7199  0.4889 -0.4773
 5794SOL    HW129015   3.891   3.954   7.323 -1.1114  1.8738 -0.6430
 5794SOL    HW229016   4.025   3.972   7.272  0.2099 -1.0464 -1.7496
 5795SOL     OW29017   4.074   4.195  16.107 -0.2904  0.2127  0.1811
 5795SOL    HW129018   4.112   4.280  16.086 -0.7539  0.9988  2.5084
 5795SOL    HW229019   3.980   4.199  16.088 -0.0838 -0.9555 -1.1296
 5796SOL     OW29020   2.377   0.051   5.262 -0.1623  0.2139 -0.2140
 5796SOL    HW129021   2.419   0.115   5.320  2.4201  1.1749 -3.1308
 5796SOL    HW229022   2.408   4.707   5.308  0.0478  0.1522 -0.4648
 5797SOL     OW29023   0.790   2.492   6.537 -0.0678 -0.9603 -0.1200
 5797SOL    HW129024   0.837   2.448   6.466  1.9807  0.0918  0.5797
 5797SOL    HW229025   0.859   2.488   6.603 -1.6000 -1.6454  1.4415
 5798SOL     OW29026   1.838   1.598   7.791  0.6376  0.7235 -0.2793
 5798SOL    HW129027   1.873   1.525   7.842  1.6762  0.8254 -0.8567
 5798SOL    HW229028   1.747   1.580   7.767  0.6499 -1.8533  1.5570
 5799SOL     OW29029   2.392   1.361   3.195 -0.2149  0.2585  0.0161
 5799SOL    HW129030   2.455   1.430   3.214 -0.3766  0.1855  0.7918
 5799SOL    HW229031   2.368   1.400   3.110 -1.4328 -0.2601  0.1228
 5800SOL     OW29032   3.209   2.899   8.637 -0.3789  0.5392 -0.1792
 5800SOL    HW129033   3.293   2.863   8.610 -0.6661 -0.6503  0.5026
 5800SOL    HW229034   3.199   2.853   8.720  1.4997 -0.2044 -0.3705
 5801SOL     OW29035   4.130   2.139   8.805  0.2949  0.3154  0.2578
 5801SOL    HW129036   4.063   2.126   8.737  0.2992 -0.4901  0.4029
 5801SOL    HW229037   4.161   2.225   8.777 -0.0098  0.6465  0.9547
 5802SOL     OW29038   2.832   4.247   2.839  0.3192 -0.3970  0.5803
 5802SOL    HW129039   2.751   4.213   2.876  0.0808  0.8285  1.2076
 5802SOL    HW229040   2.876   4.178   2.789  1.3071 -0.6890  1.8250
 5803SOL     OW29041   1.835   3.310   6.451 -0.3813  1.3709  0.1604
 5803SOL    HW129042   1.842   3.383   6.390  0.2971  0.7147 -0.5472
 5803SOL    HW229043   1.914   3.261   6.429 -0.9014  0.0372  1.2654
 5804SOL     OW29044   1.256   4.023   5.522 -0.2894  0.6215 -0.4544
 5804SOL    HW129045   1.231   4.063   5.438 -4.3139 -0.1190  0.4132
 5804SOL    HW229046   1.352   4.034   5.517 -0.3749  0.6488 -2.2257
 5805SOL     OW29047   3.973   4.093   6.439 -0.0674 -0.2174 -0.0346
 5805SOL    HW129048   3.925   4.100   6.357 -1.2042  0.9182  0.7210
 5805SOL    HW229049   4.024   4.173   6.451 -0.4373  0.3543 -2.3021
 5806SOL     OW29050   0.134   1.639  13.470 -0.1334 -0.1672  0.4016
 5806SOL    HW129051   0.151   1.729  13.496  1.7147 -0.5616  0.5240
 5806SOL    HW229052   0.202   1.592  13.519  0.2671  1.7424  1.6852
 5807SOL     OW29053   0.158   2.357  13.015  0.8948 -0.0989 -0.2634
 5807SOL    HW129054   0.200   2.294  12.957  2.6094 -1.7312  2.7527
 5807SOL    HW229055   0.234   2.411  13.036  0.4579 -0.2217  1.6990
 5808SOL     OW29056   3.609   0.657  12.276 -0.2271 -0.1431 -0.5302
 5808SOL    HW129057   3.638   0.566  12.268 -1.1027 -0.2902 -1.9052
 5808SOL    HW229058   3.526   0.667  12.231  0.0353  0.9942 -0.7595
 5809SOL     OW29059   0.803   0.774   7.541 -0.1395  0.2989  0.0108
 5809SOL    HW129060   0.798   0.732   7.627  0.6591 -1.0569 -0.6070
 5809SOL    HW229061   0.896   0.762   7.523 -0.2859 -0.5054 -0.1906
 5810SOL     OW29062   3.476   3.140   5.056 -0.2966 -0.0136 -0.0066
 5810SOL    HW129063   3.469   3.151   4.961 -1.2329 -1.0873 -0.0671
 5810SOL    HW229064   3.388   3.109   5.079  0.0556 -1.2335 -0.2710
 5811SOL     OW29065   3.726   1.297  14.333 -0.2212 -0.7836  0.1467
 5811SOL    HW129066   3.683   1.212  14.335  0.1442 -0.9643  0.5081
 5811SOL    HW229067   3.802   1.267  14.383  1.2348 -0.0411 -1.6071
 5812SOL     OW29068   3.012   3.630   7.178  0.5124  0.3152 -0.3690
 5812SOL    HW129069   3.101   3.632   7.143  0.8737 -2.5471  0.3707
 5812SOL    HW229070   2.975   3.555   7.132 -1.4063  0.5684  0.7538
 5813SOL     OW29071   2.897   0.846  16.372 -0.2035 -0.1317 -0.1249
 5813SOL    HW129072   2.942   0.920  16.334 -1.8268  0.9467  0.0536
 5813SOL    HW229073   2.901   0.778  16.305 -0.2017 -0.9870  0.7241
 5814SOL     OW29074   0.928   2.976   5.267 -0.0466  0.0505  0.4193
 5814SOL    HW129075   0.867   3.015   5.329  1.1640  0.0483  1.6253
 5814SOL    HW229076   1.006   3.025   5.292 -0.7491  0.7636  1.2013
 5815SOL     OW29077   0.630   1.388   4.629  0.1601  0.3091  0.0670
 5815SOL    HW129078   0.700   1.326   4.651 -0.2542  0.1937  1.1166
 5815SOL    HW229079   0.663   1.444   4.560 -0.2078 -1.5745 -1.6335
 5816SOL     OW29080   3.683   2.408   6.293 -0.3370  0.2954  0.1406
 5816SOL    HW129081   3.621   2.467   6.335 -1.4130  0.1252 -1.2160
 5816SOL    HW229082   3.723   2.469   6.231 -2.3957  3.5977  2.1397
 5817SOL     OW29083   4.561   4.482   8.736 -0.1320 -0.1665 -0.4187
 5817SOL    HW129084   4.597   4.405   8.691  0.5326  0.1076 -0.3469
 5817SOL    HW229085   4.640   4.510   8.783 -1.1480  2.5514 -0.3891
 5818SOL     OW29086   4.081   2.546   0.031  0.5758 -0.0114 -0.3246
 5818SOL    HW129087   4.003   2.600   0.039 -0.8394 -2.0948  0.1277
 5818SOL    HW229088   4.130   2.589  17.697  0.4911  1.5227  0.5732
 5819SOL     OW29089   2.383   0.051   2.329  0.2766  0.0554  0.0324
 5819SOL    HW129090   2.302   4.734   2.332 -0.1375  0.7347  0.5593
 5819SOL    HW229091   2.398   0.101   2.410 -0.8783 -1.5887  1.2661
 5820SOL     OW29092   4.392   1.114  16.106 -0.4104  0.8497  0.0969
 5820SOL    HW129093   4.463   1.053  16.086 -0.5832  0.0137  2.0127
 5820SOL    HW229094   4.356   1.113  16.017 -1.3072 -1.7473  0.4784
 5821SOL     OW29095   1.216   2.995   0.165 -0.2148 -0.0416  0.1839
 5821SOL    HW129096   1.231   3.088   0.184  0.5029  0.2878 -1.9840
 5821SOL    HW229097   1.174   2.997   0.079 -1.7015  0.7468  0.9191
 5822SOL     OW29098   2.269   1.272   2.365  0.1609 -0.4403  0.2201
 5822SOL    HW129099   2.290   1.296   2.455 -3.2474 -1.1863  1.2145
 5822SOL    HW229100   2.278   1.352   2.313 -0.7933 -0.9809 -0.7784
 5823SOL     OW29101   4.138   2.596  16.325  0.1240 -0.1697 -0.0858
 5823SOL    HW129102   4.178   2.568  16.242 -0.3538 -0.2871 -0.2761
 5823SOL    HW229103   4.169   2.686  16.314 -2.1980  0.6073 -0.2654
 5824SOL     OW29104   2.723   1.391   6.177  0.1920 -0.0426 -0.5344
 5824SOL    HW129105   2.733   1.482   6.149  1.9426  0.3060  1.1478
 5824SOL    HW229106   2.700   1.344   6.098 -0.2006  1.1222 -1.1186
 5825SOL     OW29107   2.943   2.606   4.298  0.4655  0.5230  0.0687
 5825SOL    HW129108   2.938   2.520   4.257 -0.3911  0.3289  0.5687
 5825SOL    HW229109   2.849   2.622   4.302  0.3891 -0.2502  1.4274
 5826SOL     OW29110   3.350   1.362   3.634  0.4955  0.1694 -0.3841
 5826SOL    HW129111   3.394   1.277   3.626  1.1602  0.3979  0.9418
 5826SOL    HW229112   3.425   1.408   3.671 -0.0084  1.2443 -0.7231
 5827SOL     OW29113   3.397   1.036   4.934 -0.2183  0.3052  0.6781
 5827SOL    HW129114   3.311   0.995   4.927  0.7001 -1.2009 -1.7042
 5827SOL    HW229115   3.454   0.962   4.911  0.4654  1.0900 -0.1255
 5828SOL     OW29116   2.296   3.777  15.547  0.1233 -0.0876 -0.4509
 5828SOL    HW129117   2.221   3.724  15.576 -0.2404  0.9769  0.5405
 5828SOL    HW229118   2.253   3.858  15.576  0.0246 -1.4528  3.2165
 5829SOL     OW29119   3.170   4.695   3.198 -0.2902  0.0325  0.5095
 5829SOL    HW129120   3.115   4.687   3.119 -0.6367  0.1826  0.7348
 5829SOL    HW229121   3.254   4.665   3.163  0.1339 -0.3627  1.8908
 5830SOL     OW29122   4.044   1.067   3.468  0.0585 -0.8070 -0.2604
 5830SOL    HW129123   4.094   1.092   3.546  0.8169  1.3133 -1.4436
 5830SOL    HW229124   3.952   1.064   3.496 -0.1566  0.8506 -0.7924
 5831SOL     OW29125   0.293   2.559  16.367 -0.5086 -0.2719  0.5366
 5831SOL    HW129126   0.332   2.482  16.325 -0.5890  0.6167 -1.1537
 5831SOL    HW229127   0.305   2.627  16.300  2.1107  0.4127  1.6559
 5832SOL     OW29128   0.141   0.860  12.513 -0.3992 -0.1162 -0.2974
 5832SOL    HW129129   0.224   0.837  12.472 -0.0397  1.1050 -0.2521
 5832SOL    HW229130   0.152   0.950  12.544  0.1208 -0.1961 -0.2628
 5833SOL     OW29131   3.655   1.348   2.827  0.1560  0.3335  0.0756
 5833SOL    HW129132   3.684   1.396   2.905  2.1185  0.6081 -0.8357
 5833SOL    HW229133   3.689   1.259   2.841 -0.3032  0.1860  0.2535
 5834SOL     OW29134   4.049   3.027  17.611 -0.1303  0.0252  0.0463
 5834SOL    HW129135   3.995   3.007  17.687  0.2161 -1.0658 -0.0046
 5834SOL    HW229136   4.083   2.940  17.589 -1.7512  0.0911 -2.7623
 5835SOL     OW29137   3.101   4.019   3.451  0.4027  0.1312  0.4950
 5835SOL    HW129138   3.152   4.057   3.523 -0.9802  0.7398  1.1683
 5835SOL    HW229139   3.081   4.101   3.405 -2.0582 -1.3414 -1.0171
 5836SOL     OW29140   1.045   2.958   5.669  0.2434 -0.3471  0.4079
 5836SOL    HW129141   0.968   3.014   5.679 -0.3631 -1.1844  0.4709
 5836SOL    HW229142   1.028   2.903   5.593 -0.1490  1.2227 -0.6400
 5837SOL     OW29143   2.433   3.050   2.914 -0.0497 -0.7935 -0.5413
 5837SOL    HW129144   2.500   3.020   2.853  0.3969 -1.6685  0.3833
 5837SOL    HW229145   2.400   2.965   2.942 -0.7354 -0.0974  0.7387
 5838SOL     OW29146   3.774   1.080   2.878 -0.2003 -0.3131  0.2768
 5838SOL    HW129147   3.846   1.065   2.939 -0.0347  0.4637  0.2764
 5838SOL    HW229148   3.701   1.048   2.932 -2.0753 -1.0857 -2.7047
 5839SOL     OW29149   0.168   2.951  10.628 -0.6872  0.2015 -0.2252
 5839SOL    HW129150   0.096   2.959  10.566 -0.6524 -0.1723 -0.3125
 5839SOL    HW229151   0.210   2.873  10.594  0.1520  0.4744  0.1802
 5840SOL     OW29152   0.163   1.395  11.410  0.5033 -0.0938  0.2350
 5840SOL    HW129153   0.150   1.480  11.452 -1.5070 -0.2682 -0.0453
 5840SOL    HW229154   0.129   1.343  11.483  0.4250 -0.7383 -0.2626
 5841SOL     OW29155   4.617   3.848  15.178 -0.0317 -0.3984 -0.0847
 5841SOL    HW129156   4.641   3.860  15.087  0.7662  0.8916  0.2995
 5841SOL    HW229157   4.530   3.809  15.169 -1.3199  2.5760 -0.7507
 5842SOL     OW29158   3.660   2.965   5.472  0.3408 -0.1232  0.3293
 5842SOL    HW129159   3.703   3.048   5.492  1.1881 -0.6148  0.5819
 5842SOL    HW229160   3.567   2.978   5.486  0.1057 -1.8429  0.4222
 5843SOL     OW29161   4.349   0.615   6.360  0.5436  0.1073  0.0291
 5843SOL    HW129162   4.287   0.598   6.289 -0.2323  0.5683  0.6011
 5843SOL    HW229163   4.391   0.699   6.342  0.8877  0.7792  3.8923
 5844SOL     OW29164   0.363   4.061   4.456  0.2657 -0.1791  0.4262
 5844SOL    HW129165   0.382   4.075   4.549 -0.5768  4.8568 -0.1302
 5844SOL    HW229166   0.273   4.093   4.456  0.3348  0.0201  0.1653
 5845SOL     OW29167   2.414   3.975   3.160 -0.7398  0.1105 -0.2756
 5845SOL    HW129168   2.427   3.880   3.164 -0.9407 -0.0102 -2.2613
 5845SOL    HW229169   2.365   3.983   3.242  1.6086 -1.0877  1.2579
 5846SOL     OW29170   2.210   3.933   4.217 -0.4142 -0.2521  0.8108
 5846SOL    HW129171   2.264   3.943   4.138 -1.3768 -0.3419  0.1471
 5846SOL    HW229172   2.161   4.015   4.224 -1.8055 -1.0900  0.9146
 5847SOL     OW29173   3.849   2.763   4.256 -0.0857  0.0110 -0.0059
 5847SOL    HW129174   3.824   2.673   4.274 -2.1492  0.6501  0.3040
 5847SOL    HW229175   3.843   2.789   4.348  0.1924 -2.2451  0.6446
 5848SOL     OW29176   1.881   3.958  13.091  0.1655  0.0713  0.2799
 5848SOL    HW129177   1.881   3.970  12.996 -0.0552  1.3224  0.4373
 5848SOL    HW229178   1.946   4.017  13.128  0.6017 -1.8763  2.6098
 5849SOL     OW29179   0.304   2.128   7.210 -0.2905  0.0615  0.6722
 5849SOL    HW129180   0.320   2.223   7.212  0.9559 -0.1188 -0.2763
 5849SOL    HW229181   0.210   2.118   7.224 -0.6965  1.0419 -1.3942
 5850SOL     OW29182   0.425   4.308   8.576 -0.4568 -0.4278  0.1014
 5850SOL    HW129183   0.489   4.379   8.571  0.1458 -0.9315  0.5548
 5850SOL    HW229184   0.373   4.328   8.498  2.2649 -0.0328 -1.6159
 5851SOL     OW29185   1.248   4.188   7.518  0.5761  0.2693 -0.1531
 5851SOL    HW129186   1.262   4.153   7.430  1.9059  0.3992  0.0021
 5851SOL    HW229187   1.164   4.233   7.509  0.2145 -0.2202  0.7998
 5852SOL     OW29188   1.902   0.437   6.532  0.4282  0.3324 -0.6930
 5852SOL    HW129189   1.849   0.366   6.568  1.6088 -1.3822 -2.3665
 5852SOL    HW229190   1.843   0.512   6.539  0.1247  0.3756 -3.6693
 5853SOL     OW29191   3.794   0.836   5.538  0.5135 -0.0365  0.2955
 5853SOL    HW129192   3.741   0.889   5.596  0.0591 -1.3847  1.1187
 5853SOL    HW229193   3.753   0.850   5.452  3.2086 -2.8669 -1.4913
 5854SOL     OW29194   2.002   3.424   1.402  0.0991 -0.5165 -0.1763
 5854SOL    HW129195   2.084   3.466   1.377  0.2928 -1.2347 -0.7613
 5854SOL    HW229196   2.025   3.385   1.486 -0.7273  0.1569  0.3632
 5855SOL     OW29197   3.394   2.371   5.853 -0.5271 -0.1940 -0.3975
 5855SOL    HW129198   3.384   2.332   5.767 -0.2193 -1.3874  0.1076
 5855SOL    HW229199   3.319   2.429   5.865 -0.3226 -0.1027  0.4877
 5856SOL     OW29200   0.332   3.517   8.428  0.5623 -0.5491  0.2111
 5856SOL    HW129201   0.382   3.549   8.503 -0.0063 -0.2987  0.4797
 5856SOL    HW229202   0.396   3.528   8.357  0.3176 -0.5676 -0.0153
 5857SOL     OW29203   1.507   1.411   6.182  0.2145  0.4818  0.2051
 5857SOL    HW129204   1.593   1.430   6.145  0.0832  2.8978  1.1058
 5857SOL    HW229205   1.453   1.480   6.143 -0.9885 -0.5827 -0.0091
 5858SOL     OW29206   2.764   0.354  15.985  0.3999  0.6731 -0.3475
 5858SOL    HW129207   2.674   0.379  16.005  1.1037  0.9659  2.3647
 5858SOL    HW229208   2.770   0.384  15.894  1.8097  0.3871 -0.3518
 5859SOL     OW29209   4.002   3.389   6.055 -0.0778 -0.6251 -0.2610
 5859SOL    HW129210   3.958   3.400   5.970 -0.5511 -0.4779  0.0053
 5859SOL    HW229211   3.978   3.475   6.090  0.6593 -0.3362 -0.4680
 5860SOL     OW29212   3.532   0.930   7.739 -0.2040 -0.5005  0.1749
 5860SOL    HW129213   3.543   0.963   7.828  0.2008 -0.4615  0.1084
 5860SOL    HW229214   3.504   1.000   7.680 -1.4971  0.7180  2.2219
 5861SOL     OW29215   2.063   1.326   5.305 -0.4217  0.0060 -0.5579
 5861SOL    HW129216   2.080   1.420   5.296 -0.0504  0.0651  0.7613
 5861SOL    HW229217   1.975   1.318   5.343 -0.4249 -3.7026 -1.4137
 5862SOL     OW29218   2.964   1.100   3.098 -0.2509  0.1005 -0.4316
 5862SOL    HW129219   3.050   1.059   3.100  0.4055  1.4706 -0.2954
 5862SOL    HW229220   2.931   1.077   3.011 -1.5731 -1.2532  0.4128
 5863SOL     OW29221   2.472   4.031  11.156 -0.2263 -0.1621 -0.6055
 5863SOL    HW129222   2.417   4.032  11.234 -1.1754  3.1229 -1.3113
 5863SOL    HW229223   2.557   3.997  11.184 -0.6810 -0.6523  0.1654
 5864SOL     OW29224   4.699   3.549  11.533  0.5186 -0.5727  0.4602
 5864SOL    HW129225   4.656   3.486  11.475 -1.2750  1.3448 -0.3022
 5864SOL    HW229226   0.033   3.579  11.472  1.3746 -1.5609  0.9254
 5865SOL     OW29227   4.438   0.589   6.997 -0.1546 -0.2237  0.1058
 5865SOL    HW129228   4.388   0.614   7.075  1.9891  0.8567  1.1100
 5865SOL    HW229229   4.492   0.516   7.027 -2.7886 -1.4542  1.8428
 5866SOL     OW29230   2.260   2.288  15.585  0.0679  0.8089 -0.4808
 5866SOL    HW129231   2.348   2.325  15.589  0.9186 -1.0800 -2.1442
 5866SOL    HW229232   2.233   2.322  15.671  0.2685 -2.7962  0.9853
 5867SOL     OW29233   3.851   1.639   7.101  0.6798 -0.1490  0.1259
 5867SOL    HW129234   3.885   1.729   7.098 -0.8227  0.5017  2.8855
 5867SOL    HW229235   3.761   1.650   7.072  0.6532 -0.2111  0.1837
 5868SOL     OW29236   1.047   1.721   5.184  0.3078  0.4877  0.6059
 5868SOL    HW129237   0.960   1.707   5.222 -0.0703 -1.1104 -0.8720
 5868SOL    HW229238   1.049   1.816   5.178 -0.2514  0.3834 -1.1924
 5869SOL     OW29239   2.580   3.138   6.279 -0.5825 -0.3096  0.0834
 5869SOL    HW129240   2.668   3.103   6.294 -0.8066 -0.6450  0.6247
 5869SOL    HW229241   2.610   3.222   6.245 -1.8990  0.1556  0.0617
 5870SOL     OW29242   0.459   3.054   2.689 -0.2813  0.1562  0.5939
 5870SOL    HW129243   0.440   2.963   2.667 -0.3284  0.0542  1.0519
 5870SOL    HW229244   0.541   3.049   2.739  0.3125  1.3505 -0.2724
 5871SOL     OW29245   3.597   1.697   2.897 -0.4358  0.0789  0.2453
 5871SOL    HW129246   3.606   1.631   2.966 -1.9392 -2.5861 -2.0785
 5871SOL    HW229247   3.680   1.680   2.853 -0.9183  0.3275 -0.7802
 5872SOL     OW29248   3.798   2.852   4.547 -0.1808 -0.7943 -0.2513
 5872SOL    HW129249   3.751   2.910   4.607  1.0843 -2.1620  2.0110
 5872SOL    HW229250   3.766   2.772   4.587 -0.1731 -0.9212 -0.4944
 5873SOL     OW29251   0.268   2.482   3.706 -0.6379 -0.8325 -0.5223
 5873SOL    HW129252   0.292   2.389   3.711 -0.6573 -0.9041 -1.7839
 5873SOL    HW229253   0.174   2.468   3.695 -0.4903 -1.4865 -0.9881
 5874SOL     OW29254   3.253   2.923   3.232 -0.4388  0.6174 -0.2158
 5874SOL    HW129255   3.344   2.908   3.208 -0.5939 -0.3484 -0.2328
 5874SOL    HW229256   3.235   2.831   3.254 -1.2238  1.1622  1.3938
 5875SOL     OW29257   1.019   1.266   2.947  0.4309  0.4528 -0.4623
 5875SOL    HW129258   1.054   1.248   2.859 -1.0442  0.3365 -1.0268
 5875SOL    HW229259   0.927   1.291   2.934  0.4249  1.4444  1.4717
 5876SOL     OW29260   1.123   0.108   4.513 -0.2022 -1.1301  0.2923
 5876SOL    HW129261   1.202   0.141   4.555  0.4715 -1.2664 -0.8589
 5876SOL    HW229262   1.053   0.108   4.578  0.6514 -1.8487  1.2076
 5877SOL     OW29263   3.207   3.065   5.024  0.0984 -0.1254 -0.1366
 5877SOL    HW129264   3.131   3.078   4.967 -0.3031 -1.3773  0.1193
 5877SOL    HW229265   3.211   2.970   5.027  0.8743 -0.1105 -0.7664
 5878SOL     OW29266   4.408   2.628   4.043 -0.2063  0.2267 -0.1825
 5878SOL    HW129267   4.317   2.625   4.013 -0.2832 -0.4922  0.1267
 5878SOL    HW229268   4.392   2.704   4.099  0.9707  1.8705 -2.0885
 5879SOL     OW29269   3.428   3.428   2.457  0.7310 -0.6343 -0.0293
 5879SOL    HW129270   3.478   3.366   2.404 -0.1240 -0.7168 -0.7406
 5879SOL    HW229271   3.353   3.446   2.400  1.1836 -1.1560 -0.7815
 5880SOL     OW29272   4.629   1.606   3.432 -0.0529 -0.6256  0.3299
 5880SOL    HW129273   4.546   1.600   3.478 -1.0257  1.5597 -1.1859
 5880SOL    HW229274   4.633   1.526   3.379  1.4569 -0.3646  0.0318
 5881SOL     OW29275   2.254   4.671   8.283  0.0019 -0.3239  0.7095
 5881SOL    HW129276   2.302   4.606   8.336  1.0477 -0.5680 -0.5264
 5881SOL    HW229277   2.320   4.732   8.249  0.5067 -1.1846  0.1293
 5882SOL     OW29278   2.797   0.963   1.318  0.2194  0.4075 -0.3099
 5882SOL    HW129279   2.852   0.956   1.396 -2.0415  1.6549  1.4154
 5882SOL    HW229280   2.779   1.057   1.318 -0.1416  0.3453  0.7808
 5883SOL     OW29281   2.769   3.098  10.742  0.0752 -0.8626  0.0373
 5883SOL    HW129282   2.723   3.176  10.710  0.4795 -1.2917 -1.5613
 5883SOL    HW229283   2.815   3.121  10.823 -1.3473  0.4823  0.4639
 5884SOL     OW29284   4.715   4.243   3.901  0.2718  0.5645  0.6480
 5884SOL    HW129285   0.053   4.185   3.928  1.6025  1.1036 -1.7742
 5884SOL    HW229286   4.641   4.195   3.937  0.1302  0.1137 -0.2307
 5885SOL     OW29287   0.157   4.367   7.710  0.3798  0.6500 -0.2188
 5885SOL    HW129288   0.081   4.371   7.651  0.8216  0.1414 -0.8276
 5885SOL    HW229289   0.166   4.456   7.746 -4.4015  0.9838  0.1874
 5886SOL     OW29290   0.946   2.513   2.609  0.0961 -0.0839  0.2542
 5886SOL    HW129291   0.858   2.549   2.620  2.2277  4.2402  3.2977
 5886SOL    HW229292   0.930   2.419   2.602  1.1728 -0.2623  0.1482
 5887SOL     OW29293   0.176   3.433   5.388  0.6189 -0.3488 -0.4002
 5887SOL    HW129294   0.111   3.499   5.364  0.5543  0.0101  0.7972
 5887SOL    HW229295   0.247   3.485   5.425 -0.5049  0.0598  1.1477
 5888SOL     OW29296   3.673   3.660   6.981 -0.7209  0.0020  0.1363
 5888SOL    HW129297   3.739   3.612   7.029 -1.8583 -0.0065  1.6644
 5888SOL    HW229298   3.699   3.750   7.001 -2.3286  0.5971 -0.4686
 5889SOL     OW29299   0.824   2.988   2.553 -0.2914 -0.2449  0.3302
 5889SOL    HW129300   0.919   2.989   2.562 -0.0847  0.0401 -2.0513
 5889SOL    HW229301   0.794   3.021   2.639 -1.0621 -1.6872  0.6048
 5890SOL     OW29302   2.052   2.215   7.341 -0.6156  0.6163 -0.0080
 5890SOL    HW129303   2.109   2.291   7.348 -0.1790  0.1543  1.4413
 5890SOL    HW229304   2.045   2.199   7.247 -3.7509 -3.0680  0.8338
 5891SOL     OW29305   0.739   2.663  14.580 -0.1627  0.3809 -0.5019
 5891SOL    HW129306   0.701   2.677  14.493  0.0447  0.7286 -0.5350
 5891SOL    HW229307   0.690   2.583  14.599  1.1839 -0.2513  0.2926
 5892SOL     OW29308   4.335   3.437   6.627 -0.0892  0.3292 -0.6266
 5892SOL    HW129309   4.265   3.377   6.603 -1.0050  0.5781  1.4410
 5892SOL    HW229310   4.307   3.463   6.715  0.3862  1.1823 -0.7305
 5893SOL     OW29311   4.407   4.625   3.347  0.2284 -0.6766 -0.0412
 5893SOL    HW129312   4.381   4.533   3.339 -1.0306 -0.3952  0.7921
 5893SOL    HW229313   4.437   4.649   3.259 -0.8784 -0.6437 -0.4102
 5894SOL     OW29314   1.201   1.256  17.681 -0.3799 -0.3804 -0.1498
 5894SOL    HW129315   1.154   1.332  17.647  0.4665 -0.1960 -0.9113
 5894SOL    HW229316   1.289   1.255  17.643  0.5333  1.2068  1.9369
 5895SOL     OW29317   2.034   1.012   4.556  0.2920  0.4487 -0.0359
 5895SOL    HW129318   2.086   0.978   4.629 -1.2846 -1.0022  0.4199
 5895SOL    HW229319   1.946   0.992   4.589 -0.0684 -0.7919 -1.7464
 5896SOL     OW29320   0.545   3.934   5.546 -0.3320  0.4924  0.2693
 5896SOL    HW129321   0.555   4.016   5.497  1.9220 -0.3474 -0.7112
 5896SOL    HW229322   0.553   3.867   5.478 -0.7887  0.0016  0.7013
 5897SOL     OW29323   3.990   1.392   8.118 -0.1362  0.1359 -0.2870
 5897SOL    HW129324   3.911   1.340   8.135  0.2655  0.0039  1.2035
 5897SOL    HW229325   4.048   1.359   8.187  0.0376 -3.6060 -2.2320
 5898SOL     OW29326   4.320   3.165   3.685 -0.1496  0.2327  0.0135
 5898SOL    HW129327   4.384   3.118   3.737 -0.5122 -1.7544 -1.3529
 5898SOL    HW229328   4.316   3.112   3.605 -0.6099  1.9968 -1.1363
 5899SOL     OW29329   3.617   0.294   8.967 -0.3432 -0.4830 -0.1375
 5899SOL    HW129330   3.522   0.305   8.961 -0.3598 -1.2977 -1.3374
 5899SOL    HW229331   3.641   0.365   8.908 -0.7669 -0.4306 -0.2523
 5900SOL     OW29332   0.961   3.897   7.714 -0.4096  0.3972  0.2557
 5900SOL    HW129333   1.043   3.878   7.668 -0.4609 -1.6737  1.0029
 5900SOL    HW229334   0.990   3.898   7.805  1.7625 -0.4000 -0.4175
 5901SOL     OW29335   1.804   0.932   3.977 -0.4294  0.5454 -0.7309
 5901SOL    HW129336   1.799   1.019   3.939 -1.3388 -0.7539 -3.5389
 5901SOL    HW229337   1.756   0.938   4.061 -0.4315  2.8451 -0.9056
 5902SOL     OW29338   3.020   1.717  15.969 -0.2448 -0.0177  0.3970
 5902SOL    HW129339   2.999   1.806  15.939 -0.3556 -0.0647  0.3326
 5902SOL    HW229340   3.052   1.673  15.891 -1.2117 -2.2456  1.2477
 5903SOL     OW29341   4.228   4.723  15.981  0.3090 -0.5054  0.0557
 5903SOL    HW129342   4.323   4.732  15.995 -0.1059 -0.3429  2.6963
 5903SOL    HW229343   4.215   0.059  15.917  2.8356 -0.6357 -0.6261
 5904SOL     OW29344   1.956   3.223  11.487  0.3602  0.2147 -0.1720
 5904SOL    HW129345   1.918   3.216  11.575 -0.3776 -1.3261 -0.6179
 5904SOL    HW229346   2.049   3.222  11.510  0.5894  0.2226 -1.1192
 5905SOL     OW29347   4.670   0.565   8.065 -0.3873 -0.1340  0.4194
 5905SOL    HW129348   0.014   0.529   8.024 -0.6986 -1.1162  0.6865
 5905SOL    HW229349   4.667   0.641   8.006 -2.0159 -1.8072 -1.6681
 5906SOL     OW29350   2.927   0.844  11.650 -0.2312 -0.0059 -0.1685
 5906SOL    HW129351   2.860   0.848  11.582 -0.8117 -2.4489  0.2661
 5906SOL    HW229352   2.969   0.928  11.633  1.7010 -1.3950 -2.1615
 5907SOL     OW29353   0.585   3.766   8.829 -0.5004 -0.1505  0.1133
 5907SOL    HW129354   0.607   3.676   8.855 -0.9707 -0.6321 -1.1437
 5907SOL    HW229355   0.575   3.809   8.914  0.2081 -1.3130  0.8026
 5908SOL     OW29356   0.346   0.959   8.844  0.0620 -0.5877 -0.5926
 5908SOL    HW129357   0.396   0.925   8.919 -2.3783 -1.6974  0.5359
 5908SOL    HW229358   0.327   0.886   8.785 -1.1740  0.3454 -1.3463
 5909SOL     OW29359   0.489   3.375   3.619 -0.3528  0.0418 -0.6206
 5909SOL    HW129360   0.396   3.358   3.606 -0.1316 -0.4209 -1.5728
 5909SOL    HW229361   0.490   3.468   3.640  0.5215  0.4767 -2.5828
 5910SOL     OW29362   2.735   1.101  16.791  0.1702  0.0136 -0.5723
 5910SOL    HW129363   2.649   1.065  16.814  0.6391 -0.7228  0.0224
 5910SOL    HW229364   2.738   1.172  16.855  0.5225  0.4366 -1.0627
 5911SOL     OW29365   1.209   4.194   6.325  0.2855  0.0399  0.1898
 5911SOL    HW129366   1.267   4.145   6.267  1.9018  0.8322  1.1337
 5911SOL    HW229367   1.142   4.225   6.264  0.3368  0.4853  0.3608
 5912SOL     OW29368   1.785   0.241   5.205 -0.0993  0.4887 -0.0497
 5912SOL    HW129369   1.705   0.210   5.162  0.6456 -0.5766 -0.6742
 5912SOL    HW229370   1.790   0.193   5.287 -1.9966  0.8871  0.3025
 5913SOL     OW29371   3.093   4.013   5.159 -0.2881 -0.5989  0.0701
 5913SOL    HW129372   3.127   4.051   5.078  0.7449  0.4678  1.0035
 5913SOL    HW229373   3.124   3.922   5.163  1.6696 -0.0692 -2.6578
 5914SOL     OW29374   3.513   4.491   8.133 -0.3746  0.1367  0.1216
 5914SOL    HW129375   3.541   4.533   8.214  0.3845 -2.9441  1.4863
 5914SOL    HW229376   3.433   4.442   8.151  0.2689 -1.1189 -0.3579
 5915SOL     OW29377   4.192   3.410   1.979 -0.4930  0.1169 -0.0419
 5915SOL    HW129378   4.251   3.360   1.923 -1.6084 -0.3213 -0.8321
 5915SOL    HW229379   4.140   3.335   2.007  1.9656 -1.6338 -0.2196
 5916SOL     OW29380   3.970   1.603  10.071  0.5093 -0.0707  0.6669
 5916SOL    HW129381   4.023   1.524  10.056 -0.5229 -0.7161  0.4395
 5916SOL    HW229382   4.041   1.667  10.083 -0.0125  0.2748  1.8980
 5917SOL     OW29383   2.984   3.738   9.196  0.3375  0.0603 -0.1297
 5917SOL    HW129384   3.020   3.650   9.198  1.4508  0.5118 -0.4548
 5917SOL    HW229385   2.894   3.709   9.214  0.2322 -0.3922 -1.3818
 5918SOL     OW29386   3.042   3.946   8.540 -0.2103 -0.3515 -0.0811
 5918SOL    HW129387   3.094   3.867   8.555  0.9481  0.3667 -0.2613
 5918SOL    HW229388   3.057   3.959   8.447 -1.2906 -0.6076 -0.2913
 5919SOL     OW29389   1.497   2.675   9.226  0.4585 -0.6809  0.3070
 5919SOL    HW129390   1.409   2.695   9.192  0.8628 -0.1142 -0.3992
 5919SOL    HW229391   1.474   2.596   9.275  1.8003 -1.1874  0.1044
 5920SOL     OW29392   4.538   2.745   4.880 -0.2917 -0.0916 -0.2438
 5920SOL    HW129393   4.525   2.693   4.960  1.2006 -0.7629 -0.4380
 5920SOL    HW229394   4.451   2.783   4.869 -0.8103 -1.4257 -0.7572
 5921SOL     OW29395   3.738   3.364   9.475 -0.1360  0.8221  0.2849
 5921SOL    HW129396   3.648   3.390   9.491 -0.1720  1.3365 -0.6906
 5921SOL    HW229397   3.725   3.308   9.398  0.1707  1.2864 -0.1078
 5922SOL     OW29398   1.110   1.935   7.754  0.0405  0.1760  0.0674
 5922SOL    HW129399   1.054   1.968   7.825  0.6116 -0.6279  0.8818
 5922SOL    HW229400   1.190   1.983   7.773 -1.1570  1.9263  0.7231
 5923SOL     OW29401   4.449   0.453   7.946 -0.1074 -0.1816  0.1359
 5923SOL    HW129402   4.524   0.473   8.002  0.0226  0.0858 -0.1333
 5923SOL    HW229403   4.378   0.457   8.010 -0.2712 -0.2394 -0.0424
 5924SOL     OW29404   2.022   1.828  13.864  0.4944  0.0731  0.4013
 5924SOL    HW129405   1.936   1.789  13.851  0.0506  0.2494  2.9449
 5924SOL    HW229406   2.058   1.773  13.933  0.4482 -1.5829 -0.9103
 5925SOL     OW29407   2.965   0.444   2.697 -0.7159  0.7285 -0.5849
 5925SOL    HW129408   3.001   0.523   2.657  2.5932 -0.4948 -0.0234
 5925SOL    HW229409   3.045   0.412   2.740 -0.0849  0.6630 -1.8003
 5926SOL     OW29410   3.361   0.133   4.257 -0.5148 -0.7072  0.0378
 5926SOL    HW129411   3.403   0.200   4.203 -1.2270  0.6844  1.2275
 5926SOL    HW229412   3.403   0.147   4.341  0.5116  3.7305 -1.2055
 5927SOL     OW29413   1.288   3.236  11.388  0.2764 -0.1385  0.2684
 5927SOL    HW129414   1.272   3.156  11.437  0.9044  0.1475  0.9335
 5927SOL    HW229415   1.201   3.271  11.367  0.8568  2.0407  1.5776
 5928SOL     OW29416   0.231   2.391   1.686 -0.4490 -0.2219  0.7004
 5928SOL    HW129417   0.164   2.341   1.639 -0.4668 -0.8125  1.3683
 5928SOL    HW229418   0.182   2.472   1.697  1.6879  1.4363 -1.7978
 5929SOL     OW29419   1.832   4.650   6.932  0.1755  0.1143 -0.2486
 5929SOL    HW129420   1.838   0.011   6.926  1.3830 -0.0801 -2.1611
 5929SOL    HW229421   1.820   4.639   6.837  1.7163  1.5158 -0.6040
 5930SOL     OW29422   3.804   3.916   8.973 -0.1930  0.0683 -0.4040
 5930SOL    HW129423   3.750   3.922   9.052 -1.3796 -0.1830 -1.2093
 5930SOL    HW229424   3.767   3.977   8.909 -1.8209 -0.4805  0.0237
 5931SOL     OW29425   1.159   1.924   1.510 -0.0771 -0.3772 -0.3745
 5931SOL    HW129426   1.142   1.869   1.586  1.3572  2.3494  1.9333
 5931SOL    HW229427   1.123   2.009   1.535 -2.6285 -1.7538  0.6525
 5932SOL     OW29428   1.289   2.812   8.325 -0.3048  0.1359  0.6776
 5932SOL    HW129429   1.313   2.832   8.416  1.4975  1.3269 -0.0404
 5932SOL    HW229430   1.272   2.718   8.330 -2.0657  0.3557 -1.2889
 5933SOL     OW29431   3.785   0.077   2.610  0.2052 -0.3634 -0.0697
 5933SOL    HW129432   3.856   0.132   2.643  1.9951 -2.8751  0.2732
 5933SOL    HW229433   3.771   0.021   2.687 -0.0571  1.4360  1.2081
 5934SOL     OW29434   1.542   1.396  12.184 -0.4001  0.2124 -0.0692
 5934SOL    HW129435   1.510   1.373  12.271  2.4789  1.3533  1.2885
 5934SOL    HW229436   1.612   1.452  12.218 -0.1489 -0.9163  1.2509
 5935SOL     OW29437   3.594   1.696   7.026  0.3198 -0.0592  0.0438
 5935SOL    HW129438   3.583   1.763   6.958 -0.5291  0.8384  1.0570
 5935SOL    HW229439   3.543   1.632   6.977 -1.4186  0.6688  0.8933
 5936SOL     OW29440   3.339   1.424  13.012 -0.0256 -0.1649 -0.6563
 5936SOL    HW129441   3.427   1.394  13.036 -0.0746  1.8163  2.0985
 5936SOL    HW229442   3.347   1.416  12.917  0.7321  1.4391 -0.7278
 5937SOL     OW29443   2.311   3.655   5.234  0.2400 -0.5258  0.2979
 5937SOL    HW129444   2.382   3.593   5.218 -0.7601 -0.8294 -3.0042
 5937SOL    HW229445   2.357   3.739   5.226 -0.3061 -0.3772 -1.3601
 5938SOL     OW29446   1.085   4.605   5.702  0.0950  0.1075 -0.2999
 5938SOL    HW129447   1.062   4.513   5.686 -1.0635  0.5448 -1.0928
 5938SOL    HW229448   1.028   4.615   5.778  0.5051 -1.4223  0.2062
 5939SOL     OW29449   0.338   2.335   6.479 -0.8070  0.5842 -0.0012
 5939SOL    HW129450   0.298   2.390   6.412 -0.8390  0.8268  0.2184
 5939SOL    HW229451   0.281   2.258   6.487  0.4801 -0.1356  2.2916
 5940SOL     OW29452   3.017   1.155   1.048  0.0647 -0.3196 -0.0097
 5940SOL    HW129453   2.923   1.175   1.051  0.7770  2.4991  2.5489
 5940SOL    HW229454   3.043   1.206   0.971  1.5102 -1.7269 -0.4492
 5941SOL     OW29455   4.120   1.312  12.122  0.1071  0.5419  0.4949
 5941SOL    HW129456   4.128   1.368  12.199 -0.8935 -0.8655  1.6236
 5941SOL    HW229457   4.204   1.267  12.111  1.1209  2.2802  1.0617
 5942SOL     OW29458   4.241   0.434   8.096 -0.1563  0.3266  0.4302
 5942SOL    HW129459   4.227   0.376   8.170  0.5095 -0.0825  0.2397
 5942SOL    HW229460   4.231   0.520   8.137 -1.8159  0.4508 -0.2344
 5943SOL     OW29461   0.036   3.530   8.374  0.2618  0.0151 -0.4594
 5943SOL    HW129462   0.127   3.541   8.403 -0.6361  1.1215  1.9621
 5943SOL    HW229463   0.049   3.471   8.300  3.4397  1.2029 -0.8589
 5944SOL     OW29464   0.531   1.993   7.210 -0.2834 -0.4675 -0.5620
 5944SOL    HW129465   0.447   2.040   7.209  1.3429  2.5565  2.4723
 5944SOL    HW229466   0.542   1.977   7.117  1.0595 -2.4476 -0.0589
 5945SOL     OW29467   1.913   4.101   0.016 -0.6122 -0.2327 -0.0399
 5945SOL    HW129468   1.892   4.052   0.096 -0.5630  1.7377  1.1855
 5945SOL    HW229469   2.006   4.109   0.038 -1.3711  2.8060  2.1475
 5946SOL     OW29470   3.200   4.155   7.337 -0.1459 -0.6639  0.9244
 5946SOL    HW129471   3.258   4.212   7.389 -0.3402  0.4705 -0.0831
 5946SOL    HW229472   3.188   4.086   7.402 -1.9532 -0.7402  0.4933
 5947SOL     OW29473   0.077   0.294   6.295  0.6509  0.2748  0.2767
 5947SOL    HW129474   0.058   0.204   6.321 -3.2149  0.8711 -0.4725
 5947SOL    HW229475   0.168   0.306   6.321 -0.3106  1.3772  3.1201
 5948SOL     OW29476   3.171   1.494   5.813 -0.2038  0.1060 -0.1124
 5948SOL    HW129477   3.248   1.532   5.770  0.8280  2.0961  3.5361
 5948SOL    HW229478   3.195   1.511   5.904 -0.4638 -0.7157  0.1078
 5949SOL     OW29479   3.380   2.357   8.053  0.2539  0.1076  0.2721
 5949SOL    HW129480   3.300   2.314   8.023  0.1378  0.0034  0.7260
 5949SOL    HW229481   3.376   2.347   8.148 -0.2898  0.6887  0.3117
 5950SOL     OW29482   3.270   4.316  11.090 -0.1753  0.1315  0.3065
 5950SOL    HW129483   3.323   4.368  11.030  1.7455  0.4545  2.2882
 5950SOL    HW229484   3.338   4.261  11.128  0.7231 -0.1873 -1.7437
 5951SOL     OW29485   1.228   4.260  14.111 -0.0517  0.2357 -0.9283
 5951SOL    HW129486   1.163   4.287  14.046  0.7617 -1.3967 -2.4275
 5951SOL    HW229487   1.169   4.253  14.186  0.8244  0.6726 -0.1988
 5952SOL     OW29488   1.064   3.248   1.698 -0.0055  0.9083  0.1309
 5952SOL    HW129489   1.105   3.327   1.662  1.3550  0.3564  0.4540
 5952SOL    HW229490   1.083   3.263   1.790  0.1274  1.4882  0.0086
 5953SOL     OW29491   3.358   3.911  15.637  0.5175  0.3629  0.6044
 5953SOL    HW129492   3.301   3.835  15.647 -1.3480  1.4287 -2.0974
 5953SOL    HW229493   3.298   3.986  15.633 -0.8737 -0.8503 -1.2830
 5954SOL     OW29494   0.329   1.422   9.279  0.6449  0.0055  0.5589
 5954SOL    HW129495   0.322   1.517   9.268  1.8761 -0.1294 -1.3809
 5954SOL    HW229496   0.319   1.399   9.187  0.9767 -0.1507  0.5608
 5955SOL     OW29497   4.587   4.227   1.891  0.5043  0.4047 -0.0381
 5955SOL    HW129498   4.655   4.162   1.908  0.1129  0.3657  1.3524
 5955SOL    HW229499   4.620   4.294   1.950  3.6968  0.1821 -1.5590
 5956SOL     OW29500   0.892   1.705  12.934  0.1333  0.3721 -0.1476
 5956SOL    HW129501   0.977   1.667  12.956  0.8993  2.7433  1.0090
 5956SOL    HW229502   0.923   1.778  12.881  2.3865 -0.1018  0.5138
 5957SOL     OW29503   4.424   0.556   9.171  0.0001 -0.0556  0.6260
 5957SOL    HW129504   4.457   0.612   9.241 -1.6864  0.1947  1.2006
 5957SOL    HW229505   4.470   0.591   9.095  1.7981  2.7936  3.0327
 5958SOL     OW29506   0.201   1.665   9.243  0.2557 -0.0405 -0.3130
 5958SOL    HW129507   0.197   1.700   9.154  2.6176  0.1010 -0.3828
 5958SOL    HW229508   0.110   1.667   9.271 -1.0063 -0.5721 -4.5118
 5959SOL     OW29509   2.405   0.400  12.570  0.3162  0.0809  0.2789
 5959SOL    HW129510   2.385   0.411  12.477 -1.0553 -0.3883  0.5348
 5959SOL    HW229511   2.365   0.480  12.603  1.2454  0.7967 -0.3208
 5960SOL     OW29512   3.293   3.864   9.032  0.2237 -0.5837  0.1597
 5960SOL    HW129513   3.273   3.848   8.940  0.8718 -2.4565  0.3611
 5960SOL    HW229514   3.332   3.952   9.032 -1.3603  0.1117  0.8119
 5961SOL     OW29515   3.261   3.801   9.379  0.7285 -0.0855 -0.1009
 5961SOL    HW129516   3.183   3.781   9.329 -0.7689  2.9051  1.0490
 5961SOL    HW229517   3.321   3.757   9.318  0.2779 -0.6897 -0.0981
 5962SOL     OW29518   2.397   4.482  11.186 -0.4223  0.2658  0.0056
 5962SOL    HW129519   2.418   4.541  11.258 -0.6647  1.7998 -1.2028
 5962SOL    HW229520   2.424   4.399  11.226 -0.3135  1.4445  2.3689
 5963SOL     OW29521   4.480   2.603   9.077 -0.1857 -0.4294  0.0073
 5963SOL    HW129522   4.426   2.648   9.012 -0.3651 -1.0444 -0.2662
 5963SOL    HW229523   4.541   2.673   9.100  1.3545 -2.2869  1.5815
 5964SOL     OW29524   4.205   2.321   9.809 -0.2058  0.1011  0.1603
 5964SOL    HW129525   4.252   2.312   9.726 -0.2508  1.6023 -0.0326
 5964SOL    HW229526   4.186   2.414   9.824 -0.9597  0.4054 -2.7523
 5965SOL     OW29527   2.346   3.910   7.890  0.5080 -0.3922 -1.0944
 5965SOL    HW129528   2.337   3.820   7.857 -3.8900 -0.3300 -0.1510
 5965SOL    HW229529   2.273   3.943   7.837  0.1662 -0.6911 -0.8157
 5966SOL     OW29530   3.911   2.277  15.449 -0.3578 -0.4677  0.7291
 5966SOL    HW129531   3.920   2.360  15.403  2.7139  0.0635  2.2128
 5966SOL    HW229532   3.910   2.210  15.381  1.7224  1.1960 -0.9273
 5967SOL     OW29533   1.543   1.912   5.110 -0.5579 -0.1927  0.0028
 5967SOL    HW129534   1.502   1.995   5.086  0.1278  0.2844  0.5071
 5967SOL    HW229535   1.468   1.855   5.127 -0.9865  0.6708  1.0100
 5968SOL     OW29536   4.565   0.558   4.069 -0.0189 -0.1783 -0.1243
 5968SOL    HW129537   4.637   0.605   4.027 -0.4352  0.4425 -0.1388
 5968SOL    HW229538   4.550   0.485   4.009 -0.2930  2.3187 -3.0735
 5969SOL     OW29539   2.940   1.525   2.249 -0.4930 -0.0827 -0.0359
 5969SOL    HW129540   2.877   1.570   2.304 -0.1358 -1.3985  1.4626
 5969SOL    HW229541   2.943   1.442   2.297  2.2747  1.8590  3.0987
 5970SOL     OW29542   3.570   4.507   8.826  0.2563  0.6370  0.2763
 5970SOL    HW129543   3.475   4.522   8.829 -0.3328 -3.1468  0.9881
 5970SOL    HW229544   3.610   4.593   8.826  1.9706 -0.1685  1.7952
 5971SOL     OW29545   4.239   0.690   8.161  0.0754 -0.2538 -0.2226
 5971SOL    HW129546   4.254   0.737   8.079  2.3482 -4.0619 -1.9636
 5971SOL    HW229547   4.199   0.762   8.210  0.1215 -0.3514 -0.0426
 5972SOL     OW29548   1.393   0.594   8.781 -0.8161 -0.3009 -0.0852
 5972SOL    HW129549   1.474   0.547   8.761 -0.7865 -0.0344 -0.5753
 5972SOL    HW229550   1.423   0.681   8.754  2.0292 -0.6236  2.0998
 5973SOL     OW29551   3.515   2.840  15.897 -0.0784 -0.6252  0.3180
 5973SOL    HW129552   3.554   2.801  15.818 -3.1695 -2.0058 -0.5190
 5973SOL    HW229553   3.485   2.919  15.852 -0.4032 -0.2629  1.1735
 5974SOL     OW29554   3.516   4.150  13.963  0.2585 -0.1098  0.0450
 5974SOL    HW129555   3.602   4.189  13.974 -0.1116  0.3637  1.1940
 5974SOL    HW229556   3.503   4.151  13.868 -4.5460 -0.0325  0.6838
 5975SOL     OW29557   0.847   1.995   6.405 -0.3131 -0.3340  0.2671
 5975SOL    HW129558   0.818   2.056   6.338 -1.3701 -0.5355  0.5492
 5975SOL    HW229559   0.931   2.035   6.427 -0.4433 -1.0613  2.0743
 5976SOL     OW29560   0.363   4.456   2.156 -0.0351 -0.2485  0.1666
 5976SOL    HW129561   0.439   4.402   2.135  1.3917  1.5698  0.6047
 5976SOL    HW229562   0.324   4.460   2.069 -1.2667 -0.8330  0.6963
 5977SOL     OW29563   4.418   0.940   6.028 -0.1974  0.0302  0.4629
 5977SOL    HW129564   4.391   0.947   6.120 -0.0005 -0.6253  0.5672
 5977SOL    HW229565   4.333   0.966   5.992 -0.2130  0.7170  0.9817
 5978SOL     OW29566   2.556   2.826   5.460 -0.1921  0.0301  0.3021
 5978SOL    HW129567   2.482   2.836   5.401 -0.5183 -3.9003  0.0329
 5978SOL    HW229568   2.631   2.821   5.401  1.0088  0.3218  1.7881
 5979SOL     OW29569   3.434   4.491   5.685  0.3984  0.3360 -0.0285
 5979SOL    HW129570   3.410   4.546   5.610  0.5361 -0.4373 -0.6442
 5979SOL    HW229571   3.499   4.540   5.735  0.9923  0.1205 -0.5828
 5980SOL     OW29572   0.940   0.449   7.342 -0.3416 -0.4727 -0.1716
 5980SOL    HW129573   1.025   0.432   7.301  0.3711  1.2017  0.6035
 5980SOL    HW229574   0.960   0.448   7.435  0.5225 -1.2343 -0.3654
 5981SOL     OW29575   3.256   1.782   8.192 -0.8631 -0.0326 -0.0554
 5981SOL    HW129576   3.205   1.744   8.121 -0.1453 -1.0010 -0.0501
 5981SOL    HW229577   3.246   1.875   8.172  1.7965 -0.0329 -1.3084
 5982SOL     OW29578   2.454   0.989   8.618 -0.2122 -0.2221 -0.0630
 5982SOL    HW129579   2.465   1.076   8.656 -1.5999 -0.1097  0.0828
 5982SOL    HW229580   2.503   0.931   8.677 -0.8084 -1.5693 -0.8868
 5983SOL     OW29581   3.860   1.590   5.551 -0.0435  0.0813 -0.0972
 5983SOL    HW129582   3.812   1.673   5.558  0.0981  0.2453 -1.0158
 5983SOL    HW229583   3.891   1.589   5.641  1.9607 -1.6538 -0.8097
 5984SOL     OW29584   0.131   4.179   2.877 -0.0470  0.2359 -0.4752
 5984SOL    HW129585   0.079   4.250   2.914 -1.7597 -1.6876  0.8120
 5984SOL    HW229586   0.137   4.210   2.786  0.3924 -0.1517 -0.5802
 5985SOL     OW29587   4.361   4.013   3.082  0.1096  0.3789 -0.4191
 5985SOL    HW129588   4.328   4.037   2.996 -0.4999  1.2657  0.0599
 5985SOL    HW229589   4.456   4.022   3.074  0.4235 -1.3118  1.2641
 5986SOL     OW29590   1.449   3.882   5.306 -0.2355 -1.0958  0.2727
 5986SOL    HW129591   1.487   3.927   5.230  1.4055  0.3355  1.9567
 5986SOL    HW229592   1.492   3.933   5.374 -0.1780  0.3759 -0.8634
 5987SOL     OW29593   0.995   2.263   3.678 -0.0457 -0.5055 -0.0852
 5987SOL    HW129594   1.042   2.346   3.670  0.9267 -1.2193 -1.7511
 5987SOL    HW229595   0.966   2.252   3.588  2.1955  0.1985 -0.8878
 5988SOL     OW29596   3.599   3.637   9.876  0.3475 -0.2416  0.1695
 5988SOL    HW129597   3.512   3.672   9.857  0.9246  1.6005  0.9475
 5988SOL    HW229598   3.658   3.688   9.821  0.6659  0.6626  1.3607
 5989SOL     OW29599   2.625   1.322   4.792  0.4958 -0.1481 -0.4987
 5989SOL    HW129600   2.590   1.410   4.782 -0.3886 -0.1365  2.7457
 5989SOL    HW229601   2.668   1.309   4.707  0.8541  0.5156 -0.4112
 5990SOL     OW29602   0.796   3.882   9.138 -0.2607 -0.6206  0.0636
 5990SOL    HW129603   0.739   3.929   9.077 -0.2541  1.2546  1.4945
 5990SOL    HW229604   0.722   3.836   9.177  0.8400 -1.9148  0.6261
 5991SOL     OW29605   0.897   1.207  10.787  0.7409  0.5933 -0.3732
 5991SOL    HW129606   0.909   1.190  10.694  1.0539  2.1048 -0.6121
 5991SOL    HW229607   0.805   1.184  10.796  1.3744 -1.5587  0.6150
 5992SOL     OW29608   1.383   3.709   2.033  0.0170 -0.2378  0.3200
 5992SOL    HW129609   1.305   3.759   2.058 -0.9813 -1.8936  0.5031
 5992SOL    HW229610   1.342   3.623   2.024 -0.4121 -0.0523  0.5081
 5993SOL     OW29611   3.833   4.332  14.268  0.0009 -0.1278 -0.0569
 5993SOL    HW129612   3.806   4.423  14.260  1.4677  0.3195  0.1490
 5993SOL    HW229613   3.802   4.293  14.186 -0.5501  1.3543 -0.5465
 5994SOL     OW29614   2.867   3.209   7.161  0.6871 -0.0126  0.9188
 5994SOL    HW129615   2.877   3.130   7.213  1.8698 -2.1742 -2.6258
 5994SOL    HW229616   2.947   3.195   7.110  0.7583  1.9591  0.4688
 5995SOL     OW29617   1.415   4.360   2.531  0.1390 -0.1260  0.0553
 5995SOL    HW129618   1.471   4.293   2.492  0.1272 -0.8989  1.3645
 5995SOL    HW229619   1.343   4.301   2.554 -1.1134  1.3863  0.0701
 5996SOL     OW29620   2.526   2.447   1.986  0.1003  0.0168 -0.3363
 5996SOL    HW129621   2.557   2.529   1.948  1.7349 -0.0606  0.8657
 5996SOL    HW229622   2.598   2.417   2.041 -1.8803 -1.1184  1.6013
 5997SOL     OW29623   0.435   1.091   9.100 -0.1965  0.0481  0.2553
 5997SOL    HW129624   0.479   1.024   9.047 -1.6418 -0.2341 -0.5757
 5997SOL    HW229625   0.374   1.038   9.152  1.4167 -0.0870  2.0263
 5998SOL     OW29626   1.590   0.595   4.325  0.2087  0.0211  0.1400
 5998SOL    HW129627   1.673   0.642   4.338 -0.5670  1.2847  0.5140
 5998SOL    HW229628   1.531   0.668   4.304  0.1677 -0.1174 -0.2191
 5999SOL     OW29629   2.354   3.876   0.906 -0.1211  0.4510 -0.2905
 5999SOL    HW129630   2.385   3.791   0.939 -0.8228 -0.2950 -1.5343
 5999SOL    HW229631   2.261   3.861   0.922 -0.3985  2.1296 -0.3665
 6000SOL     OW29632   4.202   2.386   2.151  0.0996 -1.0090  0.0496
 6000SOL    HW129633   4.148   2.458   2.183  0.6220 -0.2107 -0.8624
 6000SOL    HW229634   4.228   2.342   2.232  0.2620 -1.7665 -0.4157
 6001SOL     OW29635   2.601   1.967   4.642 -0.5748 -0.4965 -0.3737
 6001SOL    HW129636   2.587   2.008   4.557  0.0887  0.3448 -0.0740
 6001SOL    HW229637   2.688   1.928   4.638  0.1535  0.7719  2.7826
 6002SOL     OW29638   2.754   2.185  13.065  0.4488 -0.8169  0.4442
 6002SOL    HW129639   2.708   2.118  13.116  0.5645 -1.9194 -0.8834
 6002SOL    HW229640   2.831   2.190  13.121  0.8898  0.4382 -0.2846
 6003SOL     OW29641   3.952   0.318  13.575 -0.3718  0.0635 -0.1298
 6003SOL    HW129642   4.040   0.344  13.550  0.0362 -1.5402 -0.3571
 6003SOL    HW229643   3.966   0.244  13.634  1.1541 -0.2018 -0.8340
 6004SOL     OW29644   2.710   0.145   8.822 -0.6168  0.2609 -0.3311
 6004SOL    HW129645   2.645   0.215   8.823 -2.2983 -1.2849 -3.4191
 6004SOL    HW229646   2.708   0.103   8.908  0.3547 -0.7622 -0.8028
 6005SOL     OW29647   0.687   1.806  10.582 -0.1684  0.8330 -0.5728
 6005SOL    HW129648   0.678   1.769  10.495 -2.1305 -1.3621  0.5662
 6005SOL    HW229649   0.726   1.893  10.573  0.5657  0.5587 -0.0198
 6006SOL     OW29650   2.815   0.874   5.414 -0.1497  0.3597 -0.1778
 6006SOL    HW129651   2.856   0.789   5.429  0.3700  0.4398 -1.1734
 6006SOL    HW229652   2.729   0.838   5.392  0.3941 -0.1471 -1.4369
 6007SOL     OW29653   0.524   0.049  13.313  0.1630  0.0583  0.4617
 6007SOL    HW129654   0.490   4.695  13.298 -0.8074  0.1909  1.8475
 6007SOL    HW229655   0.561   0.061  13.225  0.8659 -1.7251  0.4960
 6008SOL     OW29656   3.848   3.289   7.222 -0.5767  0.0227 -0.2585
 6008SOL    HW129657   3.866   3.291   7.316 -3.4900 -0.8219  0.3371
 6008SOL    HW229658   3.768   3.342   7.220 -0.4194  0.1992 -1.3928
 6009SOL     OW29659   0.555   4.232  11.101  0.6901  0.4583 -0.6130
 6009SOL    HW129660   0.465   4.265  11.089 -0.3120 -2.2143 -0.2673
 6009SOL    HW229661   0.540   4.144  11.067  0.3266 -0.4633  1.9402
 6010SOL     OW29662   1.592   2.687  12.911  0.3455 -0.1164  0.5822
 6010SOL    HW129663   1.654   2.676  12.983 -0.1008 -2.3217  0.5999
 6010SOL    HW229664   1.541   2.760  12.947 -2.3714 -2.2330  0.9874
 6011SOL     OW29665   3.600   3.065  17.590 -0.3071  0.0949 -0.0691
 6011SOL    HW129666   3.544   3.007  17.643 -1.1676  1.1346  0.1586
 6011SOL    HW229667   3.603   3.147  17.638 -0.5830  1.1900 -1.9391
 6012SOL     OW29668   4.189   1.643  15.660  0.0975  0.1330 -0.2643
 6012SOL    HW129669   4.265   1.583  15.660 -1.3545 -1.7217  2.2630
 6012SOL    HW229670   4.135   1.619  15.585  0.5704  1.3267 -0.9751
 6013SOL     OW29671   2.992   3.812   4.242 -0.7480 -0.1342 -0.1626
 6013SOL    HW129672   2.956   3.882   4.188 -1.6756  0.3095  1.0200
 6013SOL    HW229673   3.041   3.864   4.306 -0.3401  0.1487 -0.7059
 6014SOL     OW29674   4.665   1.509  15.743  0.3517 -0.0789 -0.4047
 6014SOL    HW129675   4.589   1.499  15.801  1.5366 -2.4814  0.7573
 6014SOL    HW229676   4.664   1.601  15.718 -0.0012 -0.0043 -0.1217
 6015SOL     OW29677   3.968   4.367   5.788 -0.3169 -0.4175  0.4080
 6015SOL    HW129678   3.945   4.456   5.815 -3.2012 -2.1800  3.7074
 6015SOL    HW229679   3.882   4.332   5.763  0.1439 -0.7504 -0.7002
 6016SOL     OW29680   4.726   0.511  14.618  0.1285  0.1845  0.4453
 6016SOL    HW129681   4.716   0.479  14.708  0.2025  0.1892  0.4552
 6016SOL    HW229682   0.087   0.514  14.611  0.0753 -0.0187 -0.3785
 6017SOL     OW29683   2.947   2.302  12.688  0.1100 -0.6025 -0.0201
 6017SOL    HW129684   3.007   2.229  12.705 -2.1453 -1.5730  3.5249
 6017SOL    HW229685   3.014   2.352  12.641  0.8572 -3.1093 -1.6741
 6018SOL     OW29686   0.406   1.608   0.780 -0.2521  0.2164  0.2868
 6018SOL    HW129687   0.405   1.551   0.704  0.2666 -0.9727  1.1731
 6018SOL    HW229688   0.446   1.548   0.843  0.2744  1.6861  1.3730
 6019SOL     OW29689   0.826   3.543   2.744  0.3176 -0.2140 -0.3621
 6019SOL    HW129690   0.746   3.492   2.729  1.9923 -2.4339 -1.8361
 6019SOL    HW229691   0.801   3.596   2.819  0.6658  0.2870 -0.5980
 6020SOL     OW29692   0.550   3.079   6.125  0.0811  0.0424 -0.1357
 6020SOL    HW129693   0.490   3.090   6.198  0.5612  0.2905  0.2227
 6020SOL    HW229694   0.603   3.158   6.133 -1.7289  1.4527 -2.1445
 6021SOL     OW29695   1.522   4.051   7.695  0.1244 -0.3218  0.3460
 6021SOL    HW129696   1.521   4.122   7.760 -0.1317 -0.5598  0.5985
 6021SOL    HW229697   1.578   4.098   7.632  0.1445  0.3129  0.8347
 6022SOL     OW29698   2.491   1.068  15.413  0.4359 -0.5359 -0.2800
 6022SOL    HW129699   2.427   1.001  15.387 -2.0923  1.3840  1.0514
 6022SOL    HW229700   2.440   1.126  15.469  3.3020  0.8128  0.9269
 6023SOL     OW29701   4.688   0.415   4.765  0.2345  0.0096 -0.4419
 6023SOL    HW129702   4.700   0.473   4.691 -1.5945  0.7005 -0.1817
 6023SOL    HW229703   4.693   0.476   4.839  0.4296  0.3458 -0.7389
 6024SOL     OW29704   4.689   2.129   2.861  0.2113 -0.1661 -0.3289
 6024SOL    HW129705   4.712   2.139   2.953  0.8779 -0.4962 -0.4587
 6024SOL    HW229706   0.036   2.165   2.825 -0.0409  0.5848 -0.1587
 6025SOL     OW29707   0.478   1.873   2.276 -0.0414  1.0604  0.6284
 6025SOL    HW129708   0.521   1.919   2.204 -0.4656  0.3852 -0.0567
 6025SOL    HW229709   0.391   1.853   2.240 -0.2414  0.5508  1.3792
 6026SOL     OW29710   2.643   2.846   7.602 -0.5901 -0.1782  0.5721
 6026SOL    HW129711   2.678   2.762   7.631  2.7445  1.2960  0.7874
 6026SOL    HW229712   2.722   2.899   7.605 -0.0462 -0.9845  0.6017
 6027SOL     OW29713   0.672   0.396   5.138 -0.2395 -0.1500 -0.3033
 6027SOL    HW129714   0.627   0.475   5.107 -1.0371 -1.0155 -1.3415
 6027SOL    HW229715   0.600   0.349   5.180 -0.5871  2.1042  1.6643
 6028SOL     OW29716   4.668   1.700   4.401  0.0110  0.0039  0.6528
 6028SOL    HW129717   4.637   1.781   4.442  2.3342  1.1823  0.1160
 6028SOL    HW229718   4.667   1.650   4.483 -0.5862  0.0878  0.6950
 6029SOL     OW29719   1.023   0.628  12.159  0.0470 -0.0411 -0.2915
 6029SOL    HW129720   0.972   0.564  12.209  3.0888 -0.8746  1.7699
 6029SOL    HW229721   1.085   0.656  12.226  0.1404 -3.5242  1.1001
 6030SOL     OW29722   4.674   2.905  17.605 -0.0561  0.0847  0.1611
 6030SOL    HW129723   4.580   2.922  17.613 -0.2543 -0.3183 -1.2922
 6030SOL    HW229724   4.709   2.967  17.668  1.7833 -0.9073  0.1064
 6031SOL     OW29725   2.415   2.894   6.576  0.2494 -0.2119  0.2648
 6031SOL    HW129726   2.362   2.873   6.499  0.6660  2.6152 -0.7845
 6031SOL    HW229727   2.408   2.809   6.619  0.9358 -0.1350  0.5282
 6032SOL     OW29728   3.784   4.149   7.847  0.1176 -0.3053  0.1384
 6032SOL    HW129729   3.801   4.189   7.761  1.7011 -1.5700 -0.1258
 6032SOL    HW229730   3.876   4.128   7.861  0.1164 -0.3061  0.1448
 6033SOL     OW29731   3.127   2.238   5.783  0.5021  0.5301 -0.7955
 6033SOL    HW129732   3.053   2.299   5.789  0.3047  0.3050 -0.9491
 6033SOL    HW229733   3.115   2.215   5.691  1.2189  1.6115 -1.1589
 6034SOL     OW29734   2.506   4.148   6.368  0.0796  0.2285 -0.3854
 6034SOL    HW129735   2.449   4.117   6.298  1.7274 -1.4305 -1.0132
 6034SOL    HW229736   2.467   4.100   6.441 -0.0591  0.8342 -0.0683
 6035SOL     OW29737   1.427   4.254   1.344  0.0038  0.1529 -0.3867
 6035SOL    HW129738   1.475   4.173   1.360  0.3154 -0.0622 -2.3175
 6035SOL    HW229739   1.492   4.325   1.338 -0.5681  0.6159 -1.1368
 6036SOL     OW29740   4.305   1.969  17.253 -0.0677 -0.2350  0.4964
 6036SOL    HW129741   4.321   2.062  17.234 -1.9537 -0.3050 -1.4155
 6036SOL    HW229742   4.357   1.925  17.186 -0.1107  0.3391  0.0825
 6037SOL     OW29743   0.251   1.310   4.799 -0.0623 -0.5762 -0.9173
 6037SOL    HW129744   0.188   1.259   4.850 -2.1311  0.6173 -2.2506
 6037SOL    HW229745   0.322   1.247   4.791  2.3629  2.2925 -1.5518
 6038SOL     OW29746   2.385   3.690  12.837  0.3625  0.2421  0.3720
 6038SOL    HW129747   2.308   3.633  12.834  0.1902  0.4387  1.1822
 6038SOL    HW229748   2.410   3.691  12.929  2.2877 -1.5657 -0.1486
 6039SOL     OW29749   2.694   3.984   5.393 -0.6682  0.0245 -0.4279
 6039SOL    HW129750   2.616   3.998   5.446 -0.0059  1.8904  0.0523
 6039SOL    HW229751   2.713   4.069   5.352 -0.1214  0.2646  0.3155
 6040SOL     OW29752   2.917   2.410   3.040  0.5079 -0.2882  0.1418
 6040SOL    HW129753   2.876   2.449   2.963 -2.5127 -0.0498  1.8796
 6040SOL    HW229754   2.946   2.334   2.988 -0.2487  1.1656 -2.4035
 6041SOL     OW29755   0.102   0.038  16.127  0.1639  0.1178  0.1463
 6041SOL    HW129756   0.153   4.730  16.058 -0.8597  0.5058 -0.8450
 6041SOL    HW229757   0.058   0.103  16.073  1.2210  0.5860 -0.1547
 6042SOL     OW29758   3.588   1.834  13.814 -0.2704 -0.9516  0.0345
 6042SOL    HW129759   3.635   1.792  13.886 -4.0764 -1.8812  1.9529
 6042SOL    HW229760   3.512   1.871  13.858 -0.5547  0.3598 -1.5395
 6043SOL     OW29761   4.570   3.488   7.078  0.5188  0.0502  0.3189
 6043SOL    HW129762   4.618   3.420   7.126  0.4706 -1.0257 -1.1655
 6043SOL    HW229763   4.631   3.519   7.011 -1.9194  0.8716 -1.5021
 6044SOL     OW29764   4.528   1.990  16.284 -0.1702  0.2413  0.1990
 6044SOL    HW129765   4.576   1.912  16.312 -1.6916 -1.4019 -1.7927
 6044SOL    HW229766   4.591   2.059  16.307 -1.0924  1.0593  0.2398
 6045SOL     OW29767   1.958   1.669   3.457 -0.1025 -0.0885 -0.3594
 6045SOL    HW129768   1.877   1.650   3.505 -1.2070 -0.3824 -2.3505
 6045SOL    HW229769   2.001   1.584   3.471  1.5127  1.1944  2.4560
 6046SOL     OW29770   4.684   0.912   5.435 -0.4068  0.2446  0.1388
 6046SOL    HW129771   4.657   0.931   5.525  0.1266  0.9820  0.1405
 6046SOL    HW229772   4.699   0.817   5.438  1.4502  0.5208 -0.3719
 6047SOL     OW29773   2.168   0.779   9.314  0.0387  0.0771 -0.6284
 6047SOL    HW129774   2.098   0.766   9.379  0.5024 -0.5856 -0.2662
 6047SOL    HW229775   2.180   0.691   9.278 -0.9522  0.0826 -0.9707
 6048SOL     OW29776   0.523   0.682   9.251 -0.2989 -0.1157 -0.5163
 6048SOL    HW129777   0.490   0.599   9.287  4.8915 -1.9951 -0.0673
 6048SOL    HW229778   0.440   0.711   9.213 -0.9677  1.2943  2.0323
 6049SOL     OW29779   2.737   4.309   6.218  0.1502 -0.3534  0.5092
 6049SOL    HW129780   2.796   4.234   6.202 -1.2138 -1.1302 -0.9399
 6049SOL    HW229781   2.653   4.270   6.196  0.0109  0.9879 -1.3399
 6050SOL     OW29782   0.507   0.414   7.381  0.1850 -0.7117 -0.0802
 6050SOL    HW129783   0.479   0.492   7.333  1.3113 -0.5771 -0.5236
 6050SOL    HW229784   0.482   0.433   7.472 -1.4776  4.0030 -1.5512
 6051SOL     OW29785   0.228   1.359   2.001 -0.4912 -0.7444  0.0998
 6051SOL    HW129786   0.274   1.275   1.999  1.0629  0.2101 -3.7041
 6051SOL    HW229787   0.301   1.417   2.025  1.0197 -2.6395  0.0244
 6052SOL     OW29788   2.160   1.796  15.806  0.2883 -0.2203 -0.4374
 6052SOL    HW129789   2.075   1.786  15.763 -0.4367 -2.6634  1.5895
 6052SOL    HW229790   2.166   1.722  15.867 -2.8717 -1.7598 -1.9916
 6053SOL     OW29791   2.094   0.816   7.806  0.2951  0.0634 -0.5124
 6053SOL    HW129792   2.182   0.844   7.831  1.0287  0.1133 -3.1506
 6053SOL    HW229793   2.065   0.866   7.882  3.2666 -0.6427  1.0519
 6054SOL     OW29794   2.889   3.146   3.233  0.3139 -0.1306 -0.2827
 6054SOL    HW129795   2.809   3.121   3.187 -0.3075 -1.9097  1.7603
 6054SOL    HW229796   2.955   3.116   3.170 -0.0941 -1.0668 -0.2515
 6055SOL     OW29797   3.225   2.457   8.412 -0.0569 -0.6186  0.0645
 6055SOL    HW129798   3.225   2.436   8.505 -2.7378  0.9632  0.4059
 6055SOL    HW229799   3.253   2.373   8.376  1.2921  0.1242 -0.6430
 6056SOL     OW29800   0.777   4.638   6.711 -0.0564  0.0483  0.3784
 6056SOL    HW129801   0.695   4.615   6.668  0.0041  1.0171 -0.2512
 6056SOL    HW229802   0.738   4.663   6.794  0.1787  1.1621  0.1474
 6057SOL     OW29803   0.417   1.771   3.866  0.3233  0.0895  0.1047
 6057SOL    HW129804   0.364   1.797   3.942  3.1457  0.3734  1.9460
 6057SOL    HW229805   0.476   1.845   3.870  1.5222 -0.8967  0.5137
 6058SOL     OW29806   0.808   1.361   8.771  0.2979  0.0208 -0.3444
 6058SOL    HW129807   0.900   1.360   8.743  0.4635  0.0572  0.2005
 6058SOL    HW229808   0.808   1.288   8.832 -0.9048  0.8203  0.5947
 6059SOL     OW29809   3.731   4.643   3.263 -0.9647  0.6907  0.0862
 6059SOL    HW129810   3.681   4.673   3.187  0.6518 -0.1738 -1.3158
 6059SOL    HW229811   3.658   4.626   3.323 -0.0671  2.2604  1.6501
 6060SOL     OW29812   2.577   1.990  12.908 -0.2642  0.1688 -0.2191
 6060SOL    HW129813   2.637   2.027  12.842  0.0478  0.9050  0.4837
 6060SOL    HW229814   2.513   2.062  12.909  1.7468  1.9356  1.4799
 6061SOL     OW29815   3.214   4.479   8.642  0.3667 -0.3677 -0.0583
 6061SOL    HW129816   3.247   4.404   8.693  3.5801 -0.5060 -2.3311
 6061SOL    HW229817   3.121   4.457   8.644  0.6280 -1.2517  2.8556
 6062SOL     OW29818   3.375   0.886   2.741  0.6165 -0.0859 -0.2515
 6062SOL    HW129819   3.427   0.929   2.673 -0.5393  1.5294 -0.1087
 6062SOL    HW229820   3.327   0.962   2.773  1.9627 -0.6242  3.0693
 6063SOL     OW29821   4.137   2.393   7.930 -0.4162 -0.0950 -0.4824
 6063SOL    HW129822   4.093   2.400   8.015 -1.5460  0.8965 -1.1401
 6063SOL    HW229823   4.130   2.482   7.894  0.2120  0.7860  1.5926
 6064SOL     OW29824   3.342   3.206   4.812  0.5910  0.4926 -0.2179
 6064SOL    HW129825   3.285   3.170   4.880  0.4645  1.9883  0.4645
 6064SOL    HW229826   3.366   3.298   4.827  0.0732  0.3174  1.6313
 6065SOL     OW29827   3.950   3.055   2.895 -0.0119  0.0400 -0.0439
 6065SOL    HW129828   3.961   3.057   2.990 -0.2596  0.7402 -0.0311
 6065SOL    HW229829   3.918   2.965   2.889  2.2664 -0.6878 -1.4076
 6066SOL     OW29830   3.379   4.407   2.983  0.1122 -0.1718  0.2593
 6066SOL    HW129831   3.355   4.344   2.915 -0.6128  1.4314 -0.9682
 6066SOL    HW229832   3.345   4.358   3.058  1.7519 -0.3559  0.8681
 6067SOL     OW29833   1.815   1.210   4.222 -0.1722 -0.2636  0.1612
 6067SOL    HW129834   1.850   1.290   4.182  1.7900 -1.2668 -0.1492
 6067SOL    HW229835   1.838   1.233   4.312 -0.8358 -1.8128  0.7277
 6068SOL     OW29836   4.473   3.714   2.765  0.0537 -0.0167 -0.1846
 6068SOL    HW129837   4.546   3.677   2.814  0.8911 -2.2270 -3.0752
 6068SOL    HW229838   4.520   3.740   2.686 -0.6729  0.5914 -0.4210
 6069SOL     OW29839   2.846   0.855   5.884 -0.0453 -0.0585 -0.3000
 6069SOL    HW129840   2.755   0.845   5.912 -0.1117  0.6066 -0.2932
 6069SOL    HW229841   2.827   0.904   5.804 -2.0346 -0.6075 -0.1808
 6070SOL     OW29842   0.089   4.382   5.849 -0.1718 -0.0677  0.1632
 6070SOL    HW129843   0.120   4.470   5.869  0.5278 -0.7780  2.1669
 6070SOL    HW229844   0.014   4.374   5.908 -0.4021  0.5400 -0.0518
 6071SOL     OW29845   1.702   1.272  17.480 -0.1732 -0.1902 -0.2676
 6071SOL    HW129846   1.769   1.301  17.542 -1.2971  0.5479  0.5959
 6071SOL    HW229847   1.761   1.228  17.419 -0.2277  0.6524 -0.9238
 6072SOL     OW29848   4.679   2.707   5.167  0.1738 -0.3710 -0.0476
 6072SOL    HW129849   4.714   2.695   5.255  2.4822 -0.8655 -1.0128
 6072SOL    HW229850   4.708   2.623   5.133  0.0604 -0.1383 -0.7236
 6073SOL     OW29851   2.637   2.694  16.101 -0.2400 -0.0999  0.2014
 6073SOL    HW129852   2.714   2.675  16.048 -0.3221  0.4533 -0.1117
 6073SOL    HW229853   2.689   2.725  16.176 -0.5155  0.3134  0.2199
 6074SOL     OW29854   0.153   1.296   7.111  0.1754 -0.0220  0.0219
 6074SOL    HW129855   0.095   1.312   7.036  1.0365 -2.9773 -1.2744
 6074SOL    HW229856   0.134   1.362   7.177  1.7246  2.0547 -1.6429
 6075SOL     OW29857   4.188   3.809   1.299 -0.5607 -0.0109 -0.1320
 6075SOL    HW129858   4.176   3.866   1.375 -0.3274  1.5869 -1.3077
 6075SOL    HW229859   4.283   3.808   1.289 -0.3442  1.5836  1.8777
 6076SOL     OW29860   2.206   0.386   6.162  0.1331  0.3213 -0.5354
 6076SOL    HW129861   2.162   0.305   6.134  0.4184  0.0454 -0.1963
 6076SOL    HW229862   2.209   0.445   6.087  1.3788 -0.9962 -1.5409
 6077SOL     OW29863   2.072   4.275   5.912  0.1121 -0.5243 -0.2758
 6077SOL    HW129864   2.078   4.255   6.005  2.2867  1.0924 -0.0549
 6077SOL    HW229865   2.157   4.313   5.891 -0.1286 -0.1344 -0.5512
 6078SOL     OW29866   2.939   1.437  13.780  0.3140  0.0557  0.3069
 6078SOL    HW129867   2.946   1.531  13.762 -1.2381 -0.2705 -1.9862
 6078SOL    HW229868   3.022   1.410  13.741  0.2774  1.8027 -0.9817
 6079SOL     OW29869   1.463   4.581   5.669  0.2260 -0.6095  0.6274
 6079SOL    HW129870   1.492   4.579   5.577  0.4037  0.1244  0.6629
 6079SOL    HW229871   1.432   4.672   5.674 -2.7470 -1.5200 -1.1724
 6080SOL     OW29872   3.864   0.760   4.355 -0.5797  0.3568  0.2044
 6080SOL    HW129873   3.878   0.755   4.261 -0.2976  1.9578  0.1547
 6080SOL    HW229874   3.944   0.722   4.391 -0.2012 -0.6560 -1.7229
 6081SOL     OW29875   1.267   0.720   6.970 -0.1342 -0.1593  0.0422
 6081SOL    HW129876   1.305   0.777   7.037  1.1223  0.1267 -0.9192
 6081SOL    HW229877   1.317   0.742   6.892  0.7550 -1.2517  0.2990
 6082SOL     OW29878   0.341   1.153   6.621  0.1585 -0.1611  0.2781
 6082SOL    HW129879   0.286   1.224   6.654 -0.7749  1.0080 -3.8377
 6082SOL    HW229880   0.343   1.175   6.528  3.2876 -1.7149 -0.0266
 6083SOL     OW29881   4.553   3.134   9.176 -0.2348  0.0731 -0.5948
 6083SOL    HW129882   4.534   3.165   9.088 -0.3410 -0.1799 -0.6597
 6083SOL    HW229883   4.594   3.215   9.207  1.8281 -1.0148 -0.4401
 6084SOL     OW29884   2.398   2.093   4.421  0.4765  0.3718  0.5405
 6084SOL    HW129885   2.309   2.057   4.429  1.1154 -1.0846  1.1038
 6084SOL    HW229886   2.446   2.026   4.372 -2.5374 -0.5122 -1.2279
 6085SOL     OW29887   3.253   0.229   0.469 -0.0798  0.0927  0.4984
 6085SOL    HW129888   3.221   0.314   0.440 -0.7013 -0.6974 -1.0890
 6085SOL    HW229889   3.256   0.242   0.564  1.0463  0.7147  0.3742
 6086SOL     OW29890   2.410   4.072  17.415 -0.0977 -0.1127 -0.4385
 6086SOL    HW129891   2.323   4.033  17.418 -0.7184  1.2675 -0.5236
 6086SOL    HW229892   2.419   4.101  17.325  1.2204  0.3460 -0.1601
 6087SOL     OW29893   4.384   3.453   9.449 -0.0798  0.5154 -0.5518
 6087SOL    HW129894   4.417   3.499   9.527 -2.3218 -1.9164  1.8108
 6087SOL    HW229895   4.290   3.470   9.457 -0.1741 -0.4308  0.3614
 6088SOL     OW29896   2.842   3.099   8.029  0.7027  0.0169 -0.3372
 6088SOL    HW129897   2.830   3.175   7.972  0.2616 -0.2093 -0.5483
 6088SOL    HW229898   2.755   3.061   8.023  0.6476 -0.0822  1.2390
 6089SOL     OW29899   1.563   1.946  16.758 -0.9253 -0.3271 -0.0564
 6089SOL    HW129900   1.592   1.973  16.671 -0.7540 -0.0385  0.0905
 6089SOL    HW229901   1.633   1.979  16.815 -0.0303  0.1721 -1.4537
 6090SOL     OW29902   2.320   3.890   9.123  0.1920 -0.7329 -1.0592
 6090SOL    HW129903   2.276   3.884   9.207 -0.8160  0.1926 -1.5243
 6090SOL    HW229904   2.250   3.886   9.058  1.2176 -0.0799 -2.2124
 6091SOL     OW29905   1.346   4.079   5.870  0.1850 -0.5744  0.5672
 6091SOL    HW129906   1.273   4.018   5.866  0.3366 -0.7289  0.0902
 6091SOL    HW229907   1.306   4.162   5.843  0.1403 -1.0103 -0.7004
 6092SOL     OW29908   0.670   1.402   1.907 -0.1566  0.5205  0.5443
 6092SOL    HW129909   0.602   1.447   1.856 -2.4872 -1.3225  2.0656
 6092SOL    HW229910   0.697   1.472   1.967  0.3721 -2.1036  3.3694
 6093SOL     OW29911   4.667   0.808  14.573 -0.9439  0.0056  0.2139
 6093SOL    HW129912   0.011   0.804  14.518 -1.3587 -0.4235 -0.3424
 6093SOL    HW229913   4.651   0.718  14.601  2.3401 -0.9973 -1.1416
 6094SOL     OW29914   4.007   1.985   0.671 -0.1924 -0.1087 -0.4283
 6094SOL    HW129915   3.932   1.969   0.729 -0.7614  1.1072 -0.8237
 6094SOL    HW229916   3.968   2.008   0.586  2.8340  0.3830 -1.6786
 6095SOL     OW29917   0.788   3.770  15.929  0.1252  0.6243 -0.2849
 6095SOL    HW129918   0.844   3.715  15.983 -2.2018  1.0715  2.5991
 6095SOL    HW229919   0.706   3.762  15.979  1.4412 -1.5084  1.5310
 6096SOL     OW29920   1.847   2.393   4.397 -0.7311 -0.1012  0.5241
 6096SOL    HW129921   1.811   2.331   4.334  1.1845  0.4337 -1.0680
 6096SOL    HW229922   1.789   2.374   4.470 -0.1932 -1.2443  0.6390
 6097SOL     OW29923   0.905   0.677   3.340  0.4489 -0.3397 -0.3268
 6097SOL    HW129924   0.915   0.602   3.282 -2.2993 -0.9980  0.0570
 6097SOL    HW229925   0.985   0.667   3.391  1.5036  1.7140 -1.6091
 6098SOL     OW29926   3.541   1.375   8.485 -0.7867  0.2178  0.3116
 6098SOL    HW129927   3.447   1.371   8.500 -0.3549 -2.2934  2.2949
 6098SOL    HW229928   3.539   1.411   8.396  0.7129 -1.3484 -0.3654
 6099SOL     OW29929   1.786   4.328   4.034 -0.0204  0.2937  0.0492
 6099SOL    HW129930   1.763   4.290   3.949 -1.7688  1.3972  0.0144
 6099SOL    HW229931   1.793   4.420   4.009  0.8639  0.0792 -0.5093
 6100SOL     OW29932   1.002   1.139   6.281  0.1290  0.2939 -0.5533
 6100SOL    HW129933   0.909   1.128   6.296 -0.0491  3.0654  0.3183
 6100SOL    HW229934   1.022   1.233   6.286 -2.0261  0.7893 -1.4434
 6101SOL     OW29935   3.666   0.936   9.136  0.0060 -0.0143 -0.4535
 6101SOL    HW129936   3.676   0.899   9.048 -0.8445 -0.8881 -0.1839
 6101SOL    HW229937   3.661   1.027   9.106  2.4731 -0.2422 -1.5465
 6102SOL     OW29938   3.446   3.737   8.420 -0.4505 -0.0710  0.6816
 6102SOL    HW129939   3.477   3.822   8.389  1.2116 -0.6565  0.7347
 6102SOL    HW229940   3.525   3.705   8.463 -0.7045 -1.1398  0.3654
 6103SOL     OW29941   2.612   1.154   3.047  0.1227  0.0303 -0.1765
 6103SOL    HW129942   2.563   1.197   2.976 -0.4934  1.6013  1.1960
 6103SOL    HW229943   2.683   1.113   2.998 -0.4280 -0.6341 -0.4160
 6104SOL     OW29944   4.160   1.235   5.482 -0.0200  0.0452  0.2482
 6104SOL    HW129945   4.080   1.235   5.534  0.0755  0.1625  0.3982
 6104SOL    HW229946   4.225   1.231   5.552 -0.1867  1.3114  0.4840
 6105SOL     OW29947   1.045   2.146   1.592 -0.6081 -0.4863 -0.2437
 6105SOL    HW129948   0.965   2.145   1.644 -1.5216  0.5426 -1.6252
 6105SOL    HW229949   1.075   2.237   1.590  1.1020 -1.0894 -2.2763
 6106SOL     OW29950   3.127   1.258   1.732  0.4308  0.2977  0.0345
 6106SOL    HW129951   3.148   1.200   1.805 -1.0935  1.4128  1.3542
 6106SOL    HW229952   3.059   1.313   1.770 -0.0001 -0.8907  0.9771
 6107SOL     OW29953   3.751   1.877   8.970  0.2083 -0.3566 -0.4657
 6107SOL    HW129954   3.710   1.826   8.900 -0.8648  1.0128 -0.8237
 6107SOL    HW229955   3.740   1.808   9.035 -0.6359  0.4864  0.2773
 6108SOL     OW29956   4.053   1.968  12.936 -0.9988 -0.6455  0.2658
 6108SOL    HW129957   4.140   1.932  12.922 -1.5482 -1.2025 -1.7174
 6108SOL    HW229958   3.999   1.912  12.880  0.0803 -1.1756 -0.2481
 6109SOL     OW29959   0.947   1.575  10.517  0.2138  0.2430 -0.0252
 6109SOL    HW129960   0.893   1.528  10.580  0.6754  0.7424  0.7379
 6109SOL    HW229961   0.876   1.598  10.456 -1.4549 -4.4412  0.1190
 6110SOL     OW29962   2.418   0.582   3.587 -0.0553 -0.2879  0.1683
 6110SOL    HW129963   2.430   0.499   3.633  1.5665  1.0794  2.1979
 6110SOL    HW229964   2.444   0.549   3.501 -0.2517  0.2520 -0.0936
 6111SOL     OW29965   2.575   4.408   0.893 -0.4596 -0.2755 -0.2159
 6111SOL    HW129966   2.583   4.352   0.816  0.0755 -1.0366  0.3882
 6111SOL    HW229967   2.571   4.344   0.964  0.9929  1.8492  1.7678
 6112SOL     OW29968   4.302   0.983  11.058  0.6952  0.2496  0.4319
 6112SOL    HW129969   4.348   1.022  10.983 -3.0671 -0.2510 -2.1674
 6112SOL    HW229970   4.278   1.052  11.118  1.0967 -1.5883  2.6980
 6113SOL     OW29971   1.643   2.881   7.107  1.0751 -0.0953  0.1594
 6113SOL    HW129972   1.673   2.816   7.043 -3.4815 -1.5265 -0.5250
 6113SOL    HW229973   1.587   2.920   7.039 -0.0754  0.5754  1.4815
 6114SOL     OW29974   4.124   3.118   3.895  0.0783  0.0281  0.1583
 6114SOL    HW129975   4.106   3.038   3.844 -0.1157  0.0944  0.1241
 6114SOL    HW229976   4.194   3.157   3.842  0.1819  0.1158  0.3614
 6115SOL     OW29977   0.960   3.777   5.362  0.2093  0.0120 -0.2727
 6115SOL    HW129978   0.997   3.736   5.283 -0.1763 -1.4044  0.2739
 6115SOL    HW229979   1.029   3.743   5.419 -0.6719 -1.3299 -0.0113
 6116SOL     OW29980   2.145   3.625   3.137  0.4288 -0.4135 -0.3704
 6116SOL    HW129981   2.071   3.573   3.106  1.5736 -1.2749 -1.6827
 6116SOL    HW229982   2.169   3.667   3.055  2.2327 -1.1918 -0.2523
 6117SOL     OW29983   0.533   1.939   1.014  0.0301 -0.3229 -0.0558
 6117SOL    HW129984   0.595   1.868   0.993 -1.8094 -2.2924  1.1611
 6117SOL    HW229985   0.460   1.886   1.046 -0.5165  1.3576  1.4101
 6118SOL     OW29986   2.957   0.732   2.609  0.0117 -0.0372 -0.1644
 6118SOL    HW129987   3.011   0.727   2.688 -0.8837 -1.2330  0.3662
 6118SOL    HW229988   2.878   0.733   2.664  1.1826  0.5232  1.5263
 6119SOL     OW29989   1.045   0.739   7.845  1.1547 -0.1701 -0.4935
 6119SOL    HW129990   1.109   0.721   7.914  1.4608  0.4528 -0.6115
 6119SOL    HW229991   1.113   0.770   7.784  2.3862  1.0243  1.4711
 6120SOL     OW29992   0.221   2.414   8.661  0.2515 -0.2313 -0.2931
 6120SOL    HW129993   0.306   2.371   8.672  1.2505  1.2585 -2.2753
 6120SOL    HW229994   0.229   2.480   8.730  0.2005 -0.1926 -0.3243
 6121SOL     OW29995   2.304   3.484   9.617  0.0788  0.2821 -0.0184
 6121SOL    HW129996   2.230   3.544   9.628  0.4021  0.9080 -1.2817
 6121SOL    HW229997   2.280   3.419   9.683  0.3818  0.1361 -0.0539
 6122SOL     OW29998   0.408   0.988   3.979  0.0660 -0.3560 -0.1228
 6122SOL    HW129999   0.424   1.078   3.950 -3.2807  0.8522  1.8277
 6122SOL    HW230000   0.455   0.984   4.062  0.0151 -0.3829 -0.0952
 6123SOL     OW30001   2.468   4.291   5.424  0.0757  0.6260 -0.2436
 6123SOL    HW130002   2.482   4.373   5.473 -2.4143 -0.0484  1.5916
 6123SOL    HW230003   2.452   4.229   5.496 -0.1625  0.8150 -0.1325
 6124SOL     OW30004   3.719   2.204   5.706 -0.3432 -0.1384 -0.0650
 6124SOL    HW130005   3.771   2.136   5.665 -2.1125 -1.1791 -0.5959
 6124SOL    HW230006   3.750   2.279   5.654  1.7750  0.1608  1.6492
 6125SOL     OW30007   4.472   2.560  11.831  0.0432 -0.3255  0.6883
 6125SOL    HW130008   4.456   2.612  11.910 -1.8884 -0.9810  0.7339
 6125SOL    HW230009   4.456   2.618  11.757 -0.6285 -0.5188  0.6836
 6126SOL     OW30010   3.785   4.622  16.471 -0.4175  0.4550 -0.0466
 6126SOL    HW130011   3.803   4.599  16.380  1.1760 -1.0550  0.6467
 6126SOL    HW230012   3.699   4.583  16.484 -0.1166 -0.2736 -0.2310
 6127SOL     OW30013   3.170   4.255   2.202 -0.3880 -0.1936 -0.0634
 6127SOL    HW130014   3.097   4.226   2.148 -2.1550  1.6012  1.3863
 6127SOL    HW230015   3.219   4.292   2.128  0.9622 -2.0434 -0.1113
 6128SOL     OW30016   1.753   0.919   0.850 -0.7264 -0.0600  0.1555
 6128SOL    HW130017   1.797   0.872   0.921  1.6248  0.9905 -0.5963
 6128SOL    HW230018   1.803   1.001   0.852 -1.2279  0.2612 -0.6717
 6129SOL     OW30019   4.669   1.387   3.676 -0.5757 -0.5075 -0.4697
 6129SOL    HW130020   4.597   1.448   3.689 -0.4536 -0.3665 -0.4583
 6129SOL    HW230021   4.643   1.302   3.713  2.3180  0.0503  2.8501
 6130SOL     OW30022   3.962   1.766   8.549  0.5498  0.2770  0.1495
 6130SOL    HW130023   3.998   1.744   8.463  1.3595  1.3870  0.2130
 6130SOL    HW230024   3.881   1.716   8.543 -0.5457  1.9993  0.6561
 6131SOL     OW30025   3.108   0.159  13.364  0.4876  0.0877  0.1294
 6131SOL    HW130026   3.046   0.223  13.399  3.4323  1.6269  2.5308
 6131SOL    HW230027   3.191   0.205  13.379  0.9629 -0.7815  0.1626
 6132SOL     OW30028   4.627   2.623   7.760 -0.6693 -0.3937  0.1099
 6132SOL    HW130029   4.694   2.616   7.828  0.0306 -0.1521 -0.5634
 6132SOL    HW230030   4.611   2.532   7.736  1.2161 -0.6002 -0.3727
 6133SOL     OW30031   2.996   0.157   3.009  0.1019 -0.7063  0.3009
 6133SOL    HW130032   3.047   0.077   2.997 -0.1521 -0.8737  0.3276
 6133SOL    HW230033   3.056   0.227   2.985  0.2434 -0.5687  1.0557
 6134SOL     OW30034   3.034   2.076  14.361 -0.0484 -0.5078  0.5942
 6134SOL    HW130035   3.041   2.042  14.450 -1.9217 -1.4509  0.3689
 6134SOL    HW230036   2.982   2.003  14.327  0.4373 -0.5067 -0.1582
 6135SOL     OW30037   2.163   2.971  12.019 -0.0814 -0.4982 -0.0052
 6135SOL    HW130038   2.169   2.949  11.926 -0.7143 -0.3194 -0.0863
 6135SOL    HW230039   2.166   3.066  12.017 -0.0084 -0.4911  0.4388
 6136SOL     OW30040   3.767   1.414   9.415  0.0217 -0.0608 -0.2345
 6136SOL    HW130041   3.700   1.481   9.405  1.2317  1.2234  0.3143
 6136SOL    HW230042   3.843   1.464   9.386  1.6258 -0.9913  2.2944
 6137SOL     OW30043   4.665   3.721   4.034 -0.3296  0.0325  0.3498
 6137SOL    HW130044   4.666   3.626   4.043  0.7057  0.0674  0.6883
 6137SOL    HW230045   4.674   3.725   3.939 -0.1715 -0.9358  0.3200
 6138SOL     OW30046   0.978   2.240   8.383 -0.6187  0.6028 -0.4757
 6138SOL    HW130047   0.935   2.167   8.428 -0.8006 -0.3890 -2.2563
 6138SOL    HW230048   1.071   2.217   8.389 -1.0278 -0.8414  0.3716
 6139SOL     OW30049   2.350   4.218  10.827  0.5634  0.1405 -0.4761
 6139SOL    HW130050   2.418   4.157  10.798  1.1999 -0.3339  2.0065
 6139SOL    HW230051   2.272   4.167  10.808  0.3142 -0.0028  0.9886
 6140SOL     OW30052   2.113   0.309   6.842  0.0708  0.2284  0.1031
 6140SOL    HW130053   2.078   0.251   6.775 -0.0510  1.3235 -0.7812
 6140SOL    HW230054   2.071   0.393   6.825 -0.9838 -0.7960 -2.2025
 6141SOL     OW30055   2.970   3.701  15.504  0.4118 -0.1156 -0.4259
 6141SOL    HW130056   2.956   3.773  15.564  1.0176  0.1782 -0.6450
 6141SOL    HW230057   2.962   3.747  15.420  1.5829  1.4020  0.2958
 6142SOL     OW30058   2.412   3.485   9.084  0.5066 -0.0952 -0.0043
 6142SOL    HW130059   2.506   3.477   9.071  0.4645 -0.9193  0.2148
 6142SOL    HW230060   2.382   3.559   9.031 -0.4036  0.4061  1.1995
 6143SOL     OW30061   2.276   1.686   5.815 -0.0641 -0.2070 -0.4232
 6143SOL    HW130062   2.328   1.693   5.895  2.3504  0.5987 -2.0395
 6143SOL    HW230063   2.205   1.746   5.836  0.4858  0.9105 -1.7239
 6144SOL     OW30064   1.119   3.848   3.861 -0.0690 -0.3361 -0.3758
 6144SOL    HW130065   1.099   3.842   3.955 -0.1685  0.8263 -0.3223
 6144SOL    HW230066   1.179   3.776   3.847  0.8370  0.2872  0.2971
 6145SOL     OW30067   2.048   4.115   3.811  0.2917 -0.4185  0.4359
 6145SOL    HW130068   1.990   4.162   3.751 -0.9455 -1.6769  0.6370
 6145SOL    HW230069   2.112   4.180   3.841 -1.9483  1.3017  1.4893
 6146SOL     OW30070   3.524   0.732   7.347  0.1446  0.3663 -0.0472
 6146SOL    HW130071   3.554   0.821   7.327  2.9910 -0.4608  0.6195
 6146SOL    HW230072   3.565   0.715   7.431 -1.7222  0.7274  0.9432
 6147SOL     OW30073   0.225   0.070   6.937 -0.6370  0.4560 -0.3206
 6147SOL    HW130074   0.244   0.059   6.844  0.1214  1.8053 -0.3286
 6147SOL    HW230075   0.291   0.127   6.976 -0.2391 -1.0782  1.2244
 6148SOL     OW30076   2.876   4.226   4.366  0.3953  0.3454 -0.6325
 6148SOL    HW130077   2.957   4.181   4.343  1.1949  1.8345 -0.7136
 6148SOL    HW230078   2.911   4.307   4.403 -1.5567  0.2802  1.3586
 6149SOL     OW30079   3.614   1.714   5.714 -0.0991  0.1037 -0.6494
 6149SOL    HW130080   3.584   1.761   5.791 -1.4711  1.3359 -1.9243
 6149SOL    HW230081   3.528   1.709   5.673 -1.6232  0.9437  2.4976
 6150SOL     OW30082   0.729   2.051  14.333 -0.5930  0.4636 -0.3359
 6150SOL    HW130083   0.803   2.037  14.392 -0.4821 -1.0852 -0.8623
 6150SOL    HW230084   0.778   2.060  14.251 -0.8583  0.2470 -0.5168
 6151SOL     OW30085   0.241   4.677   0.897 -0.6230  0.4958 -0.3637
 6151SOL    HW130086   0.276   4.623   0.969  0.2767 -0.2400 -1.3554
 6151SOL    HW230087   0.159   4.628   0.896  0.0821 -0.6858 -0.7875
 6152SOL     OW30088   2.764   3.909   3.319 -0.5220 -0.4046 -0.4162
 6152SOL    HW130089   2.725   3.831   3.358 -0.3791 -0.5189 -0.4998
 6152SOL    HW230090   2.751   3.983   3.378 -1.4222 -0.0122 -1.1012
 6153SOL     OW30091   1.977   1.668   2.153  0.8414  0.4850  0.8008
 6153SOL    HW130092   2.057   1.717   2.136  0.5790  1.1160  1.3654
 6153SOL    HW230093   1.964   1.625   2.068 -0.2240 -0.1427  1.2780
 6154SOL     OW30094   3.124   2.647  14.862  0.3885 -0.8638 -0.0856
 6154SOL    HW130095   3.071   2.621  14.786  1.4192  2.6253 -2.0046
 6154SOL    HW230096   3.179   2.709  14.815 -0.5524  1.5255  1.9939
 6155SOL     OW30097   2.332   1.384   2.927  0.5020  0.6859  0.2495
 6155SOL    HW130098   2.238   1.381   2.908  0.8135 -1.3122 -0.9223
 6155SOL    HW230099   2.360   1.408   2.838 -1.0033 -1.4899 -0.8065
 6156SOL     OW30100   1.139   0.454   5.278  0.4256 -0.0094 -0.0562
 6156SOL    HW130101   1.044   0.460   5.292  0.1881 -3.9469  0.0573
 6156SOL    HW230102   1.142   0.360   5.260 -1.1354 -0.1179  0.2120
 6157SOL     OW30103   1.901   2.223   1.095 -1.0367  0.3362  0.0318
 6157SOL    HW130104   1.811   2.258   1.095 -0.8460  0.8194  0.6496
 6157SOL    HW230105   1.906   2.180   1.009 -1.5481 -1.9400  1.1649
 6158SOL     OW30106   4.658   3.538   2.877  0.1421 -0.0814 -0.6525
 6158SOL    HW130107   4.655   3.443   2.889  0.1437  0.0016 -0.0335
 6158SOL    HW230108   4.732   3.550   2.817 -0.3909 -0.8916 -1.4738
 6159SOL     OW30109   1.435   1.544   6.815 -0.2717 -0.2376 -0.2818
 6159SOL    HW130110   1.410   1.457   6.785  1.5377 -0.6095 -0.7100
 6159SOL    HW230111   1.486   1.573   6.739  0.4418  1.1077  0.6975
 6160SOL     OW30112   4.426   2.395   6.384  0.2019  0.4301  0.7802
 6160SOL    HW130113   4.341   2.366   6.350  1.9902 -1.4067 -2.0737
 6160SOL    HW230114   4.446   2.472   6.330  0.3990 -0.5210 -0.5034
 6161SOL     OW30115   2.386   0.921  17.450  0.0879 -0.3647 -0.7859
 6161SOL    HW130116   2.377   0.909  17.545  0.1159 -0.7216 -0.8290
 6161SOL    HW230117   2.399   1.015  17.452 -0.5301 -0.2232 -3.9673
 6162SOL     OW30118   2.605   2.869   9.833  0.1642 -0.3277  0.3424
 6162SOL    HW130119   2.535   2.900   9.776  2.4771  1.9750 -1.2581
 6162SOL    HW230120   2.580   2.781   9.861 -2.4121  0.2493 -0.2173
 6163SOL     OW30121   3.737   4.593   8.581 -0.3993  0.1534 -0.2043
 6163SOL    HW130122   3.813   4.543   8.610 -0.9455 -0.0402  0.9148
 6163SOL    HW230123   3.738   4.662   8.647 -1.2367 -0.6701  0.6784
 6164SOL     OW30124   2.179   4.312   3.952 -0.1800 -0.1487 -0.2801
 6164SOL    HW130125   2.104   4.338   4.005  0.7945  1.5458  0.3012
 6164SOL    HW230126   2.218   4.398   3.934 -0.4522 -0.1241 -0.7334
 6165SOL     OW30127   2.396   2.009   9.025 -0.1431  0.4366  0.1650
 6165SOL    HW130128   2.338   2.051   8.962 -0.3720  0.7790  0.6144
 6165SOL    HW230129   2.364   2.050   9.105 -0.4515  2.4069 -0.9755
 6166SOL     OW30130   2.946   3.457   9.224  0.2436  1.1771 -0.0405
 6166SOL    HW130131   2.914   3.372   9.254 -1.5017  0.6029 -3.5189
 6166SOL    HW230132   2.969   3.442   9.132 -0.1021  1.3098 -0.1498
 6167SOL     OW30133   2.512   4.315   8.246  0.6987 -0.1622  0.3455
 6167SOL    HW130134   2.557   4.239   8.285 -0.3664 -1.2476 -0.5417
 6167SOL    HW230135   2.457   4.343   8.319 -0.2239 -0.5072 -0.2185
 6168SOL     OW30136   3.767   4.617  13.131  0.0070 -0.6438  0.6012
 6168SOL    HW130137   3.730   4.568  13.058  1.6169 -1.4845  0.3380
 6168SOL    HW230138   3.718   4.581  13.204 -0.1569 -0.9374  0.3466
 6169SOL     OW30139   2.782   1.607   3.477  0.7424 -0.5577  0.0184
 6169SOL    HW130140   2.739   1.672   3.532 -0.1486 -0.9141 -0.2550
 6169SOL    HW230141   2.829   1.567   3.550 -0.0377 -1.2080  0.1672
 6170SOL     OW30142   4.700   3.047   1.663 -0.2921 -0.3078  0.2975
 6170SOL    HW130143   4.624   3.020   1.611  0.7839 -0.8607 -0.9752
 6170SOL    HW230144   0.025   2.974   1.648 -1.5360 -0.9359 -1.5684
 6171SOL     OW30145   1.707   2.756  10.151 -0.3502 -0.0309 -0.0300
 6171SOL    HW130146   1.618   2.744  10.185 -0.5805  0.3170 -0.4915
 6171SOL    HW230147   1.762   2.698  10.202 -0.0605 -1.2723 -1.7349
 6172SOL     OW30148   1.089   0.939   7.150  0.4230 -0.4672 -0.4063
 6172SOL    HW130149   1.073   1.007   7.085 -1.7307  0.3916  1.0289
 6172SOL    HW230150   1.006   0.891   7.142 -0.4944  0.6587  2.3063
 6173SOL     OW30151   2.573   4.699  15.155  0.0753 -0.2027 -0.3803
 6173SOL    HW130152   2.629   4.649  15.214 -1.4585 -2.4267 -0.8016
 6173SOL    HW230153   2.584   4.666  15.067  1.5037  0.9714 -0.6405
 6174SOL     OW30154   1.043   2.230   9.272 -0.1284  0.2032 -0.3146
 6174SOL    HW130155   0.959   2.231   9.225 -0.1923 -0.8323 -0.2100
 6174SOL    HW230156   1.102   2.207   9.201 -0.5307  0.6665 -0.8024
 6175SOL     OW30157   1.985   0.591   5.452 -0.7033 -0.4696 -0.1295
 6175SOL    HW130158   2.080   0.597   5.458 -0.9177  2.0138  0.9672
 6175SOL    HW230159   1.973   0.582   5.358 -1.7614  3.2833 -0.3304
 6176SOL     OW30160   1.489   1.428   1.983 -0.0788  0.0885  0.2623
 6176SOL    HW130161   1.532   1.488   1.923  0.7299  0.2396  0.9913
 6176SOL    HW230162   1.555   1.359   1.972  0.9848  1.5071 -2.2639
 6177SOL     OW30163   1.482   1.959  11.363 -0.3837  0.5549  0.0213
 6177SOL    HW130164   1.534   1.943  11.442  1.7877 -0.4675 -1.6075
 6177SOL    HW230165   1.536   1.918  11.295 -0.4402 -1.7473  1.3819
 6178SOL     OW30166   0.504   2.230   9.138 -0.1969  0.2666  0.2329
 6178SOL    HW130167   0.429   2.173   9.121  0.6831 -0.9647  0.4432
 6178SOL    HW230168   0.578   2.174   9.115 -0.8121 -0.8038  0.8256
 6179SOL     OW30169   2.188   3.870  15.896 -0.0334  0.4117 -0.3006
 6179SOL    HW130170   2.206   3.913  15.813  3.2063  3.0504  1.7621
 6179SOL    HW230171   2.164   3.780  15.877 -2.0600  1.2364 -1.6004
 6180SOL     OW30172   1.425   0.538  14.603 -0.4719 -0.4217 -0.2474
 6180SOL    HW130173   1.443   0.585  14.522 -1.6315  1.9209  0.8300
 6180SOL    HW230174   1.426   0.605  14.672  0.6266 -1.8331  1.1242
 6181SOL     OW30175   0.923   4.400  15.628 -0.4448  0.5184 -0.0170
 6181SOL    HW130176   0.940   4.494  15.627 -1.4273  0.6970 -1.0420
 6181SOL    HW230177   0.894   4.385  15.718  0.0574  0.4219  0.1280
 6182SOL     OW30178   1.045   2.584   3.357 -0.1424 -0.0451  0.0234
 6182SOL    HW130179   0.957   2.568   3.392  0.8741 -0.7414  2.2841
 6182SOL    HW230180   1.073   2.505   3.311 -0.1913  1.1180 -1.9868
 6183SOL     OW30181   2.431   2.213   2.466  0.0276  0.2729  0.5250
 6183SOL    HW130182   2.462   2.298   2.435  0.3374 -0.3250 -0.8013
 6183SOL    HW230183   2.381   2.238   2.544  0.1810  1.1876  0.3329
 6184SOL     OW30184   1.068   3.582   8.619 -0.0653 -0.7880  0.1344
 6184SOL    HW130185   1.031   3.665   8.649  0.0862 -1.3217  1.8123
 6184SOL    HW230186   0.991   3.543   8.578  0.3645 -0.7871 -0.6742
 6185SOL     OW30187   1.027   3.056  11.143  0.1853  0.1799  0.0062
 6185SOL    HW130188   0.979   3.014  11.214  2.4267  0.4192  1.6624
 6185SOL    HW230189   0.966   3.129  11.134 -0.4253 -0.4343 -0.8685
 6186SOL     OW30190   4.717   3.658   4.453  0.0749  0.3785 -0.0552
 6186SOL    HW130191   4.623   3.645   4.459 -0.2174  1.5074 -2.1067
 6186SOL    HW230192   0.014   3.568   4.439 -0.7703  0.0668  0.1077
 6187SOL     OW30193   0.921   3.964  17.144 -0.2367  0.0202 -0.3797
 6187SOL    HW130194   0.993   4.013  17.104  0.9188 -0.6521  0.8870
 6187SOL    HW230195   0.844   3.992  17.094 -0.6288  3.1319  1.9733
 6188SOL     OW30196   1.284   0.284   5.026  0.6200  0.3549  0.2884
 6188SOL    HW130197   1.370   0.269   4.985  0.4271 -0.6848  0.2453
 6188SOL    HW230198   1.272   0.374   4.998 -2.1518 -1.2114 -3.5833
 6189SOL     OW30199   0.079   4.458   5.100  0.3177 -0.1946  0.2193
 6189SOL    HW130200   4.727   4.457   5.059  0.1092 -1.0755  0.6680
 6189SOL    HW230201   0.073   4.552   5.115 -0.7297 -0.4571  1.4197
 6190SOL     OW30202   3.594   2.872   5.991 -0.3400 -0.3685 -0.4514
 6190SOL    HW130203   3.588   2.950   5.935 -0.3543 -0.3669 -0.4477
 6190SOL    HW230204   3.577   2.798   5.932 -0.0912  0.9761 -2.2040
 6191SOL     OW30205   3.616   2.235   4.058  0.1371  0.1172  0.6398
 6191SOL    HW130206   3.711   2.223   4.069 -0.0007 -0.7677  0.8942
 6191SOL    HW230207   3.588   2.256   4.147  0.5067  0.4082  0.6863
 6192SOL     OW30208   1.413   1.706   5.362 -0.0295 -0.3865  0.8124
 6192SOL    HW130209   1.373   1.697   5.275  1.0939 -0.0074  0.2503
 6192SOL    HW230210   1.367   1.779   5.403 -2.5605 -1.3559 -0.3465
 6193SOL     OW30211   1.584   1.954   6.153  0.0104  0.3107 -0.8710
 6193SOL    HW130212   1.643   2.028   6.166 -0.0137 -0.1848  2.0474
 6193SOL    HW230213   1.565   1.931   6.244  0.3712  1.0465 -0.6155
 6194SOL     OW30214   3.810   4.108   0.515  0.0848 -0.0145  0.1138
 6194SOL    HW130215   3.901   4.096   0.540 -0.1157 -0.2943  0.7118
 6194SOL    HW230216   3.809   4.076   0.425 -1.8953  2.2045 -0.6669
 6195SOL     OW30217   0.339   3.355   3.272  0.7228 -0.6985 -0.0718
 6195SOL    HW130218   0.340   3.440   3.315 -1.2408 -0.1282 -1.1325
 6195SOL    HW230219   0.268   3.325   3.329 -1.2380  0.8356 -1.6745
 6196SOL     OW30220   2.829   1.559   5.254  0.2309 -0.3162  0.8446
 6196SOL    HW130221   2.766   1.555   5.326  1.5767 -1.3796  1.9567
 6196SOL    HW230222   2.835   1.653   5.235 -1.0111 -0.8483 -2.2927
 6197SOL     OW30223   4.680   1.953   4.009 -0.4934 -0.0330 -0.0020
 6197SOL    HW130224   4.617   1.985   4.073  1.0773  0.8877  1.0901
 6197SOL    HW230225   4.643   1.995   3.932  0.4255  1.0127  0.1298
 6198SOL     OW30226   1.669   3.968  16.415 -0.5055 -0.2292  0.3784
 6198SOL    HW130227   1.705   3.953  16.328  0.1239  2.8186  0.1137
 6198SOL    HW230228   1.652   4.062  16.415 -0.0955 -0.1689 -2.3159
 6199SOL     OW30229   4.069   0.402   7.901  0.0733 -0.0005 -0.0694
 6199SOL    HW130230   4.080   0.490   7.866 -0.1151 -0.0930 -0.3619
 6199SOL    HW230231   4.121   0.417   7.980 -0.0253  1.5725 -0.3146
 6200SOL     OW30232   1.607   1.021   4.137  0.0927  0.7418 -0.1710
 6200SOL    HW130233   1.528   1.075   4.140  0.3744  1.1458  0.0582
 6200SOL    HW230234   1.669   1.080   4.181 -0.0813  1.1634 -0.4963
 6201SOL     OW30235   1.272   2.482   8.675  0.0050 -0.3865  0.8997
 6201SOL    HW130236   1.295   2.567   8.712  1.6715 -0.9891  1.2398
 6201SOL    HW230237   1.360   2.444   8.674 -0.9461 -2.5472 -0.0009
 6202SOL     OW30238   3.793   2.407   5.502 -0.2203 -0.5115 -0.2920
 6202SOL    HW130239   3.870   2.432   5.451  0.1999 -0.6652  0.2650
 6202SOL    HW230240   3.754   2.493   5.517 -1.9906 -1.4478  0.4270
 6203SOL     OW30241   1.480   2.333   9.036 -0.2526 -0.3432  0.0032
 6203SOL    HW130242   1.500   2.358   9.126  2.2579 -1.7129 -0.1834
 6203SOL    HW230243   1.498   2.415   8.990  0.0559  0.2592  1.1999
 6204SOL     OW30244   3.950   2.071   9.201 -0.3385  0.4101 -0.2705
 6204SOL    HW130245   3.925   2.131   9.130 -0.4280 -0.6308 -1.1179
 6204SOL    HW230246   3.981   2.132   9.268  0.8633  0.9253 -1.2826
 6205SOL     OW30247   0.071   2.657   3.879 -0.0385  0.3759  0.5131
 6205SOL    HW130248   0.046   2.587   3.818  3.0928 -0.8877  0.6747
 6205SOL    HW230249   0.125   2.713   3.824 -0.8423  0.8891  0.2461
 6206SOL     OW30250   2.950   4.095  11.795  0.1396 -0.8487 -0.3702
 6206SOL    HW130251   2.884   4.164  11.794  2.5069  1.4296 -0.5895
 6206SOL    HW230252   3.014   4.136  11.854  0.2213 -1.1634 -0.2381
 6207SOL     OW30253   2.544   1.034   8.357 -0.3057 -0.1475 -0.0831
 6207SOL    HW130254   2.543   1.127   8.381 -0.0987  0.3745 -2.1467
 6207SOL    HW230255   2.536   1.002   8.447 -0.5333 -0.5390 -0.2416
 6208SOL     OW30256   3.528   1.394  16.102  0.4747 -0.2633  0.3962
 6208SOL    HW130257   3.542   1.329  16.171 -2.2612 -2.7262 -1.3846
 6208SOL    HW230258   3.491   1.346  16.028  0.9655  1.0297 -0.6835
 6209SOL     OW30259   4.505   2.710   5.457 -0.2240  0.0810  0.3931
 6209SOL    HW130260   4.586   2.761   5.449  0.1332 -0.6709 -0.8459
 6209SOL    HW230261   4.453   2.739   5.381  1.0720 -0.4886 -0.7086
 6210SOL     OW30262   3.881   4.085   8.153 -0.3540  0.4161  0.4582
 6210SOL    HW130263   3.831   4.157   8.191 -1.5525 -0.4876  0.5741
 6210SOL    HW230264   3.807   4.028   8.134  0.8906 -1.2046  0.4001
 6211SOL     OW30265   2.597   2.565   7.468 -0.4022  0.2147  0.2877
 6211SOL    HW130266   2.685   2.581   7.504  0.1817 -0.1165 -0.9934
 6211SOL    HW230267   2.597   2.631   7.399  2.1297  1.4567  1.4692
 6212SOL     OW30268   0.149   0.857   9.828  0.0022 -0.1400  0.1176
 6212SOL    HW130269   0.221   0.899   9.781 -0.3472  2.6730  2.0815
 6212SOL    HW230270   0.111   0.931   9.876  1.8599 -0.5008  2.1110
 6213SOL     OW30271   4.596   0.081   8.222 -0.5590 -0.1103  0.0190
 6213SOL    HW130272   4.640   0.014   8.170  1.5555  1.4502 -0.2154
 6213SOL    HW230273   4.664   0.147   8.236 -1.0241  0.1356  1.1313
 6214SOL     OW30274   2.834   2.480   6.573  0.1635 -0.0422 -0.1933
 6214SOL    HW130275   2.891   2.539   6.525 -2.1775  2.8117  0.5086
 6214SOL    HW230276   2.775   2.544   6.614 -0.0789  0.2508 -1.0040
 6215SOL     OW30277   1.480   0.455   0.390 -0.0556  0.4647 -0.0397
 6215SOL    HW130278   1.400   0.506   0.406 -0.2066  0.3928 -0.5607
 6215SOL    HW230279   1.474   0.440   0.295 -0.7285 -0.8514  0.2133
 6216SOL     OW30280   4.440   4.341  15.301 -0.7318 -0.8250  0.1775
 6216SOL    HW130281   4.413   4.270  15.243 -1.3154  0.0181 -0.5781
 6216SOL    HW230282   4.353   4.374  15.325  0.3525  1.6552  0.6667
 6217SOL     OW30283   1.819   3.432   1.718 -0.0600 -0.1261 -0.1830
 6217SOL    HW130284   1.811   3.431   1.622  0.6244  1.3248 -0.2657
 6217SOL    HW230285   1.902   3.385   1.733 -0.1591 -0.3231 -0.2485
 6218SOL     OW30286   1.931   3.939   7.230  0.3521  0.4319 -0.4989
 6218SOL    HW130287   1.934   3.931   7.134 -0.3778 -1.4814 -0.3608
 6218SOL    HW230288   2.009   3.989   7.254 -0.5936  1.6375  0.0240
 6219SOL     OW30289   1.125   3.155   4.123  0.2674  0.4978  0.0508
 6219SOL    HW130290   1.145   3.231   4.178  1.9311  0.8248 -0.9865
 6219SOL    HW230291   1.038   3.180   4.094 -0.0066  0.1762  0.5960
 6220SOL     OW30292   2.729   2.145  15.872  0.3804 -0.0775 -0.0657
 6220SOL    HW130293   2.647   2.159  15.921  0.5279  0.4606  0.0256
 6220SOL    HW230294   2.737   2.215  15.807 -2.8779 -0.4603 -0.8740
 6221SOL     OW30295   0.233   3.296   3.539  0.0923  0.0481 -0.1705
 6221SOL    HW130296   0.138   3.293   3.538  0.0501  0.9819  0.5881
 6221SOL    HW230297   0.255   3.217   3.588 -1.3426  0.1231  0.5948
 6222SOL     OW30298   0.051   1.019   8.831 -0.5311 -0.1074 -0.2167
 6222SOL    HW130299   0.034   1.109   8.859 -1.8132 -0.2494 -0.5050
 6222SOL    HW230300   0.084   0.972   8.907 -0.0610  0.5536 -0.0094
 6223SOL     OW30301   2.955   4.566   4.889  0.5638 -0.4397  0.6976
 6223SOL    HW130302   2.895   4.576   4.815  0.3383  1.7847  1.1736
 6223SOL    HW230303   2.956   4.656   4.923 -1.1299 -0.3961  0.6246
 6224SOL     OW30304   4.322   0.316   3.220  0.3426 -0.2350  0.0787
 6224SOL    HW130305   4.296   0.230   3.253  0.4470 -1.0850 -2.0113
 6224SOL    HW230306   4.341   0.364   3.301 -0.0125  1.0353 -0.5832
 6225SOL     OW30307   2.390   0.598   2.028 -0.5901  0.5207  1.1271
 6225SOL    HW130308   2.322   0.533   2.009  0.5710 -0.4890  0.4160
 6225SOL    HW230309   2.437   0.551   2.097  1.7802 -0.5028 -1.1432
 6226SOL     OW30310   3.707   2.507   1.839  0.2696 -0.0556  0.1581
 6226SOL    HW130311   3.650   2.430   1.837  1.7113 -1.0236 -2.5252
 6226SOL    HW230312   3.673   2.558   1.765 -1.1861 -0.5765  0.4661
 6227SOL     OW30313   2.162   4.087   0.133 -0.3036  0.3928 -0.2840
 6227SOL    HW130314   2.224   4.160   0.133  0.2020 -0.0402 -0.2417
 6227SOL    HW230315   2.211   4.005   0.131  0.4918  0.8474  0.7540
 6228SOL     OW30316   2.010   1.829   8.844  0.2525  0.1979  0.0450
 6228SOL    HW130317   1.932   1.777   8.866  2.6069 -2.6290  1.7472
 6228SOL    HW230318   1.961   1.896   8.796 -0.7024 -0.1681  0.5020
 6229SOL     OW30319   0.307   0.680   5.516 -0.2569  0.6845  0.4094
 6229SOL    HW130320   0.321   0.637   5.431  1.8638 -0.8143  1.5073
 6229SOL    HW230321   0.213   0.692   5.522 -0.4288 -2.2566  3.3599
 6230SOL     OW30322   2.496   4.495   4.776  0.0221  0.1793  0.2853
 6230SOL    HW130323   2.400   4.497   4.777  0.0340  0.4824  1.2295
 6230SOL    HW230324   2.511   4.577   4.823  1.6663  1.0372 -1.7727
 6231SOL     OW30325   3.547   3.489  15.100 -0.3185 -0.0347  0.1096
 6231SOL    HW130326   3.501   3.540  15.166  3.5268  2.4288  0.8424
 6231SOL    HW230327   3.510   3.513  15.014 -0.8919  1.8794  0.8982
 6232SOL     OW30328   0.469   1.391  11.384  0.4626  0.2033  0.1165
 6232SOL    HW130329   0.381   1.354  11.379 -0.0436  1.0015  2.5854
 6232SOL    HW230330   0.480   1.453  11.312 -1.3206  0.4633  0.0628
 6233SOL     OW30331   0.337   0.604   6.955  0.2331  0.4832 -0.0773
 6233SOL    HW130332   0.316   0.521   6.914  3.1179 -0.9026  1.2114
 6233SOL    HW230333   0.423   0.626   6.918 -0.7769  2.7008 -1.1311
 6234SOL     OW30334   1.572   3.221   9.166  0.2995  0.2601  0.1405
 6234SOL    HW130335   1.640   3.195   9.228  1.1486 -0.1051 -0.9415
 6234SOL    HW230336   1.616   3.282   9.106  0.3740 -0.4344 -0.5122
 6235SOL     OW30337   3.621   2.691   5.155 -0.4723  0.0175  0.5572
 6235SOL    HW130338   3.544   2.659   5.107 -0.4414 -2.1165  1.9150
 6235SOL    HW230339   3.639   2.778   5.119 -0.2494 -1.3102 -2.5896
 6236SOL     OW30340   2.724   0.937   1.954 -0.2077  0.1581  0.0841
 6236SOL    HW130341   2.717   1.019   1.905 -0.3176 -0.2367 -0.5533
 6236SOL    HW230342   2.635   0.903   1.962  0.2201 -1.2727 -1.4101
 6237SOL     OW30343   4.716   0.851   4.440  0.2552 -0.2029  0.0258
 6237SOL    HW130344   0.071   0.871   4.411 -0.6843  2.3272 -1.1599
 6237SOL    HW230345   4.703   0.925   4.500 -0.6903 -0.5848  0.2966
 6238SOL     OW30346   3.992   2.700   8.568 -0.0035  0.1305 -0.7735
 6238SOL    HW130347   4.040   2.693   8.650 -1.5380 -1.3868 -0.0094
 6238SOL    HW230348   4.047   2.769   8.531 -0.4914  2.0530  2.1134
 6239SOL     OW30349   4.525   2.193   1.937 -0.0161  0.8485  0.5934
 6239SOL    HW130350   4.616   2.163   1.934 -0.4613 -0.6393  1.5375
 6239SOL    HW230351   4.493   2.121   1.992  0.3744  1.7404  1.9910
 6240SOL     OW30352   2.631   0.966  16.104  0.3500  0.8920 -0.0926
 6240SOL    HW130353   2.553   0.974  16.048  2.2970 -1.1467 -3.1245
 6240SOL    HW230354   2.659   1.058  16.110 -0.7604  1.2757 -0.7227
 6241SOL     OW30355   3.545   2.777  14.564  0.1954  0.0071 -0.0214
 6241SOL    HW130356   3.546   2.872  14.552  3.1863 -0.1783 -1.3632
 6241SOL    HW230357   3.544   2.740  14.476  2.3101  0.5641 -0.2917
 6242SOL     OW30358   4.498   1.027  14.212 -0.2244 -0.1347 -0.4909
 6242SOL    HW130359   4.587   0.997  14.194 -1.0935 -2.1052 -1.4802
 6242SOL    HW230360   4.521   1.109  14.255 -1.1492  0.7390 -1.6656
 6243SOL     OW30361   3.942   1.114   8.502  0.5752  0.1708  0.1479
 6243SOL    HW130362   3.958   1.066   8.583 -0.8087 -1.0563 -0.3072
 6243SOL    HW230363   3.850   1.099   8.480  0.6078 -0.8943  0.7713
 6244SOL     OW30364   1.371   4.120  16.553 -0.2282  0.2078  0.6587
 6244SOL    HW130365   1.455   4.156  16.582  0.2573  1.4435 -2.2660
 6244SOL    HW230366   1.316   4.128  16.631 -0.3179  1.7139  0.4593
 6245SOL     OW30367   2.113   0.532  11.901  0.1099  0.6038 -0.2168
 6245SOL    HW130368   2.191   0.540  11.847  0.9685 -0.0911  0.9007
 6245SOL    HW230369   2.134   0.570  11.986  0.6920 -0.9202  0.3349
 6246SOL     OW30370   2.896   3.076  13.338  0.2481  0.6857 -0.1136
 6246SOL    HW130371   2.884   2.984  13.361  0.8622  1.2469  2.5038
 6246SOL    HW230372   2.939   3.112  13.416  1.2027  1.3338 -0.9495
 6247SOL     OW30373   4.483   2.436   6.981 -0.1440 -0.2126  0.0402
 6247SOL    HW130374   4.454   2.465   6.895 -1.9176  1.7096  1.2693
 6247SOL    HW230375   4.418   2.369   7.002  2.1333 -1.7444  2.2437
 6248SOL     OW30376   4.125   4.732  11.649 -0.9629  0.4567  0.2197
 6248SOL    HW130377   4.186   0.031  11.714  0.8930  0.2880 -1.4250
 6248SOL    HW230378   4.152   0.047  11.572  1.5272 -1.3350 -0.0361
 6249SOL     OW30379   1.842   1.798  13.332 -0.1735 -0.0109 -0.5796
 6249SOL    HW130380   1.795   1.878  13.357  0.5367 -0.4580  2.1911
 6249SOL    HW230381   1.933   1.821  13.347 -0.2156 -1.5217  2.0445
 6250SOL     OW30382   0.055   4.498   1.004 -0.0318 -0.5329  0.4028
 6250SOL    HW130383   4.694   4.502   0.992 -0.2689 -0.9928  2.1669
 6250SOL    HW230384   0.072   4.439   0.930 -2.5803 -0.3549 -0.3298
 6251SOL     OW30385   2.922   3.961   4.713 -0.0872  0.4517 -0.4177
 6251SOL    HW130386   2.847   3.925   4.666 -0.2156  2.1723 -1.5297
 6251SOL    HW230387   2.925   3.898   4.785  0.3703  1.5525  0.5227
 6252SOL     OW30388   1.754   0.109   2.131  0.4927 -0.4663  0.3362
 6252SOL    HW130389   1.753   0.199   2.098 -0.0432 -0.6609 -0.1722
 6252SOL    HW230390   1.704   0.126   2.210  0.9622  0.0413  0.5284
 6253SOL     OW30391   1.570   2.710  12.284 -0.0327  0.1137 -0.2311
 6253SOL    HW130392   1.607   2.690  12.199  1.0621  1.0994  0.0207
 6253SOL    HW230393   1.496   2.766  12.262 -1.1290 -1.0804  0.3724
 6254SOL     OW30394   0.781   2.781   6.196  0.2121 -0.0806 -0.4988
 6254SOL    HW130395   0.793   2.853   6.258 -0.9300 -0.7520  0.5050
 6254SOL    HW230396   0.813   2.825   6.118  0.1510  0.3377 -0.2873
 6255SOL     OW30397   1.230   0.592   5.514  0.3735  0.7833  0.0439
 6255SOL    HW130398   1.240   0.652   5.439 -0.2156 -1.9081 -2.1871
 6255SOL    HW230399   1.301   0.533   5.490 -0.3102 -0.0566  0.1158
 6256SOL     OW30400   0.621   4.121  15.461 -0.3437  0.1315 -0.0685
 6256SOL    HW130401   0.636   4.205  15.505  2.5878 -0.9568  0.9795
 6256SOL    HW230402   0.638   4.148  15.371 -1.8714 -0.6570 -0.5916
 6257SOL     OW30403   4.473   1.386  11.983 -0.0944 -0.2103 -0.0498
 6257SOL    HW130404   4.505   1.349  11.900 -1.0976 -0.5830 -0.2736
 6257SOL    HW230405   4.418   1.312  12.009 -0.5095 -0.0957 -0.6028
 6258SOL     OW30406   1.746   2.027   1.729  0.1815  0.4542  0.1689
 6258SOL    HW130407   1.697   2.106   1.751  0.9897  0.8103  0.6701
 6258SOL    HW230408   1.755   1.973   1.807  0.2842  1.4399  0.8405
 6259SOL     OW30409   0.838   4.025   6.627  0.0018 -0.5443  0.2930
 6259SOL    HW130410   0.921   4.041   6.672 -0.5808  1.2528  0.7672
 6259SOL    HW230411   0.806   4.113   6.607  0.7223 -0.1217  0.9934
 6260SOL     OW30412   0.933   3.743   4.949 -0.2977 -0.3178 -0.1197
 6260SOL    HW130413   0.878   3.821   4.948  1.5912  1.0324  0.8941
 6260SOL    HW230414   0.986   3.767   5.025 -1.3155  0.5268  0.3224
 6261SOL     OW30415   0.263   3.179   2.351  0.1578  0.2230  0.3611
 6261SOL    HW130416   0.176   3.177   2.390  0.9768  0.2196  2.2035
 6261SOL    HW230417   0.252   3.234   2.274 -0.2330 -1.6986 -0.9519
 6262SOL     OW30418   0.001   1.068   0.256 -0.0741 -0.0798 -0.1205
 6262SOL    HW130419   0.009   0.994   0.315  0.6285  0.9138  1.0367
 6262SOL    HW230420   4.701   1.019   0.181 -0.1885  0.1945 -0.2478
 6263SOL     OW30421   0.417   4.635   3.690 -0.2816 -0.1290 -0.6494
 6263SOL    HW130422   0.325   4.659   3.682  0.1577  1.2945 -1.3392
 6263SOL    HW230423   0.434   4.607   3.600  0.7523  1.7013 -1.0405
 6264SOL     OW30424   4.333   1.042   9.526  0.0015 -0.1664  0.2184
 6264SOL    HW130425   4.395   1.066   9.457 -0.9769  0.4815 -0.4335
 6264SOL    HW230426   4.260   1.003   9.477  0.6172 -0.7697 -0.2168
 6265SOL     OW30427   1.154   2.029  16.088  0.4982 -0.5884  0.0465
 6265SOL    HW130428   1.089   1.980  16.138  0.3800 -1.3572 -0.8689
 6265SOL    HW230429   1.096   2.087  16.039  1.6546  0.1845 -0.4130
 6266SOL     OW30430   4.170   0.927   3.228  0.7359 -0.5951 -0.2973
 6266SOL    HW130431   4.154   0.965   3.314  1.5547  0.7809 -0.7604
 6266SOL    HW230432   4.108   0.855   3.246  1.4067 -0.4489  2.4712
 6267SOL     OW30433   0.916   4.310   8.898 -0.2161  0.2874  0.4886
 6267SOL    HW130434   0.943   4.399   8.872  1.2363 -0.5264 -0.7708
 6267SOL    HW230435   0.909   4.323   8.992 -0.0051  0.2859  0.5038
 6268SOL     OW30436   0.264   2.879   7.524  0.3842  0.7111  0.1063
 6268SOL    HW130437   0.308   2.821   7.461  1.8850  1.0746  0.8099
 6268SOL    HW230438   0.295   2.966   7.498  1.2527  0.6032  0.7748
 6269SOL     OW30439   2.732   3.477   8.459 -0.1968  0.1298  0.1185
 6269SOL    HW130440   2.692   3.524   8.386  0.9835  1.0545  0.0640
 6269SOL    HW230441   2.818   3.519   8.462  0.2059 -0.7602  1.0742
 6270SOL     OW30442   3.652   0.813   3.571  0.1019 -0.3271  0.4703
 6270SOL    HW130443   3.667   0.902   3.538 -3.2635 -0.2207 -0.8519
 6270SOL    HW230444   3.740   0.797   3.604 -0.2511 -2.4144  0.3594
 6271SOL     OW30445   4.373   2.142   3.739 -0.1092  0.3820 -0.0594
 6271SOL    HW130446   4.375   2.222   3.686  0.9804 -1.2585 -2.4537
 6271SOL    HW230447   4.308   2.164   3.806 -2.4376  0.8771 -2.4626
 6272SOL     OW30448   0.496   3.676   5.700 -0.0173 -0.2368  0.1040
 6272SOL    HW130449   0.494   3.678   5.795  1.3897  0.7970  0.1093
 6272SOL    HW230450   0.497   3.767   5.668 -0.4714 -0.5028 -0.6751
 6273SOL     OW30451   2.001   3.459  12.593  0.0127 -0.1230  0.0514
 6273SOL    HW130452   1.950   3.512  12.532  1.4514 -0.6910 -1.6401
 6273SOL    HW230453   2.019   3.377  12.546 -1.0587 -0.0879 -0.4245
 6274SOL     OW30454   1.490   0.415   1.870 -0.3723 -0.6117  0.1470
 6274SOL    HW130455   1.578   0.391   1.842 -0.9766  0.4112 -2.6636
 6274SOL    HW230456   1.445   0.358   1.807  0.6263 -3.2464  1.8064
 6275SOL     OW30457   4.419   4.078  10.008 -0.1569  0.1982  1.1600
 6275SOL    HW130458   4.396   4.152  10.065 -3.4248  2.5159 -3.1185
 6275SOL    HW230459   4.504   4.057  10.047  0.3498 -0.6523 -0.4248
 6276SOL     OW30460   2.762   3.137   5.114 -0.5675  0.1662  0.3465
 6276SOL    HW130461   2.816   3.098   5.182  1.1751  2.0606  0.0540
 6276SOL    HW230462   2.713   3.057   5.093 -1.3645  0.5281  0.8154
 6277SOL     OW30463   0.431   3.597   5.960 -0.8641 -0.5367 -0.2418
 6277SOL    HW130464   0.432   3.517   6.012  2.3549  0.1627  0.7727
 6277SOL    HW230465   0.341   3.626   5.972  0.2108  2.0327  1.5957
 6278SOL     OW30466   1.460   2.876  16.275 -0.1335  0.2716  0.5445
 6278SOL    HW130467   1.401   2.847  16.206  0.1662 -0.9054  0.7944
 6278SOL    HW230468   1.416   2.955  16.309  0.0944  0.6444 -0.0188
 6279SOL     OW30469   2.312   0.250  16.128  0.3321  0.0752 -0.1102
 6279SOL    HW130470   2.352   0.209  16.205  1.8446  1.7910  0.0065
 6279SOL    HW230471   2.384   0.290  16.080  0.4127  1.6040  1.2996
 6280SOL     OW30472   4.280   1.062  16.497 -0.4871  0.1348  0.4378
 6280SOL    HW130473   4.252   1.091  16.583 -2.6923  2.3138 -1.0139
 6280SOL    HW230474   4.215   0.996  16.471 -1.6388  0.6375  2.0629
 6281SOL     OW30475   1.706   4.118   6.925 -0.3456 -0.0429  0.2067
 6281SOL    HW130476   1.792   4.080   6.941 -0.2194  0.5965  1.0462
 6281SOL    HW230477   1.720   4.212   6.910  3.1965 -0.2409  2.1806
 6282SOL     OW30478   2.972   3.659   6.706  0.4345 -0.8068  0.4086
 6282SOL    HW130479   3.029   3.715   6.759  0.0631  0.0276 -0.0889
 6282SOL    HW230480   2.983   3.573   6.746 -2.6123 -0.6204  1.6559
 6283SOL     OW30481   3.874   1.890   7.268  0.0839  0.4360 -0.1880
 6283SOL    HW130482   3.947   1.907   7.327  0.7331  1.4162 -1.2770
 6283SOL    HW230483   3.872   1.975   7.224 -0.8479  0.1023 -0.7957
 6284SOL     OW30484   3.047   3.429  12.353  0.7683 -0.3105  0.6210
 6284SOL    HW130485   3.072   3.424  12.445 -0.8945  1.0149  1.1598
 6284SOL    HW230486   3.110   3.496  12.326  2.5096 -1.9954  0.4824
 6285SOL     OW30487   1.814   1.424   8.702 -0.1011  0.4248  0.2088
 6285SOL    HW130488   1.860   1.485   8.760  3.2719 -0.6526 -1.3349
 6285SOL    HW230489   1.793   1.474   8.624  0.5482  0.4173  0.0278
 6286SOL     OW30490   3.985   0.253   2.691  0.0959  0.4540  0.0815
 6286SOL    HW130491   4.068   0.252   2.642 -0.7617 -1.2333 -1.3255
 6286SOL    HW230492   4.024   0.251   2.778  0.1575 -3.7529 -0.0036
 6287SOL     OW30493   1.554   2.611  16.208 -0.2618 -0.5446  0.3447
 6287SOL    HW130494   1.560   2.693  16.257  1.9403 -1.0234  0.8394
 6287SOL    HW230495   1.465   2.590  16.237 -0.2237  0.1856  0.9898
 6288SOL     OW30496   0.786   3.919  13.710  0.1579  0.7278 -0.4218
 6288SOL    HW130497   0.696   3.938  13.682  0.1313  1.8880  0.4351
 6288SOL    HW230498   0.821   3.866  13.639 -0.3786 -2.3174  1.6103
 6289SOL     OW30499   1.581   0.916   1.941  0.8452  0.2045  0.4884
 6289SOL    HW130500   1.503   0.897   1.993  1.1178 -3.7731 -0.5318
 6289SOL    HW230501   1.541   0.953   1.862  2.5631  0.8168 -0.1154
 6290SOL     OW30502   4.480   2.418   4.955  0.0010 -0.3468  0.5079
 6290SOL    HW130503   4.427   2.447   5.029 -2.2081  0.5235 -1.4123
 6290SOL    HW230504   4.411   2.412   4.889  0.1876 -1.9035  0.4616
 6291SOL     OW30505   4.365   2.715   1.520 -0.3400 -0.2473  0.3920
 6291SOL    HW130506   4.274   2.731   1.546 -0.4315  0.0660 -0.1321
 6291SOL    HW230507   4.356   2.621   1.506 -0.5267 -0.2971  0.8456
 6292SOL     OW30508   1.368   2.441  13.942 -0.0907 -0.1146  0.6467
 6292SOL    HW130509   1.444   2.436  14.000 -1.1012 -2.4282  1.7769
 6292SOL    HW230510   1.374   2.355  13.900 -1.0499  1.2467 -2.2816
 6293SOL     OW30511   2.114   3.251   7.860 -0.1131  0.6240 -0.0506
 6293SOL    HW130512   2.154   3.298   7.787 -1.3274 -3.5852 -3.4366
 6293SOL    HW230513   2.176   3.180   7.873  0.6573  1.1459 -0.8594
 6294SOL     OW30514   2.593   0.837   6.683  0.1426  0.1989  0.3296
 6294SOL    HW130515   2.545   0.779   6.625  0.1361 -0.1864  0.7202
 6294SOL    HW230516   2.649   0.771   6.723  0.7264  1.1244  1.0613
 6295SOL     OW30517   1.576   0.161   3.690 -0.7302  0.2917  0.1533
 6295SOL    HW130518   1.529   0.210   3.757 -1.8150  0.0385 -0.4305
 6295SOL    HW230519   1.623   0.231   3.644 -0.0099  0.8953  1.7866
 6296SOL     OW30520   3.713   0.149   6.178 -0.4075 -0.1038  0.4589
 6296SOL    HW130521   3.634   0.132   6.127 -1.6111  2.0961  1.5479
 6296SOL    HW230522   3.766   0.188   6.108  1.9695  0.2167  2.4401
 6297SOL     OW30523   0.539   2.752   8.988  0.0491  0.4891 -0.2007
 6297SOL    HW130524   0.585   2.796   8.917 -0.2290 -0.4136 -0.9354
 6297SOL    HW230525   0.609   2.736   9.051  0.8586  0.8442 -1.0026
 6298SOL     OW30526   1.312   0.094  17.558  0.0834  0.4121  0.1024
 6298SOL    HW130527   1.352   0.008  17.567 -2.1215 -0.7136 -0.8035
 6298SOL    HW230528   1.279   0.082  17.469 -1.6405  1.0961  0.6591
 6299SOL     OW30529   2.306   0.716   1.033 -0.4516 -0.5648 -0.2814
 6299SOL    HW130530   2.265   0.684   0.953  2.2548 -1.7739 -1.1681
 6299SOL    HW230531   2.400   0.710   1.015 -0.5312  0.1890 -0.9619
 6300SOL     OW30532   3.082   2.035   0.016 -0.1652 -0.0467  0.0354
 6300SOL    HW130533   3.047   2.121  17.730  2.2662  1.2651  1.3590
 6300SOL    HW230534   3.003   1.986  17.729  1.9013 -2.4892 -1.8765
 6301SOL     OW30535   1.455   1.379   1.345 -1.0978  1.1879 -0.1762
 6301SOL    HW130536   1.448   1.295   1.300  0.1919  0.1834  1.5370
 6301SOL    HW230537   1.398   1.362   1.420 -1.7093 -0.6259 -1.0723
 6302SOL     OW30538   0.696   4.550   5.327  0.3141 -0.0446 -0.8380
 6302SOL    HW130539   0.705   4.476   5.387 -4.4618 -1.1588 -1.5078
 6302SOL    HW230540   0.786   4.581   5.339  0.1369  0.3451 -0.5394
 6303SOL     OW30541   0.035   3.518   6.241  0.3278 -0.1650 -0.0787
 6303SOL    HW130542   0.119   3.497   6.200 -0.2157 -0.7484 -0.8821
 6303SOL    HW230543   0.000   3.589   6.188 -0.2253  0.0364  0.5523
 6304SOL     OW30544   2.440   0.522   7.632 -0.0324 -0.1102  0.5356
 6304SOL    HW130545   2.388   0.472   7.695  0.5075 -0.2839  0.8403
 6304SOL    HW230546   2.409   0.481   7.551 -0.1469  1.9843 -0.5027
 6305SOL     OW30547   4.582   0.234   7.614 -0.6024  0.1814 -0.2620
 6305SOL    HW130548   4.547   0.323   7.612 -2.1800 -0.4671 -1.5090
 6305SOL    HW230549   4.627   0.243   7.530 -1.3636 -0.4856 -0.7406
 6306SOL     OW30550   0.834   2.972   6.359 -0.1458 -0.7622 -0.4431
 6306SOL    HW130551   0.754   2.990   6.409 -0.4679  0.9865 -1.5627
 6306SOL    HW230552   0.899   3.010   6.417  0.3486 -1.8263 -0.3132
 6307SOL     OW30553   0.173   4.152   5.380 -0.1972  0.5499 -0.1195
 6307SOL    HW130554   0.204   4.116   5.463 -0.4160 -1.0471 -0.7250
 6307SOL    HW230555   0.156   4.245   5.394  1.2927  0.6297  1.1029
 6308SOL     OW30556   4.272   1.458   7.429  0.2291 -0.6635 -0.5710
 6308SOL    HW130557   4.272   1.541   7.381  1.0585 -2.7914 -4.2875
 6308SOL    HW230558   4.357   1.477   7.468 -0.6858  1.1707  0.4879
 6309SOL     OW30559   0.516   2.229   4.883 -0.2922  0.0211  0.6005
 6309SOL    HW130560   0.476   2.316   4.876 -0.2179 -0.0676 -0.9024
 6309SOL    HW230561   0.473   2.192   4.961 -2.3335  2.1546  0.5015
 6310SOL     OW30562   0.753   1.148   7.312 -0.2131 -0.1396  0.0260
 6310SOL    HW130563   0.824   1.210   7.297 -0.3084 -0.0297  0.0279
 6310SOL    HW230564   0.752   1.092   7.235 -2.2611 -1.7379  1.2139
 6311SOL     OW30565   4.556   3.703   8.324  0.0717 -0.4940 -0.4485
 6311SOL    HW130566   4.526   3.679   8.236  0.4144  1.3119 -1.0500
 6311SOL    HW230567   4.634   3.648   8.336  0.8736  0.9571  0.9338
 6312SOL     OW30568   4.616   4.099   5.382  0.3375  0.5665 -0.1594
 6312SOL    HW130569   4.612   4.076   5.475  0.5439 -1.8940 -0.7795
 6312SOL    HW230570   4.711   4.104   5.374  0.5924 -0.2378  2.4106
 6313SOL     OW30571   2.102   0.949  14.489  0.1765  0.1734 -0.2904
 6313SOL    HW130572   2.186   0.950  14.534  0.1042  0.0777 -0.1502
 6313SOL    HW230573   2.130   0.948  14.398 -0.6278  0.3827 -0.5450
 6314SOL     OW30574   1.252   4.529  14.091  0.1915 -0.1156  0.3421
 6314SOL    HW130575   1.318   4.461  14.102 -1.1412 -1.2153  1.4469
 6314SOL    HW230576   1.199   4.501  14.017 -1.7853  2.6694  0.7036
 6315SOL     OW30577   3.304   3.195   5.889 -0.6108  0.3411  0.4634
 6315SOL    HW130578   3.355   3.206   5.809  0.2054 -0.0352  0.9346
 6315SOL    HW230579   3.347   3.120   5.931 -1.0423  1.3298  2.6405
 6316SOL     OW30580   3.355   4.327  12.001 -0.1736 -0.1630 -0.1577
 6316SOL    HW130581   3.274   4.295  11.961  0.4834  0.4008 -1.9300
 6316SOL    HW230582   3.312   4.377  12.070  0.2223  0.0228 -0.0505
 6317SOL     OW30583   3.509   3.047  14.497 -0.2828 -0.1834 -0.3798
 6317SOL    HW130584   3.431   3.102  14.508 -0.1710 -0.1651  0.3201
 6317SOL    HW230585   3.541   3.065  14.409 -1.1261  1.6546 -0.3073
 6318SOL     OW30586   2.589   4.340  11.583 -0.4461 -0.5508 -0.1528
 6318SOL    HW130587   2.560   4.274  11.646 -0.1774  1.3377  1.9534
 6318SOL    HW230588   2.671   4.306  11.548 -0.4922 -0.0826 -0.7142
 6319SOL     OW30589   2.644   1.666   8.772  0.5637 -0.4880 -0.0125
 6319SOL    HW130590   2.615   1.711   8.693 -2.3178 -3.3292 -0.6023
 6319SOL    HW230591   2.571   1.693   8.828  0.5505  0.9514 -0.7298
 6320SOL     OW30592   1.124   0.383  17.269 -0.0771 -0.4040  0.3938
 6320SOL    HW130593   1.177   0.451  17.309  1.7184 -3.3277  3.0534
 6320SOL    HW230594   1.036   0.397  17.303  0.6740 -0.0033  2.2227
 6321SOL     OW30595   3.736   2.498   8.863  0.1656 -0.1180 -0.1198
 6321SOL    HW130596   3.797   2.444   8.813 -0.9040 -1.1102 -0.3423
 6321SOL    HW230597   3.774   2.586   8.855  0.9087 -0.4577 -0.2861
 6322SOL     OW30598   3.523   2.753   5.672 -0.2540 -0.2150  0.4362
 6322SOL    HW130599   3.451   2.743   5.611  0.6039 -1.8604 -0.3233
 6322SOL    HW230600   3.592   2.758   5.606  0.2222  0.8126  1.0088
 6323SOL     OW30601   3.083   1.232   4.484 -0.3596  0.5186 -0.3006
 6323SOL    HW130602   3.173   1.241   4.515 -0.7606  1.1830  0.6636
 6323SOL    HW230603   3.045   1.174   4.549 -0.3142  2.3811  1.4119
 6324SOL     OW30604   2.585   2.838   1.658 -0.1135 -0.4217 -0.4246
 6324SOL    HW130605   2.619   2.853   1.570 -0.5274  1.3676 -0.2680
 6324SOL    HW230606   2.514   2.778   1.636 -0.2565 -0.1897 -0.5999
 6325SOL     OW30607   2.271   2.799   2.803 -0.5959 -0.1600 -0.8543
 6325SOL    HW130608   2.291   2.721   2.854 -0.0608  1.2395  1.0774
 6325SOL    HW230609   2.177   2.799   2.819 -0.8377 -1.2887 -2.2131
 6326SOL     OW30610   3.572   3.216   7.207 -0.4808  0.2367  0.3387
 6326SOL    HW130611   3.538   3.126   7.203 -1.0821  0.5951 -2.9786
 6326SOL    HW230612   3.667   3.207   7.211 -0.3778  1.0312 -0.3038
 6327SOL     OW30613   3.382   1.275   3.139  0.0608  0.3042  0.1908
 6327SOL    HW130614   3.455   1.319   3.182  0.8096 -1.0268  0.2653
 6327SOL    HW230615   3.355   1.351   3.088 -0.6572  0.6243  1.0462
 6328SOL     OW30616   0.021   1.466   1.673  0.3824 -0.3865 -0.9405
 6328SOL    HW130617   0.012   1.506   1.760  3.0174  1.6355 -1.6014
 6328SOL    HW230618   0.047   1.536   1.614  0.0906 -0.5078 -1.2129
 6329SOL     OW30619   3.634   1.890   5.184  0.6039  0.6903 -0.0592
 6329SOL    HW130620   3.677   1.867   5.267  0.1847  1.6045  0.4038
 6329SOL    HW230621   3.669   1.979   5.176 -2.7127  2.0093  0.3319
 6330SOL     OW30622   0.756   1.969   5.739  0.0098  0.3763  0.1622
 6330SOL    HW130623   0.738   1.877   5.720 -0.2467  0.3798  0.3881
 6330SOL    HW230624   0.823   1.952   5.804 -1.4933 -0.4027  1.4985
 6331SOL     OW30625   0.607   1.996   2.081 -0.1206 -0.7056  0.1094
 6331SOL    HW130626   0.676   1.966   2.022 -0.5854  0.7045 -1.1744
 6331SOL    HW230627   0.607   2.090   2.061  0.3674 -0.7967 -0.3277
 6332SOL     OW30628   0.435   3.112   1.963  0.4442  0.3115  0.4041
 6332SOL    HW130629   0.394   3.195   1.939 -0.7330 -0.6525 -0.9380
 6332SOL    HW230630   0.511   3.129   1.908  0.8389 -1.4149  0.4265
 6333SOL     OW30631   0.113   2.585   7.911  0.2093  0.4204  0.3934
 6333SOL    HW130632   0.201   2.547   7.917  0.1556  0.4889  1.6030
 6333SOL    HW230633   0.128   2.673   7.945  0.7260  0.0612  1.0863
 6334SOL     OW30634   4.233   0.640   6.083  0.4163  0.3432  0.5985
 6334SOL    HW130635   4.268   0.730   6.080  0.9650  0.1175  0.2412
 6334SOL    HW230636   4.195   0.624   5.997  1.1424  0.7774  0.1910
 6335SOL     OW30637   1.356   4.381   0.597  0.2913  0.5511 -0.1452
 6335SOL    HW130638   1.272   4.426   0.609  0.3566  0.4834  0.5535
 6335SOL    HW230639   1.395   4.412   0.515 -0.3544 -0.4660 -0.8425
 6336SOL     OW30640   4.136   1.284   7.575 -0.4416  0.2916  0.5696
 6336SOL    HW130641   4.051   1.286   7.530 -0.8036  0.6014  1.2697
 6336SOL    HW230642   4.185   1.344   7.519  0.2541 -0.7274  0.1000
 6337SOL     OW30643   0.495   0.942  17.436 -0.3798 -0.2350 -0.2933
 6337SOL    HW130644   0.507   0.919  17.529  3.1729 -0.3416 -0.7713
 6337SOL    HW230645   0.404   0.966  17.422 -0.5697 -0.5893  0.3047
 6338SOL     OW30646   3.590   3.719   4.388  0.4610 -0.4484  0.3864
 6338SOL    HW130647   3.674   3.755   4.418  1.4002 -1.6880 -0.7439
 6338SOL    HW230648   3.582   3.637   4.436 -3.0102  0.5633  1.4890
 6339SOL     OW30649   4.206   2.680   0.799 -0.0587 -0.4046 -0.2224
 6339SOL    HW130650   4.243   2.753   0.751  0.1826 -0.7416 -0.5528
 6339SOL    HW230651   4.193   2.603   0.744 -3.0096 -0.3979  0.4568
 6340SOL     OW30652   1.083   1.101  16.776 -0.1623 -0.8675  0.0883
 6340SOL    HW130653   1.029   1.024  16.795  1.1878 -1.8343  0.0626
 6340SOL    HW230654   1.076   1.148  16.859 -0.7446 -0.3177 -0.2787
 6341SOL     OW30655   3.895   2.875   2.407 -0.8139 -0.2388  0.3336
 6341SOL    HW130656   3.922   2.825   2.484  2.1265 -0.1883 -0.6835
 6341SOL    HW230657   3.919   2.964   2.433  1.2929 -0.1825 -1.8223
 6342SOL     OW30658   3.855   0.483   9.296 -0.4827  0.3671 -0.6746
 6342SOL    HW130659   3.834   0.391   9.280  0.6464  0.3324 -1.8956
 6342SOL    HW230660   3.771   0.528   9.287  0.6804  2.0139 -3.2654
 6343SOL     OW30661   1.318   3.841  16.588 -0.0519 -0.0816 -0.3516
 6343SOL    HW130662   1.245   3.834  16.649 -0.6376 -2.4906 -1.3319
 6343SOL    HW230663   1.300   3.926  16.546  0.8195 -0.1739 -0.9129
 6344SOL     OW30664   3.022   2.344  14.385 -0.2234 -0.2236 -0.3068
 6344SOL    HW130665   3.085   2.395  14.335 -0.6727  2.3533  1.7771
 6344SOL    HW230666   3.044   2.254  14.359 -0.3651  0.0490 -1.3795
 6345SOL     OW30667   1.813   0.951   7.154  0.0199 -0.1898  0.3162
 6345SOL    HW130668   1.882   0.886   7.150 -2.4861 -2.9187  1.8293
 6345SOL    HW230669   1.759   0.915   7.224 -1.2668  0.3837 -0.3693
 6346SOL     OW30670   2.403   3.146   8.194 -0.1744  0.3907  0.4928
 6346SOL    HW130671   2.469   3.102   8.246 -1.5085 -0.6105  1.3376
 6346SOL    HW230672   2.360   3.198   8.263 -1.0755  0.0418  0.1999
 6347SOL     OW30673   4.497   1.680  17.549 -0.1267 -0.0958  0.0427
 6347SOL    HW130674   4.571   1.632  17.589 -0.0461  0.4751  0.5796
 6347SOL    HW230675   4.461   1.724  17.626 -0.4920 -1.5645  0.7257
 6348SOL     OW30676   1.399   4.045   1.873 -0.2075 -0.1628 -0.3269
 6348SOL    HW130677   1.310   4.012   1.856 -0.1918 -1.1702  1.5865
 6348SOL    HW230678   1.446   3.968   1.842  0.0346 -0.9254  1.9725
 6349SOL     OW30679   0.560   0.619   5.074 -0.3134 -0.1112 -0.5298
 6349SOL    HW130680   0.573   0.714   5.083 -0.2623 -0.3540  2.0005
 6349SOL    HW230681   0.469   0.615   5.103 -0.2828 -1.5726 -0.6310
 6350SOL     OW30682   0.037   2.346   6.271 -0.2841 -0.2556 -0.1859
 6350SOL    HW130683   0.005   2.328   6.359  1.2356 -1.2943  0.1527
 6350SOL    HW230684   0.007   2.433   6.242 -1.5746 -0.8064 -0.4996
 6351SOL     OW30685   0.045   3.626  13.238  0.0332  0.6633 -0.6429
 6351SOL    HW130686   0.074   3.534  13.241  0.5788  0.8938  1.4235
 6351SOL    HW230687   0.035   3.646  13.331 -0.9952  0.3924 -0.7006
 6352SOL     OW30688   3.292   1.980   0.182 -0.4383 -0.7285  0.0180
 6352SOL    HW130689   3.209   1.987   0.135  0.1982  2.6696 -0.6356
 6352SOL    HW230690   3.343   2.045   0.133  0.2720 -0.0770  1.5990
 6353SOL     OW30691   1.561   0.800   3.721  0.3267 -0.1246 -0.7988
 6353SOL    HW130692   1.528   0.764   3.638 -1.5862  1.1713 -0.5843
 6353SOL    HW230693   1.602   0.873   3.676 -0.5536 -0.4297 -2.0951
 6354SOL     OW30694   1.065   1.896  10.800 -0.1984  0.3651  0.0589
 6354SOL    HW130695   1.140   1.874  10.746 -0.1772  0.9469 -0.1499
 6354SOL    HW230696   1.032   1.810  10.826 -2.7163  1.2016 -0.3838
 6355SOL     OW30697   3.407   3.144   6.695  0.3216 -0.0051  0.4637
 6355SOL    HW130698   3.432   3.090   6.620  0.2805  1.1064 -0.3588
 6355SOL    HW230699   3.338   3.199   6.657  0.6948 -0.3962 -0.8036
 6356SOL     OW30700   1.123   4.242  11.913 -0.5060  0.8154  0.1351
 6356SOL    HW130701   1.204   4.200  11.940  0.1744  1.5800 -0.7495
 6356SOL    HW230702   1.075   4.177  11.862 -1.6648  2.2865 -0.6604
 6357SOL     OW30703   3.055   2.219   5.491 -0.2618 -0.5630 -0.3058
 6357SOL    HW130704   3.019   2.144   5.443 -0.2454 -1.1490  0.5981
 6357SOL    HW230705   3.147   2.201   5.468  0.1940  0.5293  0.7008
 6358SOL     OW30706   2.658   0.362   0.157  0.3063  0.4730  0.3110
 6358SOL    HW130707   2.607   0.315   0.223  0.5585  0.5372  0.5542
 6358SOL    HW230708   2.696   0.288   0.109 -0.3804  0.9841 -1.0097
 6359SOL     OW30709   2.490   2.494   4.813 -0.0384 -0.7248 -0.1426
 6359SOL    HW130710   2.442   2.529   4.738 -0.3424  0.5905  0.6732
 6359SOL    HW230711   2.526   2.417   4.769  2.0537 -1.1414  2.3202
 6360SOL     OW30712   0.773   1.591   5.242  0.2099 -0.3337 -1.4439
 6360SOL    HW130713   0.730   1.575   5.158  1.9686 -0.8123 -2.2514
 6360SOL    HW230714   0.802   1.501   5.258  2.6622  0.1860 -2.9689
 6361SOL     OW30715   1.088   2.725   5.837  0.3152  0.4628  0.0820
 6361SOL    HW130716   1.116   2.792   5.776 -0.0928  0.5661  0.0065
 6361SOL    HW230717   1.001   2.703   5.802  1.1016 -1.7399 -0.4746
 6362SOL     OW30718   2.698   0.926  12.646  0.3505 -0.2118  0.1339
 6362SOL    HW130719   2.673   0.950  12.736  2.1402  2.8577 -0.1969
 6362SOL    HW230720   2.680   1.001  12.590  1.7031 -0.1920 -0.2675
 6363SOL     OW30721   0.780   1.993   9.647  0.2146  0.1502  0.9161
 6363SOL    HW130722   0.848   1.925   9.645  1.5086  1.4777 -1.3688
 6363SOL    HW230723   0.791   2.017   9.739 -2.4217  1.1011  0.9749
 6364SOL     OW30724   1.492   1.239  17.677  0.4685  0.4750 -0.6926
 6364SOL    HW130725   1.539   1.232  17.594  5.1119  0.9813  1.8830
 6364SOL    HW230726   1.469   1.148  17.694  0.0868  0.0493 -3.4362
 6365SOL     OW30727   2.505   1.689   5.644 -0.2494  0.7698  0.6277
 6365SOL    HW130728   2.485   1.769   5.595  0.0356  1.1803  1.1757
 6365SOL    HW230729   2.426   1.681   5.698 -0.0455 -2.0332  0.5074
 6366SOL     OW30730   1.051   0.634  17.153 -0.4278  0.0655  0.3866
 6366SOL    HW130731   1.127   0.576  17.149  0.4465  1.2943 -0.7516
 6366SOL    HW230732   1.086   0.715  17.190  0.4104 -0.3100  0.4260
 6367SOL     OW30733   2.604   3.761   7.515  0.2604  0.2762 -0.0649
 6367SOL    HW130734   2.584   3.847   7.479  1.5388  0.8370  0.5651
 6367SOL    HW230735   2.568   3.695   7.456  1.0104 -1.9832  1.9837
 6368SOL     OW30736   4.608   2.252   5.650  0.3014  0.3009 -0.2639
 6368SOL    HW130737   4.675   2.199   5.607  1.1493  1.1321  0.0579
 6368SOL    HW230738   4.629   2.332   5.603 -0.4162 -1.5890 -3.8709
 6369SOL     OW30739   3.198   4.613   2.190 -0.2891 -0.3340 -0.4248
 6369SOL    HW130740   3.134   4.645   2.253 -0.4171  0.0505 -0.7495
 6369SOL    HW230741   3.274   4.592   2.246 -0.4990 -1.8422 -0.6961
 6370SOL     OW30742   2.161   2.965   5.060  0.0268  0.0360  0.2469
 6370SOL    HW130743   2.172   2.929   4.972  2.9852  3.5281 -0.7560
 6370SOL    HW230744   2.072   3.001   5.056  0.0320  0.2570  1.9113
 6371SOL     OW30745   2.772   1.558   6.426 -0.6922 -0.1824  0.0532
 6371SOL    HW130746   2.831   1.622   6.387  0.0091 -0.0459  1.3474
 6371SOL    HW230747   2.765   1.486   6.363 -1.3162  2.5062 -2.9453
 6372SOL     OW30748   2.263   2.434  14.043 -0.0802 -0.0416  0.0896
 6372SOL    HW130749   2.329   2.480  14.096 -0.3345  1.1307 -0.6038
 6372SOL    HW230750   2.217   2.509  14.006  2.2424  0.6936 -1.3113
 6373SOL     OW30751   0.937   0.429   1.513  0.0700 -0.2352  0.0840
 6373SOL    HW130752   1.022   0.388   1.527 -0.0337 -0.3979  0.2435
 6373SOL    HW230753   0.965   0.520   1.512  0.4495 -0.3574 -0.1928
 6374SOL     OW30754   1.035   0.876   1.921 -0.3554 -0.6207  0.3314
 6374SOL    HW130755   1.096   0.879   1.994  0.2520 -0.5856 -0.1855
 6374SOL    HW230756   1.086   0.830   1.854  0.6125  0.2985  0.4489
 6375SOL     OW30757   0.187   1.472   3.644  0.1487  0.4944 -0.0402
 6375SOL    HW130758   0.169   1.561   3.676 -1.3490  0.4719 -0.7936
 6375SOL    HW230759   0.096   1.446   3.657  0.7006 -0.1160  2.6009
 6376SOL     OW30760   4.228   3.987   6.479  0.3167 -0.2944 -0.5507
 6376SOL    HW130761   4.197   3.911   6.430 -2.0754  0.4499 -0.1710
 6376SOL    HW230762   4.146   4.026   6.509  1.1751 -0.3860  1.8656
 6377SOL     OW30763   1.698   3.155   3.060  0.0383 -0.1187  0.2385
 6377SOL    HW130764   1.763   3.179   2.994  1.4440  0.5584  1.8492
 6377SOL    HW230765   1.622   3.204   3.028  0.7233  1.5703  1.1705
 6378SOL     OW30766   1.193   1.467   7.067  0.0494 -0.0736  0.3142
 6378SOL    HW130767   1.172   1.441   6.978  0.9221  1.0859 -0.2280
 6378SOL    HW230768   1.201   1.562   7.053  1.2284 -0.2019  0.0864
 6379SOL     OW30769   3.436   3.104  12.958  0.1897 -0.4641  0.1445
 6379SOL    HW130770   3.463   3.028  13.009 -0.0309 -0.5857  0.0780
 6379SOL    HW230771   3.355   3.137  12.997  0.6732  2.5103 -1.3037
 6380SOL     OW30772   1.257   2.181   8.378  0.4867  0.5833  0.5453
 6380SOL    HW130773   1.348   2.165   8.402  0.5397  0.5557  0.3306
 6380SOL    HW230774   1.251   2.151   8.287  0.4381 -0.9869  1.0788
 6381SOL     OW30775   1.049   0.572   0.265  0.5516 -0.0462  0.2431
 6381SOL    HW130776   1.040   0.635   0.193  1.8980  0.8427  0.8513
 6381SOL    HW230777   1.010   0.494   0.227  2.6745 -1.2507  0.5590
 6382SOL     OW30778   4.536   0.663   8.898 -0.0417  0.0942 -0.7080
 6382SOL    HW130779   4.489   0.630   8.822 -0.2604 -3.0871  0.8045
 6382SOL    HW230780   4.479   0.734   8.926 -0.1689 -1.0288  1.9196
 6383SOL     OW30781   2.252   0.227   8.738 -0.2568  0.4670 -0.1026
 6383SOL    HW130782   2.245   0.138   8.774 -1.0362  0.9908  1.0405
 6383SOL    HW230783   2.237   0.274   8.820 -2.0868 -0.7230  0.2591
 6384SOL     OW30784   3.119   4.225   0.445 -0.3455 -0.1326 -0.1892
 6384SOL    HW130785   3.039   4.278   0.440  0.4682  1.1259  0.0911
 6384SOL    HW230786   3.154   4.241   0.357 -2.0102 -0.4399 -0.9106
 6385SOL     OW30787   1.291   4.648   6.334  0.1221  0.1780 -0.0711
 6385SOL    HW130788   1.196   4.657   6.344  0.4061  2.2493  0.6681
 6385SOL    HW230789   1.298   4.571   6.277  1.1099 -0.6592  1.1784
 6386SOL     OW30790   3.363   2.324   3.103  0.4061  0.1390 -0.5550
 6386SOL    HW130791   3.386   2.409   3.065  1.6541 -0.4696 -1.1526
 6386SOL    HW230792   3.303   2.295   3.034 -0.0585 -1.7320  0.6317
 6387SOL     OW30793   2.738   1.483  16.620  0.3723  0.4504  0.0113
 6387SOL    HW130794   2.775   1.513  16.536 -1.5672 -1.6254 -1.5962
 6387SOL    HW230795   2.808   1.429  16.656  0.3253  1.3598  1.4707
 6388SOL     OW30796   2.992   3.073  10.095  0.6514 -0.5722 -0.4634
 6388SOL    HW130797   3.014   3.082  10.188  0.7968  2.1496 -0.7875
 6388SOL    HW230798   2.928   3.003  10.112  0.2393 -0.2572 -0.7297
 6389SOL     OW30799   0.694   2.207   3.447 -0.0693 -0.0248 -0.4399
 6389SOL    HW130800   0.707   2.144   3.376  1.8143  1.0931 -1.0953
 6389SOL    HW230801   0.626   2.266   3.415 -1.2747 -0.8000  0.6931
 6390SOL     OW30802   0.996   2.487   6.363 -0.2373  0.0071  0.1614
 6390SOL    HW130803   1.070   2.445   6.320 -0.5473  0.2047 -0.5643
 6390SOL    HW230804   1.048   2.560   6.399  1.2916 -0.2145 -1.6331
 6391SOL     OW30805   0.172   0.557   3.561 -0.4452 -0.0849  0.3550
 6391SOL    HW130806   0.180   0.578   3.468  2.1983 -0.4199  0.5173
 6391SOL    HW230807   0.097   0.498   3.569 -0.7993  0.2176 -0.7936
 6392SOL     OW30808   3.776   4.108   9.331 -0.0176 -0.7744 -0.2145
 6392SOL    HW130809   3.695   4.056   9.331 -1.4263  1.4041 -0.3160
 6392SOL    HW230810   3.845   4.042   9.336  0.5486 -0.1927 -0.3316
 6393SOL     OW30811   0.154   3.128   3.777  0.1170  0.4197 -0.0549
 6393SOL    HW130812   0.244   3.099   3.790 -0.1036  0.7404  2.2408
 6393SOL    HW230813   0.122   3.144   3.866  1.1725 -1.0090  0.5800
 6394SOL     OW30814   4.609   2.553   1.176  0.8105 -0.4946 -0.1563
 6394SOL    HW130815   4.563   2.583   1.254  0.7392 -0.9055 -0.0436
 6394SOL    HW230816   4.537   2.515   1.127  0.5487  0.7896 -0.7662
 6395SOL     OW30817   2.749   0.644   6.848  0.2529 -0.3535 -0.3143
 6395SOL    HW130818   2.796   0.596   6.915 -0.4617 -0.7485 -0.0916
 6395SOL    HW230819   2.812   0.716   6.843 -1.1283  1.1006  3.2127
 6396SOL     OW30820   4.177   4.128   8.899 -0.0367 -0.1184  0.1292
 6396SOL    HW130821   4.203   4.073   8.825 -0.3989 -0.0149 -0.0749
 6396SOL    HW230822   4.166   4.210   8.852 -1.4855 -0.7491 -0.6201
 6397SOL     OW30823   3.990   3.795   9.599 -0.3444  0.2513  0.2054
 6397SOL    HW130824   4.069   3.741   9.603 -0.2372  0.2496 -1.6579
 6397SOL    HW230825   4.020   3.871   9.549 -1.4260 -0.6482 -1.8555
 6398SOL     OW30826   1.417   0.810   4.257  0.1273  0.5023  0.0432
 6398SOL    HW130827   1.416   0.900   4.290  0.9236  0.4827  0.1133
 6398SOL    HW230828   1.440   0.829   4.166 -2.7197 -1.3941 -1.0665
 6399SOL     OW30829   2.731   2.864   5.687  0.3031  0.1746 -0.4266
 6399SOL    HW130830   2.677   2.868   5.607  0.6598  5.5495 -0.3985
 6399SOL    HW230831   2.778   2.781   5.683 -0.0287  0.0045 -0.8891
 6400SOL     OW30832   2.520   0.347   5.992 -0.4821  0.1596 -1.0242
 6400SOL    HW130833   2.553   0.381   6.075 -2.9533 -0.5863  0.2794
 6400SOL    HW230834   2.480   0.265   6.021  0.6152  0.0367  0.1049
 6401SOL     OW30835   0.806   0.463   6.003  0.5155  0.1717 -0.0220
 6401SOL    HW130836   0.723   0.443   5.961  2.1558 -0.6867 -2.8544
 6401SOL    HW230837   0.808   0.396   6.072 -0.3743 -0.3371 -0.4930
 6402SOL     OW30838   1.720   3.586   5.913 -0.6724 -0.1745 -0.2594
 6402SOL    HW130839   1.655   3.610   5.846  0.5072  0.4604 -1.1880
 6402SOL    HW230840   1.738   3.671   5.952  2.4936  0.3418 -2.7917
 6403SOL     OW30841   1.399   1.483   5.530  0.2671 -0.1408  0.2983
 6403SOL    HW130842   1.446   1.508   5.610  2.5700  2.2189 -1.8371
 6403SOL    HW230843   1.424   1.553   5.471  2.0478 -1.4717 -0.5250
 6404SOL     OW30844   0.706   0.076  11.637  0.7768 -0.2487 -0.5720
 6404SOL    HW130845   0.678   4.732  11.684 -1.4513  0.5271 -0.5974
 6404SOL    HW230846   0.800   0.071  11.654  0.9380 -1.0645 -1.7384
 6405SOL     OW30847   3.550   1.340   4.803  0.1955  0.4600 -0.1383
 6405SOL    HW130848   3.588   1.380   4.725 -0.4473 -0.0591 -0.7139
 6405SOL    HW230849   3.458   1.357   4.786 -0.3259 -1.2407  0.9945
 6406SOL     OW30850   2.113   3.243   4.666 -0.1868 -0.3476 -0.2091
 6406SOL    HW130851   2.120   3.320   4.610  0.7729 -1.2835 -1.3706
 6406SOL    HW230852   2.024   3.259   4.699  0.0796 -1.1353  0.8891
 6407SOL     OW30853   2.475   3.149  13.547  0.0722  0.1308 -0.4038
 6407SOL    HW130854   2.393   3.103  13.528  1.6938 -3.0284  0.1622
 6407SOL    HW230855   2.450   3.241  13.558 -0.9983 -0.2295  0.2414
 6408SOL     OW30856   1.419   0.003   1.534  0.2803  0.7210  0.4231
 6408SOL    HW130857   1.425   4.706   1.444 -1.3804  1.3001  0.1031
 6408SOL    HW230858   1.473   4.678   1.586 -0.5760 -0.3886  0.0373
 6409SOL     OW30859   0.325   3.104   9.666 -0.4312  0.1537  0.2205
 6409SOL    HW130860   0.296   3.186   9.706 -0.4016  0.5352 -0.5451
 6409SOL    HW230861   0.325   3.044   9.741 -2.0096  1.1791  1.0458
 6410SOL     OW30862   0.870   1.282   7.633 -0.5634 -0.5163 -0.1612
 6410SOL    HW130863   0.785   1.310   7.599 -0.6228 -0.8529 -0.2843
 6410SOL    HW230864   0.925   1.357   7.610 -0.0931 -0.7827  0.0940
 6411SOL     OW30865   0.185   1.100  12.097 -0.4202  0.7658 -0.3343
 6411SOL    HW130866   0.204   1.007  12.084  0.5877  0.9068  0.1577
 6411SOL    HW230867   0.273   1.136  12.093 -0.4653  1.0880  1.5714
 6412SOL     OW30868   1.295   4.245   2.845 -0.5876 -0.2705  0.3205
 6412SOL    HW130869   1.347   4.171   2.878 -0.0520  0.3103  0.7660
 6412SOL    HW230870   1.370   4.303   2.857 -0.0660 -0.8901  0.1138
 6413SOL     OW30871   3.766   0.646   9.014  0.1428  0.0155 -0.1051
 6413SOL    HW130872   3.729   0.638   9.103 -2.5446  1.9357 -1.0673
 6413SOL    HW230873   3.680   0.646   8.971 -1.1940 -0.4773  2.5397
 6414SOL     OW30874   4.708   2.529   8.554  0.0202  0.3735 -0.3138
 6414SOL    HW130875   0.034   2.493   8.620 -1.3652  2.6335  2.1680
 6414SOL    HW230876   0.028   2.601   8.521  1.0384 -0.4847 -0.5376
 6415SOL     OW30877   0.487   3.667   3.651  0.0676  0.0432  0.0338
 6415SOL    HW130878   0.570   3.662   3.603  1.0725  0.7007  1.6667
 6415SOL    HW230879   0.483   3.762   3.664 -0.5369 -0.1009  0.9440
 6416SOL     OW30880   2.607   2.735  17.233 -0.6927 -0.0834 -0.4483
 6416SOL    HW130881   2.523   2.749  17.191 -0.3821 -0.0092 -1.0354
 6416SOL    HW230882   2.593   2.644  17.260  0.1387 -0.3891 -1.0482
 6417SOL     OW30883   0.154   4.482   8.158  0.5441 -0.0663 -0.2797
 6417SOL    HW130884   0.073   4.431   8.169 -0.4212  1.4271 -0.5191
 6417SOL    HW230885   0.129   4.563   8.114 -1.0902 -1.3273 -1.6918
 6418SOL     OW30886   0.469   4.709   8.388  0.2896  0.5825 -0.7640
 6418SOL    HW130887   0.505   4.641   8.445 -1.3340 -1.1872 -1.8356
 6418SOL    HW230888   0.528   0.044   8.417 -0.2401  0.9898 -0.6592
 6419SOL     OW30889   0.379   0.655   2.478 -0.2238 -0.2013 -0.0577
 6419SOL    HW130890   0.443   0.690   2.540  2.6375 -1.3270 -2.4061
 6419SOL    HW230891   0.339   0.727   2.430  1.5861  1.6562  1.2091
 6420SOL     OW30892   2.277   3.746   6.181  0.4561 -0.1635  0.5432
 6420SOL    HW130893   2.284   3.728   6.087 -0.2788 -0.6051  0.5734
 6420SOL    HW230894   2.283   3.842   6.176 -0.4792 -0.0059  2.2728
 6421SOL     OW30895   2.543   1.864   1.416 -0.1747 -0.6454  0.1281
 6421SOL    HW130896   2.547   1.931   1.348 -2.1973 -1.0170 -0.3455
 6421SOL    HW230897   2.465   1.882   1.468  0.6665  1.9238  0.5119
 6422SOL     OW30898   0.502   0.918   0.230 -0.1221 -0.2365 -0.0920
 6422SOL    HW130899   0.412   0.893   0.212  0.3901 -0.9018 -1.6847
 6422SOL    HW230900   0.489   0.974   0.307 -1.5319 -0.9428  0.1822
 6423SOL     OW30901   1.634   4.288   7.160  0.6135  0.1750  0.3834
 6423SOL    HW130902   1.561   4.347   7.181  0.3703 -0.9675  2.7036
 6423SOL    HW230903   1.681   4.329   7.088  1.2431 -0.5356  0.3886
 6424SOL     OW30904   4.013   1.012   6.612  0.8278  0.1558 -0.5910
 6424SOL    HW130905   4.039   0.930   6.569  0.7679 -0.7165  1.0599
 6424SOL    HW230906   3.918   1.003   6.612  0.9293 -0.8801 -0.0914
 6425SOL     OW30907   4.409   4.496  11.882  0.3139 -0.0533 -0.7436
 6425SOL    HW130908   4.386   4.550  11.807  1.3657  0.5239 -0.6467
 6425SOL    HW230909   4.488   4.450  11.853  0.0700 -0.6952 -0.4016
 6426SOL     OW30910   1.885   0.444   0.652 -0.2316  0.4249 -0.2876
 6426SOL    HW130911   1.976   0.441   0.623  0.0302 -3.9661  1.0418
 6426SOL    HW230912   1.843   0.501   0.588 -2.0689 -0.2644  0.3115
 6427SOL     OW30913   1.189   2.317   2.730  0.2429  0.3968  0.7199
 6427SOL    HW130914   1.274   2.357   2.709 -0.5460  2.0483  0.6560
 6427SOL    HW230915   1.161   2.374   2.802 -0.4377 -0.9131  1.4750
 6428SOL     OW30916   3.336   3.823  13.484 -0.3138 -0.7026  0.6228
 6428SOL    HW130917   3.318   3.877  13.561 -0.2952  1.3845 -0.8584
 6428SOL    HW230918   3.261   3.763  13.484 -0.1780 -0.8651 -0.0110
 6429SOL     OW30919   0.630   3.290   2.928 -0.7340  0.2217  0.5550
 6429SOL    HW130920   0.616   3.350   2.854 -0.3803 -0.9780 -0.5001
 6429SOL    HW230921   0.544   3.290   2.970 -0.5254 -0.0265  0.9777
 6430SOL     OW30922   4.607   1.212   7.434 -0.1749 -0.0247  0.1606
 6430SOL    HW130923   4.553   1.226   7.512 -1.3775  0.2438 -0.7241
 6430SOL    HW230924   4.544   1.188   7.367 -0.2151 -2.1979  1.0020
 6431SOL     OW30925   2.910   4.130   6.109 -0.0328  0.2468  0.4912
 6431SOL    HW130926   2.973   4.200   6.128  0.3722 -0.4500  1.6863
 6431SOL    HW230927   2.971   4.061   6.082 -0.0998  0.2383  0.3631
 6432SOL     OW30928   1.410   1.220   3.396  0.0083  0.8021  0.3251
 6432SOL    HW130929   1.429   1.234   3.303 -0.1699 -2.5431 -0.2172
 6432SOL    HW230930   1.325   1.177   3.388  0.6615 -0.5300  0.4165
 6433SOL     OW30931   1.469   3.755   0.857 -0.6621  0.1234 -0.2227
 6433SOL    HW130932   1.500   3.737   0.946 -1.6128  0.3613  0.1527
 6433SOL    HW230933   1.396   3.811   0.885  0.1816  1.4853 -0.7112
 6434SOL     OW30934   1.175   1.552   1.188 -0.6450  0.2394  0.4853
 6434SOL    HW130935   1.154   1.460   1.172 -0.7244  0.3942 -0.2933
 6434SOL    HW230936   1.083   1.579   1.194 -1.9053 -3.3643 -2.6360
 6435SOL     OW30937   4.052   4.225  12.860  0.0998  0.7893 -0.0174
 6435SOL    HW130938   4.119   4.217  12.792 -0.1832 -2.2401  0.0520
 6435SOL    HW230939   4.077   4.147  12.910 -1.7865  0.5664  0.5628
 6436SOL     OW30940   2.036   4.345  16.768 -0.2794 -0.0248 -0.2217
 6436SOL    HW130941   2.127   4.367  16.749 -0.1437  0.4319  0.9630
 6436SOL    HW230942   2.040   4.269  16.825  1.3174 -1.6375 -2.4367
 6437SOL     OW30943   3.493   4.027   4.247  0.1553 -0.3121 -0.0358
 6437SOL    HW130944   3.409   4.063   4.277 -0.1899  0.8611 -2.3506
 6437SOL    HW230945   3.551   4.030   4.322 -0.0102  0.2954  0.0711
 6438SOL     OW30946   0.850   0.105   8.083  0.6848  0.3774 -0.0728
 6438SOL    HW130947   0.938   0.074   8.063  0.8030  1.7085 -1.6144
 6438SOL    HW230948   0.848   0.201   8.083 -0.1157  0.3582  0.1408
 6439SOL     OW30949   4.246   1.299   6.034  0.1961  0.1744  0.2108
 6439SOL    HW130950   4.250   1.258   6.120  1.8002  2.9605  1.4577
 6439SOL    HW230951   4.341   1.297   6.019 -0.1277 -1.1604 -1.8214
 6440SOL     OW30952   1.407   4.648   5.262 -0.3307 -0.1201  0.1566
 6440SOL    HW130953   1.379   4.588   5.193  0.6456 -0.3089 -0.0818
 6440SOL    HW230954   1.481   4.594   5.289 -0.2232 -0.5005 -0.9163
 6441SOL     OW30955   3.991   2.426   1.610  0.3587 -0.0279 -0.4093
 6441SOL    HW130956   3.950   2.344   1.580  0.0958  0.1796 -0.6147
 6441SOL    HW230957   3.940   2.450   1.688  3.1198  3.4087  0.3349
 6442SOL     OW30958   0.187   3.965  13.204 -0.0997 -0.2992 -0.5191
 6442SOL    HW130959   0.194   3.930  13.293 -1.0670 -0.6507 -0.5862
 6442SOL    HW230960   0.118   4.029  13.217  0.2584 -0.5841  2.5918
 6443SOL     OW30961   2.742   3.513  16.569 -0.5873 -0.1898 -0.2961
 6443SOL    HW130962   2.683   3.455  16.520 -0.4447 -0.8578  0.3181
 6443SOL    HW230963   2.804   3.450  16.604  1.3960  1.8368 -0.1919
 6444SOL     OW30964   1.594   1.774   8.785  0.1059 -0.1041  0.0024
 6444SOL    HW130965   1.510   1.801   8.746  0.3719 -0.3843 -0.7575
 6444SOL    HW230966   1.648   1.852   8.778  2.3883 -1.6723  0.2558
 6445SOL     OW30967   2.891   2.447   2.759 -0.0582 -0.2307  0.7843
 6445SOL    HW130968   2.966   2.392   2.735 -1.0681 -0.9220 -0.8297
 6445SOL    HW230969   2.919   2.537   2.740 -0.7315 -0.7853 -2.8882
 6446SOL     OW30970   1.340   4.343   1.663  0.0703 -0.3713  0.3174
 6446SOL    HW130971   1.324   4.336   1.569 -0.9605 -2.0724  0.6251
 6446SOL    HW230972   1.287   4.276   1.706  2.7213 -2.1889  0.7583
 6447SOL     OW30973   2.682   0.993   7.473 -1.1537 -0.3960  0.4122
 6447SOL    HW130974   2.691   1.053   7.547  1.7188 -0.5466  0.1478
 6447SOL    HW230975   2.682   0.903   7.505  1.7684 -1.3131 -2.1678
 6448SOL     OW30976   3.630   1.066   7.367  0.1106  0.2852 -0.5381
 6448SOL    HW130977   3.616   1.081   7.273 -0.9759 -1.6318 -0.6765
 6448SOL    HW230978   3.708   1.011   7.370  0.3603  0.5926 -1.2821
 6449SOL     OW30979   1.860   3.957   4.610 -0.1636 -0.1754 -0.3546
 6449SOL    HW130980   1.945   3.949   4.652  0.4332 -0.4372 -1.6047
 6449SOL    HW230981   1.885   3.940   4.519 -0.8722 -3.4919  0.0777
 6450SOL     OW30982   3.645   1.491   2.580  0.2412 -0.2775 -0.0785
 6450SOL    HW130983   3.562   1.538   2.569 -0.0514 -1.1299 -1.4935
 6450SOL    HW230984   3.631   1.443   2.661  1.4036 -0.7523 -0.1598
 6451SOL     OW30985   1.386   3.182   2.420 -0.0859 -0.1681  0.1170
 6451SOL    HW130986   1.471   3.215   2.391 -0.8425  0.7446 -1.0387
 6451SOL    HW230987   1.369   3.264   2.467 -0.4228  0.0794 -0.4354
 6452SOL     OW30988   3.439   1.547   7.871 -0.2850 -0.0822  0.4588
 6452SOL    HW130989   3.471   1.608   7.937 -2.3568  1.6453 -0.1165
 6452SOL    HW230990   3.380   1.601   7.818 -0.3513  0.8231  1.4559
 6453SOL     OW30991   4.273   1.501   6.671 -0.1002 -0.1748  0.1044
 6453SOL    HW130992   4.365   1.477   6.675 -0.1023 -0.1955  0.0369
 6453SOL    HW230993   4.248   1.457   6.590  1.8267  0.3362 -0.7693
 6454SOL     OW30994   0.308   0.962   3.385  0.1041  0.5065 -0.1318
 6454SOL    HW130995   0.255   0.950   3.464 -3.2189 -0.0705 -2.4521
 6454SOL    HW230996   0.351   1.044   3.408  1.2834 -0.4099  0.9062
 6455SOL     OW30997   1.057   4.664   0.311 -0.6377  0.4337 -0.2242
 6455SOL    HW130998   0.997   4.698   0.245 -0.0838 -0.2185 -1.0588
 6455SOL    HW230999   1.139   4.651   0.265  0.1092  1.2462  0.8729
 6456SOL     OW31000   2.027   0.204   6.095 -0.3146  0.2554 -0.1817
 6456SOL    HW131001   1.932   0.194   6.088 -0.3412 -1.6635  2.9413
 6456SOL    HW231002   2.042   0.118   6.135 -0.6377  0.2810 -0.0042
 6457SOL     OW31003   3.043   1.962   2.026  0.2236  0.0389  0.2461
 6457SOL    HW131004   3.024   1.978   1.934  2.4395  1.8738  0.0904
 6457SOL    HW231005   2.997   1.878   2.028  2.1063 -1.0242 -0.5051
 6458SOL     OW31006   0.885   3.860  14.180 -0.8832  0.2322 -0.1154
 6458SOL    HW131007   0.977   3.861  14.152 -0.4323 -0.5356  1.3218
 6458SOL    HW231008   0.846   3.897  14.101  2.0334  0.0630 -1.6514
 6459SOL     OW31009   2.630   0.539   7.266  0.1508  0.4554 -0.0443
 6459SOL    HW131010   2.620   0.631   7.290 -1.0784 -0.2891  2.2235
 6459SOL    HW231011   2.710   0.533   7.214 -0.3530  1.0775 -0.8926
 6460SOL     OW31012   1.203   2.016   2.726  0.2391  0.2374  0.0877
 6460SOL    HW131013   1.234   2.104   2.705 -0.7399 -0.0322 -2.4565
 6460SOL    HW231014   1.113   2.028   2.755  0.0077  0.8580 -0.9039
 6461SOL     OW31015   0.307   3.422   9.606 -0.2058 -0.5176  0.1007
 6461SOL    HW131016   0.287   3.401   9.515 -2.1139 -2.2057  0.9180
 6461SOL    HW231017   0.235   3.370   9.642  0.0312 -1.4239 -0.7262
 6462SOL     OW31018   2.716   0.929  15.520  0.9536 -0.0718 -0.0142
 6462SOL    HW131019   2.625   0.939  15.492  0.3109 -0.5859  1.8767
 6462SOL    HW231020   2.715   0.964  15.609  0.9578 -2.8744  1.0811
 6463SOL     OW31021   1.945   3.362  12.128 -0.2602  0.1279  0.2528
 6463SOL    HW131022   1.888   3.390  12.056 -0.6594 -0.3616  0.3814
 6463SOL    HW231023   2.025   3.353  12.075 -0.9886  2.9053 -1.3552
 6464SOL     OW31024   2.894   1.763   3.245 -0.3645  0.0529  0.3752
 6464SOL    HW131025   2.929   1.852   3.245 -0.6144  0.1464  1.3794
 6464SOL    HW231026   2.861   1.758   3.334 -2.0178  0.6203 -0.2022
 6465SOL     OW31027   2.575   0.389   9.036 -0.0444  0.8298  0.2400
 6465SOL    HW131028   2.619   0.322   9.089  1.9894  1.3457 -0.8100
 6465SOL    HW231029   2.550   0.446   9.109  1.9852 -0.0023  1.6110
 6466SOL     OW31030   3.904   1.324   7.810 -0.1837 -0.5054 -0.4716
 6466SOL    HW131031   3.961   1.265   7.860 -1.9636 -1.2519  0.6792
 6466SOL    HW231032   3.887   1.279   7.727 -0.3205 -3.4562  1.1587
 6467SOL     OW31033   4.523   2.436   3.864  0.4437  0.0057 -0.0790
 6467SOL    HW131034   4.487   2.371   3.924 -0.3554  1.0388  0.5573
 6467SOL    HW231035   4.467   2.508   3.894 -2.6537 -3.1284  1.5630
 6468SOL     OW31036   4.476   3.496   5.624 -0.3411 -0.1094  0.0120
 6468SOL    HW131037   4.491   3.456   5.710 -0.0331 -0.4547 -0.2051
 6468SOL    HW231038   4.382   3.477   5.621 -0.8415  2.1724  0.7007
 6469SOL     OW31039   3.671   3.825  13.800  0.1541 -0.1032  0.1631
 6469SOL    HW131040   3.698   3.870  13.720 -2.8205 -1.6292 -1.6779
 6469SOL    HW231041   3.748   3.829  13.856  0.0783  0.3184  0.2344
 6470SOL     OW31042   1.055   2.875  17.373 -0.2748  0.2275  0.1814
 6470SOL    HW131043   1.143   2.881  17.337  0.0820  1.6513  1.2718
 6470SOL    HW231044   1.010   2.837  17.298  0.0147  4.0927 -1.9659
 6471SOL     OW31045   3.455   3.311  17.111 -0.0219  0.5351 -0.0714
 6471SOL    HW131046   3.462   3.399  17.150 -2.5890  0.9637 -0.5790
 6471SOL    HW231047   3.392   3.274  17.173 -1.1845  0.0630 -1.5248
 6472SOL     OW31048   0.988   3.446   9.597  0.9005  0.6253  1.5195
 6472SOL    HW131049   1.006   3.381   9.528 -1.9338 -0.8221  2.1688
 6472SOL    HW231050   0.950   3.390   9.665  2.2498 -2.1467  0.0245
 6473SOL     OW31051   3.640   1.138   8.563 -0.1228  0.6009  0.5024
 6473SOL    HW131052   3.620   1.222   8.522 -2.0342 -0.2310 -0.3198
 6473SOL    HW231053   3.579   1.083   8.512  0.1702  0.8136 -0.0761
 6474SOL     OW31054   1.249   1.018   6.224  0.0900  0.3794 -0.6016
 6474SOL    HW131055   1.253   0.979   6.311  0.6780 -0.3658 -0.9678
 6474SOL    HW231056   1.167   1.067   6.230  0.6570  1.2482 -0.0420
 6475SOL     OW31057   1.971   4.288  14.022 -0.1137  0.1700 -0.1797
 6475SOL    HW131058   1.954   4.254  13.934 -0.2169  0.5211 -0.2964
 6475SOL    HW231059   1.893   4.255  14.067  1.1053  0.7125  2.3744
 6476SOL     OW31060   1.479   2.505  12.477 -0.0147  0.3664 -0.1019
 6476SOL    HW131061   1.487   2.574  12.542 -1.7297 -0.8706  1.4374
 6476SOL    HW231062   1.480   2.558  12.397 -2.4058  0.0206 -0.3677
 6477SOL     OW31063   0.378   2.648   6.573 -0.3237  0.3989 -0.0010
 6477SOL    HW131064   0.341   2.560   6.581  1.0809 -0.2898 -1.0968
 6477SOL    HW231065   0.454   2.637   6.515 -1.3527 -0.2208 -1.2283
 6478SOL     OW31066   3.137   1.237   6.381  0.5242  0.2252 -0.4573
 6478SOL    HW131067   3.221   1.224   6.337 -0.0700  2.2563 -2.1569
 6478SOL    HW231068   3.084   1.172   6.336  0.4001 -1.2640  1.8560
 6479SOL     OW31069   2.632   3.039   3.726 -0.2394  0.7601 -0.6429
 6479SOL    HW131070   2.670   3.091   3.797  3.2263 -0.8528 -1.3526
 6479SOL    HW231071   2.541   3.038   3.756  0.2097 -1.3144  0.6410
 6480SOL     OW31072   0.829   3.550  12.296 -0.5029 -0.6108  0.0423
 6480SOL    HW131073   0.865   3.467  12.326 -0.0893 -0.9916 -1.5171
 6480SOL    HW231074   0.806   3.600  12.375  1.0444 -1.7011  1.1940
 6481SOL     OW31075   1.695   1.310   6.477  0.0899  0.9463  0.0413
 6481SOL    HW131076   1.690   1.393   6.525 -1.5580  1.0032 -0.2379
 6481SOL    HW231077   1.733   1.254   6.545  0.6951  1.3634  0.0493
 6482SOL     OW31078   2.326   3.593  13.110  0.1933  0.3471  0.1187
 6482SOL    HW131079   2.322   3.684  13.136 -1.8778 -0.3256  2.1387
 6482SOL    HW231080   2.418   3.567  13.112 -0.1432 -0.8224  0.7441
 6483SOL     OW31081   1.826   3.078  12.206 -0.0542 -0.3866  0.1380
 6483SOL    HW131082   1.832   3.027  12.288  0.1480  2.4526  1.8909
 6483SOL    HW231083   1.858   3.164  12.232  0.8948 -0.5271 -0.5731
 6484SOL     OW31084   1.115   0.491  13.932  0.2525  0.0181 -0.4881
 6484SOL    HW131085   1.116   0.442  14.015  0.7533  0.5937 -0.1582
 6484SOL    HW231086   1.048   0.436  13.890 -1.2896  1.0310  0.6270
 6485SOL     OW31087   0.537   3.866   7.215 -0.1706  0.2241 -0.4244
 6485SOL    HW131088   0.534   3.778   7.178 -0.4239  0.5735 -1.2223
 6485SOL    HW231089   0.632   3.875   7.228 -0.4729  1.1734  1.1701
 6486SOL     OW31090   1.069   2.481   2.970 -0.0854 -0.0046  0.1152
 6486SOL    HW131091   1.112   2.463   3.054 -0.8842  0.2554  0.5783
 6486SOL    HW231092   1.004   2.411   2.968  1.4471 -1.4696  1.9096
 6487SOL     OW31093   0.964   4.117  15.659  0.4129  0.1504 -0.0516
 6487SOL    HW131094   0.975   4.212  15.664 -0.6352  0.3567 -1.8983
 6487SOL    HW231095   0.908   4.087  15.731  0.8730 -0.9789 -0.1520
 6488SOL     OW31096   1.537   3.721   2.299  0.4863 -0.3647 -0.4278
 6488SOL    HW131097   1.615   3.673   2.275  1.5440  1.7498 -1.2390
 6488SOL    HW231098   1.491   3.713   2.216  1.7698 -0.5323 -1.1180
 6489SOL     OW31099   2.945   4.464  12.019  0.4543  0.2869  0.2542
 6489SOL    HW131100   2.915   4.503  11.937 -0.0724 -0.7508 -0.0460
 6489SOL    HW231101   2.888   4.505  12.083  1.4779 -2.1811  2.7370
 6490SOL     OW31102   3.988   3.192   1.685  0.6978 -0.4180 -0.0070
 6490SOL    HW131103   4.053   3.209   1.752 -0.2335  0.6655  0.6265
 6490SOL    HW231104   3.996   3.098   1.669  0.8679 -0.6261  1.3529
 6491SOL     OW31105   0.760   0.018  12.843  0.1389 -0.4982  0.1556
 6491SOL    HW131106   0.822   4.710  12.783  1.4885 -1.4373  2.1880
 6491SOL    HW231107   0.799   0.105  12.846  1.7467 -1.0727 -3.5710
 6492SOL     OW31108   0.924   1.886   2.096 -0.2106 -0.5448 -0.6954
 6492SOL    HW131109   1.013   1.916   2.075 -0.5901  0.2763 -1.1189
 6492SOL    HW231110   0.890   1.968   2.133  0.3782 -0.9920  0.8784
 6493SOL     OW31111   3.667   2.046   9.451  0.5378  0.2471 -0.4268
 6493SOL    HW131112   3.605   2.015   9.516 -0.0893 -1.8397 -2.0144
 6493SOL    HW231113   3.749   2.013   9.487 -0.0310  0.4045  1.0138
 6494SOL     OW31114   1.134   3.616  12.605  0.5395 -0.2327 -0.3532
 6494SOL    HW131115   1.108   3.539  12.554 -1.6090 -0.0745  0.4985
 6494SOL    HW231116   1.210   3.582  12.651  1.2612 -0.2880 -1.5832
 6495SOL     OW31117   2.754   4.314  11.903 -0.5454  0.2217  0.3026
 6495SOL    HW131118   2.818   4.335  11.971 -0.3255 -0.9958  0.4656
 6495SOL    HW231119   2.743   4.398  11.858 -0.3938 -1.3792 -2.7311
 6496SOL     OW31120   2.837   1.854   8.826 -0.2885  0.1057 -0.4527
 6496SOL    HW131121   2.794   1.922   8.877  1.6139  2.4330 -1.9404
 6496SOL    HW231122   2.778   1.779   8.835 -1.3115  1.1062  1.1732
 6497SOL     OW31123   1.965   4.237   3.369  0.9668  0.4693 -0.3941
 6497SOL    HW131124   1.950   4.330   3.389  0.0349 -0.3773  2.9007
 6497SOL    HW231125   1.980   4.242   3.275 -0.1094 -1.3700 -0.6697
 6498SOL     OW31126   2.352   1.692  10.971  0.4985 -0.0508  0.3817
 6498SOL    HW131127   2.361   1.661  11.061 -0.5590  0.4226  0.6450
 6498SOL    HW231128   2.261   1.673  10.951  0.8680 -2.1254  0.6414
 6499SOL     OW31129   2.995   0.200   9.070 -0.4447  0.3646  0.0174
 6499SOL    HW131130   2.907   0.185   9.106 -0.5985 -2.6012 -1.5502
 6499SOL    HW231131   2.980   0.238   8.983 -1.6341  0.6822  0.3624
 6500SOL     OW31132   0.347   0.528   4.056 -0.1808  0.4375  0.8309
 6500SOL    HW131133   0.295   0.601   4.023  0.9136  0.9063  0.1566
 6500SOL    HW231134   0.353   0.539   4.151  0.8434 -1.7246  1.0195
 6501SOL     OW31135   3.954   1.524   5.275 -0.0834 -0.1064 -0.1290
 6501SOL    HW131136   4.041   1.556   5.251 -0.0288 -0.8883 -0.9682
 6501SOL    HW231137   3.959   1.526   5.370 -0.7096 -1.2866 -0.0731
 6502SOL     OW31138   2.170   1.092   3.799  0.4334  0.3295  0.2292
 6502SOL    HW131139   2.200   1.158   3.736 -0.3181  0.5766  0.1216
 6502SOL    HW231140   2.239   1.026   3.789 -1.3541 -1.2384 -1.8222
 6503SOL     OW31141   4.688   0.068  10.539  0.5869 -0.0988  0.8586
 6503SOL    HW131142   4.714   0.158  10.556 -1.6395  0.8547 -0.8686
 6503SOL    HW231143   4.634   0.085  10.462  0.2729 -0.6724  0.9513
 6504SOL     OW31144   2.655   4.019   4.861  0.3049 -0.2482  0.5902
 6504SOL    HW131145   2.728   4.066   4.821  0.9775 -0.9181  1.0287
 6504SOL    HW231146   2.700   3.985   4.939 -1.3868 -1.5624  1.0047
 6505SOL     OW31147   1.926   2.719  10.513  0.6235 -0.2197 -0.6733
 6505SOL    HW131148   1.904   2.668  10.436  1.7267 -2.8595  0.7686
 6505SOL    HW231149   1.860   2.788  10.507  0.4254 -0.4638 -1.2815
 6506SOL     OW31150   1.294   0.576  17.370  0.2434  0.0459 -0.0858
 6506SOL    HW131151   1.367   0.551  17.427  0.6053  1.3267  0.0163
 6506SOL    HW231152   1.325   0.662  17.341  1.8753 -0.6413 -0.4074
 6507SOL     OW31153   4.161   3.792  15.850 -0.0081 -0.3903 -0.2657
 6507SOL    HW131154   4.101   3.830  15.914  1.2401 -0.0831  0.7170
 6507SOL    HW231155   4.123   3.820  15.767  2.2042 -0.0261 -1.1614
 6508SOL     OW31156   1.883   0.823   1.647 -0.4064  0.0561 -0.6389
 6508SOL    HW131157   1.803   0.798   1.694 -0.1622  0.4098 -0.0385
 6508SOL    HW231158   1.887   0.746   1.590  2.1416 -1.1208  1.1398
 6509SOL     OW31159   0.551   1.254   6.157  0.6359 -0.1160 -0.2278
 6509SOL    HW131160   0.569   1.192   6.087  1.5260 -0.9192  0.6931
 6509SOL    HW231161   0.616   1.318   6.129  1.1953  0.1401  1.5990
 6510SOL     OW31162   0.983   2.893   6.701 -0.0553  0.5778 -0.5716
 6510SOL    HW131163   0.979   2.827   6.632 -0.3604 -1.4276  1.4017
 6510SOL    HW231164   0.902   2.884   6.750  0.0517 -1.2497 -0.7266
 6511SOL     OW31165   0.844   0.047   1.642 -0.1897 -0.1535 -0.0291
 6511SOL    HW131166   0.890   0.038   1.726 -1.7428 -0.7863  0.7606
 6511SOL    HW231167   0.910   0.104   1.604 -0.6193 -0.1510 -0.7633
 6512SOL     OW31168   2.232   1.726   2.077  0.5846  0.1170  0.2768
 6512SOL    HW131169   2.294   1.755   2.144  2.1235  0.3456 -1.2624
 6512SOL    HW231170   2.261   1.775   2.000 -0.6675 -1.2789 -1.0970
 6513SOL     OW31171   1.202   2.062   5.783 -0.0556 -0.4524  0.5961
 6513SOL    HW131172   1.191   1.968   5.773  1.8987 -0.8930  2.5145
 6513SOL    HW231173   1.195   2.061   5.878  2.9283  0.0697  0.8434
 6514SOL     OW31174   3.572   2.681   9.748  0.3970  0.0935  0.0250
 6514SOL    HW131175   3.530   2.764   9.769 -2.8906 -1.3878 -0.6812
 6514SOL    HW231176   3.571   2.678   9.652  1.3740  2.5348 -0.0495
 6515SOL     OW31177   0.529   0.106   9.482  0.1728 -0.1395  0.3302
 6515SOL    HW131178   0.568   0.034   9.531  2.6847  2.1071  1.6791
 6515SOL    HW231179   0.572   0.109   9.397 -1.9086 -0.4576 -0.7200
 6516SOL     OW31180   0.373   1.049   6.952  0.3422 -0.0808 -0.6983
 6516SOL    HW131181   0.309   1.018   6.888  0.7375  1.1790 -1.7127
 6516SOL    HW231182   0.318   1.074   7.027 -0.2342 -3.0715 -0.1233
 6517SOL     OW31183   2.074   2.680   0.078 -0.4995  0.7010  0.1427
 6517SOL    HW131184   2.092   2.759   0.128  1.9996  0.8351 -0.9965
 6517SOL    HW231185   2.044   2.625   0.151 -1.1818 -0.2047 -0.8260
 6518SOL     OW31186   3.435   0.765   4.613  0.1561  0.6585  0.2045
 6518SOL    HW131187   3.406   0.692   4.559  0.2567  0.4551  0.4242
 6518SOL    HW231188   3.353   0.812   4.626 -0.7785 -1.3591  1.5548
 6519SOL     OW31189   4.454   0.602   0.986 -0.6896 -0.1579 -0.0958
 6519SOL    HW131190   4.425   0.688   1.016 -1.0453 -0.9186  1.6943
 6519SOL    HW231191   4.367   0.561   0.989 -1.6761  1.9269 -0.2381
 6520SOL     OW31192   3.469   2.773   3.138 -0.1456 -0.3149  0.3882
 6520SOL    HW131193   3.492   2.703   3.199  2.1763 -0.1507 -0.2917
 6520SOL    HW231194   3.550   2.824   3.137  0.3955 -1.2687 -2.9518
 6521SOL     OW31195   1.819   3.000   2.509 -0.4474 -0.1141  0.7975
 6521SOL    HW131196   1.900   2.964   2.474 -0.3474 -1.0573  2.0170
 6521SOL    HW231197   1.821   3.089   2.474  0.4244 -0.4277  0.0599
 6522SOL     OW31198   0.759   3.530  16.191 -0.0501 -0.4634  0.2507
 6522SOL    HW131199   0.843   3.538  16.147 -0.9153 -0.9925 -1.4999
 6522SOL    HW231200   0.700   3.548  16.118  0.3188  0.3014  0.1394
 6523SOL     OW31201   4.048   3.152   8.597 -0.2057  0.1369  0.3111
 6523SOL    HW131202   3.976   3.214   8.608 -2.8014 -2.1474 -3.5964
 6523SOL    HW231203   4.123   3.202   8.630  0.4505  0.0603 -1.0577
 6524SOL     OW31204   0.045   3.510  10.234 -0.2040  0.3351 -1.0139
 6524SOL    HW131205   0.125   3.467  10.264 -0.8946  0.0250  0.3435
 6524SOL    HW231206   0.045   3.590  10.286 -2.2101 -0.2403 -0.1470
 6525SOL     OW31207   0.647   1.534   4.120  0.4870  0.2944  0.3606
 6525SOL    HW131208   0.692   1.615   4.142  0.6999  0.8643 -2.1680
 6525SOL    HW231209   0.562   1.561   4.154  0.5358  1.0206 -0.0906
 6526SOL     OW31210   0.966   4.132   1.185  0.2258  0.0960 -0.3432
 6526SOL    HW131211   0.903   4.107   1.253  0.4759  0.6364  0.0838
 6526SOL    HW231212   1.035   4.183   1.227 -0.5824 -0.2105  1.3934
 6527SOL     OW31213   1.527   1.350   7.994  0.4940  0.2959 -0.2946
 6527SOL    HW131214   1.438   1.320   8.008  1.9327 -3.5175  0.8801
 6527SOL    HW231215   1.553   1.299   7.917 -0.3595 -2.0366  0.9765
 6528SOL     OW31216   4.445   3.864   8.999  0.3085 -0.5354 -0.5427
 6528SOL    HW131217   4.495   3.827   9.072  1.5289 -0.4518 -1.3483
 6528SOL    HW231218   4.358   3.872   9.038  1.7142  0.1554  2.3988
 6529SOL     OW31219   4.497   1.150  15.358  0.7413 -0.3216 -0.1866
 6529SOL    HW131220   4.537   1.198  15.430  1.1948 -2.8150  1.2128
 6529SOL    HW231221   4.556   1.165  15.284  1.3402 -4.7033 -0.5881
 6530SOL     OW31222   3.605   1.648   1.967  0.5054  0.4531  0.0774
 6530SOL    HW131223   3.640   1.564   1.937  1.3797  1.2825 -1.2455
 6530SOL    HW231224   3.512   1.633   1.948  0.7840  1.8902 -2.3908
 6531SOL     OW31225   3.857   0.248   5.969 -0.4612  0.0653 -0.1166
 6531SOL    HW131226   3.908   0.168   5.986 -3.1006 -1.2870  1.4968
 6531SOL    HW231227   3.874   0.272   5.878  2.2994  0.5058  0.5164
 6532SOL     OW31228   2.824   0.726   8.741  0.1217 -0.4607 -0.7498
 6532SOL    HW131229   2.915   0.709   8.768  0.3511  0.4945 -0.8898
 6532SOL    HW231230   2.836   0.733   8.646 -1.7272 -1.8783 -1.0755
 6533SOL     OW31231   0.758   4.325   1.885 -0.1320 -0.5617  0.0948
 6533SOL    HW131232   0.715   4.411   1.884 -0.2664 -0.6305 -0.0057
 6533SOL    HW231233   0.847   4.348   1.857  0.1535 -1.5498  0.1984
 6534SOL     OW31234   0.732   2.083   1.153  0.0588 -0.2963 -0.6196
 6534SOL    HW131235   0.802   2.096   1.089 -1.5624 -0.9736 -2.5287
 6534SOL    HW231236   0.659   2.114   1.099 -0.9832  0.8656  1.4515
 6535SOL     OW31237   2.177   4.599  16.969  0.5688  0.2595 -0.2220
 6535SOL    HW131238   2.223   4.563  16.893  1.1384 -1.4734  0.9367
 6535SOL    HW231239   2.126   4.525  17.002  2.6520 -0.7274  0.7876
 6536SOL     OW31240   2.310   1.551   1.445  0.4087  0.4385 -0.1444
 6536SOL    HW131241   2.277   1.621   1.501  1.4577 -1.0893  2.3981
 6536SOL    HW231242   2.285   1.474   1.497 -2.1807 -1.3332 -4.0395
 6537SOL     OW31243   0.810   2.337   5.803  0.2110 -0.1315 -0.0305
 6537SOL    HW131244   0.901   2.334   5.773  0.2137 -0.0021 -0.0347
 6537SOL    HW231245   0.801   2.415   5.858 -0.7864 -0.2691  0.0073
 6538SOL     OW31246   3.219   3.545   5.558 -0.4152  0.2089 -0.3463
 6538SOL    HW131247   3.170   3.569   5.636  1.5386 -2.0662  1.5980
 6538SOL    HW231248   3.151   3.570   5.496 -0.8145  0.5261  0.2148
 6539SOL     OW31249   1.640   0.124  10.506  0.2258 -0.5580  0.0034
 6539SOL    HW131250   1.577   0.195  10.519  0.8012  0.4389 -2.4923
 6539SOL    HW231251   1.658   0.129  10.412  1.7566 -0.4254  0.3077
 6540SOL     OW31252   3.104   4.600   3.703  0.5129 -0.4987  0.4617
 6540SOL    HW131253   3.198   4.592   3.721  0.8086  0.1557 -0.8338
 6540SOL    HW231254   3.101   4.693   3.680 -1.8518 -0.7086 -0.0963
 6541SOL     OW31255   1.869   3.727   7.423 -0.2324  0.6794 -0.1734
 6541SOL    HW131256   1.902   3.795   7.365  2.0235 -0.5735 -0.3712
 6541SOL    HW231257   1.903   3.757   7.507 -3.7777  1.6471  0.9061
 6542SOL     OW31258   3.256   1.708  16.103 -0.3211  0.4038 -0.1824
 6542SOL    HW131259   3.294   1.747  16.025 -2.0590 -1.8960 -2.1914
 6542SOL    HW231260   3.169   1.696  16.065 -0.2432  2.5451 -1.0145
 6543SOL     OW31261   3.572   1.073  14.365  0.7732 -0.5359 -0.7372
 6543SOL    HW131262   3.539   1.022  14.438 -0.7820  2.0541  0.3705
 6543SOL    HW231263   3.490   1.072  14.316  0.0546  0.8778  0.4267
 6544SOL     OW31264   0.707   0.156   4.111 -0.3394  0.1899  0.5521
 6544SOL    HW131265   0.775   0.088   4.110 -2.3027 -1.7798  1.1491
 6544SOL    HW231266   0.750   0.227   4.160 -0.7664  0.8893 -0.0853
 6545SOL     OW31267   0.644   2.332   4.236  0.3192  0.4903  0.3419
 6545SOL    HW131268   0.605   2.336   4.148  2.5729  1.5553 -0.6074
 6545SOL    HW231269   0.688   2.417   4.246  0.3454  0.5445 -0.2435
 6546SOL     OW31270   2.081   4.112  16.971 -0.0808  0.2051  0.0542
 6546SOL    HW131271   1.992   4.098  16.938  0.5123 -1.7621 -0.6556
 6546SOL    HW231272   2.147   4.097  16.904 -0.4432  0.7917 -0.4411
 6547SOL     OW31273   4.701   2.539   3.215  0.3605 -0.1593 -0.3126
 6547SOL    HW131274   4.707   2.609   3.280  1.8731 -1.9672  1.4496
 6547SOL    HW231275   0.040   2.571   3.161 -0.6321  2.6346 -0.0356
 6548SOL     OW31276   1.881   3.973  14.044  0.2441 -0.1226  0.7234
 6548SOL    HW131277   1.826   3.959  13.967 -0.0619  2.1656  0.5232
 6548SOL    HW231278   1.837   4.048  14.083  1.2009  0.9768 -0.3133
 6549SOL     OW31279   2.663   3.130   5.736 -0.7326  0.1389  0.2359
 6549SOL    HW131280   2.670   3.148   5.642  0.7804 -0.5962  0.1969
 6549SOL    HW231281   2.673   3.035   5.732  4.3194  0.7309 -1.4247
 6550SOL     OW31282   0.714   1.497  15.402  0.0566  0.6297  0.3049
 6550SOL    HW131283   0.741   1.558  15.471  0.6417 -1.0805  1.5880
 6550SOL    HW231284   0.642   1.448  15.443 -1.4376  1.5861 -1.1877
 6551SOL     OW31285   0.020   3.704   7.617 -0.1520  0.4561 -0.0056
 6551SOL    HW131286   4.712   3.660   7.543 -1.6879 -0.5921  1.4954
 6551SOL    HW231287   4.693   3.674   7.684  1.6746 -2.2489  0.4274
 6552SOL     OW31288   0.482   2.828   5.371 -0.3657 -0.0750 -0.4789
 6552SOL    HW131289   0.506   2.863   5.457 -2.0343  0.3496 -0.1919
 6552SOL    HW231290   0.519   2.894   5.313  0.2690 -0.1612 -0.1798
 6553SOL     OW31291   1.511   0.065   7.277  0.1352 -0.3719 -0.0560
 6553SOL    HW131292   1.575   0.074   7.348  1.3158  1.3186 -1.3444
 6553SOL    HW231293   1.538   0.132   7.215  1.9295 -1.3255 -0.2909
 6554SOL     OW31294   2.972   1.831   5.718 -0.6808  0.1211  0.8407
 6554SOL    HW131295   2.995   1.787   5.800  1.7017 -0.3933 -0.1128
 6554SOL    HW231296   3.028   1.779   5.661 -1.1993  0.0327  0.4142
 6555SOL     OW31297   4.243   4.372   5.735 -0.1321 -0.1152 -0.4761
 6555SOL    HW131298   4.152   4.358   5.761 -0.1368  0.4212 -0.1826
 6555SOL    HW231299   4.212   4.451   5.690  1.0265  3.5820  5.0776
 6556SOL     OW31300   1.244   2.096   3.599 -0.1872 -0.3295  0.2599
 6556SOL    HW131301   1.327   2.063   3.635 -0.0963 -1.8506 -1.3560
 6556SOL    HW231302   1.263   2.189   3.606  0.9441 -0.6187  1.0849
 6557SOL     OW31303   4.187   1.513   4.609 -0.6621  0.2688  0.0988
 6557SOL    HW131304   4.211   1.422   4.589  0.2859  0.3228  0.9545
 6557SOL    HW231305   4.218   1.525   4.699  2.2085  1.6435 -1.0756
 6558SOL     OW31306   1.826   2.589   8.668  0.4372  0.6673  0.0462
 6558SOL    HW131307   1.895   2.653   8.648 -1.0822  2.1617 -0.4112
 6558SOL    HW231308   1.748   2.624   8.626 -0.2844 -0.2311  0.6464
 6559SOL     OW31309   0.331   2.201   7.815  0.5692  0.4330 -0.1122
 6559SOL    HW131310   0.251   2.214   7.765  0.2252  2.4951  1.0140
 6559SOL    HW231311   0.389   2.148   7.760 -2.3457  0.4454 -3.2154
 6560SOL     OW31312   3.531   3.830  15.445 -0.0675  0.2817  0.2259
 6560SOL    HW131313   3.610   3.819  15.498  0.5793 -0.8450 -0.9399
 6560SOL    HW231314   3.478   3.880  15.507  0.8502  0.4547  0.8763
 6561SOL     OW31315   1.478   1.718   2.830 -0.3755  0.2103 -0.3181
 6561SOL    HW131316   1.513   1.760   2.908  1.2980  2.6676 -2.3831
 6561SOL    HW231317   1.452   1.786   2.768  1.2391  1.8179  0.7630
 6562SOL     OW31318   3.272   3.491   4.736 -0.6121 -0.4147  0.1968
 6562SOL    HW131319   3.275   3.436   4.657 -0.3980  2.8201 -2.0156
 6562SOL    HW231320   3.209   3.556   4.707 -1.3235 -0.3479  1.9338
 6563SOL     OW31321   0.817   0.544   6.705  0.0991  0.0252  0.3087
 6563SOL    HW131322   0.896   0.545   6.759 -0.5187  0.6192  1.1922
 6563SOL    HW231323   0.797   0.637   6.702 -1.7357 -0.3648  0.7367
 6564SOL     OW31324   0.175   3.056   9.146 -0.1110  0.2099 -0.6763
 6564SOL    HW131325   0.262   3.015   9.142 -1.4625 -2.5047 -1.8074
 6564SOL    HW231326   0.132   3.005   9.215 -0.0359  0.5308 -0.3894
 6565SOL     OW31327   2.672   2.053  13.314  0.6630 -0.1739 -0.1335
 6565SOL    HW131328   2.727   1.999  13.371  1.5298  0.0974 -0.7167
 6565SOL    HW231329   2.653   2.138  13.353 -0.6074 -0.4733 -0.0845
 6566SOL     OW31330   0.492   2.980   5.881  0.1795  0.0329 -0.0510
 6566SOL    HW131331   0.415   3.035   5.891  0.7888  0.9292 -0.2849
 6566SOL    HW231332   0.542   3.012   5.956  0.0980 -0.8648  0.3873
 6567SOL     OW31333   1.960   2.720   6.370 -0.8688  0.1004 -0.2774
 6567SOL    HW131334   1.961   2.674   6.286  1.5833  1.8707 -1.1786
 6567SOL    HW231335   2.048   2.757   6.370 -0.3448 -1.1116 -3.8967
 6568SOL     OW31336   1.214   1.137   3.947 -0.1897 -0.2010  0.2321
 6568SOL    HW131337   1.215   1.064   3.886 -1.9911  0.2066 -0.2764
 6568SOL    HW231338   1.126   1.125   3.982 -0.4857  0.2320 -0.3656
 6569SOL     OW31339   1.886   1.705   0.368  0.0676  0.0449  0.1344
 6569SOL    HW131340   1.969   1.725   0.411  0.0344 -1.1130  0.7364
 6569SOL    HW231341   1.852   1.794   0.360 -1.7180 -0.8063 -2.0039
 6570SOL     OW31342   0.652   3.754   9.828 -0.0878 -0.2297  0.5805
 6570SOL    HW131343   0.617   3.834   9.789  0.4752  0.6010  1.7855
 6570SOL    HW231344   0.718   3.726   9.764  0.0484  1.1259  0.1216
 6571SOL     OW31345   3.658   0.987   6.250 -0.1113 -0.5893 -0.1991
 6571SOL    HW131346   3.701   0.922   6.194  0.0931 -0.9036  0.3187
 6571SOL    HW231347   3.593   0.936   6.298  0.2573 -2.6481 -1.8674
 6572SOL     OW31348   2.942   4.709   1.610 -0.0940  0.0172 -0.7878
 6572SOL    HW131349   2.953   0.009   1.521  1.9968 -0.0976 -0.5784
 6572SOL    HW231350   2.981   0.040   1.668  1.6822  0.3762 -2.3700
 6573SOL     OW31351   2.074   1.716   5.004 -0.0426  0.0269  0.0559
 6573SOL    HW131352   1.985   1.752   5.012 -0.7015 -1.4824 -0.3627
 6573SOL    HW231353   2.118   1.740   5.085  2.9076 -0.9986 -1.2362
 6574SOL     OW31354   0.959   2.812  15.451 -0.2449 -0.3978 -0.0437
 6574SOL    HW131355   1.044   2.780  15.483  1.0629  0.5612 -2.5535
 6574SOL    HW231356   0.958   2.770  15.365 -1.1051  0.6640 -0.5492
 6575SOL     OW31357   4.314   4.621   0.414 -0.1554 -0.3961 -0.0418
 6575SOL    HW131358   4.358   4.646   0.495  1.5247 -2.8864 -0.1918
 6575SOL    HW231359   4.393   4.621   0.359 -1.0608 -1.0121 -1.3453
 6576SOL     OW31360   2.480   4.025   5.539  0.0781  0.4653 -1.2004
 6576SOL    HW131361   2.466   3.934   5.566 -1.0747  1.1576  0.5410
 6576SOL    HW231362   2.392   4.046   5.505 -0.7519 -0.9034  0.1360
 6577SOL     OW31363   0.025   0.646   5.503  0.5525 -0.0695 -0.1249
 6577SOL    HW131364   4.694   0.638   5.573 -2.2871  3.4964 -2.3170
 6577SOL    HW231365   0.040   0.554   5.485 -0.6507 -0.2511 -0.2369
 6578SOL     OW31366   4.720   4.070  12.588 -0.3700 -0.2464  0.1193
 6578SOL    HW131367   0.050   4.101  12.651 -1.1149 -0.2262  0.8686
 6578SOL    HW231368   4.732   4.125  12.510  1.9539 -0.8305  0.0725
 6579SOL     OW31369   2.440   2.320   5.747  0.0204  0.1665  0.0241
 6579SOL    HW131370   2.486   2.404   5.753 -1.9307  1.1529  0.9141
 6579SOL    HW231371   2.491   2.267   5.685  2.0080 -0.3577  2.1154
 6580SOL     OW31372   2.191   0.012  13.723 -0.7019 -0.3966  0.0710
 6580SOL    HW131373   2.119   4.733  13.785 -1.0401 -1.9096 -0.6663
 6580SOL    HW231374   2.247   4.672  13.744 -0.1798 -0.2171 -0.6824
 6581SOL     OW31375   2.539   2.366  11.031 -0.1096 -0.0045 -0.4596
 6581SOL    HW131376   2.545   2.282  11.076  1.5818  0.8871  0.9849
 6581SOL    HW231377   2.531   2.339  10.939 -0.1240 -3.6567  0.6085
 6582SOL     OW31378   1.240   0.465   2.205 -0.1457 -0.5838  0.2116
 6582SOL    HW131379   1.170   0.429   2.152 -0.1276  0.4279 -0.5018
 6582SOL    HW231380   1.239   0.416   2.287 -0.5352 -1.3764 -0.2744
 6583SOL     OW31381   0.238   2.081   9.073  0.2472 -0.5499 -0.4034
 6583SOL    HW131382   0.281   2.035   9.146 -1.3915 -3.5226 -1.3192
 6583SOL    HW231383   0.162   2.026   9.056  0.3167 -0.8576  0.2726
 6584SOL     OW31384   2.706   3.917   0.348  0.2438 -0.5678 -0.1950
 6584SOL    HW131385   2.674   3.945   0.433 -1.5224  0.3231 -1.1472
 6584SOL    HW231386   2.643   3.861   0.302  1.1067 -2.4178  0.8736
 6585SOL     OW31387   2.833   3.121   6.331  0.0904  0.0460 -0.0774
 6585SOL    HW131388   2.847   3.163   6.417 -3.3296  0.6684  0.1956
 6585SOL    HW231389   2.903   3.056   6.327  0.9565  1.0707 -1.4914
 6586SOL     OW31390   2.552   3.667   2.643 -0.5246 -0.1345  0.0326
 6586SOL    HW131391   2.523   3.755   2.616 -1.7120 -0.3577  0.5775
 6586SOL    HW231392   2.515   3.617   2.570  0.6870 -0.5028 -0.3290
 6587SOL     OW31393   4.029   3.438   8.917  0.0506 -0.5156  0.0929
 6587SOL    HW131394   4.115   3.425   8.957  0.5588  1.5909 -0.3195
 6587SOL    HW231395   4.033   3.534   8.913 -0.3052 -0.4258  1.8798
 6588SOL     OW31396   0.988   1.227   1.459  0.3215  0.0832  0.0484
 6588SOL    HW131397   0.983   1.137   1.428 -0.5367  0.1480  0.0125
 6588SOL    HW231398   0.898   1.241   1.487 -0.5306 -1.0472 -2.1532
 6589SOL     OW31399   4.548   0.256   6.189 -0.0645  0.3018 -0.3248
 6589SOL    HW131400   4.567   0.182   6.132  2.4288  0.4897  0.2761
 6589SOL    HW231401   4.629   0.265   6.240 -0.8385  0.6825  0.8408
 6590SOL     OW31402   0.632   3.733   4.627  0.0822 -0.3088 -0.3583
 6590SOL    HW131403   0.658   3.679   4.701  0.4383 -0.9225 -0.9309
 6590SOL    HW231404   0.567   3.787   4.672 -1.5460 -2.2412 -0.3969
 6591SOL     OW31405   0.577   1.176   8.688  0.3013  0.1819  0.1941
 6591SOL    HW131406   0.565   1.115   8.761 -2.2290  0.7272  0.2408
 6591SOL    HW231407   0.586   1.258   8.737 -1.6073  1.1596 -1.0948
 6592SOL     OW31408   0.283   0.720   9.120  0.1830  0.0196 -0.3361
 6592SOL    HW131409   0.220   0.783   9.086 -0.2867 -1.0572 -1.4475
 6592SOL    HW231410   0.219   0.671   9.172 -0.3415  1.7004  0.5901
 6593SOL     OW31411   4.123   3.962   4.076 -0.1334  0.0616 -0.3018
 6593SOL    HW131412   4.161   3.956   4.164  2.6069  3.9817 -1.1925
 6593SOL    HW231413   4.034   3.931   4.090 -0.0882 -0.0030 -0.1626
 6594SOL     OW31414   1.609   0.460   8.638 -0.6848  0.0248 -0.4909
 6594SOL    HW131415   1.634   0.380   8.684 -0.2285  1.1012  1.1171
 6594SOL    HW231416   1.626   0.426   8.550 -0.5194 -0.9124 -0.0989
 6595SOL     OW31417   4.584   4.331  12.873 -0.3547 -0.2242  0.1066
 6595SOL    HW131418   4.508   4.290  12.915 -0.1290 -0.5208  0.2201
 6595SOL    HW231419   4.540   4.367  12.795 -1.5712 -0.7872  0.5230
 6596SOL     OW31420   3.693   0.366   7.327 -0.0953  0.0165 -0.8735
 6596SOL    HW131421   3.636   0.394   7.399 -1.8526  0.8765 -2.5995
 6596SOL    HW231422   3.775   0.406   7.356 -1.0364  2.3970 -1.5134
 6597SOL     OW31423   1.688   0.047   0.106  0.3131  1.0916  0.2484
 6597SOL    HW131424   1.754   0.116   0.106  1.0976  0.3335 -0.3981
 6597SOL    HW231425   1.613   0.093   0.143 -1.4935 -0.9025 -0.9345
 6598SOL     OW31426   2.883   0.646  14.320 -0.1265 -0.1363 -0.4793
 6598SOL    HW131427   2.860   0.739  14.322 -3.8427 -1.1059  1.9627
 6598SOL    HW231428   2.794   0.616  14.302  0.4669 -1.9035 -0.4383
 6599SOL     OW31429   1.038   4.243   3.680 -0.2374  0.1702  0.0725
 6599SOL    HW131430   1.034   4.172   3.615  1.3565  0.2959 -0.1579
 6599SOL    HW231431   0.979   4.315   3.658  0.3506  1.6237  3.2248
 6600SOL     OW31432   0.527   1.415   9.847 -0.5605  0.3126  0.4051
 6600SOL    HW131433   0.618   1.445   9.850 -0.9061  1.3746  0.4241
 6600SOL    HW231434   0.500   1.428   9.755  1.2755 -0.9215 -0.2887
 6601SOL     OW31435   3.316   3.503   1.943  0.6757 -0.6684  0.6429
 6601SOL    HW131436   3.382   3.572   1.938 -0.2586  0.3652  2.2541
 6601SOL    HW231437   3.252   3.544   1.886  1.6452  0.7621  0.5772
 6602SOL     OW31438   4.149   3.735   5.051  0.2878  0.2365  0.0237
 6602SOL    HW131439   4.234   3.714   5.010  0.0672 -0.9803  0.1838
 6602SOL    HW231440   4.177   3.797   5.118  0.2305  0.4368 -0.1373
 6603SOL     OW31441   1.682   3.544   4.098 -0.3495 -0.7860  0.0271
 6603SOL    HW131442   1.634   3.469   4.132  1.6674 -1.2796  1.8249
 6603SOL    HW231443   1.636   3.564   4.016 -2.5584 -1.3509  1.1368
 6604SOL     OW31444   3.342   2.659   2.204  0.3550  0.1346  0.4226
 6604SOL    HW131445   3.249   2.636   2.194  0.3907  0.5359 -0.8146
 6604SOL    HW231446   3.356   2.727   2.138  0.2675  0.7143  1.0085
 6605SOL     OW31447   2.077   1.767   1.464 -0.4854  0.3177 -0.6062
 6605SOL    HW131448   2.086   1.784   1.370  1.8749 -1.1491 -0.6533
 6605SOL    HW231449   2.002   1.822   1.487 -0.4325 -0.2253  0.8715
 6606SOL     OW31450   4.588   0.905   5.688 -0.0998  0.5067 -0.1602
 6606SOL    HW131451   4.570   0.814   5.712 -0.7710  1.0208  1.3199
 6606SOL    HW231452   4.524   0.948   5.745  0.4485 -0.1386  0.9325
 6607SOL     OW31453   1.441   3.063   6.353  0.3502 -0.1976 -0.3385
 6607SOL    HW131454   1.471   3.149   6.321 -2.3511  0.3122 -1.5250
 6607SOL    HW231455   1.403   3.036   6.269  2.3172 -2.5458 -0.4488
 6608SOL     OW31456   0.056   4.580   8.860 -0.0750  0.1380 -0.2654
 6608SOL    HW131457   0.134   4.603   8.809  0.2163 -1.9687 -0.7873
 6608SOL    HW231458   0.091   4.581   8.949  1.4639 -1.2885 -0.8379
 6609SOL     OW31459   0.135   2.667   1.391  0.3223 -0.1817  0.4261
 6609SOL    HW131460   0.069   2.695   1.327  1.7131 -0.5661 -1.2016
 6609SOL    HW231461   0.083   2.671   1.471  0.7994  0.7163  0.6889
 6610SOL     OW31462   3.265   1.379   8.492  0.3837  0.4584  0.4660
 6610SOL    HW131463   3.175   1.359   8.517  1.1115 -0.1159  2.6442
 6610SOL    HW231464   3.245   1.419   8.407 -0.9187  0.4657  0.7871
 6611SOL     OW31465   1.554   3.709   3.167 -0.2913  0.0161  0.1557
 6611SOL    HW131466   1.476   3.754   3.196 -0.1709  1.0859 -1.1623
 6611SOL    HW231467   1.607   3.702   3.246 -2.9778 -0.1047  1.9330
 6612SOL     OW31468   0.841   1.878   8.290 -0.4076 -0.3809  0.3759
 6612SOL    HW131469   0.823   1.921   8.206 -1.4194 -1.9085 -0.2060
 6612SOL    HW231470   0.932   1.850   8.281 -0.4930 -0.1631 -1.1538
 6613SOL     OW31471   3.681   1.488   8.722  0.4304 -0.1554 -0.2974
 6613SOL    HW131472   3.663   1.441   8.641  1.1436  1.6723 -1.5191
 6613SOL    HW231473   3.775   1.471   8.733  0.4943  0.8086  0.6955
 6614SOL     OW31474   2.719   3.510   9.613 -0.4086  0.5317  0.1119
 6614SOL    HW131475   2.694   3.471   9.697 -2.8386  2.0103  0.0605
 6614SOL    HW231476   2.738   3.598   9.644  0.3309  0.3108  0.2816
 6615SOL     OW31477   2.977   1.847   3.502 -0.5710 -0.7181 -0.1383
 6615SOL    HW131478   3.044   1.826   3.568  0.0598 -1.0275 -0.8808
 6615SOL    HW231479   3.025   1.887   3.430 -1.3691  0.2805 -0.0980
 6616SOL     OW31480   1.253   3.029  15.898  0.7304  0.9324  0.3359
 6616SOL    HW131481   1.249   2.955  15.959  2.4632 -1.5931 -2.6029
 6616SOL    HW231482   1.205   3.095  15.948 -1.5255  0.6529 -1.4265
 6617SOL     OW31483   3.432   4.573   4.976  0.3020  0.1338  0.8758
 6617SOL    HW131484   3.517   4.567   4.931 -0.8867 -0.7395 -1.2488
 6617SOL    HW231485   3.375   4.530   4.912  2.2112 -0.8704 -0.1824
 6618SOL     OW31486   3.205   2.382   2.106 -0.3346 -0.1339 -0.1120
 6618SOL    HW131487   3.190   2.360   2.014 -1.7311 -0.5062  0.1969
 6618SOL    HW231488   3.160   2.306   2.144  0.3722  0.1992  1.3783
 6619SOL     OW31489   1.497   4.713   3.993 -0.2546  0.1271 -0.1802
 6619SOL    HW131490   1.563   4.645   3.977 -2.8354 -2.1492 -1.2110
 6619SOL    HW231491   1.558   0.052   3.999  1.0203 -0.9801  0.4889
 6620SOL     OW31492   3.864   4.232   7.126  0.2156  0.6941 -0.7972
 6620SOL    HW131493   3.836   4.292   7.195 -0.1975  0.3026 -0.6252
 6620SOL    HW231494   3.888   4.152   7.174 -1.6709 -1.0754 -2.8278
 6621SOL     OW31495   0.914   0.069   8.551  0.1047 -0.0098  0.3966
 6621SOL    HW131496   0.827   0.086   8.516 -0.1699 -3.0829 -0.3786
 6621SOL    HW231497   0.957   0.036   8.472  1.2178  2.2209  0.0792
 6622SOL     OW31498   1.734   0.491   6.219 -0.0744  0.4721 -0.3850
 6622SOL    HW131499   1.744   0.564   6.280  1.3794  0.1265 -0.2050
 6622SOL    HW231500   1.659   0.530   6.175  0.4436 -0.0037 -1.6942
 6623SOL     OW31501   3.691   3.502  12.878  0.0466 -0.4507  0.3425
 6623SOL    HW131502   3.653   3.476  12.795 -1.6031 -0.0736  0.9757
 6623SOL    HW231503   3.778   3.537  12.856  0.0206 -0.9736 -0.5589
 6624SOL     OW31504   3.481   2.173   0.083 -0.1808 -0.8334  0.3758
 6624SOL    HW131505   3.520   2.141   0.002 -1.0248  1.3663 -0.9226
 6624SOL    HW231506   3.486   2.268   0.070 -0.2474 -0.7635  0.8346
 6625SOL     OW31507   4.317   0.974   3.933 -0.3384 -0.6650 -0.2504
 6625SOL    HW131508   4.411   0.954   3.937 -0.4592 -1.1708 -0.0476
 6625SOL    HW231509   4.279   0.899   3.888 -2.2638 -0.9022  1.7595
 6626SOL     OW31510   1.716   4.087   2.767  0.2894  0.1901 -0.3015
 6626SOL    HW131511   1.766   4.032   2.827  2.1240 -0.8607 -2.7836
 6626SOL    HW231512   1.692   4.031   2.693  0.0885 -1.2125  0.8415
 6627SOL     OW31513   3.163   0.965  13.350 -0.4916  0.2931  0.6274
 6627SOL    HW131514   3.118   0.923  13.277 -1.1779 -0.8259  1.6931
 6627SOL    HW231515   3.253   0.971  13.321 -0.7682 -3.3259 -0.8760
 6628SOL     OW31516   1.752   4.530   7.667  0.7520 -0.1032 -0.1552
 6628SOL    HW131517   1.817   4.512   7.734  0.4383  2.8728  0.9402
 6628SOL    HW231518   1.803   4.578   7.602 -0.1487  0.7734 -0.2122
 6629SOL     OW31519   2.361   0.260  13.336 -0.1838  0.2281 -0.3804
 6629SOL    HW131520   2.363   0.173  13.296  1.0610  0.8336 -1.6457
 6629SOL    HW231521   2.300   0.248  13.409 -0.5455  0.8626 -0.5773
 6630SOL     OW31522   0.409   1.739   2.014  0.2590 -0.0119  0.5811
 6630SOL    HW131523   0.407   1.667   2.077  2.4443 -0.4806  0.0928
 6630SOL    HW231524   0.500   1.746   1.987  0.2079  0.0649  0.4240
 6631SOL     OW31525   2.777   0.546   2.877  0.0680 -0.2622 -0.1608
 6631SOL    HW131526   2.691   0.528   2.841 -0.2255  1.0924 -0.1280
 6631SOL    HW231527   2.831   0.516   2.804 -0.2776 -1.5439  0.1126
 6632SOL     OW31528   2.184   4.133  16.360 -0.4024  0.5041 -0.1854
 6632SOL    HW131529   2.208   4.209  16.306  1.8258 -1.3433 -1.7912
 6632SOL    HW231530   2.125   4.084  16.302  0.5531 -0.9814  0.0902
 6633SOL     OW31531   1.429   2.326   4.070 -0.4179  0.0165 -0.2206
 6633SOL    HW131532   1.425   2.413   4.032 -0.5071  0.1782  0.1609
 6633SOL    HW231533   1.462   2.263   4.005 -0.4171 -1.1938  0.9401
 6634SOL     OW31534   2.907   3.276  16.604 -0.3423 -0.0358  0.0902
 6634SOL    HW131535   2.954   3.301  16.525  0.7297 -0.3835  0.6160
 6634SOL    HW231536   2.909   3.181  16.613 -0.2601  0.1542  2.2069
 6635SOL     OW31537   0.305   1.106   0.021  0.5881  0.0375 -0.5435
 6635SOL    HW131538   0.366   1.180   0.018 -0.2494  0.6982 -1.2776
 6635SOL    HW231539   0.300   1.095  17.662  2.5085 -1.4555 -0.4627
 6636SOL     OW31540   0.024   1.222   9.333 -0.5327 -0.0969  0.0433
 6636SOL    HW131541   4.681   1.169   9.353  0.4036 -0.8972  1.5172
 6636SOL    HW231542   4.724   1.290   9.274 -0.2517  1.1855  1.3615
 6637SOL     OW31543   1.648   1.515   1.761 -0.3466 -0.2705  0.1273
 6637SOL    HW131544   1.712   1.519   1.690  0.4649  1.1972  0.9246
 6637SOL    HW231545   1.561   1.500   1.723 -0.9452  1.6000  0.7460
 6638SOL     OW31546   2.737   1.104  11.503  0.1210 -0.9122  0.5116
 6638SOL    HW131547   2.713   1.109  11.411  2.5882 -1.6148 -0.1644
 6638SOL    HW231548   2.654   1.122  11.547 -1.0111  0.6749 -2.2987
 6639SOL     OW31549   3.620   4.501  10.902  0.1233  0.5310  0.1988
 6639SOL    HW131550   3.529   4.485  10.925 -0.0979  0.5924 -0.6320
 6639SOL    HW231551   3.616   4.459  10.816  1.0929  0.8162  0.0066
 6640SOL     OW31552   0.746   4.470   5.855  0.2201  0.1798  0.3827
 6640SOL    HW131553   0.803   4.398   5.830  1.4302  2.0054 -2.1749
 6640SOL    HW231554   0.817   4.514   5.902  1.7338 -0.8465 -0.9763
 6641SOL     OW31555   1.829   2.006   3.428 -0.2787  0.2193 -0.3863
 6641SOL    HW131556   1.882   1.951   3.369  1.7204  2.8213 -1.0360
 6641SOL    HW231557   1.859   2.092   3.398 -1.0547 -0.4815 -3.1624
 6642SOL     OW31558   4.398   4.211   5.903  0.2434  0.5505 -0.4277
 6642SOL    HW131559   4.464   4.264   5.948  0.9174 -1.5058  1.0034
 6642SOL    HW231560   4.343   4.267   5.847 -1.4201 -1.7970 -1.1118
 6643SOL     OW31561   4.684   3.159   2.363  0.0900  0.3168 -0.0179
 6643SOL    HW131562   4.662   3.214   2.287  1.2358  0.4996 -0.2170
 6643SOL    HW231563   4.698   3.072   2.326  1.1074  0.4324  0.1012
 6644SOL     OW31564   0.420   4.004  14.936 -0.7304 -0.3410 -0.2104
 6644SOL    HW131565   0.352   4.039  14.880 -0.1793 -2.0322 -1.9457
 6644SOL    HW231566   0.479   4.078  14.949  0.4844 -1.3517  0.0915
 6645SOL     OW31567   4.158   1.253   3.303  0.4783  0.1606  0.6239
 6645SOL    HW131568   4.206   1.303   3.369 -0.0696  0.4209  0.8277
 6645SOL    HW231569   4.111   1.189   3.357 -0.7998  0.4727 -0.1250
 6646SOL     OW31570   1.941   1.663   2.880  0.7195  0.2677  0.4789
 6646SOL    HW131571   2.007   1.725   2.910  0.4936  0.1881  1.1441
 6646SOL    HW231572   1.988   1.586   2.848  0.5829  0.5024 -0.2949
 6647SOL     OW31573   3.518   4.416   7.808 -0.5978 -0.0529 -0.1240
 6647SOL    HW131574   3.454   4.459   7.864  0.6747 -0.2766  1.4859
 6647SOL    HW231575   3.596   4.468   7.828 -0.8665  0.9051 -1.5913
 6648SOL     OW31576   3.388   1.588   2.190 -0.3637 -0.2651 -0.2448
 6648SOL    HW131577   3.314   1.530   2.176  2.0040 -3.0370 -1.2139
 6648SOL    HW231578   3.438   1.568   2.111  0.9627  1.5585  0.1225
 6649SOL     OW31579   1.071   3.369   2.332 -0.1488 -0.4180  0.0103
 6649SOL    HW131580   1.095   3.322   2.252  2.1290  0.0863  0.3823
 6649SOL    HW231581   1.103   3.457   2.316 -0.1102 -0.4494 -0.0841
 6650SOL     OW31582   1.737   0.898  16.452 -0.2089  0.3959 -0.1478
 6650SOL    HW131583   1.649   0.898  16.412  0.1521  0.3764 -0.9361
 6650SOL    HW231584   1.803   0.927  16.389  1.6624  0.0435  1.6555
 6651SOL     OW31585   3.512   4.196   7.962  0.2517  0.3352  0.4778
 6651SOL    HW131586   3.478   4.279   7.928  0.4846  0.0729 -0.3870
 6651SOL    HW231587   3.603   4.200   7.932 -0.2129  0.4340 -0.8962
 6652SOL     OW31588   1.095   3.678   2.592  0.1595  0.1632  0.4318
 6652SOL    HW131589   1.056   3.600   2.631  0.0374  0.6592  1.2970
 6652SOL    HW231590   1.034   3.747   2.616  1.3561  1.4192 -0.1195
 6653SOL     OW31591   4.034   0.698   3.241 -0.2186  0.6591  0.4847
 6653SOL    HW131592   4.008   0.673   3.330 -0.4523  0.1566  0.2739
 6653SOL    HW231593   4.046   0.614   3.197 -0.3871 -0.0904  1.8455
 6654SOL     OW31594   3.608   2.605  14.215 -0.0081 -0.3230 -0.5817
 6654SOL    HW131595   3.577   2.608  14.125 -0.9951 -0.5099 -0.2444
 6654SOL    HW231596   3.569   2.690  14.232  0.7766  0.1571 -1.2087
 6655SOL     OW31597   2.235   1.105   5.903  0.1601  0.0912 -0.3392
 6655SOL    HW131598   2.264   1.142   5.986  0.6156  1.4197 -1.0832
 6655SOL    HW231599   2.194   1.023   5.932  0.9256  0.9402  3.1142
 6656SOL     OW31600   0.825   4.403   4.832 -0.2554  0.0902 -0.0992
 6656SOL    HW131601   0.910   4.446   4.832  1.8680 -4.1065  0.5594
 6656SOL    HW231602   0.827   4.378   4.740  0.2245 -1.1100  0.2364
 6657SOL     OW31603   0.357   2.797   9.209  0.0386 -0.2066  0.8503
 6657SOL    HW131604   0.411   2.798   9.130 -2.8195 -1.2600 -1.0825
 6657SOL    HW231605   0.290   2.737   9.177  0.1257 -0.4051  1.0424
 6658SOL     OW31606   1.626   2.231  11.325  0.8000  0.3561 -0.5837
 6658SOL    HW131607   1.579   2.301  11.279  1.1416 -0.3737 -2.0445
 6658SOL    HW231608   1.590   2.254  11.411  1.4182  0.6377 -0.4003
 6659SOL     OW31609   4.170   1.381   8.943 -0.3284 -0.0545 -0.4677
 6659SOL    HW131610   4.154   1.358   9.035  1.2483  1.2368  0.1410
 6659SOL    HW231611   4.178   1.292   8.909 -1.0107  0.1934 -1.2582
 6660SOL     OW31612   4.729   2.479   2.831  0.4077 -0.2708  0.1043
 6660SOL    HW131613   0.045   2.517   2.903 -1.6614  1.6347  0.5340
 6660SOL    HW231614   0.037   2.394   2.816  2.2521  0.6998 -0.1776
 6661SOL     OW31615   4.099   1.373   9.240  0.2046  0.4030 -0.4650
 6661SOL    HW131616   4.043   1.321   9.297 -0.2531  1.0478 -0.3364
 6661SOL    HW231617   4.060   1.457   9.264  1.4401  0.2092  2.1585
 6662SOL     OW31618   1.194   1.630   2.377 -0.0302 -0.2929 -0.3884
 6662SOL    HW131619   1.111   1.679   2.368 -0.4585 -0.6026  1.8233
 6662SOL    HW231620   1.170   1.570   2.448  0.8346 -3.0021 -2.4126
 6663SOL     OW31621   2.464   3.934  15.928  0.2292 -0.3502 -0.0797
 6663SOL    HW131622   2.385   3.889  15.899 -0.6067  0.8780  0.3137
 6663SOL    HW231623   2.443   4.020  15.893  1.1673 -1.1724 -2.6642
 6664SOL     OW31624   2.094   3.566   5.012  0.5918  0.1515  0.5162
 6664SOL    HW131625   2.131   3.561   5.100 -0.3529  0.7689  0.9475
 6664SOL    HW231626   2.163   3.613   4.967  1.3962  0.7592  2.3693
 6665SOL     OW31627   3.402   4.372   2.550 -0.0885  0.1242  0.2541
 6665SOL    HW131628   3.341   4.299   2.563  1.0290 -1.0058 -0.7495
 6665SOL    HW231629   3.437   4.400   2.635  0.6087 -1.6372  0.5692
 6666SOL     OW31630   3.168   1.971   7.591  0.1544 -0.6992 -0.0703
 6666SOL    HW131631   3.080   2.008   7.596  0.6443  0.4667 -0.1255
 6666SOL    HW231632   3.208   2.020   7.520  0.7565 -3.1467 -1.4076
 6667SOL     OW31633   4.533   1.208   1.307  0.5846 -0.1620 -0.2200
 6667SOL    HW131634   4.443   1.175   1.309  0.0823  1.2027 -0.6424
 6667SOL    HW231635   4.524   1.300   1.333  2.2895 -0.3750  1.1594
 6668SOL     OW31636   3.785   0.824   3.885 -0.1133 -0.3432 -0.4015
 6668SOL    HW131637   3.693   0.844   3.905  0.3426 -0.8701  2.2027
 6668SOL    HW231638   3.820   0.798   3.970 -2.3636 -1.1672  0.2880
 6669SOL     OW31639   0.851   1.621   2.992  0.2422  0.2786 -0.5249
 6669SOL    HW131640   0.909   1.690   3.026 -0.0980  1.3303 -2.0565
 6669SOL    HW231641   0.835   1.593   3.082  1.5029  0.7411 -0.1448
 6670SOL     OW31642   0.927   4.417   0.422  0.0359 -0.3085 -0.0974
 6670SOL    HW131643   0.953   4.339   0.372  0.0375  0.3128 -1.0815
 6670SOL    HW231644   0.868   4.464   0.363  0.2294  1.3026  1.0210
 6671SOL     OW31645   1.838   1.076   9.585  0.2696 -0.0008  0.6715
 6671SOL    HW131646   1.793   1.143   9.636 -0.6142 -0.0583 -0.0324
 6671SOL    HW231647   1.823   1.091   9.492  1.0547  0.6063  0.6423
 6672SOL     OW31648   2.423   1.857  17.293  0.1189 -0.5018  0.2458
 6672SOL    HW131649   2.387   1.817  17.214 -0.6712  0.0301  0.3394
 6672SOL    HW231650   2.357   1.923  17.315  1.1198  0.4180  0.4700
 6673SOL     OW31651   2.274   3.257   5.128 -0.0283 -0.5086  0.2644
 6673SOL    HW131652   2.342   3.322   5.143  0.7794 -1.8060  2.2333
 6673SOL    HW231653   2.277   3.234   5.035 -1.6496 -0.5962  0.2288
 6674SOL     OW31654   3.785   1.061   0.474 -0.2290 -0.0786  0.3556
 6674SOL    HW131655   3.725   1.134   0.457 -1.8666 -1.3196  0.8017
 6674SOL    HW231656   3.833   1.089   0.552  1.8008 -1.1035 -0.5263
 6675SOL     OW31657   2.350   1.253  15.591 -0.1378  0.1785  0.1639
 6675SOL    HW131658   2.315   1.342  15.593 -0.0610  0.2223 -0.5986
 6675SOL    HW231659   2.399   1.251  15.674 -0.7757  1.5340  0.5750
 6676SOL     OW31660   4.381   1.492  12.234  0.8100  0.2527 -0.2898
 6676SOL    HW131661   4.426   1.453  12.159  1.1541 -0.8845  0.5130
 6676SOL    HW231662   4.347   1.412  12.274  2.3914 -0.3841 -0.2068
 6677SOL     OW31663   1.488   2.890  13.082 -0.2355 -0.4850  0.4376
 6677SOL    HW131664   1.485   2.924  13.171  1.1446  0.3509  0.1566
 6677SOL    HW231665   1.491   2.974  13.038  1.2065 -1.0263 -0.5169
 6678SOL     OW31666   3.777   3.776  17.633  0.3681 -0.2144 -1.0355
 6678SOL    HW131667   3.732   3.857  17.612  0.6884  0.1538 -0.2980
 6678SOL    HW231668   3.771   3.776  17.729 -1.2416 -1.0816 -1.1184
 6679SOL     OW31669   2.048   2.460   2.365 -0.0898  0.0239  0.2985
 6679SOL    HW131670   1.988   2.386   2.369 -0.2495  0.0334 -1.5995
 6679SOL    HW231671   2.095   2.444   2.446  0.8284  0.9674 -0.0394
 6680SOL     OW31672   3.121   3.923   2.458 -0.5914 -0.1289 -0.5074
 6680SOL    HW131673   3.050   3.922   2.394  0.3872  0.0438 -1.5981
 6680SOL    HW231674   3.080   3.975   2.527  0.4879 -1.4594  1.1254
 6681SOL     OW31675   2.629   0.063   7.668  0.3369  0.5146  0.3037
 6681SOL    HW131676   2.697   0.115   7.625 -0.6714  0.2856 -1.5554
 6681SOL    HW231677   2.575   0.037   7.593  1.0810  1.8792 -0.6993
 6682SOL     OW31678   3.593   4.629   2.514 -0.1645  0.4665 -0.2359
 6682SOL    HW131679   3.502   4.644   2.541 -0.6561 -2.1529 -0.4455
 6682SOL    HW231680   3.636   4.709   2.546  0.3477 -0.2581  0.9013
 6683SOL     OW31681   3.422   1.743   0.399 -0.0564  0.0882 -0.0155
 6683SOL    HW131682   3.477   1.786   0.334 -2.1506  1.7682 -0.6461
 6683SOL    HW231683   3.359   1.809   0.429  1.2936  1.4531 -0.2097
 6684SOL     OW31684   3.429   2.579   5.001 -0.2850 -0.7867 -0.0334
 6684SOL    HW131685   3.393   2.553   4.917  1.3966 -0.0827 -0.9590
 6684SOL    HW231686   3.367   2.532   5.057 -1.5225 -0.1378 -0.8662
 6685SOL     OW31687   2.702   4.734   5.246  0.5158  0.2835  0.0054
 6685SOL    HW131688   2.720   0.093   5.240 -0.9058  0.5542 -0.0991
 6685SOL    HW231689   2.646   4.723   5.169  0.9820 -0.4179 -0.2404
 6686SOL     OW31690   3.609   1.214   6.769 -0.6576 -0.0730 -0.4278
 6686SOL    HW131691   3.680   1.249   6.824 -1.5637 -1.2943  1.5454
 6686SOL    HW231692   3.613   1.269   6.691  1.1738 -1.7918 -1.5415
 6687SOL     OW31693   1.051   2.437  13.457 -0.0005  0.0744 -0.1559
 6687SOL    HW131694   1.072   2.511  13.399  2.9330  0.4929  1.4511
 6687SOL    HW231695   0.976   2.399  13.409  0.1501  1.1669 -1.2618
 6688SOL     OW31696   2.015   1.835  17.552 -0.1758 -0.3638  0.6523
 6688SOL    HW131697   1.932   1.790  17.537  0.3524 -0.7925 -0.9060
 6688SOL    HW231698   2.085   1.770  17.553 -1.0117 -1.2718 -1.5266
 6689SOL     OW31699   3.955   3.015   7.219  0.1884 -0.7011 -0.3189
 6689SOL    HW131700   3.920   3.098   7.251  1.4829  0.6371 -2.4078
 6689SOL    HW231701   3.945   2.956   7.293  0.1241  1.1841  1.1706
 6690SOL     OW31702   4.528   2.442   8.083 -0.0003  0.1326 -0.1187
 6690SOL    HW131703   4.536   2.388   8.161  1.0127 -0.4377 -0.6171
 6690SOL    HW231704   4.480   2.386   8.023 -0.8091  0.0220  0.6299
 6691SOL     OW31705   3.181   4.280   3.318 -0.0111  0.0451  0.4075
 6691SOL    HW131706   3.170   4.373   3.340 -1.1038 -0.8132  3.5185
 6691SOL    HW231707   3.186   4.289   3.223 -0.2639 -4.9773 -0.0816
 6692SOL     OW31708   4.285   0.435  17.620 -0.0155 -0.5365 -0.1083
 6692SOL    HW131709   4.210   0.441  17.561  0.8948 -2.8062 -1.5322
 6692SOL    HW231710   4.268   0.371  17.689 -1.6411  0.3066  0.2601
 6693SOL     OW31711   1.088   0.494  17.572 -0.0818 -0.3379  0.0722
 6693SOL    HW131712   1.065   0.541  17.652  2.1839  2.4116 -0.8866
 6693SOL    HW231713   1.159   0.543  17.531  0.4370 -1.2310 -0.0781
 6694SOL     OW31714   2.424   3.360  17.253  0.2959  0.2892 -0.1271
 6694SOL    HW131715   2.411   3.447  17.217 -0.0338 -0.1712 -1.1061
 6694SOL    HW231716   2.341   3.343  17.299 -0.1582 -0.5878 -1.2685
 6695SOL     OW31717   4.064   1.201  11.806  0.0078 -0.0373 -0.4251
 6695SOL    HW131718   4.019   1.193  11.890 -1.1240  1.4953 -0.8886
 6695SOL    HW231719   4.130   1.132  11.808  0.6572  0.6378  1.5417
 6696SOL     OW31720   1.653   2.829  10.510  0.3745 -0.2110  0.0447
 6696SOL    HW131721   1.582   2.765  10.505 -0.4648  0.8861 -2.0591
 6696SOL    HW231722   1.598   2.906  10.520 -0.5288 -0.6999 -1.1466
 6697SOL     OW31723   4.198   3.004   7.119  0.2769  0.1845  0.3174
 6697SOL    HW131724   4.233   3.058   7.189  0.1290  1.3691 -0.5101
 6697SOL    HW231725   4.103   3.005   7.133  0.2666  0.2966  0.2420
 6698SOL     OW31726   1.375   0.954   3.193  0.4151  0.3337 -0.2291
 6698SOL    HW131727   1.328   0.998   3.264 -0.6735 -0.1278 -0.6745
 6698SOL    HW231728   1.319   0.983   3.122 -0.5709  1.6184  1.0552
 6699SOL     OW31729   0.618   2.584   8.039  0.2595 -0.3575 -0.2380
 6699SOL    HW131730   0.586   2.608   8.126  0.7126 -0.5282 -0.0207
 6699SOL    HW231731   0.709   2.606   8.058  0.0579  0.6014 -0.4253
 6700SOL     OW31732   2.204   0.539   9.206  0.3950 -0.3802 -0.0190
 6700SOL    HW131733   2.297   0.563   9.202  0.8076 -2.2831 -1.7566
 6700SOL    HW231734   2.204   0.469   9.141 -0.9022 -0.6657  0.3087
 6701SOL     OW31735   3.438   3.176   9.752  0.1671  0.0772 -0.1383
 6701SOL    HW131736   3.482   3.227   9.684  4.1280 -0.5766  1.8821
 6701SOL    HW231737   3.444   3.232   9.830  1.2071  0.2075 -0.3057
 6702SOL     OW31738   4.662   0.168  15.056 -0.4697 -0.6602  0.0655
 6702SOL    HW131739   0.016   0.183  15.091 -1.7455  1.1352  2.5017
 6702SOL    HW231740   4.645   0.259  15.032 -0.6943 -0.9103 -0.7211
 6703SOL     OW31741   1.286   4.114  10.622  0.1488  0.4038  0.4150
 6703SOL    HW131742   1.228   4.190  10.620  2.1633  1.9664  1.6541
 6703SOL    HW231743   1.271   4.076  10.708  2.3021 -1.6714 -0.1092
 6704SOL     OW31744   4.156   1.371   4.181  0.2600  0.1684  0.3875
 6704SOL    HW131745   4.222   1.301   4.182 -0.8947 -0.9083  2.8501
 6704SOL    HW231746   4.206   1.444   4.146 -1.2355  1.8156  1.7126
 6705SOL     OW31747   4.092   2.806   4.494  0.0722 -0.3008  0.7019
 6705SOL    HW131748   4.026   2.836   4.556 -1.2038 -0.9764 -0.3156
 6705SOL    HW231749   4.122   2.886   4.452 -0.8465  0.9330  2.4281
 6706SOL     OW31750   3.771   0.966  14.566 -0.0225  0.0002  0.3427
 6706SOL    HW131751   3.702   0.974  14.500  1.4842  0.5206 -1.1984
 6706SOL    HW231752   3.756   0.874  14.586 -0.1603  0.1149  0.7645
 6707SOL     OW31753   4.391   1.290   3.507 -0.0352 -0.2078  0.6375
 6707SOL    HW131754   4.379   1.229   3.579  0.9954 -0.8958  0.2288
 6707SOL    HW231755   4.414   1.229   3.438  4.0417  0.6381  1.2610
 6708SOL     OW31756   4.334   2.266   9.564  1.1057 -0.2847  0.7324
 6708SOL    HW131757   4.374   2.180   9.551 -0.3108 -0.8506  0.1310
 6708SOL    HW231758   4.394   2.318   9.511  2.6586 -1.7641  1.0027
 6709SOL     OW31759   1.941   3.667   6.914  0.8039  0.5582  0.8263
 6709SOL    HW131760   2.015   3.713   6.874 -0.6077  1.0608 -1.1648
 6709SOL    HW231761   1.891   3.644   6.836 -0.4782  0.0809  1.7852
 6710SOL     OW31762   2.484   3.558   4.271  0.3793  0.2547  0.1240
 6710SOL    HW131763   2.547   3.625   4.244 -0.2602  1.2796  1.1745
 6710SOL    HW231764   2.400   3.601   4.253  0.3921  0.6637  1.0229
 6711SOL     OW31765   3.839   4.496  15.254  0.2196  0.4211  0.0907
 6711SOL    HW131766   3.910   4.434  15.237 -0.5367 -0.5622  0.5119
 6711SOL    HW231767   3.763   4.439  15.264  0.4815  0.0786  0.1414
 6712SOL     OW31768   3.361   2.549  11.706 -0.2100  0.4646  0.1541
 6712SOL    HW131769   3.373   2.615  11.638 -0.8102  1.7487  1.2693
 6712SOL    HW231770   3.437   2.582  11.755 -0.4254  1.1401  0.0408
 6713SOL     OW31771   4.643   3.704   5.608  0.2835 -0.4435  0.4068
 6713SOL    HW131772   4.572   3.768   5.619  0.3966 -0.6961  2.5777
 6713SOL    HW231773   4.583   3.630   5.609 -1.1810  0.7228 -0.2098
 6714SOL     OW31774   1.131   2.773   6.098  0.3713  0.1865  0.1940
 6714SOL    HW131775   1.128   2.761   6.003 -1.0215 -1.8335  0.4880
 6714SOL    HW231776   1.055   2.723   6.130  1.1993 -1.2467 -0.0680
 6715SOL     OW31777   0.396   0.405   1.914  0.1078 -0.1038 -0.1922
 6715SOL    HW131778   0.438   0.447   1.839 -0.4871  2.3331  0.8415
 6715SOL    HW231779   0.448   0.428   1.991 -1.6407  0.5292  0.7889
 6716SOL     OW31780   1.943   3.442   7.492 -0.1172 -0.1584 -0.1114
 6716SOL    HW131781   1.887   3.427   7.568 -1.1234 -0.2414 -0.8678
 6716SOL    HW231782   1.883   3.464   7.420 -1.0374 -1.0800  0.3692
 6717SOL     OW31783   3.389   0.048   5.162 -0.3879 -0.1208 -0.2390
 6717SOL    HW131784   3.294   0.047   5.167 -0.2883 -0.1684  1.6215
 6717SOL    HW231785   3.413   4.718   5.096  1.9597  1.6164 -1.0858
 6718SOL     OW31786   3.786   4.191   4.142 -0.4457 -0.5298 -0.0027
 6718SOL    HW131787   3.881   4.184   4.144 -0.5531 -2.0254  0.2424
 6718SOL    HW231788   3.760   4.179   4.233 -1.5273 -0.6378 -0.3207
 6719SOL     OW31789   1.372   0.619   6.307 -0.1610  0.4288  0.3788
 6719SOL    HW131790   1.287   0.648   6.276  0.9038 -0.1037 -3.0871
 6719SOL    HW231791   1.414   0.699   6.340 -3.4257  2.4696 -0.4161
 6720SOL     OW31792   2.841   1.235   6.891  0.0970 -0.2807  0.2327
 6720SOL    HW131793   2.779   1.162   6.893  1.5557 -1.5492 -0.5590
 6720SOL    HW231794   2.816   1.283   6.812  1.7547  0.3791  0.1044
 6721SOL     OW31795   2.339   2.800   8.625 -0.2595 -0.6118  0.2304
 6721SOL    HW131796   2.293   2.792   8.542 -0.7908  1.9275  0.2794
 6721SOL    HW231797   2.316   2.892   8.635 -1.3891 -1.0646  1.7717
 6722SOL     OW31798   4.316   1.469  13.037 -0.3402  0.0811 -0.1459
 6722SOL    HW131799   4.244   1.484  13.099 -1.0630 -0.2511 -0.9083
 6722SOL    HW231800   4.348   1.385  13.070  0.5154  0.5943  0.3522
 6723SOL     OW31801   0.176   1.276   4.163 -0.3262  0.2764 -0.0698
 6723SOL    HW131802   0.260   1.297   4.203 -1.9460  3.1676  1.8037
 6723SOL    HW231803   0.178   1.345   4.096  1.1108  1.0688  0.7999
 6724SOL     OW31804   1.506   0.113   2.752 -0.1984 -0.1261 -0.7539
 6724SOL    HW131805   1.415   0.131   2.776 -0.3510 -0.5707 -1.0042
 6724SOL    HW231806   1.493   0.035   2.699  1.0622 -0.6143 -0.3482
 6725SOL     OW31807   4.012   0.896  17.370 -0.3438 -0.4373 -0.7614
 6725SOL    HW131808   4.092   0.943  17.345 -0.3946  0.3143  0.4780
 6725SOL    HW231809   4.016   0.897  17.466  3.1157  0.1988 -0.9062
 6726SOL     OW31810   1.904   3.005  12.461 -0.6831 -0.0300  0.6964
 6726SOL    HW131811   1.851   2.926  12.467 -0.6392 -0.1304 -0.2894
 6726SOL    HW231812   1.938   3.018  12.550 -1.5876  0.2058  1.0083
 6727SOL     OW31813   4.492   2.442   7.255  0.2451 -0.1999 -0.0916
 6727SOL    HW131814   4.570   2.395   7.286  1.2199  1.6590  0.3171
 6727SOL    HW231815   4.510   2.431   7.162 -0.9896 -0.2448 -0.3179
 6728SOL     OW31816   3.866   3.614   7.189  0.2591 -0.0827  0.6091
 6728SOL    HW131817   3.784   3.605   7.237 -0.2892  0.8825 -0.1498
 6728SOL    HW231818   3.934   3.588   7.252 -0.0899  1.7036  1.7108
 6729SOL     OW31819   0.070   3.077   5.285 -0.1475 -0.1512 -0.4075
 6729SOL    HW131820   0.092   3.060   5.194  0.5041 -0.1096 -0.2581
 6729SOL    HW231821   4.733   3.013   5.291  0.0908 -0.3674  0.1255
 6730SOL     OW31822   2.318   3.899   8.232 -0.6980 -0.3158 -0.1704
 6730SOL    HW131823   2.287   3.908   8.322 -0.0748 -0.0621  0.0213
 6730SOL    HW231824   2.254   3.956   8.189 -1.1752 -0.5089  0.2946
 6731SOL     OW31825   0.455   3.941  12.698  0.0978 -0.0881  0.1221
 6731SOL    HW131826   0.361   3.945  12.720  0.3185  1.6479  0.7731
 6731SOL    HW231827   0.476   3.849  12.714  1.4497 -0.0422 -1.4222
 6732SOL     OW31828   2.606   0.436   5.289  0.0326  0.3565 -0.6797
 6732SOL    HW131829   2.603   0.517   5.238 -1.4332  0.3774 -0.5671
 6732SOL    HW231830   2.683   0.448   5.345 -0.1784 -1.2785 -0.0224
 6733SOL     OW31831   4.011   2.948   8.765 -0.2165  0.1520 -0.0299
 6733SOL    HW131832   4.040   2.991   8.845  2.7131 -1.0251 -0.4447
 6733SOL    HW231833   4.031   3.016   8.700 -0.9421  0.9892  0.6191
 6734SOL     OW31834   3.560   0.429   3.465 -0.6743  0.3861  0.3374
 6734SOL    HW131835   3.633   0.375   3.493 -0.5237  0.1078 -0.5856
 6734SOL    HW231836   3.540   0.476   3.546 -0.0932  0.4749  0.4308
 6735SOL     OW31837   4.659   3.870   6.966  0.6710  0.1397 -0.0299
 6735SOL    HW131838   4.644   3.843   6.875  1.8341  1.5623 -0.6507
 6735SOL    HW231839   4.725   3.940   6.966  0.5255  0.2799  2.2699
 6736SOL     OW31840   0.656   0.357  12.307 -0.0734  0.3263  0.5106
 6736SOL    HW131841   0.580   0.304  12.282 -0.3755  0.9279  0.1508
 6736SOL    HW231842   0.652   0.414  12.230  0.5398 -0.2236  0.0736
 6737SOL     OW31843   2.652   1.502   3.219  0.1695 -0.6789  0.2537
 6737SOL    HW131844   2.684   1.535   3.302  0.9010 -2.1680  0.5652
 6737SOL    HW231845   2.692   1.559   3.153 -0.3508 -0.6375 -0.0275
 6738SOL     OW31846   2.007   0.150  17.595  0.1201  0.0316 -0.6458
 6738SOL    HW131847   2.100   0.126  17.599  0.6454  2.3895  0.8873
 6738SOL    HW231848   1.986   0.135  17.502 -1.5016  2.3782 -0.6423
 6739SOL     OW31849   1.370   4.205  12.044  0.3541  0.0014  0.1154
 6739SOL    HW131850   1.420   4.123  12.037 -0.9298 -0.6478 -1.4764
 6739SOL    HW231851   1.384   4.220  12.137  0.5048  0.9681 -0.0697
 6740SOL     OW31852   4.354   0.795   7.542  0.2440 -0.4767  0.7496
 6740SOL    HW131853   4.348   0.887   7.517 -1.8076 -0.4987  1.0884
 6740SOL    HW231854   4.331   0.808   7.634 -1.7354 -0.6601  0.2804
 6741SOL     OW31855   0.430   1.218  11.981 -0.4002 -0.4541  0.0523
 6741SOL    HW131856   0.478   1.216  11.898 -0.4173  1.5104 -0.0085
 6741SOL    HW231857   0.503   1.230  12.042 -0.9012  0.2397  0.5200
 6742SOL     OW31858   1.551   2.718   4.980  0.2490  0.1302  0.0847
 6742SOL    HW131859   1.640   2.705   5.013  0.5874 -0.8604 -1.2144
 6742SOL    HW231860   1.571   2.740   4.890 -1.6227  1.2116 -0.0610
 6743SOL     OW31861   4.444   1.637  11.960  0.5013  0.1473 -0.3827
 6743SOL    HW131862   4.362   1.632  11.912  0.4269 -1.6779 -0.0514
 6743SOL    HW231863   4.478   1.551  11.985  2.5760  1.2500  0.5784
 6744SOL     OW31864   2.122   1.445   7.240 -0.2162 -0.6505  0.1526
 6744SOL    HW131865   2.173   1.525   7.228 -0.1753 -0.8309 -0.8631
 6744SOL    HW231866   2.052   1.466   7.178  1.4078 -2.5423 -2.3069
 6745SOL     OW31867   0.994   3.933   6.390 -0.3458  0.3478 -0.0393
 6745SOL    HW131868   1.077   3.919   6.436 -0.4022  1.1287  0.3010
 6745SOL    HW231869   0.933   3.956   6.460 -0.6954  2.3968 -1.0193
 6746SOL     OW31870   0.787   1.027   7.743  0.2027  0.1943 -0.1466
 6746SOL    HW131871   0.829   0.980   7.670  2.8526  1.9542  0.2428
 6746SOL    HW231872   0.785   1.114   7.703 -0.8990 -0.4814 -1.5739
 6747SOL     OW31873   3.159   2.456   9.461 -0.2413  0.3949  0.5438
 6747SOL    HW131874   3.066   2.436   9.461 -0.1224 -0.1748 -1.0059
 6747SOL    HW231875   3.183   2.459   9.369 -2.1495 -0.9566  0.0237
 6748SOL     OW31876   3.664   2.558  13.708  0.3856  0.3937 -0.1933
 6748SOL    HW131877   3.615   2.578  13.788  0.5858  1.5531 -0.3714
 6748SOL    HW231878   3.659   2.639  13.658  0.6935  2.3292  2.8912
 6749SOL     OW31879   3.500   0.729   3.369  0.0582  0.0853 -0.0266
 6749SOL    HW131880   3.557   0.661   3.332  0.5216  0.0642  0.7286
 6749SOL    HW231881   3.538   0.735   3.457 -0.6323  0.4612  0.2474
 6750SOL     OW31882   2.554   1.035   9.282  0.1929 -0.1117 -0.1579
 6750SOL    HW131883   2.508   0.972   9.337 -0.4555  0.4618 -0.0396
 6750SOL    HW231884   2.619   0.976   9.243  1.2734  1.0174 -0.0712
 6751SOL     OW31885   4.412   4.342   7.431  0.2426  0.7391  0.1651
 6751SOL    HW131886   4.350   4.396   7.479  1.3992  2.4014 -0.2316
 6751SOL    HW231887   4.388   4.259   7.472  2.2141  1.0884  2.0513
 6752SOL     OW31888   4.133   1.413   2.451 -0.6069 -0.0929  0.4165
 6752SOL    HW131889   4.061   1.437   2.509 -0.7836 -0.0496  0.1784
 6752SOL    HW231890   4.198   1.472   2.490 -1.6001  0.8720  0.6086
 6753SOL     OW31891   1.473   1.557   2.538  0.6140 -0.2362 -0.0576
 6753SOL    HW131892   1.459   1.638   2.587  0.0207 -0.1476 -0.3780
 6753SOL    HW231893   1.567   1.557   2.524  0.3317  0.9540 -1.8732
 6754SOL     OW31894   1.775   1.973   8.705  0.2314 -0.9215  0.1786
 6754SOL    HW131895   1.776   2.056   8.753  0.6340 -2.4918  2.8293
 6754SOL    HW231896   1.789   2.001   8.614 -0.2337  0.3205  0.4904
 6755SOL     OW31897   4.383   2.870   4.174  0.1427 -0.3247  0.1149
 6755SOL    HW131898   4.446   2.941   4.158  0.8837 -0.7927  0.9339
 6755SOL    HW231899   4.316   2.915   4.122  1.7365 -1.6704 -3.1119
 6756SOL     OW31900   2.947   2.251   7.256  0.5790 -0.4540  0.2746
 6756SOL    HW131901   2.932   2.303   7.335 -0.3747 -1.7357  0.9407
 6756SOL    HW231902   3.018   2.296   7.211 -1.2726  2.2076 -0.0433
 6757SOL     OW31903   3.846   4.708   3.572  0.4003  0.1457 -0.1628
 6757SOL    HW131904   3.838   4.620   3.536 -0.4524  0.1583  0.0042
 6757SOL    HW231905   3.929   4.693   3.617 -0.3314  2.3122  1.9191
 6758SOL     OW31906   1.710   1.245   3.289 -0.1461  0.2723 -0.0844
 6758SOL    HW131907   1.644   1.249   3.220 -0.5635  0.9659  0.3448
 6758SOL    HW231908   1.697   1.158   3.326 -1.0573 -0.4675 -2.1611
 6759SOL     OW31909   2.575   4.521  16.671 -0.6218  0.1792 -0.4330
 6759SOL    HW131910   2.600   4.611  16.693 -0.3435 -0.4380  1.7438
 6759SOL    HW231911   2.642   4.470  16.717 -0.9109  0.3296  0.1555
 6760SOL     OW31912   0.350   3.293   4.921  0.2606 -0.4231  0.0448
 6760SOL    HW131913   0.396   3.373   4.945 -0.4238 -0.1280  0.3610
 6760SOL    HW231914   0.257   3.311   4.935 -0.0191 -0.8428 -1.3023
 6761SOL     OW31915   2.223   3.925   9.730 -0.2430 -0.7230  0.0763
 6761SOL    HW131916   2.285   3.852   9.720 -0.1726 -0.8528  1.4233
 6761SOL    HW231917   2.149   3.870   9.756 -3.1109  1.9577 -2.5265
 6762SOL     OW31918   3.041   2.541   3.881 -0.4498  0.0302 -0.4635
 6762SOL    HW131919   3.105   2.601   3.920  0.2241 -0.8679 -0.1695
 6762SOL    HW231920   3.092   2.461   3.868 -1.9440 -1.0020  0.0091
 6763SOL     OW31921   2.214   0.726  12.060 -0.5594 -0.2498  0.2603
 6763SOL    HW131922   2.133   0.762  12.095 -1.1329 -2.1395  0.8247
 6763SOL    HW231923   2.217   0.776  11.978 -0.1771 -0.1617  0.3256
 6764SOL     OW31924   0.450   3.544   6.748 -0.2638 -0.1093 -0.0923
 6764SOL    HW131925   0.360   3.561   6.720 -1.3335 -0.2693  3.2187
 6764SOL    HW231926   0.457   3.449   6.736  0.8889  0.0407 -0.6224
 6765SOL     OW31927   2.021   2.146  17.052  0.3156 -0.0361  0.1860
 6765SOL    HW131928   2.105   2.101  17.058 -0.4779 -1.2455  2.0730
 6765SOL    HW231929   1.959   2.075  17.037 -0.2256 -0.0074  2.2263
 6766SOL     OW31930   4.591   4.582   7.195 -0.3722  0.1818  0.0631
 6766SOL    HW131931   4.672   4.570   7.245  1.0660  0.3135 -2.2319
 6766SOL    HW231932   4.550   4.648   7.251 -1.7083 -1.5893  1.1741
 6767SOL     OW31933   2.997   2.305   3.276 -0.2674 -0.0972  0.1570
 6767SOL    HW131934   2.961   2.350   3.200  0.5044 -1.7282 -1.1778
 6767SOL    HW231935   2.974   2.367   3.345 -2.2739  1.5430 -1.9956
 6768SOL     OW31936   3.419   1.859   7.837  0.0516 -0.0692 -0.0524
 6768SOL    HW131937   3.440   1.952   7.841 -0.9116  0.1018  1.1032
 6768SOL    HW231938   3.453   1.844   7.749  0.6852  2.2693 -0.1943
 6769SOL     OW31939   4.403   4.666  11.379 -0.0644  0.3310  0.5017
 6769SOL    HW131940   4.361   0.007  11.420 -2.0837 -0.2268 -0.5438
 6769SOL    HW231941   4.378   4.688  11.289  2.5383 -3.4678 -1.1867
 6770SOL     OW31942   0.961   2.723   2.854  0.8000  0.2272 -0.3171
 6770SOL    HW131943   0.964   2.688   2.765  2.4635 -2.5839  0.8714
 6770SOL    HW231944   0.989   2.649   2.907 -0.5401 -1.0851 -1.4740
 6771SOL     OW31945   1.121   3.832  17.259 -0.7726 -0.1813  0.0398
 6771SOL    HW131946   1.040   3.883  17.246  1.4049  3.5522  1.0636
 6771SOL    HW231947   1.144   3.840  17.352 -0.7814 -0.7011  0.0831
 6772SOL     OW31948   3.151   4.569  17.657 -0.1143 -0.1699 -0.2465
 6772SOL    HW131949   3.212   4.633  17.618  1.0809 -1.1270  0.0423
 6772SOL    HW231950   3.171   4.582   0.013 -0.8965 -1.2793  0.0704
 6773SOL     OW31951   2.701   3.910   8.313 -0.4813  0.1497 -0.9345
 6773SOL    HW131952   2.654   3.845   8.364  0.1105 -0.2285 -0.8766
 6773SOL    HW231953   2.639   3.946   8.249  1.4613  1.5024 -2.0746
 6774SOL     OW31954   2.132   4.037   5.769 -0.0891 -0.3365  0.0908
 6774SOL    HW131955   2.198   4.105   5.772 -1.0050  0.5955 -1.1156
 6774SOL    HW231956   2.156   4.010   5.858  0.1401  0.8949  0.3974
 6775SOL     OW31957   4.117   4.704   8.869  0.2346  0.1533  0.1913
 6775SOL    HW131958   4.208   4.678   8.878  0.4432  1.6279  2.3859
 6775SOL    HW231959   4.070   4.624   8.891  1.1487  0.3929  2.9641
 6776SOL     OW31960   4.317   0.316   3.655  0.5514  0.1311  0.0279
 6776SOL    HW131961   4.387   0.260   3.621  0.8134  1.4459 -1.6062
 6776SOL    HW231962   4.343   0.340   3.744 -2.4655 -1.8195  1.4379
 6777SOL     OW31963   3.691   2.527   3.985  0.4171  0.2117 -0.0610
 6777SOL    HW131964   3.653   2.440   3.973  2.9206 -0.8956  0.1965
 6777SOL    HW231965   3.737   2.540   3.903 -1.6685 -1.6791 -1.5379
 6778SOL     OW31966   2.490   3.382   2.495  0.4074  0.0481 -0.2617
 6778SOL    HW131967   2.551   3.309   2.505  0.0650 -0.1009  0.6938
 6778SOL    HW231968   2.432   3.362   2.421 -0.5376 -0.9260  0.7314
 6779SOL     OW31969   1.371   1.316   2.600 -0.2304  0.0095 -0.0226
 6779SOL    HW131970   1.372   1.405   2.566 -1.3502  0.2763  0.6567
 6779SOL    HW231971   1.454   1.289   2.560 -1.1419 -0.2706 -1.7500
 6780SOL     OW31972   3.659   3.554   7.351 -0.4861 -0.2947 -0.0228
 6780SOL    HW131973   3.582   3.610   7.354 -0.6587 -0.5895  0.9474
 6780SOL    HW231974   3.651   3.498   7.428  2.5334 -1.2740 -0.4069
 6781SOL     OW31975   3.931   4.172   5.545 -0.2713 -0.1325 -0.0158
 6781SOL    HW131976   3.917   4.078   5.530  1.6035 -0.2741 -0.8133
 6781SOL    HW231977   4.014   4.181   5.498  0.5628 -1.1777  1.2578
 6782SOL     OW31978   2.923   4.644   7.825 -0.2410  0.1620 -0.5632
 6782SOL    HW131979   2.837   4.682   7.844 -0.2320 -0.3075  0.4712
 6782SOL    HW231980   2.919   4.567   7.767  0.0265 -0.9433  0.8720
 6783SOL     OW31981   0.012   0.713   9.109  0.4317 -0.0258 -0.0669
 6783SOL    HW131982   4.725   0.636   9.162 -1.9022  0.7428  0.1023
 6783SOL    HW231983   4.681   0.708   9.039 -0.5978 -0.6431  0.9202
 6784SOL     OW31984   0.455   0.192   5.224  0.4467 -0.1717 -0.2217
 6784SOL    HW131985   0.410   0.187   5.309  1.0374  4.2059  0.3610
 6784SOL    HW231986   0.379   0.209   5.169 -0.6206  1.4492  1.7500
 6785SOL     OW31987   2.577   2.594   9.877  0.0204 -0.4776  0.5683
 6785SOL    HW131988   2.671   2.613   9.872 -0.2039  0.5461  0.2916
 6785SOL    HW231989   2.575   2.498   9.875  0.6491 -0.5119  2.0409
 6786SOL     OW31990   2.996   4.702   2.358 -0.3536 -0.4757  0.2036
 6786SOL    HW131991   2.906   4.715   2.389  0.3949  0.5335  1.9703
 6786SOL    HW231992   3.036   4.657   2.433 -1.0481  2.1796  2.1692
 6787SOL     OW31993   4.344   1.630   4.365 -0.4770  0.2858  0.3383
 6787SOL    HW131994   4.359   1.722   4.385 -0.3153 -0.0182  1.5793
 6787SOL    HW231995   4.315   1.604   4.452 -0.5503 -1.1473 -0.1174
 6788SOL     OW31996   3.526   1.473   8.952 -0.3322 -0.1851 -0.5685
 6788SOL    HW131997   3.581   1.529   9.007 -2.2590  2.0210 -0.8883
 6788SOL    HW231998   3.569   1.480   8.867 -2.3770 -0.8905 -1.6314
 6789SOL     OW31999   2.408   2.889   9.640  0.0013 -0.0048 -0.5719
 6789SOL    HW132000   2.465   2.854   9.572  1.6765 -0.6261  1.1559
 6789SOL    HW232001   2.363   2.956   9.587  0.0847  0.8457  0.4271
 6790SOL     OW32002   4.180   0.301   7.213 -0.1614  0.1589 -0.2314
 6790SOL    HW132003   4.262   0.323   7.168  0.8697  0.8446  1.9688
 6790SOL    HW232004   4.150   0.220   7.172  3.0973  0.0269 -2.3919
 6791SOL     OW32005   2.380   2.542   3.382 -0.3905 -0.2970  0.1560
 6791SOL    HW132006   2.357   2.502   3.298  0.7820 -0.6045 -0.0122
 6791SOL    HW232007   2.365   2.474   3.448 -0.5623 -0.9006 -0.5040
 6792SOL     OW32008   0.486   3.683   8.601 -0.0612 -0.3475  0.0253
 6792SOL    HW132009   0.538   3.724   8.670 -1.0526  0.4565  0.3022
 6792SOL    HW232010   0.471   3.761   8.546  1.7544 -0.5385 -0.7551
 6793SOL     OW32011   3.024   0.380   4.209 -0.1379 -0.4096  0.1301
 6793SOL    HW132012   2.965   0.416   4.143 -1.8689 -0.4226  1.6666
 6793SOL    HW232013   3.046   0.294   4.174 -0.0568 -0.5908  0.6234
 6794SOL     OW32014   1.094   2.959   2.563 -0.2790  0.1347  0.1390
 6794SOL    HW132015   1.099   2.864   2.580 -0.1571  0.1518  0.2009
 6794SOL    HW232016   1.187   2.976   2.549 -0.1458 -1.3947 -0.8561
 6795SOL     OW32017   1.542   1.854   4.176 -0.4488  0.4762  0.5435
 6795SOL    HW132018   1.638   1.855   4.178 -0.4740 -1.9942  3.8960
 6795SOL    HW232019   1.528   1.847   4.082  0.3383 -0.2812  0.4718
 6796SOL     OW32020   1.816   1.922   8.052  0.4864  0.3399  0.0301
 6796SOL    HW132021   1.790   1.833   8.075 -0.2892  1.0192  1.7458
 6796SOL    HW232022   1.844   1.911   7.961 -0.5984  1.0593 -0.4068
 6797SOL     OW32023   4.503   2.402   7.653 -0.3583 -0.6266  0.4090
 6797SOL    HW132024   4.450   2.346   7.595 -1.3256 -1.2459  1.9068
 6797SOL    HW232025   4.468   2.376   7.738  0.9998  1.0439  1.4561
 6798SOL     OW32026   4.497   1.598   7.874  0.2251  0.1874  0.1763
 6798SOL    HW132027   4.446   1.618   7.952  0.0890  1.2513 -0.1910
 6798SOL    HW232028   4.456   1.660   7.813  3.1495 -0.6582 -2.6623
 6799SOL     OW32029   0.222   1.130   6.055 -0.5836 -0.0188 -0.4858
 6799SOL    HW132030   0.304   1.179   6.045 -1.0461  0.7400 -0.5351
 6799SOL    HW232031   0.214   1.076   5.976  2.2261  0.7374 -1.3147
 6800SOL     OW32032   2.333   1.968   7.341  0.7508 -0.0975  0.0965
 6800SOL    HW132033   2.299   2.039   7.287  0.2894  0.1192  0.6716
 6800SOL    HW232034   2.414   2.012   7.367 -0.5702  1.3140  1.8048
 6801SOL     OW32035   1.332   1.080   5.974  0.2686 -0.2396 -0.1589
 6801SOL    HW132036   1.296   1.065   6.062  3.2289 -1.6938  0.8034
 6801SOL    HW232037   1.400   1.013   5.981 -0.0877 -0.7283 -1.4395
 6802SOL     OW32038   2.461   0.106   6.099  0.0274  0.2128  0.4286
 6802SOL    HW132039   2.440   0.013   6.108  0.7688  0.0203  0.1412
 6802SOL    HW232040   2.480   0.128   6.191  2.6907 -1.4448  0.2679
 6803SOL     OW32041   0.701   2.698  11.053  0.7497  0.1728 -0.4273
 6803SOL    HW132042   0.735   2.717  11.140 -1.9336  1.6613  0.3019
 6803SOL    HW232043   0.772   2.717  10.991  0.3905  0.7256 -0.6719
 6804SOL     OW32044   1.886   2.970  10.332 -0.2932 -0.0880  0.1647
 6804SOL    HW132045   1.840   2.974  10.416 -1.2739  0.8724 -0.4207
 6804SOL    HW232046   1.827   2.924  10.272 -0.5833  0.4472  0.0401
 6805SOL     OW32047   4.408   0.906   6.978 -0.2761 -0.0466  0.3199
 6805SOL    HW132048   4.358   0.867   7.050  0.1810  3.2438  2.4115
 6805SOL    HW232049   4.466   0.834   6.955  1.5480  1.7637 -0.7299
 6806SOL     OW32050   3.644   0.622   2.515  0.1123 -0.1969 -0.6383
 6806SOL    HW132051   3.711   0.619   2.447  1.8015 -0.4819  1.0059
 6806SOL    HW232052   3.611   0.707   2.488  1.8438  0.8474  0.4731
 6807SOL     OW32053   1.908   0.510   5.199  0.1535 -0.0125  0.2706
 6807SOL    HW132054   1.867   0.425   5.185 -0.1132 -0.2047  2.1692
 6807SOL    HW232055   1.832   0.568   5.198 -0.1085 -0.3167  1.5303
 6808SOL     OW32056   0.310   4.090  12.962 -0.6668 -0.3060 -0.4446
 6808SOL    HW132057   0.358   4.167  12.993 -1.5581  0.2624 -0.4885
 6808SOL    HW232058   0.313   4.038  13.042  1.2175 -0.0105 -0.3217
 6809SOL     OW32059   3.437   0.088   7.271 -0.0030 -0.0313 -0.0974
 6809SOL    HW132060   3.494   0.011   7.275 -0.0260 -0.0951 -0.9786
 6809SOL    HW232061   3.498   0.141   7.221  0.9195 -1.4537 -0.4976
 6810SOL     OW32062   2.400   0.633   9.413 -0.3698 -0.1170 -0.9355
 6810SOL    HW132063   2.383   0.723   9.440  1.2695 -0.0510 -0.1630
 6810SOL    HW232064   2.467   0.609   9.477  0.5328  0.5293 -1.6411
 6811SOL     OW32065   0.235   0.476  10.636 -0.1165  0.2938  0.2256
 6811SOL    HW132066   0.193   0.562  10.632  0.9963  0.8574  0.7361
 6811SOL    HW232067   0.298   0.482  10.564  0.6533 -1.2841  0.7558
 6812SOL     OW32068   3.656   3.935   8.037  0.2456 -0.1066 -0.3462
 6812SOL    HW132069   3.651   3.994   7.961  0.8472  1.8356  1.1256
 6812SOL    HW232070   3.584   3.873   8.028  0.5021 -0.1205 -2.4170
 6813SOL     OW32071   4.663   3.724   6.097  0.3401  0.0364  0.4519
 6813SOL    HW132072   4.647   3.800   6.154  0.7128  0.5439 -0.1222
 6813SOL    HW232073   4.584   3.728   6.045 -0.2423  0.8016  1.3831
 6814SOL     OW32074   0.728   3.966  16.578  0.0886  0.3832  0.2340
 6814SOL    HW132075   0.731   4.040  16.517 -0.3049  0.2456  0.0513
 6814SOL    HW232076   0.638   3.942  16.560  0.9577 -1.7688 -1.1365
 6815SOL     OW32077   4.423   0.837  16.654  0.0106 -0.1272 -0.1254
 6815SOL    HW132078   4.445   0.767  16.593  1.3578  0.3497 -0.1787
 6815SOL    HW232079   4.348   0.894  16.636 -0.2978 -0.9815 -1.5391
 6816SOL     OW32080   0.558   0.561  14.276  0.0418 -0.2868  0.1852
 6816SOL    HW132081   0.527   0.474  14.303 -2.7539  0.8842  0.7084
 6816SOL    HW232082   0.627   0.523  14.222 -1.0208  0.4608 -1.6692
 6817SOL     OW32083   3.029   1.108  12.894 -0.0173  0.1485  0.3016
 6817SOL    HW132084   2.990   1.120  12.807 -1.5981 -1.4935  0.7812
 6817SOL    HW232085   2.955   1.099  12.953  0.4989 -2.2368  0.6113
 6818SOL     OW32086   3.683   2.463  11.707  0.2155  0.0721 -0.7375
 6818SOL    HW132087   3.642   2.388  11.750  1.4718  0.5360  1.2669
 6818SOL    HW232088   3.632   2.451  11.627  1.4209  0.4683 -1.5632
 6819SOL     OW32089   2.959   3.275   3.779  0.1793  0.3073  0.0813
 6819SOL    HW132090   2.877   3.226   3.787  0.9510 -1.2523 -1.6096
 6819SOL    HW232091   3.030   3.213   3.797 -0.3136 -0.2036  0.2508
 6820SOL     OW32092   1.807   2.999   2.771 -0.0105 -0.1598  0.7547
 6820SOL    HW132093   1.861   2.922   2.784  0.2037 -0.2336 -0.6492
 6820SOL    HW232094   1.796   2.992   2.677  2.8336  0.9648  0.3355
 6821SOL     OW32095   1.531   1.761   8.165  0.3275  0.6669 -0.0211
 6821SOL    HW132096   1.469   1.734   8.098  1.2625  2.5549 -1.6495
 6821SOL    HW232097   1.607   1.708   8.142  0.4803  1.2189 -0.8177
 6822SOL     OW32098   3.534   0.233  10.199 -0.4572  0.3564 -0.5330
 6822SOL    HW132099   3.446   0.207  10.173  0.4514 -0.6443 -2.6069
 6822SOL    HW232100   3.508   0.272  10.282 -0.1025  0.2828 -0.3868
 6823SOL     OW32101   0.546   1.945   9.909 -0.4535  0.3060 -0.0014
 6823SOL    HW132102   0.513   1.970   9.822 -0.6887 -1.4141 -0.4250
 6823SOL    HW232103   0.637   1.973   9.906 -0.2900 -0.1587  0.7887
 6824SOL     OW32104   4.441   0.560   0.462  0.4593 -0.1303 -0.1475
 6824SOL    HW132105   4.444   0.589   0.553 -2.3061 -1.7215  0.4544
 6824SOL    HW232106   4.362   0.507   0.467 -0.1828  1.1206  3.0378
 6825SOL     OW32107   3.309   1.754   4.311 -0.0362 -0.2156 -0.2871
 6825SOL    HW132108   3.353   1.730   4.392 -0.7788 -0.7094 -0.0332
 6825SOL    HW232109   3.233   1.697   4.328 -1.6702  2.5406  1.5534
 6826SOL     OW32110   2.100   3.509   8.357 -0.0141 -0.6699 -0.6781
 6826SOL    HW132111   2.012   3.475   8.343 -0.4989 -0.3155  1.5138
 6826SOL    HW232112   2.118   3.548   8.272  2.1845  0.4891  0.3249
 6827SOL     OW32113   4.192   1.648  12.104 -0.1687  0.0142 -0.3256
 6827SOL    HW132114   4.271   1.604  12.134 -0.1477 -0.8495 -1.6507
 6827SOL    HW232115   4.193   1.621  12.012  2.3687  0.1025 -0.3247
 6828SOL     OW32116   2.502   3.337   5.848 -0.8560  0.3777 -0.1437
 6828SOL    HW132117   2.541   3.271   5.791 -1.5561 -1.0764  1.0409
 6828SOL    HW232118   2.568   3.326   5.916 -1.5810 -1.9031  0.1888
 6829SOL     OW32119   3.086   3.660   2.784 -0.4284  0.0704 -0.7299
 6829SOL    HW132120   3.119   3.748   2.764 -0.3533  0.9241  3.2638
 6829SOL    HW232121   2.997   3.685   2.762 -1.1873 -0.4970  1.7108
 6830SOL     OW32122   4.436   1.961   8.348 -0.5024 -0.5208 -0.2680
 6830SOL    HW132123   4.476   2.009   8.421  1.1388 -1.0842 -0.8033
 6830SOL    HW232124   4.351   2.005   8.344  0.0600  0.4809 -1.0054
 6831SOL     OW32125   1.031   1.732   3.163  0.0339 -0.1344 -0.2746
 6831SOL    HW132126   1.040   1.761   3.254 -2.4409 -0.2092  0.0202
 6831SOL    HW232127   1.115   1.688   3.163  1.0942  1.8932 -0.4000
 6832SOL     OW32128   0.334   3.866   8.083  0.3462 -0.0214  0.1140
 6832SOL    HW132129   0.249   3.847   8.043  0.6815 -1.4326  0.0422
 6832SOL    HW232130   0.392   3.872   8.007  1.1290  0.7634  0.7862
 6833SOL     OW32131   0.849   4.269   5.467  0.4203 -0.5384  0.5552
 6833SOL    HW132132   0.860   4.183   5.507 -2.8633 -0.5291  1.5149
 6833SOL    HW232133   0.926   4.285   5.412  0.2004 -2.2407 -0.2537
 6834SOL     OW32134   2.471   3.782  14.935 -0.1391 -0.2044  0.7311
 6834SOL    HW132135   2.520   3.712  14.978 -0.7639 -1.9662 -1.4088
 6834SOL    HW232136   2.380   3.753  14.942 -0.8923  2.0222 -0.0305
 6835SOL     OW32137   4.595   1.223   2.882 -0.0768  0.0931 -0.3971
 6835SOL    HW132138   4.591   1.308   2.838 -0.4906  1.3905  2.1388
 6835SOL    HW232139   4.528   1.174   2.835  1.2215 -1.7584 -0.3215
 6836SOL     OW32140   1.431   1.065  11.254  0.1945 -0.1231 -0.3419
 6836SOL    HW132141   1.518   1.041  11.285 -0.0023 -2.2900 -1.4270
 6836SOL    HW232142   1.427   1.160  11.257  0.2016 -0.0248 -3.1349
 6837SOL     OW32143   3.044   0.166   8.186  0.3546 -0.5482 -0.0749
 6837SOL    HW132144   3.136   0.179   8.162  0.2143 -1.3039 -1.0372
 6837SOL    HW232145   3.023   0.079   8.153  3.7447 -1.0237 -1.0479
 6838SOL     OW32146   2.947   3.614  11.039 -0.1984  0.2591  0.1375
 6838SOL    HW132147   2.937   3.661  11.122 -0.0886 -0.0109  0.3054
 6838SOL    HW232148   3.039   3.589  11.036  0.1461  1.2756  2.3308
 6839SOL     OW32149   1.697   0.325  17.580 -0.3015 -0.5370  0.0560
 6839SOL    HW132150   1.783   0.366  17.587 -0.7522  0.1709  1.3802
 6839SOL    HW232151   1.717   0.236  17.552  1.4237  0.3464 -1.5232
 6840SOL     OW32152   4.477   0.269   4.371 -0.0249  0.5691  0.5341
 6840SOL    HW132153   4.501   0.189   4.324  1.6938  1.4326 -0.0736
 6840SOL    HW232154   4.474   0.223   4.455  1.2607  0.0344  0.2845
 6841SOL     OW32155   4.021   0.853   7.246  0.1900  0.1164 -0.1868
 6841SOL    HW132156   3.958   0.787   7.217 -0.4244  0.5613  0.1273
 6841SOL    HW232157   4.026   0.905   7.165  1.6485 -0.3836 -0.4083
 6842SOL     OW32158   4.306   3.205   1.859 -0.4046  0.6295 -0.6108
 6842SOL    HW132159   4.393   3.241   1.841  0.0934  0.3129  1.2167
 6842SOL    HW232160   4.298   3.138   1.790  2.3410  1.0921 -1.3780
 6843SOL     OW32161   2.781   0.948  14.276 -0.2581  0.0528  0.0843
 6843SOL    HW132162   2.695   0.972  14.311 -0.7704  2.1029 -2.6391
 6843SOL    HW232163   2.762   0.934  14.184  0.1139 -0.8005  0.1366
 6844SOL     OW32164   1.885   2.267  11.276  0.1530  0.4258  0.0372
 6844SOL    HW132165   1.795   2.238  11.294 -0.2113 -0.6831 -3.5580
 6844SOL    HW232166   1.919   2.270  11.365  1.8828 -2.0875 -0.5263
 6845SOL     OW32167   1.469   4.455  17.096 -0.2554  0.5844  0.1340
 6845SOL    HW132168   1.522   4.424  17.169  1.0531  1.5106 -0.4125
 6845SOL    HW232169   1.459   4.549  17.111 -1.4798  0.3964  0.4945
 6846SOL     OW32170   4.730   0.403   6.793 -0.0220 -0.0145 -0.0485
 6846SOL    HW132171   4.648   0.447   6.771  0.6573  1.0780 -0.4041
 6846SOL    HW232172   4.702   0.373   6.879 -0.5401 -0.1976 -0.2794
 6847SOL     OW32173   2.417   0.150   1.449 -0.7245  0.1960  0.4326
 6847SOL    HW132174   2.510   0.137   1.469 -0.3193  3.3210  0.5427
 6847SOL    HW232175   2.392   0.067   1.407 -1.7341  0.6526  0.1296
 6848SOL     OW32176   3.660   2.429   0.316 -0.6121 -0.1736 -0.2263
 6848SOL    HW132177   3.623   2.341   0.325  0.9783 -0.9407 -1.0820
 6848SOL    HW232178   3.631   2.433   0.225  0.3052  1.0733 -0.4558
 6849SOL     OW32179   3.727   2.587   8.147 -0.4186 -0.4031  0.0694
 6849SOL    HW132180   3.694   2.533   8.075 -0.5440  1.7477 -1.4955
 6849SOL    HW232181   3.652   2.645   8.155  0.8965  0.8801  3.2697
 6850SOL     OW32182   3.555   1.398   3.322 -0.3522  0.3615  0.6682
 6850SOL    HW132183   3.621   1.374   3.387  1.2340 -1.1199 -1.5024
 6850SOL    HW232184   3.523   1.479   3.362  2.8158  2.2266 -0.5879
 6851SOL     OW32185   1.264   4.527   7.675  0.1626  0.3206  0.2323
 6851SOL    HW132186   1.190   4.575   7.639  1.8967  2.3001 -0.7450
 6851SOL    HW232187   1.337   4.567   7.626 -1.4771  1.7332 -1.0526
 6852SOL     OW32188   4.366   0.478   4.750 -0.2442 -0.1992  0.3556
 6852SOL    HW132189   4.367   0.407   4.813 -0.7193 -1.0641 -0.6116
 6852SOL    HW232190   4.438   0.456   4.691  0.4185  1.1063  0.6733
 6853SOL     OW32191   2.244   0.671   7.052  0.1865  0.8194  0.1041
 6853SOL    HW132192   2.329   0.653   7.012  0.4429  0.9485  0.5874
 6853SOL    HW232193   2.281   0.727   7.120  2.0199  0.4414 -0.5985
 6854SOL     OW32194   1.522   3.957   8.086  0.0595 -0.5217 -0.3590
 6854SOL    HW132195   1.587   3.915   8.142 -0.3496 -0.6825 -0.0034
 6854SOL    HW232196   1.448   3.921   8.135  0.1836 -0.0968  0.1347
 6855SOL     OW32197   3.999   3.458   4.195 -0.5290 -0.2129  0.2559
 6855SOL    HW132198   4.057   3.530   4.222  0.0569 -0.8805  0.7840
 6855SOL    HW232199   4.003   3.474   4.101 -0.8097 -0.7270  0.1576
 6856SOL     OW32200   4.482   0.779  17.571 -0.4798  0.0779  0.0737
 6856SOL    HW132201   4.411   0.837  17.545  0.0129  1.5917  2.1055
 6856SOL    HW232202   4.511   0.748  17.485 -1.4986 -1.9683  0.4601
 6857SOL     OW32203   3.960   3.606  12.412 -0.0421 -0.4211 -0.1482
 6857SOL    HW132204   3.888   3.626  12.471 -0.8498  2.5568 -2.1246
 6857SOL    HW232205   4.000   3.534  12.460  2.6081  0.9355 -0.2705
 6858SOL     OW32206   3.715   1.606   6.053 -0.3723 -0.1649 -0.1905
 6858SOL    HW132207   3.648   1.539   6.039 -0.6559 -0.1300  1.0329
 6858SOL    HW232208   3.685   1.663   6.124 -0.3095 -0.6295  0.2062
 6859SOL     OW32209   1.242   2.047   4.585  0.0467 -0.1576 -0.1530
 6859SOL    HW132210   1.206   1.959   4.574  0.6483 -0.5427  0.9387
 6859SOL    HW232211   1.301   2.034   4.511 -0.6862 -0.8448 -0.6194
 6860SOL     OW32212   2.240   2.592   8.772  0.2650  0.5385 -0.5762
 6860SOL    HW132213   2.331   2.562   8.777  0.2242  0.5665  0.3320
 6860SOL    HW232214   2.252   2.682   8.743 -1.0875  0.7208 -0.5737
 6861SOL     OW32215   3.628   3.261   4.222 -0.0667 -0.3569  0.6362
 6861SOL    HW132216   3.594   3.291   4.138  1.2671 -0.8233 -0.0647
 6861SOL    HW232217   3.561   3.197   4.247 -0.5219 -0.4416 -0.8141
 6862SOL     OW32218   1.007   4.353  13.679  0.3401 -0.2504 -0.2253
 6862SOL    HW132219   1.086   4.361  13.627  0.1690 -1.0725 -0.6092
 6862SOL    HW232220   0.976   4.266  13.657  2.1289 -1.3815  1.7334
 6863SOL     OW32221   3.358   3.681  15.328 -0.1596 -0.7404  0.2957
 6863SOL    HW132222   3.433   3.721  15.371  0.9452 -3.8021  1.2058
 6863SOL    HW232223   3.355   3.727  15.245 -0.1752  1.5525  1.5648
 6864SOL     OW32224   0.944   2.169   4.242  0.4373  0.5696 -0.2451
 6864SOL    HW132225   0.988   2.217   4.172  1.1594  2.9269  1.8243
 6864SOL    HW232226   0.865   2.223   4.248  0.2379  0.1889  0.4989
 6865SOL     OW32227   2.144   3.243  11.861  0.3864 -0.1623 -0.2520
 6865SOL    HW132228   2.163   3.337  11.859  0.5327 -0.1263  3.5608
 6865SOL    HW232229   2.175   3.210  11.776 -3.2252 -2.8021 -0.5570
 6866SOL     OW32230   1.021   0.170   5.218  0.2266 -0.1760  0.4360
 6866SOL    HW132231   1.029   0.167   5.123  0.9820  0.3292  0.4835
 6866SOL    HW232232   0.953   0.237   5.229  0.1029 -0.2462  0.0859
 6867SOL     OW32233   2.780   1.207   8.623  0.1070  0.1677  0.6079
 6867SOL    HW132234   2.689   1.201   8.653 -0.1807  0.5464 -0.2137
 6867SOL    HW232235   2.818   1.260   8.693  1.5501 -0.4798  0.3165
 6868SOL     OW32236   2.809   2.057   5.639  0.0987  0.2233 -0.5611
 6868SOL    HW132237   2.877   2.003   5.680 -1.6176  0.0264  2.0572
 6868SOL    HW232238   2.750   2.043   5.713 -1.0700 -1.4641 -1.8299
 6869SOL     OW32239   1.141   3.457   5.387  0.1358 -0.1982 -0.3643
 6869SOL    HW132240   1.145   3.427   5.478  3.1695  1.9646  0.2090
 6869SOL    HW232241   1.232   3.438   5.366  0.8237  1.1047  1.5320
 6870SOL     OW32242   2.866   3.411   3.543 -0.4545  0.0988 -0.1155
 6870SOL    HW132243   2.892   3.344   3.606  2.0269  1.8788  0.8037
 6870SOL    HW232244   2.941   3.410   3.483  2.2127  1.8225  3.1572
 6871SOL     OW32245   3.246   0.615   5.640  0.1209 -0.1097  0.5490
 6871SOL    HW132246   3.239   0.602   5.546  2.2900  0.2719  0.3542
 6871SOL    HW232247   3.297   0.695   5.648 -0.8193  0.4145  1.3692
 6872SOL     OW32248   4.381   0.220  12.492  0.3272 -0.2436 -0.7653
 6872SOL    HW132249   4.349   0.181  12.411 -0.1332 -2.0943  0.3037
 6872SOL    HW232250   4.388   0.312  12.468  1.5825  0.1862  1.1559
 6873SOL     OW32251   3.636   2.569   6.670 -0.7462 -0.0113  0.1102
 6873SOL    HW132252   3.564   2.579   6.732  0.9048  1.4756  1.7789
 6873SOL    HW232253   3.660   2.477   6.676  0.6390  0.1154 -3.1875
 6874SOL     OW32254   1.881   3.002  13.133  0.7220  0.0094  0.0560
 6874SOL    HW132255   1.876   2.954  13.050 -1.3390  0.8598 -0.3064
 6874SOL    HW232256   1.846   3.089  13.113  0.5266 -0.2894 -0.9436
 6875SOL     OW32257   2.473   1.096   3.470 -0.3101  0.3681  0.8075
 6875SOL    HW132258   2.527   1.083   3.548  1.7306  1.2182 -0.4583
 6875SOL    HW232259   2.552   1.129   3.426  0.7790 -3.1550  0.0916
 6876SOL     OW32260   3.271   2.713   9.460 -0.1268  0.0109 -0.2063
 6876SOL    HW132261   3.248   2.752   9.545  0.1326  0.9875 -0.5852
 6876SOL    HW232262   3.243   2.622   9.471 -1.1406  0.2886 -0.5481
 6877SOL     OW32263   2.142   0.542   3.266  0.2231 -0.1590 -0.0763
 6877SOL    HW132264   2.220   0.494   3.236  1.0024 -0.4305  2.4142
 6877SOL    HW232265   2.156   0.622   3.216 -3.2620  0.4027 -0.1297
 6878SOL     OW32266   1.894   1.382   6.288  0.0540 -0.1918 -0.5607
 6878SOL    HW132267   1.815   1.338   6.320  0.8509 -1.7013 -0.6556
 6878SOL    HW232268   1.962   1.332   6.334 -0.4548 -0.8010 -0.4662
 6879SOL     OW32269   1.310   2.406  13.289 -0.2882 -0.1587  0.2589
 6879SOL    HW132270   1.215   2.414  13.304 -0.0166  2.4905  0.4283
 6879SOL    HW232271   1.330   2.470  13.220 -1.8520 -0.6914 -0.6951
 6880SOL     OW32272   0.434   2.023   5.788 -0.3178 -0.1084  0.3350
 6880SOL    HW132273   0.520   2.059   5.812  0.1342 -1.2159  0.4128
 6880SOL    HW232274   0.405   1.993   5.874  1.9472  1.5804  1.6900
 6881SOL     OW32275   1.216   4.484   9.446  0.1874 -0.7171 -0.2725
 6881SOL    HW132276   1.171   4.405   9.476  2.1502 -1.5137  0.5514
 6881SOL    HW232277   1.302   4.463   9.483  0.6729 -0.4022 -1.2281
 6882SOL     OW32278   3.405   3.723   5.922 -0.9762 -0.0330  0.0987
 6882SOL    HW132279   3.423   3.658   5.990  1.6348  2.4556  1.7903
 6882SOL    HW232280   3.414   3.812   5.957 -1.2480  0.0801 -0.1197
 6883SOL     OW32281   1.750   0.346   1.724  0.2493  0.1863  0.2163
 6883SOL    HW132282   1.844   0.361   1.730 -0.0688  1.6552  1.4689
 6883SOL    HW232283   1.752   0.257   1.687 -0.2421  0.2041  0.1419
 6884SOL     OW32284   0.973   3.888   2.267 -0.1288  1.0043 -0.4013
 6884SOL    HW132285   0.922   3.808   2.255 -1.0552  1.7542 -1.5540
 6884SOL    HW232286   0.906   3.956   2.276  0.0945  1.2494 -0.5737
 6885SOL     OW32287   3.770   1.212   6.381  0.7015  0.4650  0.9325
 6885SOL    HW132288   3.759   1.175   6.469 -0.4608 -0.4920  0.3818
 6885SOL    HW232289   3.741   1.135   6.332 -0.3466  1.0941  0.5725
 6886SOL     OW32290   3.496   0.142   3.232  0.3179 -0.3702  0.0541
 6886SOL    HW132291   3.552   0.210   3.268 -1.0801 -0.0520  1.5938
 6886SOL    HW232292   3.469   0.101   3.314  0.1526 -0.2858  0.0416
 6887SOL     OW32293   1.712   4.634   5.000 -0.2809  0.5849  0.3779
 6887SOL    HW132294   1.723   4.729   5.004  3.2501  0.2289 -0.4542
 6887SOL    HW232295   1.724   4.617   4.907  1.3946  1.4766  0.4450
 6888SOL     OW32296   4.566   4.411   6.984  0.5125  0.1073  0.2833
 6888SOL    HW132297   4.581   4.461   7.064  1.3998  0.3223 -0.0227
 6888SOL    HW232298   4.638   4.350   6.997  0.6181  0.2960  0.5712
 6889SOL     OW32299   4.197   1.719   5.517  0.1029  0.9698  0.0751
 6889SOL    HW132300   4.176   1.665   5.593 -0.7344  0.5542 -0.4459
 6889SOL    HW232301   4.180   1.802   5.561 -1.7564  0.9052 -0.5242
 6890SOL     OW32302   4.440   2.843   7.833  0.4432 -0.4289  0.5360
 6890SOL    HW132303   4.471   2.904   7.766  0.1336 -0.0532  0.7355
 6890SOL    HW232304   4.524   2.807   7.863  1.4130  1.0690 -0.4172
 6891SOL     OW32305   0.527   3.415   9.832 -0.1615  0.3353  0.2237
 6891SOL    HW132306   0.537   3.503   9.868  0.7941 -0.2988  1.5534
 6891SOL    HW232307   0.484   3.437   9.750 -0.3574  0.7400  0.4352
 6892SOL     OW32308   0.524   2.261   3.037 -0.2041  0.9897  0.1578
 6892SOL    HW132309   0.448   2.214   3.071  0.3151 -0.5018 -0.7439
 6892SOL    HW232310   0.575   2.185   3.010  0.4540  0.7755  2.0345
 6893SOL     OW32311   2.317   2.582  13.122  0.1640  0.1124 -0.5150
 6893SOL    HW132312   2.355   2.670  13.126 -0.6257  0.4943 -1.4266
 6893SOL    HW232313   2.398   2.530  13.122 -0.8791 -1.5127  0.8196
 6894SOL     OW32314   0.519   4.611   6.667 -0.6499 -0.0902  0.0070
 6894SOL    HW132315   0.510   4.596   6.761  1.9868 -0.0364  0.2742
 6894SOL    HW232316   0.434   4.648   6.642 -0.3992 -0.0693 -0.8178
 6895SOL     OW32317   0.419   2.300  13.403 -0.3023  0.1263  0.0255
 6895SOL    HW132318   0.383   2.215  13.379 -1.5427  1.3556 -2.4293
 6895SOL    HW232319   0.509   2.272  13.420 -0.3439  0.2336  0.4131
 6896SOL     OW32320   3.277   0.283   5.833  0.1360 -0.0225  0.5091
 6896SOL    HW132321   3.315   0.261   5.748  0.6725 -1.3327  1.1075
 6896SOL    HW232322   3.240   0.198   5.854 -0.6822  0.8017  2.3659
 6897SOL     OW32323   0.594   1.328   2.300  0.0259 -0.4957  0.2325
 6897SOL    HW132324   0.643   1.266   2.353 -0.0528 -0.2005  0.6527
 6897SOL    HW232325   0.505   1.294   2.310  0.1959 -1.2744 -0.8964
 6898SOL     OW32326   3.384   2.399   7.198 -0.1184  0.2974 -0.7909
 6898SOL    HW132327   3.468   2.361   7.173 -0.2336 -0.6665  0.2918
 6898SOL    HW232328   3.329   2.392   7.120 -1.1431 -0.1078 -0.0249
 6899SOL     OW32329   3.124   3.947   4.429  0.0897  0.2228  0.3805
 6899SOL    HW132330   3.201   3.891   4.443 -1.0014 -1.2500  0.5109
 6899SOL    HW232331   3.089   3.954   4.517 -1.0782  0.5165 -0.1010
 6900SOL     OW32332   0.844   4.269   0.988 -0.6799  0.1475 -0.2441
 6900SOL    HW132333   0.885   4.206   1.048 -0.6139  0.0249 -0.4205
 6900SOL    HW232334   0.921   4.305   0.944 -1.9627  2.0714 -0.9378
 6901SOL     OW32335   0.096   4.152   7.426 -0.1834 -0.3487 -0.0976
 6901SOL    HW132336   0.027   4.092   7.397  0.1322  0.3020 -2.1583
 6901SOL    HW232337   0.090   4.119   7.516 -0.6839 -0.8586 -0.3173
 6902SOL     OW32338   1.910   1.075   2.791 -0.1346 -0.0317 -0.4991
 6902SOL    HW132339   1.829   1.123   2.805  0.6546  1.1301  0.1699
 6902SOL    HW232340   1.898   1.040   2.703  1.9889 -1.8091 -0.1112
 6903SOL     OW32341   2.588   0.909   4.755  0.6853 -0.1986 -0.0966
 6903SOL    HW132342   2.617   0.822   4.727  1.6403  0.1100 -0.0538
 6903SOL    HW232343   2.637   0.969   4.699 -0.5151  1.6415  0.8277
 6904SOL     OW32344   4.319   0.456   3.443  0.1319  0.0355  0.3722
 6904SOL    HW132345   4.260   0.525   3.473 -0.8562 -0.0007 -1.5034
 6904SOL    HW232346   4.335   0.407   3.524  1.1388 -0.9431 -0.4200
 6905SOL     OW32347   2.695   1.293   2.089 -0.1375  0.4020 -0.2220
 6905SOL    HW132348   2.643   1.272   2.167  1.6665  3.3474  1.7605
 6905SOL    HW232349   2.626   1.312   2.026  0.4393 -2.2775 -1.6413
 6906SOL     OW32350   4.521   0.177  14.772  0.3928  0.6030 -0.3536
 6906SOL    HW132351   4.540   0.180  14.866  0.5897  1.0216 -0.4077
 6906SOL    HW232352   4.604   0.188  14.727 -0.0592  0.6506 -1.1711
 6907SOL     OW32353   2.998   3.611   1.712  0.3191  0.1367  0.3395
 6907SOL    HW132354   3.083   3.597   1.672  0.2400 -0.5358  0.4208
 6907SOL    HW232355   2.965   3.527   1.743  0.0692 -0.2103 -0.8701
 6908SOL     OW32356   2.919   3.781   4.918 -0.1798  0.1683 -0.1289
 6908SOL    HW132357   2.879   3.839   4.982  2.0747  1.2073  0.3423
 6908SOL    HW232358   2.931   3.695   4.958  2.3141  0.8794  0.6687
 6909SOL     OW32359   1.168   0.687   1.753  0.1696  0.1393 -0.2893
 6909SOL    HW132360   1.149   0.597   1.780 -0.2601  0.3526  0.1078
 6909SOL    HW232361   1.256   0.668   1.722  0.3083 -0.8311  0.6862
 6910SOL     OW32362   3.150   0.423   8.084  0.4882 -0.0005 -0.1746
 6910SOL    HW132363   3.066   0.377   8.083 -0.4773  1.7468 -0.1112
 6910SOL    HW232364   3.210   0.362   8.042 -0.6851 -1.2052 -0.0981
 6911SOL     OW32365   2.975   4.470  17.268  0.0499  0.6629  0.1339
 6911SOL    HW132366   2.881   4.456  17.257  0.4869 -1.6621 -0.5598
 6911SOL    HW232367   2.974   4.458  17.363 -0.8302  1.2432  0.1905
 6912SOL     OW32368   2.828   2.023   7.174  0.0071 -0.5046  0.2326
 6912SOL    HW132369   2.866   2.107   7.198  0.2735 -0.1478 -1.4646
 6912SOL    HW232370   2.887   1.999   7.103  2.0829 -0.4241  1.9364
 6913SOL     OW32371   4.382   0.540   5.390  0.1231 -0.7575  0.1673
 6913SOL    HW132372   4.372   0.635   5.398 -2.1543 -0.8497 -1.6077
 6913SOL    HW232373   4.444   0.536   5.317  2.3156 -2.6113  2.1616
 6914SOL     OW32374   4.441   2.555   0.940  0.0882  0.7224 -0.2114
 6914SOL    HW132375   4.507   2.538   0.873  0.1479 -2.2016  0.5971
 6914SOL    HW232376   4.367   2.602   0.900  1.0706  2.0572 -0.4419
 6915SOL     OW32377   0.324   0.749  10.986 -0.1685 -0.0551  0.4434
 6915SOL    HW132378   0.311   0.693  11.063 -3.2583 -2.1188 -1.5690
 6915SOL    HW232379   0.237   0.742  10.946  1.2197 -4.9498 -1.6779
 6916SOL     OW32380   4.273   3.735   9.700  0.0786 -0.0490 -0.1293
 6916SOL    HW132381   4.298   3.646   9.724  2.1049  0.4727 -0.3479
 6916SOL    HW232382   4.292   3.783   9.780  0.1829 -2.0487  1.0473
 6917SOL     OW32383   1.428   2.866  11.915 -0.8859  0.5934 -0.4772
 6917SOL    HW132384   1.505   2.817  11.943 -1.6636 -0.4201 -0.1045
 6917SOL    HW232385   1.383   2.798  11.866  0.1590 -1.4202  1.3680
 6918SOL     OW32386   4.618   1.469  12.984  0.8857  0.0419 -0.1297
 6918SOL    HW132387   4.688   1.465  13.049  0.4615  0.3076  0.3423
 6918SOL    HW232388   4.569   1.391  13.009  1.6427 -0.7979 -1.3054
 6919SOL     OW32389   3.718   2.557   7.577  0.3201  0.1567 -0.2365
 6919SOL    HW132390   3.739   2.537   7.486 -2.1629 -1.3660 -0.4803
 6919SOL    HW232391   3.711   2.652   7.572  1.0437  0.2718  0.9321
 6920SOL     OW32392   1.311   2.837  12.230 -0.0300 -0.2764  0.1328
 6920SOL    HW132393   1.259   2.836  12.149 -3.0984 -1.1547  2.1218
 6920SOL    HW232394   1.259   2.769  12.272  0.3971 -1.0748 -0.6203
 6921SOL     OW32395   1.924   0.808   2.889 -0.0193 -0.3979  0.6751
 6921SOL    HW132396   1.878   0.766   2.816  0.3032  0.6389 -0.1112
 6921SOL    HW232397   1.917   0.900   2.863 -0.7220 -0.4413  0.7077
 6922SOL     OW32398   4.131   2.863   1.038  0.3812  0.3557 -0.1930
 6922SOL    HW132399   4.053   2.855   1.093  1.9994 -3.2292  1.6138
 6922SOL    HW232400   4.115   2.822   0.954 -0.2137 -0.3532  0.2658
 6923SOL     OW32401   1.363   0.500   8.034  0.6210 -0.5768 -0.1823
 6923SOL    HW132402   1.336   0.589   8.054 -0.1940 -1.1139  1.0822
 6923SOL    HW232403   1.334   0.493   7.943  2.1567 -1.3271 -0.6194
 6924SOL     OW32404   2.447   3.796  12.035 -0.0539  0.5597  0.6514
 6924SOL    HW132405   2.442   3.701  12.024 -2.0697  0.7918 -0.4288
 6924SOL    HW232406   2.542   3.809  12.033 -0.2585  2.0367  0.2790
 6925SOL     OW32407   0.102   2.944   6.809  0.1356  0.4464 -0.2734
 6925SOL    HW132408   0.075   3.032   6.833 -1.3453  0.2695 -1.2477
 6925SOL    HW232409   0.146   2.961   6.725  2.9036  1.8254  1.4478
 6926SOL     OW32410   2.531   1.859   3.251  0.2955  0.1672 -0.1802
 6926SOL    HW132411   2.577   1.935   3.288  1.0968 -0.4854  0.1764
 6926SOL    HW232412   2.509   1.817   3.334 -3.1885  2.0005 -0.1573
 6927SOL     OW32413   2.490   0.179   7.453  0.0637 -0.3243  0.8656
 6927SOL    HW132414   2.455   0.185   7.364 -0.6913  0.0089  1.1806
 6927SOL    HW232415   2.578   0.148   7.433  0.4591  1.5505 -0.3945
 6928SOL     OW32416   1.347   4.310  16.135  0.4813 -0.6060 -0.2262
 6928SOL    HW132417   1.379   4.231  16.179 -2.5939 -3.1207 -2.5232
 6928SOL    HW232418   1.261   4.287  16.100  0.4246  1.2089 -1.2931
 6929SOL     OW32419   3.871   4.436  12.073 -0.3580 -0.2616  0.4070
 6929SOL    HW132420   3.961   4.464  12.091 -0.2657  0.3393 -1.0272
 6929SOL    HW232421   3.880   4.355  12.022  2.3510  0.4421 -0.1987
 6930SOL     OW32422   0.396   0.965   2.417  0.8055  0.0133 -0.6816
 6930SOL    HW132423   0.305   0.947   2.395  0.7063 -1.8346  1.2483
 6930SOL    HW232424   0.398   1.057   2.392 -1.5800  0.0242 -0.7529
 6931SOL     OW32425   3.078   2.674   6.491 -0.2515  0.6702 -0.6579
 6931SOL    HW132426   3.075   2.634   6.578 -2.3479  1.6294 -0.2934
 6931SOL    HW232427   3.165   2.713   6.483 -0.4910  1.0327 -1.4715
 6932SOL     OW32428   1.754   1.737   6.805  0.7472  0.1633 -0.5854
 6932SOL    HW132429   1.804   1.793   6.745 -0.0188 -2.3048 -3.5664
 6932SOL    HW232430   1.790   1.766   6.889 -0.1766 -0.8266  0.1475
 6933SOL     OW32431   4.599   0.310   0.408 -0.0771  0.2659 -0.7964
 6933SOL    HW132432   4.685   0.350   0.401  0.0934  0.1449  0.5743
 6933SOL    HW232433   4.541   0.385   0.422 -0.8092  0.0498 -2.6122
 6934SOL     OW32434   3.355   3.259  14.440  0.1269 -0.8398  0.1136
 6934SOL    HW132435   3.325   3.222  14.358  0.1750 -0.0873 -0.2413
 6934SOL    HW232436   3.284   3.315  14.472  1.3574  0.2687  0.9147
 6935SOL     OW32437   4.585   1.156   3.808  0.5336 -0.5280  0.2244
 6935SOL    HW132438   4.643   1.108   3.749  2.5972  1.0891  0.9281
 6935SOL    HW232439   4.586   1.093   3.879 -3.8280 -1.0701 -0.2017
 6936SOL     OW32440   1.988   2.896   2.051  0.1773 -0.2092 -0.2666
 6936SOL    HW132441   2.010   2.892   1.958  0.7204 -1.5885 -0.0808
 6936SOL    HW232442   1.993   2.803   2.074  2.0650 -0.4815 -1.8349
 6937SOL     OW32443   2.674   3.611   4.495 -0.3648 -0.0387 -0.1276
 6937SOL    HW132444   2.601   3.663   4.528 -0.1426  0.9119 -1.1553
 6937SOL    HW232445   2.652   3.598   4.403  0.8000 -1.0489 -0.2755
 6938SOL     OW32446   2.557   2.748   8.791  0.3321 -0.0598 -0.0685
 6938SOL    HW132447   2.487   2.787   8.737 -0.2191 -0.2651  0.4959
 6938SOL    HW232448   2.532   2.656   8.803 -2.6035  0.4298 -2.2490
 6939SOL     OW32449   1.783   0.251   8.712 -0.4417  0.4437  0.0609
 6939SOL    HW132450   1.861   0.270   8.659  0.2763 -1.1820  0.5552
 6939SOL    HW232451   1.761   0.160   8.692  0.4114  0.2533  0.0148
 6940SOL     OW32452   1.161   3.644   4.732  0.0637 -0.0155  0.5776
 6940SOL    HW132453   1.109   3.582   4.681  2.6100 -1.4457 -0.2847
 6940SOL    HW232454   1.138   3.729   4.696  1.8768  0.1029 -0.2890
 6941SOL     OW32455   3.686   3.684   1.983  0.1201 -0.9586  0.3079
 6941SOL    HW132456   3.660   3.701   2.073 -2.1873 -1.6201 -0.2347
 6941SOL    HW232457   3.732   3.601   1.986  0.4046 -0.7907  0.5778
 6942SOL     OW32458   2.363   0.811   7.264  0.1305 -0.3007 -0.0800
 6942SOL    HW132459   2.419   0.780   7.335  1.8499  1.7091 -0.5820
 6942SOL    HW232460   2.399   0.899   7.262 -1.6307  0.4245  0.1437
 6943SOL     OW32461   3.803   0.243   9.198 -0.2340 -0.1052  0.1489
 6943SOL    HW132462   3.884   0.208   9.160 -0.5337 -1.7194  0.9754
 6943SOL    HW232463   3.745   0.252   9.122 -1.6568  0.0566  1.2506
 6944SOL     OW32464   2.685   4.313   4.824  0.0125 -0.5793 -0.5336
 6944SOL    HW132465   2.603   4.357   4.798 -0.3927 -0.1273  1.5248
 6944SOL    HW232466   2.737   4.388   4.795 -0.1760  0.2204  1.2273
 6945SOL     OW32467   2.196   4.010  12.902  0.0385  0.0358  0.7647
 6945SOL    HW132468   2.249   4.081  12.866 -3.1368  1.4572 -1.0988
 6945SOL    HW232469   2.145   3.988  12.824  1.5118  2.4222 -0.8698
 6946SOL     OW32470   0.284   0.239   4.522 -0.5566 -0.1713 -0.7123
 6946SOL    HW132471   0.307   0.148   4.539 -1.2952 -0.1097  0.6653
 6946SOL    HW232472   0.259   0.253   4.431 -2.5697  0.3093 -0.0900
 6947SOL     OW32473   0.124   3.918   2.927  0.3914 -0.1561 -0.2763
 6947SOL    HW132474   0.147   3.884   3.014 -1.1214  3.0721  1.3788
 6947SOL    HW232475   0.149   4.010   2.921  2.5055 -0.5530  2.3460
 6948SOL     OW32476   0.632   1.130  10.761  0.6346 -0.2385  0.0776
 6948SOL    HW132477   0.583   1.211  10.748 -2.4103 -2.1859 -0.6614
 6948SOL    HW232478   0.559   1.081  10.799  0.6718  1.3043  2.1370
 6949SOL     OW32479   3.944   0.751   4.086  0.2845  0.2825 -0.7564
 6949SOL    HW132480   3.951   0.665   4.044 -0.6140 -0.2368  0.1806
 6949SOL    HW232481   4.032   0.789   4.086 -0.3657  1.8025  0.3564
 6950SOL     OW32482   1.622   0.409   4.827 -0.3499  0.2418  0.2055
 6950SOL    HW132483   1.611   0.466   4.751  0.3135 -0.5624 -0.4780
 6950SOL    HW232484   1.634   0.328   4.779  4.3244  0.2741  1.3548
 6951SOL     OW32485   2.749   3.662   9.293 -0.3550  0.0868  0.2069
 6951SOL    HW132486   2.750   3.700   9.381 -0.0936  0.1006  0.1953
 6951SOL    HW232487   2.655   3.666   9.274  0.0420 -0.6425 -1.9041
 6952SOL     OW32488   1.221   0.120   8.355 -0.0566 -0.3360 -0.3277
 6952SOL    HW132489   1.163   0.044   8.353 -0.6456  0.1224 -0.5535
 6952SOL    HW232490   1.171   0.177   8.296  0.7372 -0.4678 -1.1374
 6953SOL     OW32491   3.744   4.620   2.804  0.6353  0.0623 -0.1753
 6953SOL    HW132492   3.817   4.566   2.835  1.8306  1.3553 -0.7218
 6953SOL    HW232493   3.730   4.678   2.879 -0.9516 -0.7221  0.1234
 6954SOL     OW32494   3.456   2.529   3.335 -0.4019  0.0305  0.7547
 6954SOL    HW132495   3.391   2.459   3.331  1.1842 -1.3738 -0.4367
 6954SOL    HW232496   3.531   2.470   3.339  1.0032  1.8459  1.2872
 6955SOL     OW32497   1.819   1.939   5.641 -0.4926 -0.2318 -0.3052
 6955SOL    HW132498   1.816   1.849   5.673 -1.3332  0.2055  0.8502
 6955SOL    HW232499   1.797   1.986   5.721 -0.2072 -2.1283  0.8743
 6956SOL     OW32500   2.942   3.851   8.953 -0.1271  0.2128 -0.0769
 6956SOL    HW132501   3.014   3.825   8.895  1.5596  1.6082  1.3460
 6956SOL    HW232502   2.962   3.802   9.033 -2.0891  0.8775  0.8133
 6957SOL     OW32503   0.393   1.210  14.145 -0.9066 -0.3098  0.5548
 6957SOL    HW132504   0.424   1.296  14.114 -2.3451  0.0174  0.0573
 6957SOL    HW232505   0.354   1.180  14.064 -1.6236 -2.4596  1.7180
 6958SOL     OW32506   3.680   2.883   8.241 -0.2549  0.0584 -0.2607
 6958SOL    HW132507   3.615   2.926   8.185 -0.0190 -1.0168 -1.3700
 6958SOL    HW232508   3.636   2.871   8.325 -1.4905  2.6681 -0.5443
 6959SOL     OW32509   4.364   2.708   8.506  0.1853 -0.3315  0.4763
 6959SOL    HW132510   4.383   2.787   8.457  3.3204  0.3987  2.9149
 6959SOL    HW232511   4.322   2.647   8.445 -0.2030  2.0038 -1.5646
 6960SOL     OW32512   0.362   0.279   4.179  0.0807 -0.2499 -1.2023
 6960SOL    HW132513   0.342   0.364   4.140 -0.2665 -0.9497 -2.5476
 6960SOL    HW232514   0.382   0.229   4.100  0.9406 -1.2427 -0.3578
 6961SOL     OW32515   4.376   0.180   0.316  0.0234 -0.3401 -0.0861
 6961SOL    HW132516   4.469   0.201   0.326 -0.0964  1.3234 -2.3962
 6961SOL    HW232517   4.355   0.166   0.408 -0.3480 -1.2930 -0.3174
 6962SOL     OW32518   1.899   0.150   3.657  0.2276 -0.1445  0.4104
 6962SOL    HW132519   1.915   0.197   3.739 -0.7628  0.5688  0.2006
 6962SOL    HW232520   1.858   0.225   3.613 -2.0843 -0.5900  1.8520
 6963SOL     OW32521   0.279   4.354   3.454  0.5221 -0.9199  0.4582
 6963SOL    HW132522   0.322   4.268   3.446  2.3725 -0.2340  2.8641
 6963SOL    HW232523   0.293   4.390   3.367  1.4357 -0.3813  0.8277
 6964SOL     OW32524   3.527   1.110   1.929  0.8959  0.1757  0.1852
 6964SOL    HW132525   3.618   1.127   1.905  1.7983 -1.3655  2.5252
 6964SOL    HW232526   3.484   1.105   1.844 -0.2352 -0.2004  0.7855
 6965SOL     OW32527   4.031   0.827   4.920 -0.2033  0.2216 -0.0670
 6965SOL    HW132528   4.075   0.907   4.949  1.1289 -1.3778  2.2257
 6965SOL    HW232529   4.078   0.830   4.837 -0.5352  2.4760 -0.2005
 6966SOL     OW32530   1.311   3.833   3.233 -0.0857  0.1828  0.0129
 6966SOL    HW132531   1.257   3.888   3.176 -0.1441  1.1316  0.9945
 6966SOL    HW232532   1.268   3.751   3.210  0.2138 -0.1219  0.5604
 6967SOL     OW32533   0.358   3.560   5.041 -0.3115  0.1402  0.0810
 6967SOL    HW132534   0.313   3.613   5.107  0.4990 -0.6643  1.3007
 6967SOL    HW232535   0.435   3.616   5.027  0.7738 -1.0888  1.0449
 6968SOL     OW32536   4.595   3.611  13.032  0.1346 -0.0841  0.3997
 6968SOL    HW132537   4.665   3.630  13.094 -1.4146  1.7241  1.5983
 6968SOL    HW232538   4.559   3.698  13.016 -0.8313 -0.5333  0.1310
 6969SOL     OW32539   1.621   3.553   8.621 -0.0949  0.0473  0.1506
 6969SOL    HW132540   1.574   3.481   8.663  1.5921 -0.7864  0.6216
 6969SOL    HW232541   1.564   3.596   8.557  1.0353  2.2639  0.6509
 6970SOL     OW32542   2.742   0.125   9.120  0.3025  0.3021 -0.2001
 6970SOL    HW132543   2.703   0.125   9.207 -2.1546  2.6267 -1.2759
 6970SOL    HW232544   2.737   0.032   9.100  0.3296  0.0848  0.8148
 6971SOL     OW32545   3.349   1.198   2.173  0.0021 -0.2957  0.5555
 6971SOL    HW132546   3.324   1.288   2.152 -0.7270 -0.4453  0.8088
 6971SOL    HW232547   3.321   1.159   2.090  0.8734 -0.8894  0.5405
 6972SOL     OW32548   1.605   1.446   4.955 -1.0721 -0.1919  0.3072
 6972SOL    HW132549   1.678   1.431   5.015  1.5510 -0.1873 -2.8196
 6972SOL    HW232550   1.654   1.498   4.890  0.1620 -0.6838  0.8445
 6973SOL     OW32551   3.722   1.221  12.779  0.2153  0.8780 -0.0997
 6973SOL    HW132552   3.658   1.208  12.849 -1.6311 -1.8652 -2.3002
 6973SOL    HW232553   3.676   1.287  12.726 -2.6317  0.2734  1.6099
 6974SOL     OW32554   1.050   0.375   7.882  0.2025 -0.3625  0.4761
 6974SOL    HW132555   1.105   0.452   7.875 -0.3669  0.1024  1.0908
 6974SOL    HW232556   0.969   0.420   7.855 -0.0848 -1.1008  0.0769
 6975SOL     OW32557   1.502   2.708  12.644  0.1479  0.2289  0.4737
 6975SOL    HW132558   1.526   2.712  12.736  0.4402  0.2306  0.3994
 6975SOL    HW232559   1.422   2.759  12.654  0.6485  1.7629 -3.1756
 6976SOL     OW32560   1.638   0.957   3.283 -0.3945  0.2968 -0.0288
 6976SOL    HW132561   1.675   0.897   3.219  2.2217  0.0463  1.7229
 6976SOL    HW232562   1.554   0.978   3.242 -0.9609 -1.0344  0.4611
 6977SOL     OW32563   1.357   2.564   1.407 -0.4480  0.1405  0.4712
 6977SOL    HW132564   1.417   2.497   1.438  1.4689  0.7713 -1.9277
 6977SOL    HW232565   1.330   2.539   1.318  0.6453  1.9448 -0.3624
 6978SOL     OW32566   1.884   3.949   8.782 -0.2886  0.0061 -0.1192
 6978SOL    HW132567   1.870   3.880   8.718  4.1547  1.1867 -2.3522
 6978SOL    HW232568   1.794   3.958   8.815 -0.4795 -1.2753 -0.2751
 6979SOL     OW32569   0.086   2.586   9.336 -0.0701  0.2640 -0.4550
 6979SOL    HW132570   0.008   2.547   9.375  0.8844 -1.1061  0.1035
 6979SOL    HW232571   0.087   2.675   9.370 -3.2927  0.7410 -1.6827
 6980SOL     OW32572   0.586   4.584   9.648  0.1185  0.2237 -0.2589
 6980SOL    HW132573   0.547   4.528   9.581  0.2247  1.5547 -1.4415
 6980SOL    HW232574   0.625   4.517   9.704 -1.1771 -1.7097 -1.6518
 6981SOL     OW32575   2.940   0.114   4.955  0.0125  0.4033  0.3912
 6981SOL    HW132576   2.894   0.178   5.009  1.1107 -0.7073  2.6307
 6981SOL    HW232577   2.863   0.098   4.900 -0.1847  1.6515  0.3000
 6982SOL     OW32578   3.055   4.002   9.265  0.3266 -0.1303 -0.0268
 6982SOL    HW132579   3.040   3.911   9.238 -0.9985  0.0646  0.0108
 6982SOL    HW232580   3.072   4.044   9.181 -0.0756  1.2734  0.6048
 6983SOL     OW32581   1.638   0.563   3.843 -0.4063  0.0745  0.5648
 6983SOL    HW132582   1.595   0.645   3.818  1.5125  1.2022  1.0332
 6983SOL    HW232583   1.684   0.585   3.923  0.2859  0.3032  0.1016
 6984SOL     OW32584   1.985   2.160   4.626  0.0438  0.2284 -0.3048
 6984SOL    HW132585   1.997   2.093   4.694  1.3839  2.1608  1.3790
 6984SOL    HW232586   1.903   2.202   4.651  0.1234  0.3312 -0.2184
 6985SOL     OW32587   1.631   2.308   1.135 -0.6266  0.2374  0.2400
 6985SOL    HW132588   1.599   2.219   1.128 -2.3791  0.8650  0.2586
 6985SOL    HW232589   1.602   2.322   1.225 -0.3809 -1.4695  0.5824
 6986SOL     OW32590   4.489   1.188   5.920 -0.9651  0.2278 -0.0509
 6986SOL    HW132591   4.482   1.106   5.970 -0.7981  0.1966 -0.0795
 6986SOL    HW232592   4.547   1.235   5.980  1.2235 -0.0481 -1.9863
 6987SOL     OW32593   0.025   1.270   6.829 -0.1861 -0.2576  0.0017
 6987SOL    HW132594   4.688   1.276   6.765 -0.2611  1.1627  0.2311
 6987SOL    HW232595   0.086   1.329   6.784 -0.8420 -0.3047 -0.9484
 6988SOL     OW32596   4.065   1.865   4.540 -0.0004  0.0598  0.1369
 6988SOL    HW132597   4.049   1.865   4.635 -3.4172  2.1829 -0.4383
 6988SOL    HW232598   4.159   1.872   4.526  0.0002 -0.6753 -0.2046
 6989SOL     OW32599   2.384   2.909  14.359  0.5416 -0.2756  0.7262
 6989SOL    HW132600   2.460   2.862  14.324 -0.2349 -1.1278  0.1773
 6989SOL    HW232601   2.319   2.841  14.375 -0.3688  0.2219 -0.9861
 6990SOL     OW32602   0.129   3.671  14.083 -0.4929  0.0215  0.2233
 6990SOL    HW132603   0.039   3.639  14.080 -1.0666  1.4265  2.1475
 6990SOL    HW232604   0.127   3.699  14.175  0.9304 -2.3415  0.9794
 6991SOL     OW32605   3.211   4.228   1.261  0.0394 -0.6259 -0.0287
 6991SOL    HW132606   3.209   4.195   1.351 -1.2594  1.4079  0.6803
 6991SOL    HW232607   3.223   4.149   1.208  1.3077 -1.6673  1.8181
 6992SOL     OW32608   2.702   1.874   3.599  0.0955 -0.1244  0.2222
 6992SOL    HW132609   2.662   1.935   3.537 -1.3525 -0.0308  1.2729
 6992SOL    HW232610   2.796   1.875   3.577  0.1291  3.1110  0.5985
 6993SOL     OW32611   0.335   0.038   2.232 -0.1045 -0.4252 -0.7190
 6993SOL    HW132612   0.260   4.720   2.260  0.0964  0.2637  1.0553
 6993SOL    HW232613   0.385   0.046   2.313  0.3267 -0.9566 -0.9310
 6994SOL     OW32614   2.903   4.109   0.897 -0.3986 -0.6094  0.4684
 6994SOL    HW132615   2.833   4.159   0.854  1.4240  0.5211 -1.1755
 6994SOL    HW232616   2.910   4.036   0.836 -0.9793 -1.1989  1.1106
 6995SOL     OW32617   2.514   0.221   5.447 -0.1415  0.3539  0.7815
 6995SOL    HW132618   2.529   0.312   5.422  0.7474 -0.4881 -1.7424
 6995SOL    HW232619   2.508   0.238   5.541 -1.6198 -1.1038  0.9347
 6996SOL     OW32620   1.069   2.155   6.426  0.6434  0.1457 -0.2600
 6996SOL    HW132621   1.103   2.205   6.500  1.4473  0.4316 -0.8152
 6996SOL    HW232622   1.146   2.140   6.371  1.2387 -1.3156  0.9831
 6997SOL     OW32623   1.062   1.398   6.817 -0.0332 -0.1031 -0.3053
 6997SOL    HW132624   1.093   1.406   6.727  0.9462  1.1278  0.1566
 6997SOL    HW232625   0.994   1.466   6.820 -1.5463 -1.5630 -1.0064
 6998SOL     OW32626   0.251   4.467   1.900  0.3125 -0.1335  0.6318
 6998SOL    HW132627   0.317   4.528   1.869  0.3707 -0.5184 -0.0127
 6998SOL    HW232628   0.180   4.524   1.871 -0.7201 -1.3553  0.7215
 6999SOL     OW32629   4.010   1.433   5.988 -0.3624  0.7198  0.8864
 6999SOL    HW132630   3.939   1.370   5.975 -0.4934  1.3486 -1.3034
 6999SOL    HW232631   4.093   1.387   6.003  0.0393  1.1305 -0.1358
 7000SOL     OW32632   2.260   3.895   7.181  0.2780 -0.3454 -0.0744
 7000SOL    HW132633   2.207   3.925   7.107  0.1323 -1.3548 -0.3890
 7000SOL    HW232634   2.213   3.817   7.211  0.0654 -0.4807 -0.7621
 7001SOL     OW32635   0.934   0.032   4.696 -0.7918 -0.1757 -0.8571
 7001SOL    HW132636   0.958   4.700   4.761 -0.1403  0.6351 -0.2628
 7001SOL    HW232637   0.852   4.728   4.665  0.0210 -2.7472  0.1710
 7002SOL     OW32638   3.042   4.346   3.583 -0.5936  0.2110  0.0039
 7002SOL    HW132639   3.052   4.427   3.633  0.6164  0.7314 -1.0910
 7002SOL    HW232640   3.107   4.280   3.608  1.0265  1.7869 -0.0651
 7003SOL     OW32641   2.264   0.601  15.006 -0.1347  0.4242 -0.3951
 7003SOL    HW132642   2.298   0.522  15.048  0.3576  1.2139  0.7131
 7003SOL    HW232643   2.186   0.566  14.963 -0.3604  2.8109 -1.9206
 7004SOL     OW32644   4.359   1.475  11.627  0.0056 -0.5866  0.6071
 7004SOL    HW132645   4.439   1.430  11.655 -2.3178 -4.0285  1.7969
 7004SOL    HW232646   4.309   1.397  11.603 -2.2656  0.6995  1.2359
 7005SOL     OW32647   3.102   3.961   0.499 -0.1595  0.5961  0.0365
 7005SOL    HW132648   3.109   4.050   0.535 -0.2247  0.3905  0.5583
 7005SOL    HW232649   3.165   3.973   0.428  2.1117  0.1257  1.9793
 7006SOL     OW32650   1.277   3.754   7.839 -0.0125  0.3180  0.6653
 7006SOL    HW132651   1.266   3.800   7.921 -1.2946  0.3576  0.4649
 7006SOL    HW232652   1.298   3.821   7.774 -0.5211  1.6707  1.9305
 7007SOL     OW32653   4.398   0.610   8.412  0.2152  0.3099  0.4337
 7007SOL    HW132654   4.466   0.639   8.350  2.4783  0.0431  2.8225
 7007SOL    HW232655   4.374   0.524   8.377 -0.4040  1.5153 -2.1514
 7008SOL     OW32656   0.813   0.565   8.999 -0.0498  0.1808 -0.0008
 7008SOL    HW132657   0.861   0.527   8.925  1.7907  0.5524  0.9926
 7008SOL    HW232658   0.792   0.487   9.050  2.7931 -0.6776 -0.1080
 7009SOL     OW32659   4.316   1.507   3.143  0.1572  0.2767 -0.7597
 7009SOL    HW132660   4.306   1.457   3.062  0.6418 -1.1694  0.0820
 7009SOL    HW232661   4.406   1.487   3.170 -0.1060 -0.0810 -0.1418
 7010SOL     OW32662   4.164   4.497   9.199 -0.2130 -0.2883  0.0489
 7010SOL    HW132663   4.102   4.445   9.251  1.2499 -1.2611  0.8519
 7010SOL    HW232664   4.156   4.462   9.111  1.2514  1.1549 -0.6473
 7011SOL     OW32665   2.219   3.419   7.403 -0.3346 -0.2154 -0.2700
 7011SOL    HW132666   2.235   3.359   7.476 -0.5408  1.0134  0.7686
 7011SOL    HW232667   2.125   3.433   7.407 -0.1001  1.3188 -0.2335
 7012SOL     OW32668   4.109   4.243   1.202  1.0978  0.8793 -0.0796
 7012SOL    HW132669   4.077   4.156   1.224 -0.4808  1.3567 -0.5075
 7012SOL    HW232670   4.036   4.278   1.152  2.3202  1.8909 -1.1676
 7013SOL     OW32671   4.146   3.583   9.358  0.1609  0.5452  0.1821
 7013SOL    HW132672   4.087   3.607   9.286 -0.0101 -1.5686 -0.4023
 7013SOL    HW232673   4.085   3.526   9.404  0.6788 -0.2601 -0.1293
 7014SOL     OW32674   2.141   4.528   6.379  0.3251 -0.6127  0.0423
 7014SOL    HW132675   2.143   4.610   6.427  0.8150 -1.2665  1.1392
 7014SOL    HW232676   2.200   4.474   6.433 -0.8491  0.7669  2.7099
 7015SOL     OW32677   4.619   3.814   6.696 -0.1625  0.4450 -0.3574
 7015SOL    HW132678   4.534   3.857   6.697 -1.1968 -1.6450  1.3976
 7015SOL    HW232679   4.594   3.723   6.682  0.8901  0.3163 -1.4972
 7016SOL     OW32680   2.200   1.083  10.494  0.0218  0.1149  0.0350
 7016SOL    HW132681   2.255   1.017  10.537 -2.0323 -1.4100  0.3429
 7016SOL    HW232682   2.163   1.118  10.575 -1.0589  1.9496 -1.2400
 7017SOL     OW32683   2.048   1.335  11.715  0.1661 -0.2495  0.4459
 7017SOL    HW132684   2.022   1.279  11.787  2.3546  0.5438  1.8346
 7017SOL    HW232685   1.962   1.363  11.683  0.0451 -2.4904 -1.2298
 7018SOL     OW32686   2.284   3.112   9.516 -0.4850 -0.3959  0.3115
 7018SOL    HW132687   2.260   3.159   9.597  1.8568  1.1238  0.1240
 7018SOL    HW232688   2.359   3.163   9.486 -0.0608 -0.2597  1.5719
 7019SOL     OW32689   1.949   2.401  16.192 -0.2628  0.7274  0.3472
 7019SOL    HW132690   1.904   2.471  16.240 -2.9460 -0.0270 -1.1082
 7019SOL    HW232691   1.913   2.314  16.204  0.8924  0.1573 -0.3332
 7020SOL     OW32692   1.542   0.829  13.725  0.2500  0.3834 -0.1998
 7020SOL    HW132693   1.633   0.800  13.724  0.3649  0.7495 -0.6574
 7020SOL    HW232694   1.495   0.758  13.681  1.3278  0.2683 -1.1643
 7021SOL     OW32695   3.047   0.136   7.503  0.1965 -0.0727  0.0243
 7021SOL    HW132696   3.050   0.061   7.562  0.0061 -0.2848 -0.2328
 7021SOL    HW232697   3.139   0.161   7.490 -0.0226  1.4183  1.3910
 7022SOL     OW32698   1.838   3.508  12.826  0.4328  0.1685  0.2513
 7022SOL    HW132699   1.888   3.529  12.905 -0.8981  0.5851  0.9934
 7022SOL    HW232700   1.907   3.508  12.760 -0.3557  0.0366 -0.5890
 7023SOL     OW32701   0.066   4.042   8.109  0.1840 -0.0580 -0.4111
 7023SOL    HW132702   0.050   3.962   8.158 -0.5789  0.4807  0.2342
 7023SOL    HW232703   0.063   4.102   8.184 -1.2578 -1.7562  0.8984
 7024SOL     OW32704   1.623   2.701  12.032  0.1816 -0.0761  0.0899
 7024SOL    HW132705   1.593   2.625  11.982 -0.2409 -0.1798  0.5039
 7024SOL    HW232706   1.717   2.689  12.018  0.6465  0.6442  2.5734
 7025SOL     OW32707   4.379   0.177   7.047 -0.3283  0.2507 -0.0766
 7025SOL    HW132708   4.401   0.149   7.136 -2.9795  0.1942  0.5672
 7025SOL    HW232709   4.360   0.097   6.998  0.7097  0.6754 -1.1816
 7026SOL     OW32710   2.595   3.189   4.610  0.1835 -0.0469  0.0954
 7026SOL    HW132711   2.512   3.237   4.614  0.7651  0.6801  3.3478
 7026SOL    HW232712   2.641   3.236   4.539  0.0041  0.2488  0.1731
 7027SOL     OW32713   1.992   3.037   6.632 -0.1825  0.1736 -0.3677
 7027SOL    HW132714   1.904   3.067   6.656 -0.8312  0.1697 -2.7225
 7027SOL    HW232715   2.036   3.121   6.641 -1.7609  0.7407  2.0432
 7028SOL     OW32716   0.461   3.063   9.008 -0.2221 -0.3502  0.3696
 7028SOL    HW132717   0.486   3.054   8.916  1.0791  0.3403  0.6555
 7028SOL    HW232718   0.473   3.157   9.020  0.2987 -0.4042  0.2861
 7029SOL     OW32719   0.916   3.325   2.594 -0.5988  0.3579 -0.0576
 7029SOL    HW132720   0.903   3.347   2.501  1.8474  0.7833 -0.2960
 7029SOL    HW232721   0.897   3.411   2.631 -0.1057 -0.3821  1.9137
 7030SOL     OW32722   4.489   0.923   4.688  0.3835  0.6060  0.5191
 7030SOL    HW132723   4.492   0.907   4.594  0.6060  1.5675  0.3659
 7030SOL    HW232724   4.422   0.992   4.691  1.0100  1.2453 -0.2274
 7031SOL     OW32725   0.501   0.856   4.285  0.1814  0.4005 -0.1736
 7031SOL    HW132726   0.468   0.812   4.362 -0.8243 -0.2728 -0.9987
 7031SOL    HW232727   0.593   0.855   4.312 -0.2398  0.9509  1.2659
 7032SOL     OW32728   2.538   1.091  13.140 -0.5562 -0.2157  0.0765
 7032SOL    HW132729   2.509   1.049  13.221 -0.1723 -0.8940 -0.1321
 7032SOL    HW232730   2.540   1.184  13.161 -1.3389 -0.3749  0.8263
 7033SOL     OW32731   4.457   2.932   1.833  0.1585 -0.3376 -0.5667
 7033SOL    HW132732   4.362   2.931   1.822  0.0177  1.4671  0.4657
 7033SOL    HW232733   4.469   2.837   1.834  1.6468 -0.1400  1.0545
 7034SOL     OW32734   3.621   0.449   6.127 -0.1425 -0.9676 -0.0784
 7034SOL    HW132735   3.572   0.385   6.076  0.7328  0.1812 -2.3255
 7034SOL    HW232736   3.598   0.527   6.076  1.4529  1.2223  2.5312
 7035SOL     OW32737   4.562   0.894   7.312  0.2555 -0.3581 -0.3006
 7035SOL    HW132738   4.513   0.976   7.309  2.1704  0.9158  2.7372
 7035SOL    HW232739   4.597   0.875   7.225 -1.6401  0.5650 -1.2699
 7036SOL     OW32740   0.819   3.718  14.628 -0.2890  1.0150 -0.2926
 7036SOL    HW132741   0.763   3.776  14.578 -0.1132 -1.2316 -3.1224
 7036SOL    HW232742   0.884   3.692  14.562 -2.4367 -1.2236 -1.5275
 7037SOL     OW32743   2.453   1.296   0.705  0.1633 -0.4116 -0.3095
 7037SOL    HW132744   2.524   1.338   0.655  1.1412 -0.9890  0.5849
 7037SOL    HW232745   2.375   1.330   0.661 -0.4349 -0.3810  0.7688
 7038SOL     OW32746   4.241   2.375   4.759 -0.2226 -0.2589  0.1891
 7038SOL    HW132747   4.194   2.369   4.841  0.4610 -0.1385  0.5929
 7038SOL    HW232748   4.224   2.466   4.734 -0.4203 -0.3020  0.1717
 7039SOL     OW32749   3.721   2.702   5.395 -0.0333 -0.2311  0.5630
 7039SOL    HW132750   3.691   2.701   5.304  1.0200 -1.9809  0.2265
 7039SOL    HW232751   3.711   2.795   5.413  0.6076  0.0830 -0.7575
 7040SOL     OW32752   1.340   4.650   7.923 -0.8112 -0.0192  0.1765
 7040SOL    HW132753   1.358   4.731   7.876 -1.1045 -0.8144 -1.2765
 7040SOL    HW232754   1.331   4.589   7.850 -0.2701 -0.2706  0.3176
 7041SOL     OW32755   4.368   2.386   1.142 -0.3557  0.0293 -0.0418
 7041SOL    HW132756   4.350   2.461   1.085 -1.8346  0.3344  0.8239
 7041SOL    HW232757   4.298   2.401   1.205 -0.2664  0.1362  0.0311
 7042SOL     OW32758   0.278   1.758   7.477  0.0147  0.2103 -0.1657
 7042SOL    HW132759   0.267   1.852   7.488 -0.8148  0.1455 -0.4579
 7042SOL    HW232760   0.370   1.764   7.504  0.0623  0.3497 -0.3563
 7043SOL     OW32761   2.118   3.178  10.653 -0.5879  0.1087  0.2244
 7043SOL    HW132762   2.197   3.194  10.602  0.1401  0.8072  1.5449
 7043SOL    HW232763   2.131   3.087  10.680 -0.3729 -0.8162 -3.0942
 7044SOL     OW32764   3.787   3.441   2.101  0.5091  0.3502  0.2211
 7044SOL    HW132765   3.737   3.375   2.149  0.1833  0.8661  0.5868
 7044SOL    HW232766   3.877   3.407   2.098  0.0274 -0.5864 -3.2461
 7045SOL     OW32767   1.771   1.387   3.507  0.3338 -0.4265 -0.0468
 7045SOL    HW132768   1.758   1.330   3.431  0.4353 -2.6284  1.5656
 7045SOL    HW232769   1.711   1.348   3.571 -0.9593 -0.0845 -1.0606
 7046SOL     OW32770   1.270   1.419   4.095 -0.6616  0.5508  0.2828
 7046SOL    HW132771   1.284   1.389   4.005 -3.6241  1.4197 -0.4682
 7046SOL    HW232772   1.189   1.469   4.085 -0.9635 -0.0797 -0.4046
 7047SOL     OW32773   3.237   3.628   3.809 -0.5859 -0.5840 -0.3692
 7047SOL    HW132774   3.160   3.635   3.753  1.3676  1.6762 -2.7691
 7047SOL    HW232775   3.209   3.594   3.894 -0.7802  1.5570  0.4395
 7048SOL     OW32776   0.393   1.064   7.929 -0.3610  1.0066 -0.0147
 7048SOL    HW132777   0.312   1.072   7.980  0.1536 -3.0300  1.4379
 7048SOL    HW232778   0.454   1.108   7.988  1.0063  1.3716 -1.7127
 7049SOL     OW32779   0.339   2.895  11.064 -0.2222  0.4597 -0.2809
 7049SOL    HW132780   0.293   2.961  11.012  0.4250  0.9067 -0.2829
 7049SOL    HW232781   0.397   2.863  10.995  1.7245 -0.1085  1.6439
 7050SOL     OW32782   3.279   0.456   4.565 -0.2870  0.4816  0.6233
 7050SOL    HW132783   3.259   0.472   4.657 -0.7804 -1.2811  0.8216
 7050SOL    HW232784   3.200   0.487   4.521 -1.3690 -2.2565  0.6566
 7051SOL     OW32785   1.617   2.632   7.649 -0.3007  0.3228 -0.4706
 7051SOL    HW132786   1.593   2.584   7.729  0.4374 -0.3007 -0.6230
 7051SOL    HW232787   1.605   2.721   7.682  0.6973 -0.0212  0.8146
 7052SOL     OW32788   2.698   1.141   5.994  0.4310 -0.1152 -0.0458
 7052SOL    HW132789   2.662   1.060   6.030 -0.2735  0.0263 -0.4291
 7052SOL    HW232790   2.661   1.143   5.906 -0.6525 -3.1834  0.3476
 7053SOL     OW32791   1.357   1.117  14.840  0.0562 -0.1212 -0.4614
 7053SOL    HW132792   1.272   1.102  14.881  0.4117  1.0303  0.6980
 7053SOL    HW232793   1.340   1.208  14.818  1.6435  0.8218  2.1646
 7054SOL     OW32794   1.103   2.817   6.995 -0.5867  0.0366 -0.5081
 7054SOL    HW132795   1.010   2.823   6.973 -0.2334 -0.9446 -2.2601
 7054SOL    HW232796   1.128   2.736   6.951  1.6103  0.5783 -0.2474
 7055SOL     OW32797   2.871   4.597   2.112  0.2097 -0.2549  0.2487
 7055SOL    HW132798   2.792   4.626   2.157  1.0413  0.5640  1.1921
 7055SOL    HW232799   2.929   4.644   2.173  2.4278 -1.0415 -1.2567
 7056SOL     OW32800   3.261   1.988   5.873  0.3246 -0.0836 -0.2175
 7056SOL    HW132801   3.188   1.937   5.908  1.2402 -0.8764  0.5251
 7056SOL    HW232802   3.220   2.063   5.830  0.4920 -1.1696 -2.2943
 7057SOL     OW32803   0.849   1.934  15.161  0.3511 -0.6266 -0.1669
 7057SOL    HW132804   0.824   2.010  15.108  1.3069  0.7571  1.3747
 7057SOL    HW232805   0.766   1.923  15.208 -0.0582  0.8723 -0.5257
 7058SOL     OW32806   3.458   0.332   8.151 -0.3063  0.4432 -0.1845
 7058SOL    HW132807   3.403   0.269   8.104 -2.9715  2.1029  0.6853
 7058SOL    HW232808   3.533   0.341   8.092  0.3940  0.9603  0.7919
 7059SOL     OW32809   2.367   0.570   4.036 -0.6519  0.0807 -0.5310
 7059SOL    HW132810   2.452   0.607   4.058 -0.3347  0.7449 -2.8574
 7059SOL    HW232811   2.329   0.648   3.995 -0.2050  0.3967 -0.3427
 7060SOL     OW32812   2.419   4.617   1.362 -1.0502  0.1924 -0.2921
 7060SOL    HW132813   2.493   4.571   1.403 -1.6443  0.2052  0.7729
 7060SOL    HW232814   2.397   4.549   1.297 -0.8278 -0.5413  0.4018
 7061SOL     OW32815   3.742   4.042   6.806 -0.5138 -0.2028  0.3888
 7061SOL    HW132816   3.708   3.995   6.882  1.5901 -1.3479  0.5962
 7061SOL    HW232817   3.659   4.026   6.760 -0.1555  0.3261 -0.4390
 7062SOL     OW32818   0.059   2.481   5.294  0.0223  0.6648  0.1077
 7062SOL    HW132819   0.118   2.556   5.298  0.1965  0.5014  0.5985
 7062SOL    HW232820   0.093   2.435   5.217 -0.1579 -3.3286  2.3800
 7063SOL     OW32821   0.460   1.233   3.778 -0.1226 -0.4405  0.0495
 7063SOL    HW132822   0.480   1.324   3.797 -0.4060 -0.3374 -0.1331
 7063SOL    HW232823   0.539   1.206   3.732 -0.6550  0.5994 -1.4882
 7064SOL     OW32824   1.929   4.419  17.548  0.5820  0.3204  0.0532
 7064SOL    HW132825   1.982   4.341  17.530 -2.2075 -1.4632 -0.4513
 7064SOL    HW232826   1.839   4.386  17.552  0.7927 -0.3093 -0.3532
 7065SOL     OW32827   4.244   1.613   1.585  0.6975 -0.4061  0.5713
 7065SOL    HW132828   4.253   1.650   1.673  0.1732  0.7554  0.1457
 7065SOL    HW232829   4.313   1.547   1.595 -0.8448 -1.8673  1.6314
 7066SOL     OW32830   1.637   2.815   4.200 -0.1740 -1.0847 -0.7370
 7066SOL    HW132831   1.643   2.802   4.295 -1.5071  3.3402 -0.0408
 7066SOL    HW232832   1.560   2.759   4.187 -1.6200  0.5365  0.6312
 7067SOL     OW32833   4.629   3.243   4.283 -0.7791 -0.1570  0.5950
 7067SOL    HW132834   4.677   3.160   4.291 -1.4445 -0.7395 -1.3786
 7067SOL    HW232835   4.693   3.303   4.322 -0.3944  0.3112 -0.7699
 7068SOL     OW32836   2.574   3.552  11.972 -0.5966  0.1771  0.4725
 7068SOL    HW132837   2.527   3.495  11.911 -2.0482  1.3057  0.5373
 7068SOL    HW232838   2.529   3.530  12.054 -2.6789  1.1307 -0.3994
 7069SOL     OW32839   0.604   0.083  17.388  0.1118  0.4557  0.3034
 7069SOL    HW132840   0.598   4.727  17.355  0.9005  1.1703 -1.8068
 7069SOL    HW232841   0.686   0.079  17.437  1.2923  0.5719 -1.6533
 7070SOL     OW32842   1.896   0.379   2.543 -0.2533 -0.1037 -0.3936
 7070SOL    HW132843   1.806   0.348   2.547 -0.0044 -1.0233 -1.9699
 7070SOL    HW232844   1.946   0.319   2.488 -0.6351 -0.4333 -0.3748
 7071SOL     OW32845   3.300   0.537   5.903  0.1610  0.1592 -0.2716
 7071SOL    HW132846   3.279   0.588   5.824  0.1543  0.0283 -0.3542
 7071SOL    HW232847   3.286   0.445   5.882  1.4082  0.3282 -1.8277
 7072SOL     OW32848   0.066   0.708  10.860  0.1038  0.0442 -0.3672
 7072SOL    HW132849   0.104   0.672  10.780 -0.9576  2.0132 -1.7500
 7072SOL    HW232850   0.004   0.643  10.896  0.3163  0.3934  0.6289
 7073SOL     OW32851   3.578   3.476   6.806  0.1740  0.5445  0.2660
 7073SOL    HW132852   3.617   3.455   6.722  1.2468 -0.8187  1.0940
 7073SOL    HW232853   3.642   3.532   6.850 -1.0183  0.8484  1.6311
 7074SOL     OW32854   1.792   1.715  16.096 -0.6769  0.3289 -0.0718
 7074SOL    HW132855   1.781   1.692  16.188 -1.2214  2.5535  0.4204
 7074SOL    HW232856   1.715   1.673  16.059  1.0586  0.2806 -3.6384
 7075SOL     OW32857   2.083   3.386   6.906 -0.8595 -0.0970  0.3299
 7075SOL    HW132858   2.054   3.450   6.971  0.9702 -1.1759  2.2283
 7075SOL    HW232859   2.014   3.321   6.910 -1.9796  1.1341  1.2078
 7076SOL     OW32860   2.595   0.465   4.260  0.4824  0.4803 -0.4304
 7076SOL    HW132861   2.588   0.439   4.168 -1.3177 -0.2689 -0.0826
 7076SOL    HW232862   2.666   0.529   4.259  0.4932  0.4679 -0.4506
 7077SOL     OW32863   2.625   1.048   3.669 -0.0006 -0.2643 -0.0912
 7077SOL    HW132864   2.652   1.047   3.761  2.5779  1.5441 -0.8318
 7077SOL    HW232865   2.624   0.954   3.649  0.1854 -0.4230  0.6551
 7078SOL     OW32866   1.526   0.819   4.593 -0.1547 -0.3290 -0.4850
 7078SOL    HW132867   1.449   0.799   4.646  1.5327 -0.5310  1.8813
 7078SOL    HW232868   1.483   0.878   4.531  3.7230  1.6208 -1.3225
 7079SOL     OW32869   1.685   1.630   2.262  0.4714  0.3394  0.7672
 7079SOL    HW132870   1.741   1.706   2.279 -0.3644  1.3086 -0.8616
 7079SOL    HW232871   1.744   1.563   2.227 -0.0533  2.2771 -3.7822
 7080SOL     OW32872   1.330   0.876   6.740 -0.3374  0.3818 -0.1528
 7080SOL    HW132873   1.353   0.969   6.748  1.1821  0.0533 -0.7333
 7080SOL    HW232874   1.237   0.881   6.721  0.0206 -0.4758 -2.1112
 7081SOL     OW32875   3.047   3.408   2.701 -0.4281 -0.4294 -0.0575
 7081SOL    HW132876   3.085   3.483   2.746 -3.6933  0.3544  1.3477
 7081SOL    HW232877   2.961   3.446   2.683  0.1941  1.0569  0.1074
 7082SOL     OW32878   0.389   2.545   6.999 -0.3000  0.4856  0.2563
 7082SOL    HW132879   0.365   2.634   6.972 -0.4723  0.0207 -1.1139
 7082SOL    HW232880   0.355   2.491   6.928  2.7172  1.0099 -1.5878
 7083SOL     OW32881   0.170   0.396   7.287  0.1818 -0.5550  0.1587
 7083SOL    HW132882   0.224   0.472   7.307  0.6792 -0.4250 -1.6554
 7083SOL    HW232883   0.241   0.344   7.248  0.3211 -0.2875  0.0568
 7084SOL     OW32884   2.197   1.219   8.417 -0.4507  0.0705  0.4598
 7084SOL    HW132885   2.228   1.156   8.483 -0.4943 -0.0519  0.3623
 7084SOL    HW232886   2.106   1.219   8.446 -0.7266 -2.2136 -0.4228
 7085SOL     OW32887   3.172   1.982   6.479 -0.0201  0.3708 -0.2019
 7085SOL    HW132888   3.223   1.913   6.521 -1.3324  0.4913  1.5832
 7085SOL    HW232889   3.231   2.025   6.416 -0.8964  1.2670 -0.4136
 7086SOL     OW32890   2.953   4.001   0.264  0.3576 -0.6693 -0.0420
 7086SOL    HW132891   2.873   3.985   0.314  0.2685 -1.6244 -0.4947
 7086SOL    HW232892   3.015   3.987   0.335 -0.2015 -0.7519  0.4264
 7087SOL     OW32893   2.703   0.926   7.092 -0.4337 -0.1236 -0.3450
 7087SOL    HW132894   2.772   0.879   7.139  0.0370  0.1595 -0.7461
 7087SOL    HW232895   2.697   1.005   7.146 -1.9742 -0.1996 -0.4095
 7088SOL     OW32896   4.582   4.195   8.697 -0.3770 -0.4616  0.4841
 7088SOL    HW132897   4.572   4.196   8.792  0.2482  0.0577  0.5419
 7088SOL    HW232898   4.663   4.242   8.679 -0.5681 -1.1756 -2.2527
 7089SOL     OW32899   2.091   4.389   2.497 -0.5980  0.2213 -0.6270
 7089SOL    HW132900   2.084   4.295   2.517  0.8567  0.2380 -0.0391
 7089SOL    HW232901   2.185   4.403   2.489 -0.7890 -0.9665 -4.9512
 7090SOL     OW32902   4.057   4.440  13.760  0.1323  0.2888  0.4079
 7090SOL    HW132903   4.051   4.499  13.835  0.0384  0.7818  0.0223
 7090SOL    HW232904   4.044   4.497  13.683 -2.9342 -1.4978 -0.4031
 7091SOL     OW32905   1.826   1.868   1.528 -0.3521  0.4551 -0.7731
 7091SOL    HW132906   1.805   1.931   1.597  0.6579  1.8598 -1.7667
 7091SOL    HW232907   1.763   1.797   1.536 -0.0382  0.1535 -0.9726
 7092SOL     OW32908   3.251   2.711   9.157 -0.1097  0.5923  0.1153
 7092SOL    HW132909   3.328   2.654   9.147  0.0237  0.5297  1.6260
 7092SOL    HW232910   3.236   2.699   9.250  1.7751  0.0703  0.3564
 7093SOL     OW32911   4.527   3.471   1.085  0.3836 -0.3941  0.5757
 7093SOL    HW132912   4.496   3.540   1.025 -2.5736 -0.1691  2.3397
 7093SOL    HW232913   4.438   3.445   1.112  0.7986 -1.3115  1.0518
 7094SOL     OW32914   1.061   1.480   1.668  0.2382  0.0916  0.0828
 7094SOL    HW132915   0.999   1.431   1.721 -1.2030 -0.7236 -2.3742
 7094SOL    HW232916   1.064   1.430   1.586 -2.9596 -1.1555  0.7345
 7095SOL     OW32917   3.719   4.360   5.436  0.0108  0.0036  0.0101
 7095SOL    HW132918   3.756   4.278   5.468  0.7163  1.4619  2.8496
 7095SOL    HW232919   3.629   4.340   5.463 -0.9977  1.2426 -2.4401
 7096SOL     OW32920   2.230   0.350   1.899 -0.5375  0.3932 -0.1835
 7096SOL    HW132921   2.225   0.287   1.971 -0.2956 -0.9884 -1.3791
 7096SOL    HW232922   2.147   0.342   1.851 -1.6211  3.1753  1.1959
 7097SOL     OW32923   0.096   3.787  12.557 -0.0084  0.2239 -0.0475
 7097SOL    HW132924   0.146   3.839  12.620  0.7561 -2.0053  1.1867
 7097SOL    HW232925   0.037   3.858  12.530  1.1149  1.0937 -0.2133
 7098SOL     OW32926   4.179   3.757   6.346 -0.2500  0.1025  0.2062
 7098SOL    HW132927   4.267   3.743   6.312  0.2505  0.7509  1.2511
 7098SOL    HW232928   4.183   3.708   6.429 -0.9104  1.1818  0.8693
 7099SOL     OW32929   2.350   0.661  14.600 -0.0865  0.0291  0.8531
 7099SOL    HW132930   2.324   0.720  14.671  1.2939  1.1022  0.4516
 7099SOL    HW232931   2.296   0.592  14.640 -0.2066 -0.1355  0.4107
 7100SOL     OW32932   4.241   3.460   5.261 -0.6347  0.1855  0.6230
 7100SOL    HW132933   4.211   3.375   5.295 -0.2821  0.1766  0.9197
 7100SOL    HW232934   4.167   3.487   5.208 -0.9927  1.9437  2.0236
 7101SOL     OW32935   3.737   0.003  15.224 -0.5707 -0.1665  0.1607
 7101SOL    HW132936   3.656   4.730  15.275  1.6162  0.1090  3.6413
 7101SOL    HW232937   3.779   4.656  15.250  0.9424  0.1268 -1.3712
 7102SOL     OW32938   1.055   3.881   9.176 -0.2198 -0.3003 -0.1281
 7102SOL    HW132939   1.053   3.976   9.191 -1.6347 -0.5832  1.5772
 7102SOL    HW232940   0.964   3.874   9.145  0.4164 -0.3652 -1.9637
 7103SOL     OW32941   4.018   0.416   6.126 -1.0440 -0.0476  0.4239
 7103SOL    HW132942   3.972   0.364   6.059  0.9423  0.1932 -1.1099
 7103SOL    HW232943   4.058   0.482   6.070 -0.2668 -1.4512 -0.6524
 7104SOL     OW32944   1.003   3.466   4.033 -0.6071  0.1612  0.2428
 7104SOL    HW132945   1.007   3.498   4.123 -1.2760 -1.2949  0.7935
 7104SOL    HW232946   1.094   3.440   4.021 -0.2106  1.1626  1.0826
 7105SOL     OW32947   1.028   3.100   9.048  0.0753 -0.6572  0.2564
 7105SOL    HW132948   1.035   3.184   9.002 -2.0924 -0.4235  0.3169
 7105SOL    HW232949   1.106   3.093   9.102  1.0295 -1.4053 -1.2214
 7106SOL     OW32950   1.212   0.904  17.652  0.0349  0.1128 -0.1511
 7106SOL    HW132951   1.252   0.929  17.569 -0.5152  1.5735  0.0234
 7106SOL    HW232952   1.279   0.938  17.712 -0.2358  0.2438  0.0741
 7107SOL     OW32953   1.877   2.460   5.936 -0.6411  0.5295 -0.3739
 7107SOL    HW132954   1.821   2.532   5.965 -0.9165 -0.3353  1.2034
 7107SOL    HW232955   1.941   2.519   5.895 -0.3076  1.1394  1.0300
 7108SOL     OW32956   3.372   1.702   1.590 -0.1137 -0.1833 -0.2708
 7108SOL    HW132957   3.364   1.620   1.540  1.3943 -1.3978  1.4527
 7108SOL    HW232958   3.349   1.665   1.675  0.6874  0.6197  0.2901
 7109SOL     OW32959   0.429   2.570   2.476  0.0132  0.0204 -0.5496
 7109SOL    HW132960   0.383   2.618   2.407 -0.2455  1.8967  0.9092
 7109SOL    HW232961   0.383   2.487   2.470  0.0928 -0.0728  0.0970
 7110SOL     OW32962   2.897   3.534   5.058 -0.4810  0.4401  0.3841
 7110SOL    HW132963   2.944   3.466   5.010  0.8341  2.3735 -1.0692
 7110SOL    HW232964   2.817   3.483   5.065 -0.1641  0.1146  1.7440
 7111SOL     OW32965   0.564   0.097   3.337 -0.3873 -0.4988 -0.0764
 7111SOL    HW132966   0.603   0.120   3.422 -0.5806 -0.6568  0.0540
 7111SOL    HW232967   0.499   0.167   3.324  0.9695  1.0591  1.3546
 7112SOL     OW32968   2.722   4.397   7.220  0.0757 -1.0588  0.7216
 7112SOL    HW132969   2.794   4.344   7.256  0.2171 -0.7379  0.9093
 7112SOL    HW232970   2.774   4.474   7.199  1.9812 -2.1471  1.4339
 7113SOL     OW32971   3.459   0.636  15.942 -0.2708  0.0029 -0.3979
 7113SOL    HW132972   3.374   0.592  15.940 -0.3038  0.0416  0.1667
 7113SOL    HW232973   3.435   0.727  15.925  0.4770  0.0230 -1.3328
 7114SOL     OW32974   2.008   2.095   8.509  0.6946 -0.6282 -0.7108
 7114SOL    HW132975   2.039   2.171   8.558 -0.5050  0.4989 -1.7006
 7114SOL    HW232976   1.923   2.119   8.471  1.4258  2.1951 -0.5353
 7115SOL     OW32977   0.827   0.841   2.677  0.4081  0.0879  0.1985
 7115SOL    HW132978   0.765   0.769   2.688  0.9055 -0.2465  0.7564
 7115SOL    HW232979   0.789   0.905   2.737  1.4184 -1.1118  2.0955
 7116SOL     OW32980   1.790   3.742   6.679  0.0950  0.3505  0.3324
 7116SOL    HW132981   1.736   3.818   6.700 -0.8294  0.7332 -3.4659
 7116SOL    HW232982   1.728   3.671   6.698 -0.7742  1.1995  0.6460
 7117SOL     OW32983   3.799   3.235   5.007 -0.5979  0.2167 -0.1173
 7117SOL    HW132984   3.738   3.254   5.078  0.5291  0.7521  0.7110
 7117SOL    HW232985   3.781   3.312   4.954 -2.2681 -1.1571 -1.5248
 7118SOL     OW32986   2.808   0.873   3.277  0.1165 -0.7428 -0.0783
 7118SOL    HW132987   2.819   0.956   3.231 -0.1274 -1.4979 -1.4969
 7118SOL    HW232988   2.893   0.878   3.319 -0.3791  0.2097  0.8095
 7119SOL     OW32989   3.534   1.588   9.411  0.6278 -0.0954 -0.2541
 7119SOL    HW132990   3.463   1.525   9.397  1.7482 -1.1005 -1.5534
 7119SOL    HW232991   3.550   1.568   9.503  0.5896  2.4036  0.2862
 7120SOL     OW32992   3.977   4.616  13.982 -0.1340  0.3429  0.1618
 7120SOL    HW132993   3.903   4.601  14.040  0.3061 -0.7161  0.4411
 7120SOL    HW232994   4.041   4.629  14.052  1.7090 -0.0711 -1.4431
 7121SOL     OW32995   1.871   2.188  13.510  0.3517  0.6080 -0.5179
 7121SOL    HW132996   1.911   2.111  13.550 -0.8715  1.0989  1.6430
 7121SOL    HW232997   1.825   2.136  13.444  3.9039 -0.2616 -2.2880
 7122SOL     OW32998   2.537   1.683  15.071 -0.5018 -0.0476 -0.0886
 7122SOL    HW132999   2.617   1.630  15.066  1.8803  3.5317  0.1324
 7122SOL    HW233000   2.547   1.731  14.989 -0.8872 -1.8033 -1.1701
 7123SOL     OW33001   0.978   1.780   9.632 -0.5679 -0.7223  0.6393
 7123SOL    HW133002   1.009   1.723   9.703 -1.2364  1.1297  2.4094
 7123SOL    HW233003   1.045   1.780   9.563  0.7568 -0.1009  1.9235
 7124SOL     OW33004   1.686   3.483   2.718 -0.1917 -0.6559  0.0905
 7124SOL    HW133005   1.620   3.495   2.785  1.4394 -0.4831  1.6652
 7124SOL    HW233006   1.749   3.422   2.756  0.6923  1.2938  1.7012
 7125SOL     OW33007   4.704   1.258   2.519  0.1061 -0.1975 -0.1060
 7125SOL    HW133008   0.011   1.204   2.586 -0.0467  0.5920  0.6143
 7125SOL    HW233009   4.637   1.296   2.576  2.4319  0.2181  2.3301
 7126SOL     OW33010   1.241   0.135   5.391 -0.4036 -0.7663  0.5036
 7126SOL    HW133011   1.164   0.126   5.336 -0.9282  0.5713  1.0279
 7126SOL    HW233012   1.294   0.059   5.364  2.3297  1.4394 -0.3724
 7127SOL     OW33013   4.219   3.930   4.350 -0.1156 -0.1778 -0.0760
 7127SOL    HW133014   4.300   3.980   4.363 -0.6264  0.9805 -1.2834
 7127SOL    HW233015   4.185   3.934   4.439  0.0882 -0.7567  0.0272
 7128SOL     OW33016   1.216   3.005  15.628  0.0876 -0.2879  0.5466
 7128SOL    HW133017   1.235   3.021  15.720 -0.2568 -0.0891  0.5829
 7128SOL    HW233018   1.274   3.072  15.590  0.4350 -1.3426 -0.7812
 7129SOL     OW33019   4.655   0.793   7.905  0.0846 -0.2144 -0.0782
 7129SOL    HW133020   0.013   0.778   7.884  0.4523  0.4660  1.0205
 7129SOL    HW233021   4.660   0.888   7.920  0.7504 -0.2715  0.0833
 7130SOL     OW33022   2.086   3.649   9.577  0.4320 -0.1269  0.2089
 7130SOL    HW133023   2.081   3.607   9.491 -0.5507  1.3655 -0.4481
 7130SOL    HW233024   1.994   3.635   9.599  0.3016 -0.2560 -0.4317
 7131SOL     OW33025   3.454   3.352   9.276 -0.6876 -0.0438  0.2497
 7131SOL    HW133026   3.388   3.358   9.207  0.0189  1.7903 -0.2752
 7131SOL    HW233027   3.511   3.285   9.240 -0.9555 -1.0137  1.6376
 7132SOL     OW33028   3.412   3.949   5.115  0.3919 -0.8393  0.3692
 7132SOL    HW133029   3.398   3.995   5.198 -1.6155  0.3134 -0.6092
 7132SOL    HW233030   3.366   4.013   5.060  0.2185 -2.4498 -1.3503
 7133SOL     OW33031   2.223   0.219   5.741 -0.0706 -0.4652  0.5347
 7133SOL    HW133032   2.177   0.239   5.659  0.2349 -1.5997  0.0858
 7133SOL    HW233033   2.158   0.167   5.789  1.5407 -1.0413  2.0609
 7134SOL     OW33034   4.169   2.510   8.376 -0.6893 -0.1004 -0.1956
 7134SOL    HW133035   4.152   2.504   8.282 -0.3035  1.6518 -0.3655
 7134SOL    HW233036   4.100   2.572   8.400  0.6355  0.5174  2.0203
 7135SOL     OW33037   4.169   0.465   4.040 -0.4499  0.0364  0.4566
 7135SOL    HW133038   4.228   0.489   3.968 -0.7102  0.2263  0.3053
 7135SOL    HW233039   4.156   0.372   4.020  1.9662 -0.7920  2.6376
 7136SOL     OW33040   2.270   4.224   7.852 -0.2408 -0.3931 -0.0692
 7136SOL    HW133041   2.343   4.286   7.839  0.4102 -0.6194  2.5368
 7136SOL    HW233042   2.208   4.288   7.817 -0.6687 -0.6886  0.1623
 7137SOL     OW33043   1.532   0.912   9.739 -0.3721 -0.3024  0.3604
 7137SOL    HW133044   1.599   0.903   9.806 -1.3237 -1.4313  1.1748
 7137SOL    HW233045   1.580   0.881   9.662  0.7463 -2.2700  1.8422
 7138SOL     OW33046   3.440   2.250   2.661 -0.3126  0.1042  0.7519
 7138SOL    HW133047   3.454   2.256   2.566  1.1487 -1.5911  0.8646
 7138SOL    HW233048   3.397   2.335   2.665  0.4736  0.6020 -1.3177
 7139SOL     OW33049   0.235   2.048   9.550 -0.0390 -0.2914 -0.0522
 7139SOL    HW133050   0.256   2.018   9.462 -3.0480  1.5623 -1.3996
 7139SOL    HW233051   0.178   1.980   9.588 -1.0482  1.9861  2.5254
 7140SOL     OW33052   2.492   2.480   9.563 -0.6439 -0.0125 -0.2050
 7140SOL    HW133053   2.424   2.527   9.611 -0.2952  0.0639  0.2111
 7140SOL    HW233054   2.459   2.457   9.476  0.5820 -1.8422 -0.1844
 7141SOL     OW33055   1.599   1.295   3.729 -0.5305  0.2879  0.4578
 7141SOL    HW133056   1.601   1.301   3.825 -0.1664  1.2488  0.3903
 7141SOL    HW233057   1.529   1.358   3.713 -0.2809  1.0412  2.2328
 7142SOL     OW33058   2.178   2.420   4.931  0.7879 -0.1927  0.5056
 7142SOL    HW133059   2.117   2.437   4.859  0.4839  1.5956  1.1705
 7142SOL    HW233060   2.258   2.384   4.893  0.1873 -0.3558 -0.5927
 7143SOL     OW33061   3.351   2.367   5.583  0.2297 -0.0662 -0.0454
 7143SOL    HW133062   3.326   2.286   5.540 -0.9030 -0.0090  0.5271
 7143SOL    HW233063   3.382   2.425   5.513 -0.0626 -0.2598 -0.3311
 7144SOL     OW33064   3.155   2.923   7.607  0.7882 -0.0942 -0.3255
 7144SOL    HW133065   3.084   2.967   7.561  0.7118 -2.1334 -2.1368
 7144SOL    HW233066   3.136   2.939   7.700  3.7281 -0.2669  0.3097
 7145SOL     OW33067   4.655   3.768   2.307 -0.1985 -0.0261 -0.0630
 7145SOL    HW133068   4.673   3.681   2.342  0.9627  0.6790  1.1134
 7145SOL    HW233069   4.592   3.744   2.239  1.2932 -1.1093 -1.0454
 7146SOL     OW33070   1.214   1.349  15.154 -0.3475 -0.5042 -0.5402
 7146SOL    HW133071   1.170   1.339  15.070 -1.1147 -0.7772 -0.1078
 7146SOL    HW233072   1.166   1.283  15.203  1.8928  2.0363  5.1384
 7147SOL     OW33073   3.956   0.463   7.438  0.1351  0.1925 -0.0968
 7147SOL    HW133074   4.049   0.476   7.422  0.6046  0.2894  2.6218
 7147SOL    HW233075   3.945   0.500   7.526 -0.3029  1.4071 -0.6679
 7148SOL     OW33076   1.172   1.717   3.864  0.5005  0.4995 -0.0110
 7148SOL    HW133077   1.128   1.646   3.911 -2.0948  1.3479 -1.1982
 7148SOL    HW233078   1.132   1.799   3.891 -1.6634 -0.4546 -0.3626
 7149SOL     OW33079   1.689   1.700   5.387 -0.2686  0.1395  0.5833
 7149SOL    HW133080   1.688   1.652   5.469  1.6599 -1.5000 -0.3354
 7149SOL    HW233081   1.595   1.707   5.375 -0.1291 -1.1072 -1.3459
 7150SOL     OW33082   1.662   3.637   8.905  0.4747 -0.1850 -0.3347
 7150SOL    HW133083   1.672   3.731   8.919  3.2016 -0.8448  1.9976
 7150SOL    HW233084   1.582   3.653   8.854  0.5739 -0.2870 -0.5222
 7151SOL     OW33085   2.758   1.817   7.871 -0.4352  0.6086 -0.4228
 7151SOL    HW133086   2.761   1.793   7.778  0.3862 -0.3115 -0.1559
 7151SOL    HW233087   2.751   1.912   7.872 -3.0579  0.4406 -1.4589
 7152SOL     OW33088   4.123   0.896   4.654 -0.3231 -0.2877  0.1575
 7152SOL    HW133089   4.156   0.853   4.575 -0.6665  0.7729 -0.5645
 7152SOL    HW233090   4.167   0.980   4.641  0.6168 -1.2114 -2.7185
 7153SOL     OW33091   3.967   4.517   2.963 -0.2499 -0.0842 -0.3893
 7153SOL    HW133092   4.038   4.546   3.020 -2.0148  1.0166  1.2497
 7153SOL    HW233093   3.949   4.432   3.002 -1.1689  0.8657  1.2441
 7154SOL     OW33094   1.783   0.464   9.646 -0.7155 -0.4818 -0.1214
 7154SOL    HW133095   1.750   0.521   9.577 -1.8757 -0.6192  0.3212
 7154SOL    HW233096   1.785   0.378   9.603  2.1317  0.8034 -2.5471
 7155SOL     OW33097   1.791   4.603   6.671 -0.0815  0.1902 -0.0011
 7155SOL    HW133098   1.749   4.677   6.627 -0.4905 -0.0173  0.0437
 7155SOL    HW233099   1.767   4.533   6.611 -1.3536  0.3530  0.3142
 7156SOL     OW33100   4.497   1.006   0.965  0.4830  0.3106  0.0078
 7156SOL    HW133101   4.520   0.961   0.884 -0.4214  1.4281 -0.8726
 7156SOL    HW233102   4.465   0.936   1.021  0.6786 -0.7043 -1.1651
 7157SOL     OW33103   1.301   2.213   1.960  0.1889 -0.2958 -0.1404
 7157SOL    HW133104   1.349   2.139   1.923 -0.7386 -1.5936  1.2929
 7157SOL    HW233105   1.286   2.191   2.052 -0.0045  1.7790  0.3216
 7158SOL     OW33106   2.229   0.632   2.577 -0.0624 -0.1312  0.1840
 7158SOL    HW133107   2.261   0.573   2.510 -2.1125  0.2174 -1.0890
 7158SOL    HW233108   2.202   0.571   2.646 -0.4778 -3.4249 -2.9106
 7159SOL     OW33109   4.627   3.382  11.222  0.0421 -0.1663 -0.4553
 7159SOL    HW133110   4.605   3.365  11.314 -1.2521  0.9211 -0.5629
 7159SOL    HW233111   4.652   3.293  11.197 -1.2893 -0.2871 -1.3602
 7160SOL     OW33112   0.179   1.946   7.642 -0.4307 -0.1137 -0.4893
 7160SOL    HW133113   0.179   1.871   7.701  1.9431  0.1242 -0.1856
 7160SOL    HW233114   0.264   1.990   7.645 -2.3848  3.4810  2.4367
 7161SOL     OW33115   4.668   4.350   2.996  0.4235  0.0610  0.0198
 7161SOL    HW133116   4.671   4.416   2.928 -1.5258  0.3334  0.1794
 7161SOL    HW233117   4.581   4.362   3.034  0.6280  1.7482 -0.0368
 7162SOL     OW33118   2.881   2.625   0.254  0.0375  0.4575 -0.6586
 7162SOL    HW133119   2.879   2.549   0.312  2.9096  2.0391  1.5169
 7162SOL    HW233120   2.805   2.670   0.290  0.8705  1.7872 -0.5648
 7163SOL     OW33121   4.093   2.170   5.353 -0.1849  0.1886 -0.1539
 7163SOL    HW133122   4.175   2.213   5.329 -0.2004  0.3396  0.0644
 7163SOL    HW233123   4.100   2.085   5.310 -1.6891  0.9075 -1.8421
 7164SOL     OW33124   4.479   4.711   4.838  0.0997  0.1193  0.3831
 7164SOL    HW133125   4.555   4.732   4.783  0.8898  0.8136  1.7669
 7164SOL    HW233126   4.523   4.656   4.902  1.4105  1.4474  0.6310
 7165SOL     OW33127   0.957   1.989   3.442  0.5428  0.7278  0.1583
 7165SOL    HW133128   0.889   1.981   3.375  1.4527  0.7382 -0.7718
 7165SOL    HW233129   1.029   2.036   3.399  1.4871 -1.6376 -0.8381
 7166SOL     OW33130   1.733   3.242   8.563  0.2098 -0.1609 -0.2560
 7166SOL    HW133131   1.645   3.266   8.593 -0.0351 -0.7445 -0.4971
 7166SOL    HW233132   1.774   3.235   8.649 -0.4107  0.8958  0.1199
 7167SOL     OW33133   0.785   3.086  11.359  0.5223 -0.0290  0.1667
 7167SOL    HW133134   0.781   3.128  11.273  1.0840 -1.4244 -0.5407
 7167SOL    HW233135   0.824   3.160  11.405  0.8758  0.5407 -1.0334
 7168SOL     OW33136   2.271   2.159   1.383  0.0623 -0.5099  0.5072
 7168SOL    HW133137   2.298   2.108   1.307 -1.7182 -1.3243  0.4201
 7168SOL    HW233138   2.242   2.239   1.338 -1.0237 -0.3111  1.5437
 7169SOL     OW33139   2.311   1.851  13.800  0.2688 -0.0059  0.0557
 7169SOL    HW133140   2.315   1.900  13.883 -4.0815  0.0758  0.2373
 7169SOL    HW233141   2.221   1.817  13.805 -0.0143  0.6709 -0.4668
 7170SOL     OW33142   1.786   0.756   8.737  0.0923 -0.2496 -0.0943
 7170SOL    HW133143   1.824   0.676   8.700  1.6972  0.6821 -0.4659
 7170SOL    HW233144   1.821   0.823   8.679 -2.3774  0.6029 -0.5979
 7171SOL     OW33145   4.014   4.598   3.321 -0.4589 -0.2808 -0.3029
 7171SOL    HW133146   3.930   4.638   3.297 -1.3300 -2.5386 -1.0565
 7171SOL    HW233147   3.980   4.539   3.388  0.5223  1.6759  1.9054
 7172SOL     OW33148   1.708   0.123   4.619  0.3663  0.4741  0.1564
 7172SOL    HW133149   1.773   0.078   4.673 -2.0773  0.1880  2.9005
 7172SOL    HW233150   1.732   0.099   4.530  1.6254  1.0237  0.3476
 7173SOL     OW33151   1.595   2.533   2.505  0.4988 -0.1848  0.3348
 7173SOL    HW133152   1.618   2.516   2.414  0.5168  2.1778 -0.1173
 7173SOL    HW233153   1.670   2.485   2.538  0.9202  0.0513 -0.2857
 7174SOL     OW33154   0.448   0.229   6.948  0.4868 -0.0839  0.2175
 7174SOL    HW133155   0.524   0.282   6.922 -0.2224  0.4686 -0.7546
 7174SOL    HW233156   0.384   0.286   6.905 -0.5407 -2.6634 -1.6562
 7175SOL     OW33157   1.422   0.148   0.070  0.6578  0.1370 -0.0413
 7175SOL    HW133158   1.438   0.242   0.073 -0.1383  0.2512  0.7027
 7175SOL    HW233159   1.395   0.137  17.714 -0.0396  0.9132  0.0731
 7176SOL     OW33160   0.554   3.244   7.999 -0.3903 -0.1048 -0.4429
 7176SOL    HW133161   0.481   3.248   8.061 -1.4619  0.7227 -1.7594
 7176SOL    HW233162   0.544   3.332   7.962  3.1747 -0.4721 -2.3167
 7177SOL     OW33163   2.711   3.511   9.040 -0.1678  0.0654  0.6141
 7177SOL    HW133164   2.797   3.526   9.000 -0.5894 -2.0261 -1.0226
 7177SOL    HW233165   2.734   3.529   9.132 -1.6834 -0.3013  1.0626
 7178SOL     OW33166   0.497   3.133  10.879 -0.0973  0.0491  0.1794
 7178SOL    HW133167   0.528   3.043  10.889 -2.0180 -0.6231  0.0642
 7178SOL    HW233168   0.500   3.154  10.972 -2.0233  1.6128 -0.0908
 7179SOL     OW33169   1.443   3.711  15.972 -0.9793  0.2456 -0.1810
 7179SOL    HW133170   1.348   3.716  15.982 -0.6248  2.7467  2.1215
 7179SOL    HW233171   1.469   3.729  16.063  2.9333 -0.4889 -1.1521
 7180SOL     OW33172   4.591   2.879   9.077  0.3270  0.7472 -0.1022
 7180SOL    HW133173   4.580   2.961   9.125 -0.9335  0.5009  0.0167
 7180SOL    HW233174   4.661   2.903   9.016 -1.3116  2.5429 -1.2485
 7181SOL     OW33175   3.255   0.435   0.785  0.5970  0.1514  0.0943
 7181SOL    HW133176   3.339   0.429   0.739  0.1168 -1.0356 -0.6420
 7181SOL    HW233177   3.277   0.414   0.876  1.5299 -2.5912 -0.7626
 7182SOL     OW33178   0.082   2.237  15.123  0.4557 -0.0543  0.3059
 7182SOL    HW133179   0.003   2.247  15.176  0.1480  0.9858 -0.3361
 7182SOL    HW233180   0.099   2.152  15.162  0.4186 -1.0490 -1.8244
 7183SOL     OW33181   2.793   1.012   5.646 -0.2460 -0.6293 -0.7332
 7183SOL    HW133182   2.791   0.970   5.560 -1.1610 -0.0985 -0.9581
 7183SOL    HW233183   2.794   1.105   5.627  0.8609 -0.6901 -0.9781
 7184SOL     OW33184   0.877   4.313   4.597 -0.0698  0.7571 -0.2508
 7184SOL    HW133185   0.952   4.272   4.554  0.0391  1.5932 -0.8637
 7184SOL    HW233186   0.814   4.335   4.528 -0.3409  1.1166  0.1038
 7185SOL     OW33187   0.045   3.750  10.026  0.1475 -0.0101  0.0754
 7185SOL    HW133188   0.033   3.753   9.931 -0.5176 -1.4656  0.1089
 7185SOL    HW233189   4.706   3.690  10.041 -1.1385  1.0695 -1.9692
 7186SOL     OW33190   3.704   2.414   2.249  0.0003  0.6121 -0.2316
 7186SOL    HW133191   3.630   2.427   2.190 -0.4725 -1.2985 -0.0574
 7186SOL    HW233192   3.746   2.499   2.242 -0.9970  1.0323 -1.1196
 7187SOL     OW33193   0.664   1.385  16.026  0.2075 -0.1198 -0.0482
 7187SOL    HW133194   0.627   1.474  16.022 -2.4637 -1.3168 -1.3633
 7187SOL    HW233195   0.643   1.360  16.116  1.1777  1.1284  0.5338
 7188SOL     OW33196   1.102   1.460   2.559 -0.0685 -0.2610  0.1427
 7188SOL    HW133197   1.043   1.506   2.618 -1.8248 -1.0315 -1.0170
 7188SOL    HW233198   1.051   1.380   2.567 -1.0191  0.0639 -2.4137
 7189SOL     OW33199   0.530   0.180   6.473  0.2039  0.2720 -0.0981
 7189SOL    HW133200   0.458   0.165   6.534  0.4194 -0.1353  0.0523
 7189SOL    HW233201   0.491   0.149   6.391 -0.7377 -1.7168  1.1109
 7190SOL     OW33202   3.167   1.691   0.102 -0.0780 -0.3239 -0.4529
 7190SOL    HW133203   3.195   1.660   0.188  0.3371 -1.1115 -0.8703
 7190SOL    HW233204   3.233   1.758   0.082 -1.4735  1.5031  1.0259
 7191SOL     OW33205   1.534   1.976   5.626  0.6586  0.2162 -0.2398
 7191SOL    HW133206   1.625   1.964   5.655  0.0104 -0.6768  1.4037
 7191SOL    HW233207   1.545   1.955   5.533  0.1542 -1.6143  0.1274
 7192SOL     OW33208   2.208   3.845  13.143  0.0718 -0.2029 -0.3764
 7192SOL    HW133209   2.179   3.860  13.053  0.3796  2.9517  0.0575
 7192SOL    HW233210   2.167   3.922  13.183  1.7433  0.0197  0.8794
 7193SOL     OW33211   2.313   4.733   0.387 -0.3812  0.3711 -0.1778
 7193SOL    HW133212   2.387   0.023   0.443 -0.3185 -1.7172  0.6597
 7193SOL    HW233213   2.298   4.642   0.413  1.4894 -0.1162 -0.8196
 7194SOL     OW33214   0.749   4.622   1.925  0.8527 -0.3516  0.2625
 7194SOL    HW133215   0.839   4.651   1.919  1.2730 -1.3782  1.4546
 7194SOL    HW233216   0.713   4.701   1.966  0.5247 -0.8070  0.8582
 7195SOL     OW33217   3.345   0.052   0.290 -0.0562 -0.2033 -0.2656
 7195SOL    HW133218   3.401   4.728   0.341 -0.3505 -0.4049 -0.1739
 7195SOL    HW233219   3.346   0.134   0.340  0.9663  0.0427 -0.6784
 7196SOL     OW33220   1.522   3.228   7.726 -0.3197  0.3665 -0.7764
 7196SOL    HW133221   1.483   3.299   7.674  3.0058  3.5311  1.1120
 7196SOL    HW233222   1.542   3.164   7.658  0.9771  0.7713 -0.7700
 7197SOL     OW33223   4.307   2.673  17.614  0.0175  0.7814 -0.2038
 7197SOL    HW133224   4.358   2.724  17.678 -0.4970 -0.2785  1.0588
 7197SOL    HW233225   4.363   2.597  17.596  1.2039  1.4789  0.5413
 7198SOL     OW33226   2.965   0.457   2.213 -0.2964  0.0745  0.2309
 7198SOL    HW133227   3.015   0.525   2.259  0.6486 -1.6865  1.8277
 7198SOL    HW233228   2.956   0.493   2.125  0.4286  0.2098  0.2055
 7199SOL     OW33229   1.994   4.322   0.753  0.9935 -0.3029 -0.0981
 7199SOL    HW133230   1.938   4.367   0.816  0.8365  1.2631 -1.3670
 7199SOL    HW233231   2.080   4.364   0.763  0.3357  0.6931  1.3381
 7200SOL     OW33232   0.439   2.318   8.794 -0.7141 -0.0076  0.5305
 7200SOL    HW133233   0.497   2.391   8.815 -1.3509  1.4812 -2.7673
 7200SOL    HW233234   0.402   2.294   8.878 -2.8870 -1.5152 -0.8536
 7201SOL     OW33235   3.806   2.290   8.665  0.2768  0.0833  0.2176
 7201SOL    HW133236   3.832   2.349   8.594  1.3210 -0.5054  0.1176
 7201SOL    HW233237   3.768   2.211   8.625 -0.8448 -0.4881  2.4428
 7202SOL     OW33238   1.027   3.339   8.439  0.0411  0.1560 -0.4308
 7202SOL    HW133239   1.064   3.322   8.352 -0.9753 -0.7152 -0.6928
 7202SOL    HW233240   0.934   3.318   8.427  0.0503 -1.2736  1.9943
 7203SOL     OW33241   1.952   3.658   4.616  0.5819  0.1022  0.5869
 7203SOL    HW133242   1.936   3.622   4.703  0.0946  1.6218  1.1375
 7203SOL    HW233243   1.875   3.641   4.562  0.4776  1.6310  0.2447
 7204SOL     OW33244   0.385   1.780   5.603  0.1988  0.0605 -0.5542
 7204SOL    HW133245   0.414   1.853   5.656  1.6001  0.2155 -1.5284
 7204SOL    HW233246   0.454   1.785   5.536  0.3177  0.0870 -0.4287
 7205SOL     OW33247   4.438   1.238   8.002  0.2778 -0.1900 -0.1476
 7205SOL    HW133248   4.372   1.305   8.020  1.8999  0.9374  1.5634
 7205SOL    HW233249   4.503   1.254   8.071 -0.2383 -1.6352  0.6929
 7206SOL     OW33250   3.977   3.596   3.470 -0.2275 -0.0095 -0.0533
 7206SOL    HW133251   3.913   3.535   3.507 -3.0726  2.5899 -0.6825
 7206SOL    HW233252   4.004   3.643   3.549 -0.5001  2.8086 -1.6609
 7207SOL     OW33253   2.434   3.716   4.633  0.6265 -0.6840  0.8038
 7207SOL    HW133254   2.409   3.794   4.682  1.0332 -0.5826  0.8501
 7207SOL    HW233255   2.390   3.735   4.550  0.3762 -1.3218  0.7886
 7208SOL     OW33256   2.336   2.636   6.649  0.2965  0.7030 -0.6319
 7208SOL    HW133257   2.241   2.635   6.663  0.9975  2.5632  4.2270
 7208SOL    HW233258   2.353   2.551   6.690  0.5242  0.0166 -2.1502
 7209SOL     OW33259   1.787   3.996  11.042  0.4708 -0.2259 -0.3264
 7209SOL    HW133260   1.864   4.052  11.028 -0.4071  1.1889  0.5297
 7209SOL    HW233261   1.729   4.036  10.978 -0.8172  0.8804  1.5302
 7210SOL     OW33262   1.037   4.054  13.360 -0.1530 -0.5840 -0.1441
 7210SOL    HW133263   0.977   3.986  13.391  0.5713 -1.0503  0.2201
 7210SOL    HW233264   1.085   4.072  13.441  1.2363 -1.6352 -0.7533
 7211SOL     OW33265   0.755   3.591   0.416 -0.0294  0.5332 -0.2812
 7211SOL    HW133266   0.804   3.663   0.376 -1.1089  2.3453  1.6753
 7211SOL    HW233267   0.730   3.622   0.503 -0.6086 -0.5542 -0.0596
 7212SOL     OW33268   2.151   1.432   5.017  0.5969 -0.3002 -0.1697
 7212SOL    HW133269   2.146   1.526   5.001 -1.9778 -0.4148 -0.0295
 7212SOL    HW233270   2.158   1.396   4.928  2.5489 -0.6816  0.1212
 7213SOL     OW33271   2.367   4.476  10.901  0.4696 -0.0755  0.6000
 7213SOL    HW133272   2.367   4.500  10.994  0.4343  0.6486  0.4155
 7213SOL    HW233273   2.373   4.380  10.899  0.8222 -0.0527  0.5583
 7214SOL     OW33274   0.373   2.626   9.966  0.5900 -0.0625 -0.4221
 7214SOL    HW133275   0.410   2.604   9.880  1.1462 -0.1469 -0.1622
 7214SOL    HW233276   0.456   2.647  10.010  0.3687 -0.0726  0.0001
 7215SOL     OW33277   1.864   1.883   7.796  0.0335  0.2306  0.3680
 7215SOL    HW133278   1.849   1.927   7.712  1.5602  0.8247  0.4007
 7215SOL    HW233279   1.862   1.791   7.769  2.4811  0.0682  0.7421
 7216SOL     OW33280   3.174   4.444   8.126 -0.0634 -0.2322 -0.2550
 7216SOL    HW133281   3.191   4.453   8.220 -1.0039  0.1454 -0.1242
 7216SOL    HW233282   3.207   4.355   8.109  2.1649  0.5152  0.2068
 7217SOL     OW33283   2.973   3.440   1.454  0.4884 -0.3490  0.1239
 7217SOL    HW133284   3.035   3.512   1.442  0.2639 -0.1444  0.1933
 7217SOL    HW233285   3.028   3.364   1.473  1.2402 -0.5544 -2.8560
 7218SOL     OW33286   3.920   2.811   2.824 -0.5742 -0.4479  0.7901
 7218SOL    HW133287   3.843   2.769   2.786 -0.8396 -0.3848  1.2500
 7218SOL    HW233288   3.985   2.793   2.756 -1.1412 -1.0312  0.4076
 7219SOL     OW33289   2.102   2.459  16.653  0.2806 -0.1050 -0.4947
 7219SOL    HW133290   2.151   2.418  16.724 -0.4289  0.0561  0.0895
 7219SOL    HW233291   2.017   2.461  16.698 -0.4798  0.0126 -1.9170
 7220SOL     OW33292   0.861   0.050  17.527 -0.0071 -0.5853  0.3212
 7220SOL    HW133293   0.920   0.125  17.537  1.6433 -1.9048  0.6022
 7220SOL    HW233294   0.913   4.703  17.529 -0.0153 -0.5668  1.3176
 7221SOL     OW33295   2.269   1.272   7.389  0.1715 -0.2395 -0.2452
 7221SOL    HW133296   2.323   1.229   7.323 -1.1937 -0.6739 -1.0595
 7221SOL    HW233297   2.241   1.349   7.340 -0.8689  0.1195  0.9145
 7222SOL     OW33298   0.699   0.888  14.595  0.1751  1.0714  0.1416
 7222SOL    HW133299   0.692   0.938  14.676 -0.5115  0.1531  0.6529
 7222SOL    HW233300   0.651   0.813  14.631 -1.4511  1.8608 -0.3549
 7223SOL     OW33301   4.064   0.375   0.379 -0.0448 -0.3189  0.2390
 7223SOL    HW133302   4.118   0.380   0.458  0.1572  0.1687  0.0725
 7223SOL    HW233303   4.055   0.281   0.365  2.7215 -0.2789 -1.8833
 7224SOL     OW33304   0.159   3.522   6.669 -0.0423 -0.1688  0.0619
 7224SOL    HW133305   0.157   3.427   6.683 -0.2486 -0.0979  0.5253
 7224SOL    HW233306   0.067   3.540   6.647  0.2428  0.8798 -0.2720
 7225SOL     OW33307   4.346   3.779   9.426  0.5225  0.0621 -0.1628
 7225SOL    HW133308   4.281   3.724   9.383 -0.1156  1.4817 -0.9937
 7225SOL    HW233309   4.296   3.785   9.508 -0.4484  1.4766 -0.8538
 7226SOL     OW33310   4.322   2.276   5.248  0.3270 -0.8244  0.0026
 7226SOL    HW133311   4.376   2.224   5.188 -1.0327 -1.2966 -0.8117
 7226SOL    HW233312   4.350   2.246   5.334 -0.5916 -0.7898  0.3216
 7227SOL     OW33313   0.809   3.179   8.015 -0.0836 -0.5140 -0.2321
 7227SOL    HW133314   0.715   3.167   8.006 -0.4090 -0.4259  3.0153
 7227SOL    HW233315   0.830   3.244   7.948  0.5859 -0.4031  0.0810
 7228SOL     OW33316   3.947   0.735  13.019  0.2590 -0.6483 -0.0507
 7228SOL    HW133317   3.987   0.784  13.092  0.4644 -0.6589 -0.1557
 7228SOL    HW233318   3.887   0.684  13.074 -0.0161  0.5353  0.7501
 7229SOL     OW33319   1.449   4.359   7.473  0.3650 -0.2505  0.1479
 7229SOL    HW133320   1.371   4.314   7.504 -0.5221  1.3695  0.2518
 7229SOL    HW233321   1.509   4.285   7.473  0.4096 -0.2192 -0.5655
 7230SOL     OW33322   1.422   3.173  15.512  0.6498 -0.0979 -0.1438
 7230SOL    HW133323   1.508   3.185  15.553 -0.5033 -0.2801  2.3310
 7230SOL    HW233324   1.439   3.197  15.421 -1.9491  0.0210 -0.6038
 7231SOL     OW33325   0.084   1.069   3.268  0.3804 -0.0383  0.5875
 7231SOL    HW133326   0.149   1.054   3.337 -0.7999 -1.1702  1.4332
 7231SOL    HW233327   0.009   1.026   3.307  0.7336 -0.7696  0.4651
 7232SOL     OW33328   3.898   2.622   6.596 -0.3671  0.6108 -0.3017
 7232SOL    HW133329   3.803   2.633   6.601 -0.2708  1.3957 -0.1741
 7232SOL    HW233330   3.929   2.661   6.678 -0.3727 -0.1485  0.0712
 7233SOL     OW33331   0.527   1.259   4.112 -0.2925  0.1725  0.3116
 7233SOL    HW133332   0.526   1.353   4.094  0.3571  0.4176  1.5422
 7233SOL    HW233333   0.473   1.249   4.190  1.6726  0.0915  1.6555
 7234SOL     OW33334   1.330   4.606   2.966 -0.0184 -0.1376  0.6132
 7234SOL    HW133335   1.309   4.659   2.889 -2.6065 -1.0641  0.6572
 7234SOL    HW233336   1.388   4.538   2.932  1.3962  1.2082  0.3346
 7235SOL     OW33337   3.154   1.679   1.797  0.1465  0.2210  0.3067
 7235SOL    HW133338   3.081   1.683   1.858  0.4657 -1.7428  0.8129
 7235SOL    HW233339   3.109   1.665   1.714  1.2816 -0.9091 -0.1271
 7236SOL     OW33340   4.600   1.048   9.618 -0.9097  0.3030  0.3522
 7236SOL    HW133341   4.634   0.962   9.593  0.7247  1.3952 -1.1229
 7236SOL    HW233342   4.511   1.032   9.586 -0.7599 -0.3113  0.2444
 7237SOL     OW33343   3.332   1.409   9.368  0.4125  0.1548 -0.0810
 7237SOL    HW133344   3.373   1.322   9.372  0.1557  0.0150 -0.3883
 7237SOL    HW233345   3.251   1.396   9.416 -0.3842  0.0555 -1.4382
 7238SOL     OW33346   3.680   4.381   3.447  0.5980 -0.7003 -0.9550
 7238SOL    HW133347   3.688   4.390   3.352  1.4640  0.3327 -0.7820
 7238SOL    HW233348   3.585   4.377   3.447  0.5807  0.0780  0.3933
 7239SOL     OW33349   3.521   0.630   0.474 -0.0038 -0.4018 -0.8161
 7239SOL    HW133350   3.446   0.674   0.513  0.3086 -1.0931  0.5609
 7239SOL    HW233351   3.577   0.700   0.440 -1.1985  0.6341 -0.6372
 7240SOL     OW33352   4.024   0.866   7.984 -0.5235 -0.0073  0.2448
 7240SOL    HW133353   3.997   0.957   7.971 -1.2045 -0.1613  0.6120
 7240SOL    HW233354   4.027   0.867   8.079 -0.3611  0.5163  0.2338
 7241SOL     OW33355   2.263   2.472   8.445  0.0519 -0.4073 -0.0568
 7241SOL    HW133356   2.171   2.465   8.468  1.1442 -1.6904  3.8527
 7241SOL    HW233357   2.278   2.380   8.423 -1.1757 -0.5900 -0.1316
 7242SOL     OW33358   4.311   4.189   1.922  0.1787 -0.0174 -0.3588
 7242SOL    HW133359   4.262   4.173   1.841 -0.4745 -0.5745  0.1529
 7242SOL    HW233360   4.403   4.191   1.893  0.7030 -0.1937  1.3257
 7243SOL     OW33361   1.805   4.627   2.655  0.1358 -0.4909  0.1108
 7243SOL    HW133362   1.788   4.555   2.716 -0.2688 -0.3264  0.1899
 7243SOL    HW233363   1.752   4.599   2.581  1.1784 -1.2434 -0.3606
 7244SOL     OW33364   1.819   3.460  10.943 -0.3772  0.0733 -0.1863
 7244SOL    HW133365   1.762   3.389  10.973  0.1654 -0.0441  0.5613
 7244SOL    HW233366   1.855   3.420  10.864  1.3213 -1.2604  1.2532
 7245SOL     OW33367   4.444   2.786   4.433 -0.2082 -0.1830 -0.0504
 7245SOL    HW133368   4.495   2.723   4.381 -0.7148 -1.5309  1.1174
 7245SOL    HW233369   4.417   2.827   4.350 -0.0738 -0.2943 -0.1500
 7246SOL     OW33370   1.622   2.763   4.459 -0.2772 -0.0539  0.3999
 7246SOL    HW133371   1.592   2.672   4.461 -0.8453  0.1212 -0.1480
 7246SOL    HW233372   1.551   2.815   4.495  0.7423  1.0350  0.8137
 7247SOL     OW33373   1.156   4.533   8.642 -0.3439  0.1277  0.5813
 7247SOL    HW133374   1.119   4.485   8.568  0.0602 -0.3518  0.6959
 7247SOL    HW233375   1.078   4.544   8.697 -0.6506  0.4415  0.0869
 7248SOL     OW33376   4.061   1.675   6.595  0.3348 -0.0933  0.2864
 7248SOL    HW133377   4.091   1.622   6.669 -0.4172  2.4702  2.4152
 7248SOL    HW233378   4.109   1.757   6.602  0.8450 -0.2887 -0.8563
 7249SOL     OW33379   2.721   3.893  15.151  0.0487  0.2484  0.1632
 7249SOL    HW133380   2.649   3.836  15.179 -0.2084 -0.1305 -1.2862
 7249SOL    HW233381   2.678   3.950  15.088 -1.8285  0.2468  1.4437
 7250SOL     OW33382   4.558   0.723   2.887  0.1723  0.1836  0.0511
 7250SOL    HW133383   4.501   0.779   2.941  0.2112  1.2098 -0.9616
 7250SOL    HW233384   4.564   0.759   2.799 -0.4879  1.2115  0.4234
 7251SOL     OW33385   1.752   3.619   4.445  0.3160 -0.0354 -0.0793
 7251SOL    HW133386   1.745   3.666   4.362 -2.0204  0.2044  0.2547
 7251SOL    HW233387   1.790   3.535   4.418  0.5963 -1.0005  3.3258
 7252SOL     OW33388   2.448   0.865  11.465  0.3818 -0.4596 -0.6730
 7252SOL    HW133389   2.380   0.805  11.434  1.1339 -1.3698 -0.5554
 7252SOL    HW233390   2.395   0.938  11.499 -0.8776 -2.7361  2.2733
 7253SOL     OW33391   3.966   2.197   8.208  0.0057  0.1960  0.1495
 7253SOL    HW133392   3.994   2.287   8.190 -2.5343  0.7703 -0.9169
 7253SOL    HW233393   3.908   2.170   8.137 -0.8546  0.9678  0.5581
 7254SOL     OW33394   4.574   0.692   2.218 -0.1544  0.2222 -0.0532
 7254SOL    HW133395   4.553   0.625   2.153 -0.0663 -1.3433  1.5421
 7254SOL    HW233396   4.540   0.774   2.183 -1.4472 -0.6553 -0.8402
 7255SOL     OW33397   2.932   0.538   1.959  0.5500 -0.0711 -0.6180
 7255SOL    HW133398   2.884   0.482   1.897  0.5820  1.7343 -2.2929
 7255SOL    HW233399   2.938   0.616   1.904 -2.9388 -0.6246 -1.7838
 7256SOL     OW33400   3.190   3.407  10.490  0.1479  0.0470  0.3374
 7256SOL    HW133401   3.211   3.395  10.583 -1.5942  1.2050  0.8896
 7256SOL    HW233402   3.202   3.318  10.459 -0.8280 -0.3378  1.0608
 7257SOL     OW33403   2.230   3.537   6.716  0.2138 -0.1791  0.2601
 7257SOL    HW133404   2.160   3.514   6.778  1.7339 -1.6710  1.4435
 7257SOL    HW233405   2.295   3.581   6.771 -0.0733  2.4742 -1.5494
 7258SOL     OW33406   2.402   2.943   4.608  0.0353  0.2393  0.0682
 7258SOL    HW133407   2.341   2.923   4.537  1.1391 -1.4372 -0.4157
 7258SOL    HW233408   2.416   3.035   4.585  3.0350 -0.8590 -2.5628
 7259SOL     OW33409   2.124   2.263   3.211 -0.5268 -0.6302 -0.2648
 7259SOL    HW133410   2.159   2.187   3.257 -1.6959 -2.1919 -1.9808
 7259SOL    HW233411   2.087   2.305   3.288  1.7766 -0.6912  0.8943
 7260SOL     OW33412   4.001   3.853   3.734 -0.0256 -0.3655 -0.3288
 7260SOL    HW133413   4.019   3.904   3.655  0.2061  2.4508  1.5418
 7260SOL    HW233414   3.909   3.827   3.729  0.0666 -0.5635 -0.9359
 7261SOL     OW33415   4.529   0.423   2.091 -0.2738 -0.0920  0.3391
 7261SOL    HW133416   4.617   0.386   2.088  0.2635  1.1787  0.1485
 7261SOL    HW233417   4.490   0.383   2.168 -4.3116 -1.3006 -2.3415
 7262SOL     OW33418   0.526   4.646  16.427  0.6125 -0.1088 -0.2580
 7262SOL    HW133419   0.455   4.596  16.388 -0.7756  1.8340 -0.2456
 7262SOL    HW233420   0.497   0.001  16.408  1.0535  0.3252  1.0931
 7263SOL     OW33421   2.762   0.993   6.509  0.1373 -0.0417 -0.8294
 7263SOL    HW133422   2.746   0.943   6.428 -1.9746 -2.0638  0.8310
 7263SOL    HW233423   2.675   0.978   6.546  1.4861  0.7602  2.6675
 7264SOL     OW33424   3.333   0.289   5.051  0.3593  0.3528 -0.8615
 7264SOL    HW133425   3.425   0.312   5.037  1.3648 -2.4282  1.0816
 7264SOL    HW233426   3.349   0.201   5.085 -1.8701  0.4144  0.3190
 7265SOL     OW33427   1.640   4.079  17.350 -0.0047 -0.2083  0.0756
 7265SOL    HW133428   1.664   4.018  17.419  2.8444  1.5732  0.6545
 7265SOL    HW233429   1.571   4.030  17.305 -1.5477  1.1959  0.9208
 7266SOL     OW33430   2.300   2.018   0.224 -0.3551 -0.8067  0.2303
 7266SOL    HW133431   2.316   2.067   0.143  1.2457  0.0414  1.0694
 7266SOL    HW233432   2.207   2.030   0.243  0.3854  1.4762  2.4125
 7267SOL     OW33433   2.183   4.151   1.288  0.0211 -0.0322 -0.1040
 7267SOL    HW133434   2.256   4.107   1.246  1.0074 -1.3031  2.9657
 7267SOL    HW233435   2.122   4.148   1.214 -0.1769 -1.6960  0.1277
 7268SOL     OW33436   3.180   4.564   0.249 -0.4039 -0.2834 -0.5493
 7268SOL    HW133437   3.253   4.624   0.234 -0.3424  0.5282  3.1572
 7268SOL    HW233438   3.108   4.620   0.277  0.2938  0.3168  0.0523
 7269SOL     OW33439   4.234   0.756  10.609  0.1572 -0.0518  0.1142
 7269SOL    HW133440   4.315   0.777  10.656  0.2132 -0.5143  0.2215
 7269SOL    HW233441   4.226   0.663  10.631 -0.4959 -0.4750 -1.9666
 7270SOL     OW33442   1.518   3.596   5.687  0.1427 -0.0116 -0.3314
 7270SOL    HW133443   1.598   3.565   5.645  0.3644 -0.4010  0.3639
 7270SOL    HW233444   1.487   3.657   5.621  0.1825 -1.4450 -1.6640
 7271SOL     OW33445   4.003   1.209  15.349  0.2356  0.1682 -0.0931
 7271SOL    HW133446   3.919   1.250  15.330  0.0435  0.9624  2.4521
 7271SOL    HW233447   3.976   1.124  15.383  0.5773 -0.3571 -1.1263
 7272SOL     OW33448   0.105   4.437   5.362  0.0079 -0.0255  0.0082
 7272SOL    HW133449   0.194   4.464   5.384  0.2957  0.7712 -2.1308
 7272SOL    HW233450   0.103   4.438   5.266  0.2723 -1.5259 -0.0089
 7273SOL     OW33451   3.834   1.097   7.975 -0.6170  0.3785 -0.1638
 7273SOL    HW133452   3.813   1.182   7.937 -1.0712 -0.7258 -2.4447
 7273SOL    HW233453   3.754   1.049   7.951  0.6342 -0.8777 -1.8242
 7274SOL     OW33454   1.967   2.895   7.599 -0.2510  0.2288 -0.1976
 7274SOL    HW133455   1.936   2.983   7.579 -2.1206 -0.8120 -1.8916
 7274SOL    HW233456   1.938   2.848   7.521  0.3951  0.1091 -0.3660
 7275SOL     OW33457   0.174   4.563   4.446 -0.5021  0.0291 -0.5117
 7275SOL    HW133458   0.157   4.578   4.353  1.2340 -1.0024 -0.9743
 7275SOL    HW233459   0.095   4.608   4.478 -1.0450 -0.1247 -1.6384
 7276SOL     OW33460   0.815   1.341  12.886  0.6353  0.2463  0.1997
 7276SOL    HW133461   0.905   1.357  12.857  1.3250  0.9054  2.7653
 7276SOL    HW233462   0.766   1.394  12.822 -0.6774  0.7763  1.6626
 7277SOL     OW33463   3.352   3.934   6.780  0.6225  0.2125 -0.2478
 7277SOL    HW133464   3.301   3.858   6.807  3.1943 -0.8400  1.6192
 7277SOL    HW233465   3.421   3.889   6.732 -0.3454  0.2674 -1.6888
 7278SOL     OW33466   3.887   1.191  14.525 -0.2563 -0.2165  0.4586
 7278SOL    HW133467   3.843   1.107  14.531  0.7337 -0.8787 -1.5165
 7278SOL    HW233468   3.904   1.225  14.613 -1.4776 -0.2410  0.7069
 7279SOL     OW33469   0.876   0.389   5.302 -0.2047  0.2181  0.0418
 7279SOL    HW133470   0.801   0.419   5.251 -1.1469 -0.7720  0.8438
 7279SOL    HW233471   0.830   0.343   5.373 -0.5791  1.6067  0.6901
 7280SOL     OW33472   0.338   1.574   4.149 -0.0786  0.1911 -0.4686
 7280SOL    HW133473   0.306   1.534   4.069 -0.7206 -0.7405  0.2554
 7280SOL    HW233474   0.263   1.629   4.173 -1.6979 -1.9379 -0.6705
 7281SOL     OW33475   4.095   1.676   8.311  0.1312  0.2650  0.3753
 7281SOL    HW133476   4.190   1.677   8.323  0.1475  2.3247  0.0631
 7281SOL    HW233477   4.073   1.742   8.245 -2.4031 -0.8543  0.1316
 7282SOL     OW33478   0.176   2.169  11.180  0.1376  0.2427 -0.2119
 7282SOL    HW133479   0.224   2.130  11.106 -2.4261  0.9968 -2.2726
 7282SOL    HW233480   0.119   2.099  11.209 -0.8930  0.3284 -1.9681
 7283SOL     OW33481   1.921   3.349  16.150 -0.5952  0.5041 -0.0283
 7283SOL    HW133482   1.958   3.424  16.196  0.0207 -1.5972  2.9063
 7283SOL    HW233483   1.906   3.298  16.229 -1.2788 -1.6423 -1.5429
 7284SOL     OW33484   1.970   0.388   5.805  0.1094 -0.0404  0.0669
 7284SOL    HW133485   1.928   0.357   5.885 -0.0978  0.2183  0.0599
 7284SOL    HW233486   1.991   0.304   5.766  0.8602 -0.2376  0.9090
 7285SOL     OW33487   1.164   0.711   3.123 -0.0546  0.6977  0.6649
 7285SOL    HW133488   1.139   0.619   3.126 -0.7331  0.8096 -1.3574
 7285SOL    HW233489   1.259   0.696   3.119  0.1379  1.3593  3.1112
 7286SOL     OW33490   1.235   3.321   3.446 -0.2534  0.1740 -0.2791
 7286SOL    HW133491   1.289   3.274   3.510  1.1805  0.5251 -1.2251
 7286SOL    HW233492   1.162   3.259   3.445  0.8441 -1.1086 -0.5757
 7287SOL     OW33493   2.891   3.935   1.409 -0.0989 -0.5774 -0.3889
 7287SOL    HW133494   2.939   3.893   1.337 -1.4440 -0.5962 -1.2561
 7287SOL    HW233495   2.804   3.959   1.380 -0.2724 -1.3895 -0.5489
 7288SOL     OW33496   4.402   2.725   3.674 -0.8100 -0.7298  0.3652
 7288SOL    HW133497   4.399   2.777   3.594  0.3620  2.6368  2.5117
 7288SOL    HW233498   4.482   2.672   3.676 -0.1375  0.3767  3.1913
 7289SOL     OW33499   1.330   0.447   4.093  0.0732 -0.1480  0.4218
 7289SOL    HW133500   1.372   0.384   4.151  0.7896  1.5777  1.7908
 7289SOL    HW233501   1.318   0.513   4.161  1.4311  0.0764  0.4439
 7290SOL     OW33502   0.973   0.891   6.403  0.1442  0.2240  0.3581
 7290SOL    HW133503   0.983   0.979   6.366  1.5224 -0.9149 -1.9447
 7290SOL    HW233504   1.025   0.841   6.340  0.3298  0.1784  0.5457
 7291SOL     OW33505   3.000   2.134   3.924 -0.0609 -0.3883  0.1224
 7291SOL    HW133506   2.949   2.183   3.860  0.1919 -0.2670  0.0155
 7291SOL    HW233507   3.088   2.165   3.904  0.2886 -1.5131 -0.0888
 7292SOL     OW33508   3.732   0.754   6.067 -0.6376  0.2135 -0.2944
 7292SOL    HW133509   3.667   0.716   6.008 -1.2656 -1.0343  1.2127
 7292SOL    HW233510   3.771   0.679   6.112  0.4371 -0.6495 -2.6801
 7293SOL     OW33511   4.668   1.316  17.538 -0.3698  0.2874 -0.2314
 7293SOL    HW133512   0.001   1.350  17.597  0.6445  0.6049 -1.5861
 7293SOL    HW233513   4.633   1.239  17.583  3.3975  0.6843  3.2999
 7294SOL     OW33514   1.484   3.093   6.628  0.3544  0.0043  0.3832
 7294SOL    HW133515   1.473   3.088   6.534 -0.6991 -2.6842  0.6581
 7294SOL    HW233516   1.393   3.100   6.656  0.2877 -3.7935  0.9992
 7295SOL     OW33517   4.110   2.110   7.601 -0.0838  0.3469  0.4765
 7295SOL    HW133518   4.165   2.188   7.603  2.0538 -1.1690  0.2795
 7295SOL    HW233519   4.145   2.043   7.542 -2.3743  0.0157 -0.4980
 7296SOL     OW33520   3.601   4.152  13.686  0.2388  0.1634  0.3999
 7296SOL    HW133521   3.636   4.083  13.629 -1.1966 -0.6556  0.5272
 7296SOL    HW233522   3.682   4.201  13.702 -0.2774 -0.1684  3.9563
 7297SOL     OW33523   3.967   0.141  15.312  0.3991  0.1641 -0.3060
 7297SOL    HW133524   3.920   0.210  15.358  2.4638 -0.4310  2.6891
 7297SOL    HW233525   3.884   0.105  15.280  0.9584 -0.6258 -0.8568
 7298SOL     OW33526   3.966   2.650   7.908 -0.1898 -0.2545  0.1003
 7298SOL    HW133527   3.934   2.729   7.953 -1.1460  1.2815 -3.3173
 7298SOL    HW233528   4.054   2.674   7.878 -0.1665 -1.5771 -0.8596
 7299SOL     OW33529   0.622   3.462   3.314  0.1339 -0.2895 -0.3255
 7299SOL    HW133530   0.632   3.416   3.397  0.5974  2.8864  1.3378
 7299SOL    HW233531   0.526   3.459   3.310  0.0032  3.0147  1.0438
 7300SOL     OW33532   0.535   2.612  17.218 -0.4865 -0.1138 -0.4933
 7300SOL    HW133533   0.607   2.553  17.197 -0.7448 -0.2752 -0.9409
 7300SOL    HW233534   0.463   2.553  17.241 -0.0192 -1.4132 -2.3849
 7301SOL     OW33535   1.787   0.627   0.979  0.1382  0.1007  0.4480
 7301SOL    HW133536   1.857   0.657   1.037  0.5460  0.3691 -0.1749
 7301SOL    HW233537   1.817   0.536   0.969 -1.8553 -0.4512 -0.4377
 7302SOL     OW33538   2.047   1.764   0.125 -0.2371  0.6629 -0.1429
 7302SOL    HW133539   1.971   1.713   0.154  0.7985 -1.4452 -1.1170
 7302SOL    HW233540   2.100   1.764   0.204  0.1736 -1.5418 -0.4233
 7303SOL     OW33541   1.190   3.494  14.735 -0.0529  0.2672 -0.0629
 7303SOL    HW133542   1.271   3.454  14.764 -0.5867  0.8127  2.2089
 7303SOL    HW233543   1.132   3.474  14.809  0.9239 -3.3771 -0.2666
 7304SOL     OW33544   0.219   3.804  13.434  0.3136 -1.2344  0.3876
 7304SOL    HW133545   0.132   3.779  13.466 -0.0764  0.2884  0.5348
 7304SOL    HW233546   0.263   3.841  13.510  0.8298 -2.6173  0.7633
 7305SOL     OW33547   3.057   0.591  17.641 -0.0679  0.1939 -0.2535
 7305SOL    HW133548   2.986   0.600  17.705 -0.6516  0.9201 -1.0100
 7305SOL    HW233549   3.012   0.513  17.609  2.2443 -1.8203  1.4428
 7306SOL     OW33550   2.914   2.827   9.580 -0.6216  0.2692 -0.2508
 7306SOL    HW133551   2.916   2.836   9.485  2.6426  0.5598 -0.1748
 7306SOL    HW233552   2.822   2.815   9.603 -1.2293 -0.1325 -2.8754
 7307SOL     OW33553   4.074   2.723   2.616 -0.2737 -0.4342  0.0181
 7307SOL    HW133554   4.156   2.735   2.569  0.9055 -1.1429  1.9409
 7307SOL    HW233555   4.091   2.639   2.658 -0.1010 -1.6431 -2.4877
 7308SOL     OW33556   1.828   2.304  12.906  0.0776  0.2550 -0.2828
 7308SOL    HW133557   1.796   2.333  12.991  2.2070 -3.0366  1.6371
 7308SOL    HW233558   1.762   2.350  12.854  2.4624  1.0980 -2.5891
 7309SOL     OW33559   4.690   0.470  14.872  0.9080 -0.3326 -0.5467
 7309SOL    HW133560   0.025   0.439  14.930 -0.0810 -1.8063 -0.1546
 7309SOL    HW233561   4.629   0.486  14.943  0.0450 -1.7248 -0.9822
 7310SOL     OW33562   2.045   4.224   3.080  0.8224  0.0048 -0.2147
 7310SOL    HW133563   2.015   4.261   2.997 -0.1067  1.4627  0.7846
 7310SOL    HW233564   2.085   4.301   3.119  0.3814  1.5039 -2.7820
 7311SOL     OW33565   3.773   4.435   7.309 -0.3313 -0.2256  0.3037
 7311SOL    HW133566   3.782   4.503   7.242 -1.8575 -1.0326 -0.7398
 7311SOL    HW233567   3.863   4.420   7.337 -0.0786  2.0876  0.6805
 7312SOL     OW33568   1.761   3.183   6.693 -0.5972  0.3804 -0.0526
 7312SOL    HW133569   1.756   3.226   6.607 -2.0194 -0.9652 -0.6543
 7312SOL    HW233570   1.683   3.128   6.687  0.7008 -1.2438 -2.1837
 7313SOL     OW33571   0.344   0.940   2.948  0.1329 -0.4176  0.1220
 7313SOL    HW133572   0.287   1.015   2.968 -0.0033 -0.4128 -0.2744
 7313SOL    HW233573   0.377   0.962   2.861  0.0528  1.0998  0.4711
 7314SOL     OW33574   3.428   2.456  16.960  0.1863 -0.2559 -0.4984
 7314SOL    HW133575   3.486   2.423  16.891  1.0861 -1.2747  0.7483
 7314SOL    HW233576   3.393   2.534  16.916 -2.7373  0.2531  2.7565
 7315SOL     OW33577   1.217   3.832  17.523  0.7250  0.6024 -0.5823
 7315SOL    HW133578   1.297   3.885  17.522 -0.6887  2.7328 -0.6613
 7315SOL    HW233579   1.227   3.775  17.599  0.7126  0.7851 -0.4440
 7316SOL     OW33580   4.382   0.468   9.516  0.3839  0.4136  0.2045
 7316SOL    HW133581   4.366   0.392   9.461  1.6431 -0.4363  1.0089
 7316SOL    HW233582   4.310   0.479   9.578  1.2816 -0.7814  1.4547
 7317SOL     OW33583   2.455   4.142   7.556 -0.0964 -0.4584  0.0313
 7317SOL    HW133584   2.379   4.197   7.574 -0.0164  0.2528 -1.7911
 7317SOL    HW233585   2.516   4.215   7.545 -1.7085  0.9317  0.2292
 7318SOL     OW33586   3.039   3.114   4.779 -0.7036  0.3207 -0.0842
 7318SOL    HW133587   2.971   3.092   4.716 -0.3551 -0.0707 -0.3313
 7318SOL    HW233588   3.107   3.071   4.726  1.9379  0.6692  2.9965
 7319SOL     OW33589   4.039   2.232  14.617  0.5866 -0.1164 -0.1299
 7319SOL    HW133590   4.029   2.285  14.538 -0.4890 -1.3081 -0.7847
 7319SOL    HW233591   3.961   2.178  14.630  1.4455 -1.1123  0.8391
 7320SOL     OW33592   4.495   2.002   7.091  0.1586  0.4105 -0.3046
 7320SOL    HW133593   4.482   1.933   7.026  0.2155 -1.4957  1.7035
 7320SOL    HW233594   4.436   2.069   7.058  0.1542  0.7469  0.3816
 7321SOL     OW33595   1.429   2.085   7.394  0.0716 -0.1466  0.3583
 7321SOL    HW133596   1.360   2.038   7.348 -0.7588 -0.4922  1.9733
 7321SOL    HW233597   1.424   2.176   7.366  0.2823  0.1067  1.1487
 7322SOL     OW33598   3.723   4.632   7.125  0.0253  0.0094 -0.0309
 7322SOL    HW133599   3.694   4.631   7.033 -0.1327  3.0246 -0.0013
 7322SOL    HW233600   3.723   4.725   7.148 -1.7990  0.2937 -1.1474
 7323SOL     OW33601   0.502   2.670  14.049  0.1625  0.3339 -0.0691
 7323SOL    HW133602   0.441   2.608  14.090 -0.2059  0.5371 -0.3141
 7323SOL    HW233603   0.515   2.631  13.963  1.1216 -0.5956  0.4874
 7324SOL     OW33604   2.690   3.271   8.273 -0.3790  0.5416 -0.4348
 7324SOL    HW133605   2.733   3.321   8.343  0.5435 -1.5759  0.5272
 7324SOL    HW233606   2.662   3.342   8.215  0.4793  0.5211 -0.8560
 7325SOL     OW33607   1.440   4.259   4.672 -0.1551  0.2893  0.1179
 7325SOL    HW133608   1.492   4.203   4.614 -0.1750 -0.7031  1.0763
 7325SOL    HW233609   1.393   4.207   4.737  0.9658  1.3340  1.7774
 7326SOL     OW33610   1.497   1.266   3.111 -0.4594  0.1117 -0.4458
 7326SOL    HW133611   1.511   1.299   3.022 -0.4160 -2.0055 -1.2073
 7326SOL    HW233612   1.402   1.282   3.115 -0.7122 -1.2033 -1.2856
 7327SOL     OW33613   1.429   0.142   6.442  0.1013 -0.4238  0.3773
 7327SOL    HW133614   1.360   0.088   6.403 -0.2175 -0.8917  1.5886
 7327SOL    HW233615   1.423   0.214   6.381 -0.3688 -0.6264  0.1853
 7328SOL     OW33616   1.152   0.972   8.646 -0.2811  0.2834  0.5832
 7328SOL    HW133617   1.150   1.060   8.607  1.7061 -0.3945 -1.0244
 7328SOL    HW233618   1.200   0.982   8.728  1.2520 -0.8016 -0.1901
 7329SOL     OW33619   0.711   0.708   5.393 -0.4985  0.6806  0.0935
 7329SOL    HW133620   0.640   0.769   5.414 -0.2927  0.9431  0.0391
 7329SOL    HW233621   0.726   0.649   5.466 -2.2593  0.1786  0.0435
 7330SOL     OW33622   0.961   4.339   5.740  0.1891 -0.2408 -0.6446
 7330SOL    HW133623   0.925   4.323   5.653  0.0365  1.8829 -0.9777
 7330SOL    HW233624   1.011   4.258   5.742 -1.2179 -1.0632  1.2570
 7331SOL     OW33625   4.081   3.247   4.838 -0.0401 -0.1008 -0.1014
 7331SOL    HW133626   4.086   3.331   4.793  1.6601  0.5258  1.3209
 7331SOL    HW233627   4.062   3.191   4.762  1.2300  3.4432 -3.0549
 7332SOL     OW33628   2.138   2.185  10.499 -0.3220  0.0910  0.1860
 7332SOL    HW133629   2.149   2.110  10.558 -2.3453 -0.2966  0.0704
 7332SOL    HW233630   2.102   2.247  10.562  0.8055  0.5375  0.3959
 7333SOL     OW33631   0.693   3.660  12.082 -0.0686 -0.1484 -0.0935
 7333SOL    HW133632   0.735   3.609  12.152 -3.4951 -4.1805 -0.9529
 7333SOL    HW233633   0.610   3.684  12.123 -0.9006  1.0963 -2.4805
 7334SOL     OW33634   3.176   0.637   7.881  0.6810 -0.3316 -0.4822
 7334SOL    HW133635   3.211   0.719   7.916 -0.1448 -0.0595 -0.2865
 7334SOL    HW233636   3.164   0.584   7.959  1.4158 -3.3342 -2.4126
 7335SOL     OW33637   0.780   4.361   7.871  0.2584 -0.1979 -0.5707
 7335SOL    HW133638   0.737   4.415   7.938 -0.2388 -1.5664  0.2035
 7335SOL    HW233639   0.720   4.383   7.799 -1.4771 -4.0523 -0.2888
 7336SOL     OW33640   1.975   0.423   2.115  0.3274  0.0842 -0.5428
 7336SOL    HW133641   2.028   0.343   2.111 -1.1059 -0.9196  0.9690
 7336SOL    HW233642   1.886   0.388   2.112  0.5450 -0.7761  3.0645
 7337SOL     OW33643   2.295   2.052   3.318 -0.1048 -0.1121  0.2085
 7337SOL    HW133644   2.270   1.962   3.294 -1.6080  0.4954 -0.4981
 7337SOL    HW233645   2.346   2.065   3.238 -3.5463  1.9488 -1.6887
 7338SOL     OW33646   0.853   0.410   8.152  0.1149  0.3321  0.0955
 7338SOL    HW133647   0.803   0.392   8.231 -1.5006 -1.4776 -1.3519
 7338SOL    HW233648   0.869   0.505   8.149  0.9074  0.2833  2.7890
 7339SOL     OW33649   4.203   0.352   8.378 -0.5339 -0.5596 -0.0201
 7339SOL    HW133650   4.128   0.295   8.397 -1.3216  0.0934 -1.1333
 7339SOL    HW233651   4.214   0.369   8.472  0.4744  2.6190 -0.7053
 7340SOL     OW33652   3.359   1.945   6.740  0.2342 -0.0862  0.0134
 7340SOL    HW133653   3.299   2.018   6.751  0.2856  0.1026 -0.9087
 7340SOL    HW233654   3.298   1.876   6.766 -0.8838  0.3699 -1.4431
 7341SOL     OW33655   2.593   1.775   7.045 -1.0671 -0.4705  0.4507
 7341SOL    HW133656   2.568   1.868   7.047  1.5393  0.2531 -1.8594
 7341SOL    HW233657   2.676   1.782   7.092 -0.6984  2.2289 -0.5906
 7342SOL     OW33658   4.008   1.398   2.220 -0.3217 -0.4149  1.1087
 7342SOL    HW133659   4.060   1.403   2.301  0.1022  1.5607  0.6979
 7342SOL    HW233660   3.921   1.380   2.255  0.2704 -0.7672  2.4206
 7343SOL     OW33661   1.317   2.423   3.725 -0.1673 -0.5268  0.2619
 7343SOL    HW133662   1.360   2.425   3.639  0.6023  1.9726  0.6815
 7343SOL    HW233663   1.238   2.474   3.710  0.0549 -0.6336 -1.2908
 7344SOL     OW33664   2.580   0.051   6.356 -0.0167  0.4468  0.4405
 7344SOL    HW133665   2.665   0.008   6.367  0.4673  0.1375 -4.6129
 7344SOL    HW233666   2.585   0.082   6.447  0.4769 -0.5384  0.7595
 7345SOL     OW33667   2.101   4.179   6.937  0.4966  0.0576  0.5528
 7345SOL    HW133668   2.085   4.270   6.962  1.7350  0.0989  1.2081
 7345SOL    HW233669   2.197   4.181   6.932  0.3785 -0.6892 -2.1836
 7346SOL     OW33670   1.797   1.532   6.023  0.4875 -0.4263 -0.3455
 7346SOL    HW133671   1.758   1.474   5.958  0.3073  2.2810 -2.6326
 7346SOL    HW233672   1.882   1.488   6.034  0.1998  0.1425  4.0285
 7347SOL     OW33673   1.134   3.906  16.759  0.3658  0.6878  0.9496
 7347SOL    HW133674   1.124   3.835  16.823  1.0593  1.2605  1.6857
 7347SOL    HW233675   1.105   3.977  16.815  0.0422 -0.7311  2.5928
 7348SOL     OW33676   1.076   0.853   6.643  1.2512 -0.4280  0.3367
 7348SOL    HW133677   1.034   0.860   6.558 -0.5644 -2.2363  1.0822
 7348SOL    HW233678   1.031   0.779   6.684 -0.8322  0.9177  0.5039
 7349SOL     OW33679   1.916   0.559   9.147 -0.3675  0.5202 -0.4890
 7349SOL    HW133680   2.006   0.542   9.176 -1.2071  0.6771  2.1943
 7349SOL    HW233681   1.906   0.518   9.061  0.1948  1.5908 -1.0621
 7350SOL     OW33682   4.670   0.107   3.325  0.1711  0.3445 -0.3850
 7350SOL    HW133683   0.015   0.150   3.356  0.7906 -0.1301 -1.3047
 7350SOL    HW233684   4.687   0.015   3.348 -0.6717  0.4818  0.8043
 7351SOL     OW33685   0.423   0.295   2.429 -0.2522  0.2654 -0.1373
 7351SOL    HW133686   0.504   0.313   2.382 -0.3032 -3.0449 -1.4691
 7351SOL    HW233687   0.452   0.246   2.505 -0.1963 -0.4325 -0.6142
 7352SOL     OW33688   1.312   1.698   1.423  0.2699 -0.0439 -0.3469
 7352SOL    HW133689   1.288   1.632   1.358  0.4460  1.2380 -1.7036
 7352SOL    HW233690   1.235   1.755   1.423  1.2875  1.3342  0.2258
 7353SOL     OW33691   1.426   4.397   3.692  0.3990  0.2877 -0.1390
 7353SOL    HW133692   1.453   4.372   3.780  0.3271  1.1216  0.1149
 7353SOL    HW233693   1.508   4.387   3.644  0.1696  1.1983 -0.7248
 7354SOL     OW33694   3.529   2.734   3.553  0.2883 -0.3577  0.2567
 7354SOL    HW133695   3.590   2.807   3.539 -0.7329  0.3448 -0.4684
 7354SOL    HW233696   3.560   2.662   3.499 -1.0058 -0.5116 -0.2557
 7355SOL     OW33697   0.372   1.622   7.084  0.3072 -0.4158 -0.0628
 7355SOL    HW133698   0.363   1.592   6.994  1.1838  3.2481 -1.3777
 7355SOL    HW233699   0.460   1.592   7.106  0.1320 -1.4504 -0.7651
 7356SOL     OW33700   2.149   0.450   0.591 -0.0397 -0.2620 -0.6274
 7356SOL    HW133701   2.235   0.487   0.572 -0.6471  1.3317 -0.2629
 7356SOL    HW233702   2.156   0.354   0.588  0.3596 -0.2574  0.0669
 7357SOL     OW33703   1.680   4.589   2.402  0.8132  0.2499  0.2796
 7357SOL    HW133704   1.710   4.503   2.372 -1.5154 -1.0005  1.5056
 7357SOL    HW233705   1.691   4.633   2.318 -0.2670  0.7218  0.3861
 7358SOL     OW33706   1.988   2.543   6.904  0.0274 -0.5303  0.4829
 7358SOL    HW133707   1.938   2.624   6.900  1.4385  0.2312 -1.7181
 7358SOL    HW233708   2.000   2.534   6.810 -1.4060 -0.6811  0.3201
 7359SOL     OW33709   3.760   2.731   3.765  0.1701  0.3384  0.1478
 7359SOL    HW133710   3.810   2.769   3.837  0.1255  0.7382 -0.0367
 7359SOL    HW233711   3.747   2.812   3.717  1.7000 -1.1037 -2.6870
 7360SOL     OW33712   3.495   1.328   6.349  0.5481 -0.3588  0.1404
 7360SOL    HW133713   3.442   1.255   6.318 -0.0467  0.3615 -0.5372
 7360SOL    HW233714   3.585   1.295   6.354  0.5621  0.0987  2.8595
 7361SOL     OW33715   4.332   1.157  12.020  0.1095  0.2831 -0.7978
 7361SOL    HW133716   4.405   1.098  12.037 -0.7253 -1.2667 -2.5780
 7361SOL    HW233717   4.286   1.117  11.946 -1.2410  0.1226  0.1108
 7362SOL     OW33718   1.342   2.234   7.075  0.2389  0.2373  0.5533
 7362SOL    HW133719   1.247   2.226   7.072  0.3268 -1.0749  1.3151
 7362SOL    HW233720   1.373   2.146   7.054 -3.4916 -0.7954 -0.5796
 7363SOL     OW33721   1.779   0.854   3.548  0.2193 -0.3874 -0.4584
 7363SOL    HW133722   1.744   0.936   3.514  3.3544  1.4999  0.7950
 7363SOL    HW233723   1.853   0.849   3.486  1.7154 -1.0211  1.3794
 7364SOL     OW33724   3.330   3.253   2.109 -0.2105  0.3032 -0.3924
 7364SOL    HW133725   3.239   3.229   2.125 -0.4639  1.9128  0.5326
 7364SOL    HW233726   3.324   3.331   2.053  1.2486  1.0054  0.4226
 7365SOL     OW33727   4.043   0.465   8.962 -0.4999 -0.5837  0.4406
 7365SOL    HW133728   3.984   0.541   8.962 -0.0455 -0.2149 -2.3473
 7365SOL    HW233729   4.068   0.447   9.052  0.1539  0.3809  0.4587
 7366SOL     OW33730   2.320   2.218   4.010 -0.1042  0.5567 -0.4415
 7366SOL    HW133731   2.272   2.143   3.975  2.4048 -0.8433 -0.8794
 7366SOL    HW233732   2.336   2.262   3.926  0.7434  0.5900 -0.2590
 7367SOL     OW33733   3.161   0.144   0.104  0.4086 -0.0327 -0.0741
 7367SOL    HW133734   3.170   0.239   0.115  0.7687 -0.1546  0.7111
 7367SOL    HW233735   3.242   0.114   0.146  0.8595  1.9146  0.4420
 7368SOL     OW33736   1.562   3.315   1.291  0.3496  1.0310  0.3455
 7368SOL    HW133737   1.493   3.376   1.315  1.1332  1.0313  2.6146
 7368SOL    HW233738   1.521   3.231   1.314  0.7149  0.4943 -0.9509
 7369SOL     OW33739   0.807   1.115   0.210 -0.3076 -0.5682 -0.2028
 7369SOL    HW133740   0.853   1.177   0.266  1.3031 -1.8827 -0.0739
 7369SOL    HW233741   0.871   1.091   0.144  2.7136  2.2511  1.7135
 7370SOL     OW33742   2.504   0.747   7.475 -0.8542  0.3165  0.0667
 7370SOL    HW133743   2.461   0.672   7.516  1.6152 -0.8486  0.5156
 7370SOL    HW233744   2.499   0.803   7.553 -0.8972  0.1428  0.1869
 7371SOL     OW33745   3.717   2.523   9.906  0.6599  0.8859 -0.5373
 7371SOL    HW133746   3.638   2.560   9.866  0.7572  0.4833 -1.1103
 7371SOL    HW233747   3.699   2.547   9.997 -0.1779 -2.9651  0.3272
 7372SOL     OW33748   4.183   0.767   8.478  0.7059  0.1070  0.5807
 7372SOL    HW133749   4.101   0.718   8.487 -0.0891  1.2596 -0.4875
 7372SOL    HW233750   4.248   0.696   8.477  1.9178  1.2394 -1.6470
 7373SOL     OW33751   4.163   4.064   9.159  0.1688  0.3345 -0.1075
 7373SOL    HW133752   4.156   4.087   9.066 -1.0472  0.0870 -0.0816
 7373SOL    HW233753   4.237   4.123   9.172 -0.9665  2.2054 -2.1366
 7374SOL     OW33754   2.269   2.186  14.536 -0.0683  0.3165  0.3102
 7374SOL    HW133755   2.287   2.192  14.442 -0.8163  0.0239  0.1508
 7374SOL    HW233756   2.203   2.117  14.537  0.6320 -0.3736 -0.4177
 7375SOL     OW33757   3.189   1.475   3.466 -0.3714  0.4774 -0.1596
 7375SOL    HW133758   3.246   1.431   3.529 -0.1445 -0.5900 -1.0833
 7375SOL    HW233759   3.231   1.466   3.380 -2.3225  0.5889 -1.1275
 7376SOL     OW33760   0.706   1.618   8.784 -0.3590 -0.0777  0.3266
 7376SOL    HW133761   0.634   1.589   8.840 -0.2016 -0.6526  0.2315
 7376SOL    HW233762   0.754   1.535   8.789  2.4914  1.5780  0.5326
 7377SOL     OW33763   2.403   4.224   4.919  0.2491  0.5221  0.0328
 7377SOL    HW133764   2.384   4.193   5.007  2.8948 -0.8774  0.1228
 7377SOL    HW233765   2.496   4.201   4.913 -0.4813 -2.5747  0.5923
 7378SOL     OW33766   0.287   4.582   8.671 -0.6203  0.0491 -0.3122
 7378SOL    HW133767   0.283   4.541   8.584 -1.3737  0.3817 -0.4341
 7378SOL    HW233768   0.381   4.599   8.680 -1.3133  2.4858  2.2831
 7379SOL     OW33769   1.500   2.137   4.729  0.4938 -0.1804  0.1730
 7379SOL    HW133770   1.496   2.153   4.823  0.8025  0.1129  0.1335
 7379SOL    HW233771   1.410   2.105   4.735  0.5604 -0.4588 -0.3494
 7380SOL     OW33772   3.044   2.569   7.094 -0.3098 -0.8911  0.3557
 7380SOL    HW133773   3.071   2.650   7.137 -0.1017 -0.2363 -0.9919
 7380SOL    HW233774   2.959   2.596   7.058  0.4369  0.0102 -0.7588
 7381SOL     OW33775   1.918   4.481  17.274  0.3378 -0.2054 -0.3248
 7381SOL    HW133776   1.955   4.478  17.363 -0.6737  2.0001  0.1742
 7381SOL    HW233777   1.831   4.453  17.301  0.2711  3.1421  2.9755
 7382SOL     OW33778   3.068   4.096   5.427 -0.4974  0.1947 -0.5381
 7382SOL    HW133779   3.132   4.143   5.480 -1.6228  0.1363  0.8448
 7382SOL    HW233780   3.101   4.117   5.339 -0.0721 -0.3662 -0.5129
 7383SOL     OW33781   0.552   1.531  10.169 -0.5096  0.9249 -0.2509
 7383SOL    HW133782   0.583   1.589  10.100  0.1409  1.9250  0.8961
 7383SOL    HW233783   0.459   1.525  10.146 -0.1539 -1.2783 -1.1883
 7384SOL     OW33784   0.088   2.321   8.999  0.3754  0.1891  0.1736
 7384SOL    HW133785   0.136   2.250   9.042  1.4383  0.4830 -0.5284
 7384SOL    HW233786   0.004   2.322   9.045 -0.3349  3.7242 -1.1856
 7385SOL     OW33787   3.078   1.009   4.024  0.4944  0.1553  0.1537
 7385SOL    HW133788   3.115   1.026   4.110 -2.4833  0.0234  1.4613
 7385SOL    HW233789   3.144   1.050   3.968  0.7274  1.7851  1.6542
 7386SOL     OW33790   2.322   3.108   6.393 -0.2515 -0.0628  0.2073
 7386SOL    HW133791   2.334   3.067   6.479  1.3323  0.1540  0.0999
 7386SOL    HW233792   2.408   3.108   6.351 -1.3968  2.4197 -2.1153
 7387SOL     OW33793   1.511   2.315  11.569  0.1020 -0.4966 -0.1849
 7387SOL    HW133794   1.528   2.279  11.656  0.3738 -0.8084 -0.3697
 7387SOL    HW233795   1.421   2.283  11.562  0.3440 -0.9752 -1.0630
 7388SOL     OW33796   4.534   1.713   1.375 -0.7577 -0.0882 -0.5604
 7388SOL    HW133797   4.591   1.774   1.422  1.1892 -1.7774 -0.7432
 7388SOL    HW233798   4.455   1.767   1.365  0.0620  1.2599  0.2097
 7389SOL     OW33799   3.150   1.647   4.937  0.8654 -0.4903 -0.2326
 7389SOL    HW133800   3.148   1.653   4.841 -0.7570  3.7444  0.0530
 7389SOL    HW233801   3.063   1.620   4.965  0.8130  0.6070  0.6628
 7390SOL     OW33802   3.758   3.667   8.808  0.1179 -0.2976 -0.5721
 7390SOL    HW133803   3.851   3.648   8.794  0.4911 -0.3665  2.0072
 7390SOL    HW233804   3.764   3.759   8.835 -0.9222  0.4345 -2.8205
 7391SOL     OW33805   3.921   1.306   3.164 -0.0813  0.2629  0.1286
 7391SOL    HW133806   3.848   1.245   3.174 -1.7593  2.1888 -0.2998
 7391SOL    HW233807   3.991   1.269   3.218  0.7669  0.5001 -0.8030
 7392SOL     OW33808   2.093   0.601  12.501 -0.0529  0.5230  0.3848
 7392SOL    HW133809   2.020   0.656  12.530  0.8352  2.8010 -1.6420
 7392SOL    HW233810   2.043   0.526  12.471 -0.7212  0.7938  0.8232
 7393SOL     OW33811   0.197   4.309   4.576  0.7154 -0.0542 -0.2729
 7393SOL    HW133812   0.210   4.388   4.524 -0.9758 -0.8262 -1.8672
 7393SOL    HW233813   0.256   4.329   4.649  1.0125 -0.1152 -0.4949
 7394SOL     OW33814   4.104   3.944   4.609 -0.5582 -0.6163 -0.2091
 7394SOL    HW133815   4.157   3.933   4.687  0.5164  0.2216 -0.8322
 7394SOL    HW233816   4.066   4.030   4.626 -0.9800 -0.8485  0.0312
 7395SOL     OW33817   3.155   1.888   3.076 -0.0395  0.3323 -0.5633
 7395SOL    HW133818   3.247   1.885   3.104 -0.2623  1.4910  0.3107
 7395SOL    HW233819   3.162   1.853   2.987 -0.9492  2.8741 -1.6405
 7396SOL     OW33820   0.360   1.870   4.731  0.0295 -0.2745 -0.8165
 7396SOL    HW133821   0.409   1.792   4.707 -2.4914 -1.6670 -1.4075
 7396SOL    HW233822   0.431   1.934   4.735  0.4170 -0.6775 -1.3171
 7397SOL     OW33823   0.250   4.035   8.969  0.2037 -0.7127  0.3243
 7397SOL    HW133824   0.186   4.104   8.988 -0.5305 -1.4089  0.4192
 7397SOL    HW233825   0.300   4.075   8.899  1.6893 -0.5201  1.4986
 7398SOL     OW33826   3.534   4.326   6.326  0.2549  0.4870  0.3856
 7398SOL    HW133827   3.574   4.316   6.239  3.3839  0.1054  1.8473
 7398SOL    HW233828   3.587   4.395   6.365  0.1444  0.1693  1.1056
 7399SOL     OW33829   4.729   0.859   6.324 -0.2737  0.1381 -0.6254
 7399SOL    HW133830   0.067   0.818   6.277  0.7574 -0.9293  1.8549
 7399SOL    HW233831   0.034   0.946   6.339 -1.6194  0.3739  1.5744
 7400SOL     OW33832   0.732   2.738  11.976  0.3873 -0.2002  0.3498
 7400SOL    HW133833   0.810   2.721  11.923 -1.1073  1.4320 -2.3399
 7400SOL    HW233834   0.664   2.727  11.910  0.4865  1.0315  0.0546
 7401SOL     OW33835   3.025   3.147   2.140 -0.0159  0.0660 -0.0266
 7401SOL    HW133836   3.020   3.227   2.193  0.4346  0.1431 -0.1045
 7401SOL    HW233837   2.946   3.162   2.088  1.6573 -1.3526 -2.9688
 7402SOL     OW33838   0.488   4.429   2.996  0.4269 -0.1513  0.0255
 7402SOL    HW133839   0.445   4.490   3.057  0.3818 -2.2968  2.1337
 7402SOL    HW233840   0.437   4.353   3.026 -0.3502  0.4023  0.1098
 7403SOL     OW33841   3.750   2.482   4.260 -0.4667 -0.2655 -0.1406
 7403SOL    HW133842   3.732   2.504   4.169  2.1208 -0.9844 -0.8235
 7403SOL    HW233843   3.700   2.404   4.281  0.4947 -0.9445 -0.3811
 7404SOL     OW33844   1.126   2.205   7.369  0.4820  0.4981 -0.0638
 7404SOL    HW133845   1.043   2.184   7.414 -0.1206  2.1661 -0.3998
 7404SOL    HW233846   1.149   2.127   7.320 -0.3223  0.2083  0.0148
 7405SOL     OW33847   0.409   0.342   3.277  0.1502  0.3490 -0.1177
 7405SOL    HW133848   0.436   0.354   3.186 -0.3625  0.5681 -0.2418
 7405SOL    HW233849   0.398   0.433   3.303 -2.2869  0.7494 -2.5288
 7406SOL     OW33850   2.098   3.527   9.349 -0.3367 -0.2197  0.1525
 7406SOL    HW133851   2.102   3.444   9.398  1.1169  0.0514  0.5118
 7406SOL    HW233852   2.145   3.500   9.270 -2.2817  0.5252 -1.2251
 7407SOL     OW33853   0.898   0.872  15.225 -0.2256  0.2970 -0.3192
 7407SOL    HW133854   0.876   0.965  15.236 -0.6014  0.2293 -0.4906
 7407SOL    HW233855   0.978   0.869  15.277 -0.2877 -0.3111 -0.2631
 7408SOL     OW33856   1.108   0.077   3.253  0.1801 -0.2303 -0.0713
 7408SOL    HW133857   1.100   4.718   3.275 -0.3848 -0.0202  0.6003
 7408SOL    HW233858   1.173   0.077   3.182 -0.9376 -1.5679 -1.0954
 7409SOL     OW33859   2.952   4.272   7.733 -0.0872 -0.2294 -0.2603
 7409SOL    HW133860   2.921   4.356   7.700 -0.2924  0.1995  1.0196
 7409SOL    HW233861   3.046   4.291   7.738 -0.0076 -1.0238  1.2464
 7410SOL     OW33862   0.009   0.592   4.510 -0.2222  0.1521  0.3618
 7410SOL    HW133863   0.014   0.685   4.488 -1.7154  0.3745  0.9440
 7410SOL    HW233864   4.676   0.559   4.449 -0.5335  0.8314  0.3359
 7411SOL     OW33865   0.659   3.580   3.006 -0.2043 -0.2239  0.2860
 7411SOL    HW133866   0.683   3.525   3.081 -0.6345  1.4290  1.6397
 7411SOL    HW233867   0.564   3.589   3.014  0.0689  2.2407  0.8728
 7412SOL     OW33868   3.050   0.599  13.635 -0.0100 -0.3176  0.1149
 7412SOL    HW133869   3.019   0.553  13.714 -0.1828 -1.2490 -0.4930
 7412SOL    HW233870   3.144   0.581  13.638 -0.2481 -1.2094  2.2315
 7413SOL     OW33871   3.746   4.080   5.870  0.3780 -0.1045  0.7357
 7413SOL    HW133872   3.695   4.038   5.801 -1.2733  1.0019  1.3036
 7413SOL    HW233873   3.835   4.061   5.838  0.1643  0.8793 -0.4328
 7414SOL     OW33874   2.654   3.774   6.050  0.6683  0.0657  0.3769
 7414SOL    HW133875   2.595   3.792   5.976  0.5904  0.7047  0.5947
 7414SOL    HW233876   2.643   3.680   6.058  1.7850 -0.0946 -0.0442
 7415SOL     OW33877   4.597   3.610  11.775 -0.5946 -0.0641 -0.2895
 7415SOL    HW133878   4.639   3.684  11.818  0.4105  0.1422 -1.6180
 7415SOL    HW233879   4.645   3.596  11.693  0.4536  1.0802  0.1327
 7416SOL     OW33880   0.253   1.080  17.462  0.4349 -0.3926  0.4905
 7416SOL    HW133881   0.168   1.037  17.458 -0.7557  2.0836 -1.1238
 7416SOL    HW233882   0.234   1.172  17.441  0.4380 -0.2423  1.1515
 7417SOL     OW33883   1.189   2.277   4.672  0.1239  0.1545 -0.0434
 7417SOL    HW133884   1.215   2.191   4.641 -0.1206 -0.0781  0.3959
 7417SOL    HW233885   1.096   2.264   4.687  0.2536 -0.0013  0.6610
 7418SOL     OW33886   0.359   0.711   9.988 -0.3298 -0.3572 -0.3110
 7418SOL    HW133887   0.282   0.752   9.950 -1.5377 -1.9968  0.3729
 7418SOL    HW233888   0.425   0.778   9.967 -1.3666  1.3247  1.7411
 7419SOL     OW33889   4.229   2.560   5.598 -0.3449 -0.1582 -0.5111
 7419SOL    HW133890   4.252   2.537   5.688  0.7643 -0.0825 -0.7751
 7419SOL    HW233891   4.280   2.490   5.557 -0.2824 -0.7185  0.5032
 7420SOL     OW33892   0.937   4.608   5.984 -0.2259 -0.0313 -0.2988
 7420SOL    HW133893   1.008   4.673   5.984  1.6483 -2.0805 -0.5885
 7420SOL    HW233894   0.979   4.526   6.008 -0.6630 -0.9090 -2.5566
 7421SOL     OW33895   3.807   0.323   3.170  0.0383 -0.6810 -0.2044
 7421SOL    HW133896   3.797   0.267   3.247 -1.7605  1.1546  0.9153
 7421SOL    HW233897   3.891   0.367   3.180 -0.2460 -0.2312  0.2221
 7422SOL     OW33898   3.654   0.599   8.199 -0.3166  0.0391 -0.0830
 7422SOL    HW133899   3.724   0.534   8.203 -1.3215 -0.8994  2.1410
 7422SOL    HW233900   3.599   0.572   8.124 -2.3692 -1.6766  2.0385
 7423SOL     OW33901   3.022   3.205   8.501  0.0772  0.4674 -0.4187
 7423SOL    HW133902   2.983   3.118   8.489 -2.2755  1.2872  1.1549
 7423SOL    HW233903   3.053   3.230   8.414 -0.4228  3.3488  0.2300
 7424SOL     OW33904   0.997   4.594   0.661 -0.5231 -0.1540  0.0307
 7424SOL    HW133905   0.989   4.537   0.584  1.7313 -0.2435 -0.1409
 7424SOL    HW233906   0.911   4.631   0.676 -0.2241  0.8893 -0.8342
 7425SOL     OW33907   3.227   1.952   0.459  0.1057  0.3267  0.7821
 7425SOL    HW133908   3.270   2.028   0.498  2.9941  0.4443 -2.6294
 7425SOL    HW233909   3.241   1.972   0.367 -1.0730 -1.3979  0.2184
 7426SOL     OW33910   0.282   2.424   2.073  0.8567 -0.2344  0.3575
 7426SOL    HW133911   0.257   2.339   2.038  0.3545  0.7316 -1.6509
 7426SOL    HW233912   0.208   2.470   2.033  0.3522  1.6869  3.5052
 7427SOL     OW33913   0.523   0.665   3.490  0.1812 -0.2447  0.0249
 7427SOL    HW133914   0.547   0.582   3.448 -0.0363  0.0157 -0.6170
 7427SOL    HW233915   0.487   0.721   3.421 -0.9043 -1.0438 -0.0515
 7428SOL     OW33916   2.720   1.060   9.538  0.5745 -0.3517 -0.0346
 7428SOL    HW133917   2.783   1.077   9.467  0.9310 -2.8856 -0.3238
 7428SOL    HW233918   2.690   0.973   9.511 -0.7642 -0.9563  3.4563
 7429SOL     OW33919   0.245   0.081   8.270 -0.0287  0.0209  0.5072
 7429SOL    HW133920   0.258   0.060   8.178  0.0751 -0.6908  0.6859
 7429SOL    HW233921   0.330   0.056   8.307  0.0891 -0.7567 -0.2759
 7430SOL     OW33922   4.549   0.154   8.923 -0.1978 -0.3035  0.5917
 7430SOL    HW133923   4.579   0.064   8.905 -0.1748 -0.0143 -0.8631
 7430SOL    HW233924   4.466   0.136   8.968 -1.2955  0.7996 -0.9550
 7431SOL     OW33925   4.177   3.543   6.837  0.2729  0.1058 -0.5449
 7431SOL    HW133926   4.204   3.594   6.913 -1.8141  0.5471 -0.0906
 7431SOL    HW233927   4.108   3.496   6.885  0.0509  0.5770 -0.4051
 7432SOL     OW33928   2.970   1.274  16.481 -0.0823 -0.2902  0.3697
 7432SOL    HW133929   3.061   1.294  16.458 -0.2874  0.9266  0.6124
 7432SOL    HW233930   2.967   1.306  16.572 -3.7908  1.0790 -0.2365
 7433SOL     OW33931   3.351   1.234  15.199 -0.2686 -0.2865 -0.3694
 7433SOL    HW133932   3.292   1.251  15.273 -0.0365  2.3044 -0.7931
 7433SOL    HW233933   3.304   1.177  15.139  0.7193  0.2317 -1.6276
 7434SOL     OW33934   1.916   2.406  11.922 -0.3582  0.2624 -0.2046
 7434SOL    HW133935   1.990   2.353  11.953 -0.9208 -0.3865  0.0273
 7434SOL    HW233936   1.861   2.339  11.881 -2.7916  0.5960  2.4884
 7435SOL     OW33937   1.406   2.693   4.141 -0.1921  0.1271  0.1591
 7435SOL    HW133938   1.423   2.671   4.049 -0.6547 -1.9405  0.5784
 7435SOL    HW233939   1.333   2.755   4.129 -0.5142 -0.5083 -1.1273
 7436SOL     OW33940   2.833   2.504   4.680 -0.0616  0.0814  0.5735
 7436SOL    HW133941   2.764   2.568   4.665 -2.4548 -2.8568 -1.0328
 7436SOL    HW233942   2.825   2.490   4.774  0.2955  2.3176  0.9209
 7437SOL     OW33943   0.179   0.574  12.398 -1.1685  0.4121 -0.3156
 7437SOL    HW133944   0.140   0.502  12.448 -0.4320  0.1522 -0.1200
 7437SOL    HW233945   0.251   0.605  12.453  1.5862 -1.7727 -2.6851
 7438SOL     OW33946   4.648   0.413  17.225  0.0326  0.0971  0.0679
 7438SOL    HW133947   4.586   0.347  17.195  1.4382 -1.8198  1.4219
 7438SOL    HW233948   4.641   0.487  17.164  0.7978  0.8490  0.8895
 7439SOL     OW33949   4.632   3.271   2.108  0.5727  0.5715 -0.0022
 7439SOL    HW133950   4.600   3.361   2.096 -1.1408 -0.1481 -0.9017
 7439SOL    HW233951   4.550   3.223   2.122 -0.7134  2.7301 -0.1196
 7440SOL     OW33952   0.716   3.450   5.387  0.2437 -0.2862  0.1637
 7440SOL    HW133953   0.634   3.401   5.395  0.1664 -0.0962  0.5101
 7440SOL    HW233954   0.754   3.451   5.475  1.2553 -1.3853 -0.2547
 7441SOL     OW33955   3.434   1.257   2.642 -0.3254  0.1590 -0.1543
 7441SOL    HW133956   3.373   1.320   2.682  0.1150  0.8323 -0.5500
 7441SOL    HW233957   3.512   1.265   2.696 -0.0220  0.9965 -0.7261
 7442SOL     OW33958   0.668   3.438   9.532  0.7297  0.3591 -0.1239
 7442SOL    HW133959   0.749   3.393   9.507  0.3589  1.3822 -3.1792
 7442SOL    HW233960   0.617   3.359   9.551 -0.8040  1.8497  1.9477
 7443SOL     OW33961   2.827   1.212  13.627  0.0503 -0.2472 -0.3776
 7443SOL    HW133962   2.922   1.217  13.619  0.0416  0.7525  0.0850
 7443SOL    HW233963   2.828   1.294  13.677  1.4661  0.7364 -1.9769
 7444SOL     OW33964   1.874   1.798   7.072 -0.6968  0.6435 -0.2962
 7444SOL    HW133965   1.953   1.753   7.101 -0.9362 -2.0394 -3.8009
 7444SOL    HW233966   1.809   1.759   7.131 -0.4175  0.2592 -0.2432
 7445SOL     OW33967   3.613   1.811   1.455 -0.9509  0.3153 -0.6392
 7445SOL    HW133968   3.549   1.758   1.503 -0.3995  1.1884  1.0577
 7445SOL    HW233969   3.668   1.739   1.424 -0.5468 -0.5663  2.1683
 7446SOL     OW33970   3.798   2.519   3.405  0.3903  0.1994 -0.4613
 7446SOL    HW133971   3.753   2.435   3.405  0.3341  0.2145 -3.2317
 7446SOL    HW233972   3.834   2.530   3.493 -0.2607  0.6612 -0.2490
 7447SOL     OW33973   4.633   3.329  16.961  0.0513 -0.0303  0.0256
 7447SOL    HW133974   4.707   3.317  16.901 -0.4297 -1.8237 -0.2238
 7447SOL    HW233975   4.667   3.288  17.040 -1.7703  1.1628  1.4289
 7448SOL     OW33976   1.012   4.448   5.232  0.4277  0.0755  0.0065
 7448SOL    HW133977   1.073   4.453   5.159 -3.0177 -2.2973 -3.0077
 7448SOL    HW233978   0.989   4.540   5.245  0.5242  0.4545 -2.5001
 7449SOL     OW33979   2.363   1.994   6.119 -0.0546  0.4328 -0.2556
 7449SOL    HW133980   2.324   2.067   6.071  0.5496  0.3260 -0.9091
 7449SOL    HW233981   2.454   2.024   6.120 -0.1931  0.8442 -0.2410
 7450SOL     OW33982   4.129   2.651   1.615  0.5627 -0.5437  0.1944
 7450SOL    HW133983   4.086   2.569   1.593 -1.2868  0.5749 -0.3689
 7450SOL    HW233984   4.148   2.635   1.708  0.3095  1.0233  0.5123
 7451SOL     OW33985   2.929   2.405   5.165  0.2323 -0.3050 -0.1225
 7451SOL    HW133986   2.879   2.432   5.088 -0.9389  0.4966  0.9266
 7451SOL    HW233987   2.966   2.316   5.158  3.2579  0.9963 -0.6653
 7452SOL     OW33988   0.856   0.625   0.450  0.2736 -0.2118  1.2060
 7452SOL    HW133989   0.912   0.577   0.390 -2.0069 -1.4308  0.0525
 7452SOL    HW233990   0.796   0.672   0.392 -1.7681 -2.4142  1.5059
 7453SOL     OW33991   1.446   0.677  10.114 -0.0964  0.1172  0.2257
 7453SOL    HW133992   1.388   0.746  10.144 -0.8776 -0.7834  0.7703
 7453SOL    HW233993   1.382   0.620  10.072 -0.9789  0.5808  0.9538
 7454SOL     OW33994   0.782   3.402   7.559 -0.2995 -0.0103  0.2029
 7454SOL    HW133995   0.802   3.495   7.569  2.5764 -0.7477  1.2770
 7454SOL    HW233996   0.698   3.392   7.515 -0.5348 -0.0895  0.6731
 7455SOL     OW33997   1.247   4.221  13.282  0.0941 -0.2347  0.2417
 7455SOL    HW133998   1.184   4.151  13.302 -0.1678  0.2982  1.3079
 7455SOL    HW233999   1.237   4.272  13.363  0.1635 -1.0976  0.8019
 7456SOL     OW34000   1.850   4.387   5.065 -0.0431  0.3690 -0.3620
 7456SOL    HW134001   1.869   4.406   5.156  2.0094 -1.4858 -0.4105
 7456SOL    HW234002   1.786   4.457   5.049  0.0334  0.4136 -0.4764
 7457SOL     OW34003   3.383   3.599   5.215  0.3985  0.5779 -0.0396
 7457SOL    HW134004   3.431   3.623   5.135  2.1829  1.2040  1.2095
 7457SOL    HW234005   3.303   3.650   5.199  1.7115  2.2011 -1.4575
 7458SOL     OW34006   1.429   2.326  17.348  0.3505  0.3546  0.4434
 7458SOL    HW134007   1.443   2.384  17.273 -0.9216 -0.0954 -0.1205
 7458SOL    HW234008   1.342   2.351  17.378  0.8371 -0.0901  2.2131
 7459SOL     OW34009   1.136   4.353   2.047 -0.2425  0.4450 -0.1709
 7459SOL    HW134010   1.087   4.418   2.097 -0.6285  0.5107 -0.6460
 7459SOL    HW234011   1.172   4.296   2.116  2.0089  2.1915  0.1006
 7460SOL     OW34012   3.133   1.308   0.250  0.0725  0.1330 -0.0940
 7460SOL    HW134013   3.218   1.264   0.256 -1.0037 -1.7636  1.3904
 7460SOL    HW234014   3.158   1.400   0.255  1.0650 -0.2687  2.2348
 7461SOL     OW34015   4.479   2.663   3.069  0.1320  0.7061  0.3468
 7461SOL    HW134016   4.506   2.584   3.114 -1.6663  0.3883  0.8731
 7461SOL    HW234017   4.492   2.646   2.975 -0.2880 -0.4609  0.5078
 7462SOL     OW34018   4.542   1.439  13.341 -0.2187  0.6590  0.1025
 7462SOL    HW134019   4.608   1.376  13.370 -1.8847 -1.2257 -0.2252
 7462SOL    HW234020   4.510   1.394  13.263 -0.4156  1.1625 -0.1046
 7463SOL     OW34021   4.186   0.383   5.521 -0.8226 -0.2635  0.2211
 7463SOL    HW134022   4.261   0.438   5.498 -0.6031  0.2389  2.0995
 7463SOL    HW234023   4.135   0.414   5.446 -0.4249 -1.7324 -0.6497
 7464SOL     OW34024   4.135   0.109   8.642 -0.2031  0.3109  0.4542
 7464SOL    HW134025   4.124   0.079   8.732 -1.4313 -0.1130  0.1646
 7464SOL    HW234026   4.216   0.161   8.645  0.1176 -0.0491 -1.9889
 7465SOL     OW34027   3.356   2.426   4.753  0.6122  0.8385  0.2422
 7465SOL    HW134028   3.348   2.442   4.659  2.2433  0.2356  0.0062
 7465SOL    HW234029   3.343   2.333   4.770 -1.6710  1.2053  0.5441
 7466SOL     OW34030   1.360   4.462   6.145 -0.3967 -0.3381  0.2567
 7466SOL    HW134031   1.425   4.395   6.168  1.5898  0.5111 -2.8708
 7466SOL    HW234032   1.292   4.399   6.118 -1.1896  0.9197 -0.6472
 7467SOL     OW34033   3.127   1.215   2.351 -0.9463 -0.0981  0.1148
 7467SOL    HW134034   3.108   1.122   2.364 -0.8532 -0.3099 -1.2609
 7467SOL    HW234035   3.200   1.214   2.289  0.1894 -1.5077  1.4488
 7468SOL     OW34036   1.454   1.913   7.630  0.4663  0.6931  0.1858
 7468SOL    HW134037   1.463   1.925   7.724  0.1749  0.5900  0.2268
 7468SOL    HW234038   1.449   2.005   7.604  1.0927  1.1285  1.6157
 7469SOL     OW34039   1.247   2.197   2.235  0.4419 -0.3495 -0.2134
 7469SOL    HW134040   1.313   2.142   2.278 -1.8834 -1.9851  1.2593
 7469SOL    HW234041   1.172   2.155   2.277 -1.0173  1.5411 -0.9401
 7470SOL     OW34042   0.097   2.812   8.676  0.5049 -0.5470  0.0928
 7470SOL    HW134043   0.185   2.798   8.711  2.0471  0.5572 -3.2862
 7470SOL    HW234044   0.067   2.884   8.731 -2.2308 -0.2659 -1.7669
 7471SOL     OW34045   0.047   4.639   7.385 -0.2269 -0.0998 -0.1692
 7471SOL    HW134046   4.727   4.655   7.462  0.5283  3.5288 -0.4049
 7471SOL    HW234047   0.120   4.700   7.391  1.2284 -1.7629 -1.0092
 7472SOL     OW34048   3.689   2.325  14.838 -0.4060 -0.2855 -0.0009
 7472SOL    HW134049   3.740   2.390  14.886 -1.2373 -0.6476  1.3489
 7472SOL    HW234050   3.608   2.375  14.840  0.0226  0.3548  1.5036
 7473SOL     OW34051   3.964   0.185   1.911  0.3236  0.5049  0.2497
 7473SOL    HW134052   4.033   0.148   1.856 -1.4156  0.4896 -1.9249
 7473SOL    HW234053   3.912   0.232   1.845  1.2268  2.8687  1.2156
 7474SOL     OW34054   2.268   2.527   6.390  0.4615 -0.6790 -0.6005
 7474SOL    HW134055   2.355   2.520   6.352  0.5765 -2.7532  0.0369
 7474SOL    HW234056   2.282   2.604   6.444  0.8048 -0.4310 -1.0448
 7475SOL     OW34057   4.641   1.672   6.522  0.9088  0.9482  0.3672
 7475SOL    HW134058   4.626   1.765   6.540 -0.5096 -0.2252  5.1111
 7475SOL    HW234059   4.732   1.682   6.551  1.4894 -0.9978 -0.7686
 7476SOL     OW34060   3.425   1.451  15.057 -0.1020  0.0394 -0.4179
 7476SOL    HW134061   3.439   1.397  14.979  2.1700 -0.2817  0.2009
 7476SOL    HW234062   3.413   1.380  15.120  0.5227  0.3750  0.0906
 7477SOL     OW34063   2.627   1.862   2.816  0.1295 -0.0162  0.3220
 7477SOL    HW134064   2.577   1.827   2.890 -0.7294  1.0448  0.2280
 7477SOL    HW234065   2.668   1.940   2.853 -0.5391  0.6483 -0.3377
 7478SOL     OW34066   2.298   1.738   7.514  0.3403 -0.0326  0.3993
 7478SOL    HW134067   2.277   1.800   7.443  0.5146 -0.5222 -0.0771
 7478SOL    HW234068   2.216   1.695   7.539  0.6416  0.2466  1.8126
 7479SOL     OW34069   0.094   2.664  13.624  0.8056  0.4109 -0.0702
 7479SOL    HW134070   0.024   2.720  13.659  0.8682  1.2578 -1.2831
 7479SOL    HW234071   0.169   2.722  13.614  2.2422 -0.6198  4.7459
 7480SOL     OW34072   4.465   3.401   2.680  0.6761 -0.3140 -0.2740
 7480SOL    HW134073   4.548   3.447   2.692 -1.6704  3.2202  2.2817
 7480SOL    HW234074   4.414   3.474   2.646  0.0728 -1.4751 -1.8571
 7481SOL     OW34075   4.608   1.561   6.263  0.1407 -0.9399  0.4653
 7481SOL    HW134076   4.580   1.610   6.186  0.0466 -0.9532  0.4903
 7481SOL    HW234077   4.577   1.617   6.334 -0.5528 -1.4363  0.5593
 7482SOL     OW34078   1.893   3.325  10.691  1.0262 -0.3065 -0.7411
 7482SOL    HW134079   1.979   3.291  10.666  1.8424 -1.6888  3.7935
 7482SOL    HW234080   1.839   3.259  10.649  1.2200 -1.5376  0.9105
 7483SOL     OW34081   3.249   2.956  15.212  0.9391 -0.6250  0.0468
 7483SOL    HW134082   3.285   3.039  15.179  0.2477 -0.5400 -0.5013
 7483SOL    HW234083   3.309   2.934  15.284  2.0331 -0.8462 -0.9286
 7484SOL     OW34084   0.883   3.481  10.689  0.1624  0.0556 -0.1226
 7484SOL    HW134085   0.853   3.391  10.702 -1.3450  0.9236  2.5416
 7484SOL    HW234086   0.975   3.464  10.672  0.1602 -0.0847 -0.0000
 7485SOL     OW34087   3.432   4.145  11.217 -0.1725 -0.2788  0.1491
 7485SOL    HW134088   3.458   4.185  11.300 -0.8703 -0.3837  0.4147
 7485SOL    HW234089   3.401   4.067  11.263  2.4130 -1.4016 -0.0384
 7486SOL     OW34090   2.029   1.575   1.655  0.2734  0.0832  0.1198
 7486SOL    HW134091   2.039   1.625   1.575  2.1177  2.0864  1.6006
 7486SOL    HW234092   2.071   1.496   1.620  4.6555  1.8152  1.5026
 7487SOL     OW34093   0.903   4.173   2.731 -0.4971  0.2447 -0.7762
 7487SOL    HW134094   0.834   4.202   2.791  1.3853  2.4221  0.3864
 7487SOL    HW234095   0.870   4.177   2.642 -3.3841  1.4612  0.3562
 7488SOL     OW34096   1.366   3.111  11.987  0.7913  0.2063  0.1964
 7488SOL    HW134097   1.452   3.137  12.019  0.8859  0.1222  0.0128
 7488SOL    HW234098   1.392   3.021  11.967  0.2553 -0.2733  1.6605
 7489SOL     OW34099   2.692   1.741   7.583 -0.4286 -0.1392  0.0574
 7489SOL    HW134100   2.687   1.676   7.513 -0.8702  0.3430 -0.3516
 7489SOL    HW234101   2.724   1.810   7.525 -0.5245  0.0175  0.1918
 7490SOL     OW34102   3.061   3.421   6.076 -1.2394 -0.5022 -0.0686
 7490SOL    HW134103   3.056   3.344   6.019  2.3406 -1.4404  0.9397
 7490SOL    HW234104   2.985   3.464   6.036  0.2377  2.1261 -0.0742
 7491SOL     OW34105   0.348   2.902   8.238 -0.2448  0.0717  0.0199
 7491SOL    HW134106   0.412   2.833   8.222  1.3641  1.5041  0.3529
 7491SOL    HW234107   0.287   2.859   8.299  1.1930  0.1706  1.5341
 7492SOL     OW34108   0.240   4.103   8.528  0.0899 -0.5683  0.3499
 7492SOL    HW134109   0.307   4.034   8.521  0.1110 -0.6753  1.6000
 7492SOL    HW234110   0.295   4.173   8.563  0.1853 -0.6105  0.2871
 7493SOL     OW34111   3.427   1.739   4.058 -0.1021  0.0583  0.0047
 7493SOL    HW134112   3.391   1.720   4.145  2.0968 -0.5541  0.7664
 7493SOL    HW234113   3.520   1.734   4.077  0.4362  1.5317 -2.1610
 7494SOL     OW34114   1.555   0.272   3.153  0.0413 -0.2638  0.0563
 7494SOL    HW134115   1.536   0.365   3.138  1.7395  0.3882  2.1158
 7494SOL    HW234116   1.641   0.274   3.194  0.3811 -1.1657 -0.6003
 7495SOL     OW34117   0.560   2.371   5.671  0.3211 -0.1095  0.0871
 7495SOL    HW134118   0.582   2.436   5.604 -1.4109  1.3251  0.9092
 7495SOL    HW234119   0.647   2.367   5.710  0.2282  0.3015  0.3334
 7496SOL     OW34120   1.886   4.430   2.329  0.0553  0.1260 -0.4465
 7496SOL    HW134121   1.907   4.374   2.254 -0.3505 -0.6652  0.0285
 7496SOL    HW234122   1.958   4.421   2.392  0.6124 -0.7568 -1.2182
 7497SOL     OW34123   3.080   2.952   2.740  0.1635  0.4987  0.3149
 7497SOL    HW134124   3.018   3.005   2.791 -1.0576 -1.5322  0.9627
 7497SOL    HW234125   3.166   2.984   2.766  0.4782  1.6511 -2.1119
 7498SOL     OW34126   1.290   2.747   4.685  0.3461 -0.0212  0.6006
 7498SOL    HW134127   1.316   2.659   4.714  0.8565 -0.0850 -0.0645
 7498SOL    HW234128   1.376   2.790   4.685 -0.2123  1.0494 -1.9271
 7499SOL     OW34129   1.636   1.420  14.668  1.0289  0.4429  0.4716
 7499SOL    HW134130   1.597   1.336  14.692 -0.6018  1.0397 -0.0460
 7499SOL    HW234131   1.579   1.481  14.716 -0.3259 -0.1233 -0.3956
 7500SOL     OW34132   4.141   3.748  14.553 -0.3294  0.1220  0.6654
 7500SOL    HW134133   4.208   3.724  14.489 -0.9667  1.9809 -0.7073
 7500SOL    HW234134   4.108   3.828  14.513 -0.7050  0.9850  2.7066
 7501SOL     OW34135   3.968   0.381   3.822  0.0716 -0.0213 -0.4735
 7501SOL    HW134136   3.928   0.416   3.902  4.5231  2.0556  0.8594
 7501SOL    HW234137   3.971   0.289   3.846  2.5693 -0.2826 -1.7972
 7502SOL     OW34138   3.283   3.826   6.466 -0.0827 -0.0477  0.0183
 7502SOL    HW134139   3.340   3.902   6.468 -2.5775  1.8558 -0.1270
 7502SOL    HW234140   3.314   3.758   6.526  1.3635  0.0931 -0.5667
 7503SOL     OW34141   1.276   4.677   7.291  0.6606  0.3009 -0.0857
 7503SOL    HW134142   1.234   0.019   7.331 -1.1997 -0.6190 -0.3252
 7503SOL    HW234143   1.365   4.712   7.278  0.9723 -1.2729 -2.1610
 7504SOL     OW34144   3.941   4.686   8.320 -0.2503  0.1792 -0.2029
 7504SOL    HW134145   3.855   4.727   8.318 -0.8256 -1.1654 -2.2133
 7504SOL    HW234146   3.966   4.672   8.412 -0.5206  0.0840 -0.1445
 7505SOL     OW34147   1.143   3.729   7.150 -0.2737 -0.0034  0.1018
 7505SOL    HW134148   1.147   3.652   7.093 -2.0670 -0.7180  0.9567
 7505SOL    HW234149   1.227   3.772   7.133  0.3042 -1.0929  0.1977
 7506SOL     OW34150   0.287   4.401   2.418 -0.2746 -1.3616 -0.1178
 7506SOL    HW134151   0.238   4.483   2.415 -0.4709 -1.4297  1.4611
 7506SOL    HW234152   0.297   4.395   2.323  0.4196  2.7228 -0.3058
 7507SOL     OW34153   4.615   2.772   1.556  0.4522 -0.0698  0.4033
 7507SOL    HW134154   4.633   2.811   1.470  0.0529  1.4380  1.0054
 7507SOL    HW234155   4.520   2.768   1.547  0.1742  3.1072  2.0768
 7508SOL     OW34156   0.934   4.700   5.357  0.2574  0.1837 -0.0582
 7508SOL    HW134157   0.963   0.029   5.291  0.5105 -0.6747 -0.7660
 7508SOL    HW234158   0.917   0.026   5.429 -0.4998 -0.4261  0.2715
 7509SOL     OW34159   2.118   2.981   3.482  0.5701  0.7135  0.0375
 7509SOL    HW134160   2.139   3.041   3.554  2.8353  0.9555 -0.8183
 7509SOL    HW234161   2.162   3.020   3.406 -0.1266 -0.3562 -0.9083
 7510SOL     OW34162   1.093   4.555  17.089 -0.4768 -0.1314 -0.2454
 7510SOL    HW134163   1.104   4.585  16.999 -0.9710 -1.1671 -0.6566
 7510SOL    HW234164   1.023   4.608  17.125  1.3656  2.2805 -0.2485
 7511SOL     OW34165   1.135   0.662   5.757  0.2725  0.6887  0.3507
 7511SOL    HW134166   1.173   0.657   5.670  1.1833 -1.1197  0.8601
 7511SOL    HW234167   1.157   0.751   5.784 -2.4941  0.6891  2.6068
 7512SOL     OW34168   1.905   2.632   3.080 -0.3854 -0.0011 -0.1903
 7512SOL    HW134169   1.822   2.656   3.122 -1.3648  0.7856 -2.5800
 7512SOL    HW234170   1.949   2.600   3.158 -1.3687 -2.4094 -0.6110
 7513SOL     OW34171   3.319   2.725   5.491 -0.3430 -0.3335  0.5584
 7513SOL    HW134172   3.322   2.805   5.438  1.9287 -2.0267 -1.8580
 7513SOL    HW234173   3.351   2.658   5.431  0.9545  1.4650 -0.7616
 7514SOL     OW34174   3.330   3.613   2.251 -0.7875 -0.5203  0.0455
 7514SOL    HW134175   3.319   3.630   2.158 -1.1407 -1.1230 -0.0238
 7514SOL    HW234176   3.406   3.668   2.267 -1.2249  0.2574 -0.5544
 7515SOL     OW34177   1.970   3.340   2.581  0.0981  0.3292 -0.4324
 7515SOL    HW134178   1.964   3.312   2.490 -3.4695 -1.5276  0.3900
 7515SOL    HW234179   1.964   3.435   2.570 -1.6641  0.1694 -0.7673
 7516SOL     OW34180   1.666   0.849  17.422  0.2746  0.0621 -0.2108
 7516SOL    HW134181   1.681   0.906  17.346 -1.0918 -0.0676 -0.5865
 7516SOL    HW234182   1.710   0.767  17.402  3.6880  1.3674  2.0060
 7517SOL     OW34183   0.626   2.562   1.322 -0.2270  0.3411 -0.0133
 7517SOL    HW134184   0.656   2.641   1.368 -0.3566  0.5279 -0.2471
 7517SOL    HW234185   0.539   2.579   1.285 -1.3567 -3.8099  0.7383
 7518SOL     OW34186   3.655   4.588   8.339 -0.4857  0.0130  0.0811
 7518SOL    HW134187   3.662   4.684   8.337 -0.4682 -0.0263 -2.2862
 7518SOL    HW234188   3.694   4.570   8.424  1.2214 -1.6594 -1.0543
 7519SOL     OW34189   3.142   1.776   7.951  0.2685  0.1278  0.5430
 7519SOL    HW134190   3.111   1.864   7.930  0.8763  0.1989 -0.0580
 7519SOL    HW234191   3.232   1.767   7.918 -0.3921 -0.5992 -1.0844
 7520SOL     OW34192   0.654   0.842   4.769  0.1297  0.2894  0.1481
 7520SOL    HW134193   0.669   0.753   4.799  2.7773 -0.0571 -2.2173
 7520SOL    HW234194   0.629   0.823   4.678  2.3261 -0.3256 -0.3133
 7521SOL     OW34195   4.458   0.883   2.689  0.6168  0.3165  0.0298
 7521SOL    HW134196   4.376   0.877   2.640  1.1306 -2.0969 -0.5647
 7521SOL    HW234197   4.468   0.978   2.681  1.4646  0.3356  1.2643
 7522SOL     OW34198   1.972   0.333  11.826  0.2196  0.0095 -0.0422
 7522SOL    HW134199   1.901   0.361  11.884  2.1550  2.0069  1.3878
 7522SOL    HW234200   2.025   0.413  11.831 -0.3566  0.2073  2.8122
 7523SOL     OW34201   1.161   3.412  14.257 -0.5310  0.7856  0.1219
 7523SOL    HW134202   1.080   3.417  14.207 -0.2906  0.1305 -0.3306
 7523SOL    HW234203   1.125   3.425  14.345  1.9300  1.0643  1.0965
 7524SOL     OW34204   1.160   3.537   2.009 -0.1623  0.2926  0.7738
 7524SOL    HW134205   1.131   3.459   1.961 -1.5157  0.9883  0.4557
 7524SOL    HW234206   1.077   3.565   2.049 -0.5070 -1.9416  1.6232
 7525SOL     OW34207   0.375   0.461   9.299 -0.2672  0.3454 -0.8357
 7525SOL    HW134208   0.402   0.385   9.247  0.7844 -0.4348  0.8780
 7525SOL    HW234209   0.353   0.421   9.383 -0.5897 -1.0885 -1.5876
 7526SOL     OW34210   0.606   1.793  14.346 -0.0895  0.3727 -0.4254
 7526SOL    HW134211   0.636   1.753  14.264  2.4048  0.7549  0.2849
 7526SOL    HW234212   0.639   1.881  14.327 -1.7695  1.0629 -0.1318
 7527SOL     OW34213   3.076   4.016  12.965  0.1061  0.5990  0.8186
 7527SOL    HW134214   3.026   4.079  13.016 -0.7092  1.1065 -0.6100
 7527SOL    HW234215   3.162   4.056  12.971 -0.6844  2.4342 -0.2452
 7528SOL     OW34216   3.915   2.162   6.193 -0.3973 -0.5822 -0.1303
 7528SOL    HW134217   3.922   2.197   6.282  0.5655 -3.0810  0.7853
 7528SOL    HW234218   3.824   2.133   6.187 -0.6967  0.6310 -1.3990
 7529SOL     OW34219   3.333   1.065   3.959  0.2960  0.0263  0.0510
 7529SOL    HW134220   3.418   1.034   3.990  0.6175 -0.0641 -0.9157
 7529SOL    HW234221   3.354   1.048   3.867 -2.3016 -0.4803 -0.4523
 7530SOL     OW34222   2.971   1.010   5.208  0.6191  0.6684 -0.3239
 7530SOL    HW134223   2.940   1.100   5.209  0.0944  0.4911 -1.6260
 7530SOL    HW234224   2.934   0.971   5.288 -1.2468  2.1816 -0.4595
 7531SOL     OW34225   2.109   4.376  14.293 -0.2847  0.5951  0.0591
 7531SOL    HW134226   2.159   4.455  14.312  1.5406 -0.5809  0.1376
 7531SOL    HW234227   2.021   4.414  14.304 -0.6771 -0.2951 -0.0185
 7532SOL     OW34228   2.871   2.757   1.938  0.5750 -0.4609 -0.0595
 7532SOL    HW134229   2.956   2.788   1.968  1.4112 -1.1748 -1.6715
 7532SOL    HW234230   2.890   2.689   1.872  1.1887 -0.1290 -0.2152
 7533SOL     OW34231   0.361   2.525  17.574 -0.0770 -0.6808  0.2340
 7533SOL    HW134232   0.361   2.457  17.642  2.8751 -2.7959 -1.8450
 7533SOL    HW234233   0.359   2.467  17.498 -2.4804 -2.7691  1.8748
 7534SOL     OW34234   3.528   4.165   2.373  0.0061  0.2346 -0.4643
 7534SOL    HW134235   3.554   4.228   2.441  2.1885 -1.4471  0.2721
 7534SOL    HW234236   3.434   4.170   2.389  0.1658 -0.1572  0.5882
 7535SOL     OW34237   3.649   2.871   6.278  0.6632 -0.1291 -0.0846
 7535SOL    HW134238   3.610   2.891   6.193  0.0689  0.2718  0.2811
 7535SOL    HW234239   3.685   2.783   6.264  1.5030  0.5158 -1.9489
 7536SOL     OW34240   3.984   3.222   2.153 -0.0464  0.1570  0.3768
 7536SOL    HW134241   3.945   3.156   2.096  1.3926  0.4226 -0.9378
 7536SOL    HW234242   4.057   3.178   2.197 -0.1588  0.8350  1.2323
 7537SOL     OW34243   4.444   1.075   7.787 -0.0738  0.1760 -0.6054
 7537SOL    HW134244   4.443   1.145   7.852  0.5161 -1.5336  1.2147
 7537SOL    HW234245   4.535   1.079   7.758 -0.2013  0.7033 -0.9375
 7538SOL     OW34246   2.140   3.512  11.878 -0.2120  0.2830  0.1930
 7538SOL    HW134247   2.174   3.567  11.949  1.5572 -0.3701 -0.1332
 7538SOL    HW234248   2.109   3.579  11.817  1.9493  0.9834 -0.1485
 7539SOL     OW34249   0.476   2.275   3.999 -0.5019 -0.4168  0.0055
 7539SOL    HW134250   0.508   2.282   3.909  0.0547 -2.7298  0.0090
 7539SOL    HW234251   0.386   2.261   3.968 -0.1585  1.2354 -1.7539
 7540SOL     OW34252   4.201   2.323  17.721  0.0021  0.0293 -0.5526
 7540SOL    HW134253   4.146   2.401  17.728  0.4508  0.4628 -1.7745
 7540SOL    HW234254   4.219   2.296   0.075 -1.2652  0.5665 -0.1447
 7541SOL     OW34255   0.321   4.693   5.977  0.0045  0.0336  0.1060
 7541SOL    HW134256   0.262   4.709   5.903  0.4821 -0.0196 -0.2846
 7541SOL    HW234257   0.252   4.665   6.038 -0.6477  1.2157 -0.0904
 7542SOL     OW34258   3.644   2.931   5.037  0.6450  0.0659 -0.1077
 7542SOL    HW134259   3.584   2.997   5.072 -0.1710 -1.0721  0.6722
 7542SOL    HW234260   3.709   2.985   4.992  1.2809 -0.2980  0.3681
 7543SOL     OW34261   0.205   3.004  13.745 -0.4538 -0.0861  0.3793
 7543SOL    HW134262   0.242   2.981  13.830  0.5632  0.1371 -0.0022
 7543SOL    HW234263   0.265   2.956  13.687  0.3941  0.7756  0.5529
 7544SOL     OW34264   2.770   2.148   2.573 -0.0372 -0.2865  0.3979
 7544SOL    HW134265   2.744   2.057   2.585  1.3705 -0.8539 -0.9270
 7544SOL    HW234266   2.716   2.183   2.502 -0.2427  0.5363  0.9454
 7545SOL     OW34267   0.190   3.901  12.801 -0.0852  0.3354  0.1906
 7545SOL    HW134268   0.194   3.976  12.861  0.3442  1.2195 -0.9219
 7545SOL    HW234269   0.185   3.831  12.866 -1.7323  0.3339  0.0616
 7546SOL     OW34270   0.411   4.222   8.840  0.5754 -0.7899  0.0338
 7546SOL    HW134271   0.413   4.243   8.747  1.7365 -2.1889 -0.2515
 7546SOL    HW234272   0.402   4.308   8.882  3.0877  0.5218 -2.0558
 7547SOL     OW34273   0.749   0.823   3.160 -0.1139 -0.7428  0.2049
 7547SOL    HW134274   0.680   0.757   3.150  0.1161 -0.7444 -1.3608
 7547SOL    HW234275   0.800   0.778   3.227  1.4733 -0.4102 -0.7770
 7548SOL     OW34276   2.889   0.804   8.054 -0.5162 -0.8292  0.0017
 7548SOL    HW134277   2.803   0.826   8.017  0.7873  3.7482 -0.2634
 7548SOL    HW234278   2.946   0.873   8.019 -0.3600 -0.8028  0.3116
 7549SOL     OW34279   0.807   2.789  12.243  0.5312 -0.2051 -0.0803
 7549SOL    HW134280   0.754   2.868  12.230  1.3004  0.4964  1.1118
 7549SOL    HW234281   0.786   2.742  12.162 -2.1055 -1.0789  1.1011
 7550SOL     OW34282   0.095   4.613   6.166  0.6638  0.2041 -0.0422
 7550SOL    HW134283   0.070   4.585   6.254 -0.3309  4.0189  0.8767
 7550SOL    HW234284   0.059   4.701   6.176 -0.3446 -0.4416  1.8411
 7551SOL     OW34285   3.591   2.277   1.875 -0.0356  0.4672 -0.1123
 7551SOL    HW134286   3.524   2.241   1.817 -0.2946 -3.5087  2.6449
 7551SOL    HW234287   3.541   2.302   1.953 -1.3819  1.3011 -1.2317
 7552SOL     OW34288   1.142   3.654   3.072 -0.1264  0.5259 -0.2232
 7552SOL    HW134289   1.140   3.641   3.167 -1.1943  2.2544 -0.0241
 7552SOL    HW234290   1.119   3.567   3.039 -1.0128  0.2404  1.1256
 7553SOL     OW34291   2.863   4.721   6.355  0.3753  0.3032  0.4507
 7553SOL    HW134292   2.917   4.642   6.352 -0.9995 -0.6250  0.3218
 7553SOL    HW234293   2.901   0.031   6.431  0.5778  0.3930  0.2988
 7554SOL     OW34294   0.837   3.799   2.554 -0.1202 -0.0569 -0.1576
 7554SOL    HW134295   0.790   3.730   2.507 -0.4095  0.6347 -0.8905
 7554SOL    HW234296   0.788   3.812   2.635  2.6985  2.1239  1.1800
 7555SOL     OW34297   2.896   1.664  10.186  0.2919 -0.2192 -0.0539
 7555SOL    HW134298   2.804   1.657  10.213 -0.2157  0.5522 -1.5718
 7555SOL    HW234299   2.887   1.748  10.142 -1.8330 -0.0815  0.6092
 7556SOL     OW34300   1.571   0.205   5.018  0.3088  0.0895  0.1930
 7556SOL    HW134301   1.598   0.283   4.970 -1.5418 -0.3531 -1.5840
 7556SOL    HW234302   1.538   0.240   5.100 -2.1538  0.5564 -0.9983
 7557SOL     OW34303   0.702   4.065   1.788 -0.2440 -0.3247  0.3972
 7557SOL    HW134304   0.764   4.092   1.721 -0.4096  0.7576  0.6760
 7557SOL    HW234305   0.725   4.133   1.851 -0.5405 -1.7567  2.0440
 7558SOL     OW34306   2.750   1.667   3.020  0.4791  0.3858  0.0211
 7558SOL    HW134307   2.810   1.613   2.969  0.5921  0.9839 -0.4863
 7558SOL    HW234308   2.810   1.713   3.078 -0.7817 -0.3845  1.9170
 7559SOL     OW34309   4.629   1.439   7.245  0.2379  0.1137  0.4137
 7559SOL    HW134310   4.635   1.346   7.269  1.1092  0.2844  0.8760
 7559SOL    HW234311   4.548   1.421   7.198  1.0773 -2.2242 -0.1719
 7560SOL     OW34312   1.939   2.955   4.730 -0.0871  0.5870 -0.5367
 7560SOL    HW134313   1.985   3.028   4.689  0.8626  0.8243  0.9367
 7560SOL    HW234314   1.964   2.888   4.666 -0.7049 -0.4997  0.3452
 7561SOL     OW34315   4.294   1.042   8.198  0.0190  0.3032 -0.1640
 7561SOL    HW134316   4.210   1.003   8.222  1.2136 -0.4624  2.7259
 7561SOL    HW234317   4.265   1.131   8.176  0.5437  0.6436  0.5026
 7562SOL     OW34318   4.147   0.302   1.516 -0.5483  0.5006  0.1818
 7562SOL    HW134319   4.078   0.356   1.554 -0.6358 -0.4246  1.3494
 7562SOL    HW234320   4.122   0.221   1.561 -0.3290  0.6259  0.5320
 7563SOL     OW34321   0.152   4.697   3.650  0.2318  1.0405  0.0370
 7563SOL    HW134322   0.095   4.647   3.592  0.4062 -0.0587  0.8028
 7563SOL    HW234323   0.160   0.043   3.600 -0.0614  3.6520  4.1839
 7564SOL     OW34324   0.687   1.349  11.755  0.2021  0.0578  0.3291
 7564SOL    HW134325   0.680   1.255  11.745  1.2276 -0.0547  0.6306
 7564SOL    HW234326   0.595   1.370  11.740 -0.1912 -0.2394  2.3395
 7565SOL     OW34327   2.655   3.167  14.277  0.3535  0.3784  0.3766
 7565SOL    HW134328   2.633   3.107  14.349 -1.9578  2.2431  1.2224
 7565SOL    HW234329   2.569   3.196  14.247 -0.2457 -0.3100  1.4357
 7566SOL     OW34330   1.242   2.802   7.246 -0.5192 -0.0166 -0.2921
 7566SOL    HW134331   1.264   2.895   7.255  1.5030 -0.4519 -0.6479
 7566SOL    HW234332   1.201   2.800   7.160 -1.2466  1.1015  0.0228
 7567SOL     OW34333   2.083   0.875   1.002  0.4838 -0.5213 -0.0827
 7567SOL    HW134334   2.158   0.815   1.005  0.5802 -0.3808  0.2525
 7567SOL    HW234335   2.114   0.940   0.938  0.0913  0.6053  0.8712
 7568SOL     OW34336   0.273   4.240  13.359 -0.5750 -0.2070  0.5455
 7568SOL    HW134337   0.291   4.314  13.301 -0.3644 -0.0100  0.8593
 7568SOL    HW234338   0.360   4.229  13.399  0.5464  1.2797 -1.4736
 7569SOL     OW34339   0.707   0.120   2.858 -0.0569  0.0890 -0.1787
 7569SOL    HW134340   0.765   0.078   2.922 -0.7842  1.4444  1.3725
 7569SOL    HW234341   0.762   0.102   2.782  0.1886  1.0161 -0.2142
 7570SOL     OW34342   2.024   3.064   5.564  0.1019  0.1773  0.1649
 7570SOL    HW134343   2.055   3.104   5.483 -2.2848  1.6778  0.0246
 7570SOL    HW234344   1.931   3.084   5.566  0.4818  1.9158  0.7919
 7571SOL     OW34345   0.786   1.567   3.272  0.3401 -0.4491 -0.0071
 7571SOL    HW134346   0.867   1.530   3.308 -1.1396 -2.6575  1.0221
 7571SOL    HW234347   0.726   1.545   3.343 -1.9056 -1.1905 -2.1334
 7572SOL     OW34348   0.229   0.891  10.399  0.4662  0.1144  0.0683
 7572SOL    HW134349   0.315   0.850  10.405  1.1463  1.7559  1.2886
 7572SOL    HW234350   0.245   0.953  10.328  1.5703 -0.7827 -0.4593
 7573SOL     OW34351   0.672   2.651  15.455 -0.5707 -0.2687 -0.4908
 7573SOL    HW134352   0.747   2.679  15.508 -0.1877 -1.7263 -0.2733
 7573SOL    HW234353   0.708   2.575  15.410 -0.6826 -0.5251 -0.1491
 7574SOL     OW34354   0.969   0.771   8.685  0.3017 -0.2527 -0.4417
 7574SOL    HW134355   1.030   0.844   8.670  0.7704 -0.3781  0.8947
 7574SOL    HW234356   1.028   0.698   8.668  0.0593 -0.4628 -0.3827
 7575SOL     OW34357   4.108   3.623   2.150  0.4758 -0.0053 -0.0129
 7575SOL    HW134358   4.119   3.555   2.084  2.4040  0.2013  0.0847
 7575SOL    HW234359   4.181   3.597   2.207 -0.3631 -1.4383  0.4138
 7576SOL     OW34360   0.489   4.411  15.142 -0.0357 -0.0238 -0.2997
 7576SOL    HW134361   0.427   4.339  15.150 -0.9796  0.8667  0.4669
 7576SOL    HW234362   0.569   4.377  15.182 -0.4827  1.2576  1.6687
 7577SOL     OW34363   1.875   1.040   5.551 -0.0922 -0.0116 -0.4349
 7577SOL    HW134364   1.956   1.032   5.501  0.4669  3.5454 -0.0838
 7577SOL    HW234365   1.841   0.951   5.556 -0.4446  0.2112  1.1405
 7578SOL     OW34366   2.885   1.879  14.214  0.1863 -0.6505  0.3596
 7578SOL    HW134367   2.902   1.814  14.145  1.3062  0.9159 -0.8766
 7578SOL    HW234368   2.797   1.905  14.186  0.2398 -0.5691  0.2640
 7579SOL     OW34369   1.456   3.990  17.164  0.6652 -0.4491  0.3281
 7579SOL    HW134370   1.463   3.896  17.182 -0.8665 -0.1578  2.4548
 7579SOL    HW234371   1.500   3.993  17.079  0.0178 -0.6930 -0.0153
 7580SOL     OW34372   3.304   3.391   1.632 -0.5348 -0.4146 -0.8914
 7580SOL    HW134373   3.216   3.389   1.596 -1.1658  1.2308  0.5464
 7580SOL    HW234374   3.317   3.484   1.651  1.2645 -0.5752 -1.2567
 7581SOL     OW34375   2.073   4.708  16.365 -0.1020 -0.3670  0.0556
 7581SOL    HW134376   1.990   4.690  16.409 -0.7157 -0.4027 -1.1236
 7581SOL    HW234377   2.110   0.044  16.419 -1.8048 -2.2290  3.6571
 7582SOL     OW34378   3.997   4.559   4.661 -0.0830  0.4931 -0.3473
 7582SOL    HW134379   4.083   4.541   4.699 -0.1918 -1.2310 -0.9236
 7582SOL    HW234380   4.027   4.627   4.601  2.7206 -0.0850  0.4171
 7583SOL     OW34381   1.426   2.346   3.166  0.4900  0.1991 -0.2811
 7583SOL    HW134382   1.410   2.421   3.109 -0.6889 -0.4048 -0.7583
 7583SOL    HW234383   1.364   2.289   3.121  0.3000  1.7328 -1.9348
 7584SOL     OW34384   2.954   2.006   5.386 -0.1477 -0.2596 -0.6823
 7584SOL    HW134385   2.897   2.003   5.464  0.7231 -0.1524 -0.0452
 7584SOL    HW234386   2.927   1.928   5.339 -2.5221  1.4071 -2.0831
 7585SOL     OW34387   4.497   1.980   9.185  0.1403  0.0478  0.4226
 7585SOL    HW134388   4.549   2.013   9.112 -0.7123 -0.4672 -0.4283
 7585SOL    HW234389   4.412   1.994   9.141 -0.3327 -1.7457  0.7531
 7586SOL     OW34390   0.486   2.041   9.647 -0.1298 -0.1773 -0.7167
 7586SOL    HW134391   0.539   2.107   9.602 -0.2467  0.4805  0.1120
 7586SOL    HW234392   0.404   2.054   9.600 -0.8476 -0.4722  0.4451
 7587SOL     OW34393   0.745   2.392   3.226  0.0143  0.1064 -0.0251
 7587SOL    HW134394   0.829   2.352   3.205  0.9879  1.9759  0.3659
 7587SOL    HW234395   0.731   2.437   3.142 -0.4609  0.4719  0.2492
 7588SOL     OW34396   2.978   2.603  11.505  0.1938 -0.1710 -0.0361
 7588SOL    HW134397   2.908   2.572  11.447 -1.6586  3.2002  0.4289
 7588SOL    HW234398   3.039   2.651  11.449  1.0185 -1.9262 -0.6771
 7589SOL     OW34399   1.569   0.284  11.200 -0.0181  0.5241 -0.4644
 7589SOL    HW134400   1.620   0.205  11.220 -0.6370 -0.0178 -0.9972
 7589SOL    HW234401   1.493   0.246  11.155 -0.2896  1.4896 -0.8147
 7590SOL     OW34402   3.744   3.952   6.490 -0.5615 -0.3697  0.9301
 7590SOL    HW134403   3.806   4.013   6.451 -1.8118  1.1295  1.3106
 7590SOL    HW234404   3.786   3.867   6.482  0.3839  0.5469 -3.4869
 7591SOL     OW34405   0.824   2.946   4.168 -0.0655  0.0611 -0.4894
 7591SOL    HW134406   0.772   3.025   4.151 -0.3810 -0.2554 -1.0241
 7591SOL    HW234407   0.815   2.944   4.263 -0.6857 -0.0104 -0.5463
 7592SOL     OW34408   3.846   1.134  12.305  0.2071 -0.5108  0.0513
 7592SOL    HW134409   3.766   1.143  12.356  0.5696  1.6402  0.2570
 7592SOL    HW234410   3.846   1.039  12.294  1.0166 -0.3600 -1.2767
 7593SOL     OW34411   0.752   1.650  10.347  0.5654  0.2542 -0.5563
 7593SOL    HW134412   0.680   1.618  10.292  2.4225 -2.2543 -1.5433
 7593SOL    HW234413   0.771   1.721  10.286  1.8471 -0.4313 -0.9483
 7594SOL     OW34414   2.908   0.214   6.617 -0.0363 -0.6562  0.1346
 7594SOL    HW134415   2.999   0.242   6.629 -0.1844 -1.1283  2.3077
 7594SOL    HW234416   2.904   0.136   6.673  0.1847 -0.3397  0.5811
 7595SOL     OW34417   2.732   2.119   2.144  0.0990 -0.2266 -0.0865
 7595SOL    HW134418   2.731   2.203   2.191 -1.2421 -0.1659 -0.2319
 7595SOL    HW234419   2.637   2.113   2.133  0.2102 -1.0770 -0.5583
 7596SOL     OW34420   1.853   0.297  14.367 -0.0003  0.5571 -0.6559
 7596SOL    HW134421   1.804   0.319  14.447 -1.1374  0.3230 -1.2868
 7596SOL    HW234422   1.897   0.378  14.345  4.2623 -1.1458  1.6573
 7597SOL     OW34423   1.330   0.991  12.147 -0.6554 -0.1584  0.1885
 7597SOL    HW134424   1.407   1.039  12.119 -0.5218 -0.3509  0.2255
 7597SOL    HW234425   1.295   0.958  12.064 -1.0588 -0.3536  0.4364
 7598SOL     OW34426   3.658   2.770   7.095 -0.3094 -0.2000 -0.2274
 7598SOL    HW134427   3.654   2.675   7.086  0.2111 -0.0239 -2.3689
 7598SOL    HW234428   3.705   2.792   7.014  1.9101 -2.2827  0.4844
 7599SOL     OW34429   0.477   4.674  10.710 -0.4959  0.3513  0.1500
 7599SOL    HW134430   0.393   4.684  10.665  0.4557  0.5468 -1.6058
 7599SOL    HW234431   0.521   0.022  10.691  0.2665 -0.1669 -0.3472
 7600SOL     OW34432   2.051   2.660   6.646  0.7270 -0.0902 -0.1708
 7600SOL    HW134433   1.986   2.723   6.676 -0.1368 -0.3766 -1.4712
 7600SOL    HW234434   2.034   2.685   6.556 -4.3341  0.1977  0.8532
 7601SOL     OW34435   1.876   0.276  15.147 -0.1788 -0.1025  0.1143
 7601SOL    HW134436   1.964   0.283  15.109  0.4117 -2.8150  0.9806
 7601SOL    HW234437   1.842   0.363  15.125  0.1425  0.3133  1.2620
 7602SOL     OW34438   0.595   2.626   6.380  0.6454 -0.2260  0.4308
 7602SOL    HW134439   0.657   2.578   6.434 -1.3465 -2.3216  0.8480
 7602SOL    HW234440   0.647   2.687   6.328 -1.9434  0.8150 -0.9335
 7603SOL     OW34441   4.594   0.357   8.736 -0.6731 -0.0488 -0.5861
 7603SOL    HW134442   4.563   0.298   8.804 -0.4437  0.9071  0.3613
 7603SOL    HW234443   4.513   0.403   8.712 -0.8541 -0.5773 -0.9750
 7604SOL     OW34444   2.299   3.225   7.587 -0.4611 -0.1346  0.2878
 7604SOL    HW134445   2.366   3.183   7.533 -1.5134 -0.3983 -0.8099
 7604SOL    HW234446   2.266   3.141   7.619 -0.3107 -0.7203 -1.0804
 7605SOL     OW34447   1.482   4.108  14.140 -0.4460 -0.7666  0.6997
 7605SOL    HW134448   1.410   4.163  14.108 -0.2819  1.2944  3.8358
 7605SOL    HW234449   1.435   4.027  14.162 -3.5155  0.6669 -0.6221
 7606SOL     OW34450   2.755   4.114   8.028 -0.0078 -0.3611  0.0089
 7606SOL    HW134451   2.719   4.100   7.941  2.0472 -3.1044 -0.4042
 7606SOL    HW234452   2.675   4.089   8.074 -0.0752  0.3533  0.2789
 7607SOL     OW34453   4.170   3.065   2.728 -0.1811  0.3718  0.2079
 7607SOL    HW134454   4.100   3.042   2.789  0.2563  1.5189  1.1521
 7607SOL    HW234455   4.119   3.079   2.648  1.0542  0.9348 -0.4735
 7608SOL     OW34456   2.944   0.245   7.287 -0.3059  0.4657  0.4993
 7608SOL    HW134457   3.022   0.258   7.233 -0.0713 -0.6829  0.5583
 7608SOL    HW234458   2.975   0.194   7.362  0.2319  2.4706  1.6100
 7609SOL     OW34459   2.559   3.120  17.299 -0.2472  0.1794 -0.1835
 7609SOL    HW134460   2.519   3.204  17.275 -1.1883 -0.2569 -0.1577
 7609SOL    HW234461   2.623   3.106  17.230 -0.3993 -2.6582  0.2342
 7610SOL     OW34462   0.628   1.905   4.165  0.0316 -0.0385 -0.3460
 7610SOL    HW134463   0.616   1.967   4.093  0.6522 -0.1790 -0.5759
 7610SOL    HW234464   0.558   1.922   4.228 -0.9138  0.7572 -1.6156
 7611SOL     OW34465   4.687   0.647   8.314  0.1423 -0.6073 -0.0112
 7611SOL    HW134466   0.035   0.620   8.355  0.6632  2.1484  0.7757
 7611SOL    HW234467   4.699   0.602   8.230 -1.1572 -0.7793 -0.1058
 7612SOL     OW34468   3.477   0.347  15.375 -1.0098 -0.5466 -0.6356
 7612SOL    HW134469   3.529   0.268  15.389 -0.6772 -0.1570  0.2754
 7612SOL    HW234470   3.385   0.332  15.395 -0.8753 -0.2568  0.1953
 7613SOL     OW34471   3.792   3.956  13.595 -0.2310  0.2867 -0.3064
 7613SOL    HW134472   3.877   3.958  13.552  1.0047 -0.4195  2.0978
 7613SOL    HW234473   3.736   3.927  13.523  2.3317  0.0496 -2.1593
 7614SOL     OW34474   4.352   2.470  16.600 -0.1101 -0.3255 -1.1182
 7614SOL    HW134475   4.395   2.526  16.536 -1.6468  1.3341 -0.7090
 7614SOL    HW234476   4.282   2.528  16.631  0.2378 -1.2440  1.4117
 7615SOL     OW34477   1.647   2.127  17.132  0.2737 -0.4267 -0.8663
 7615SOL    HW134478   1.557   2.160  17.126  1.0940  1.1903 -4.5598
 7615SOL    HW234479   1.655   2.072  17.054  0.5352 -0.4556 -0.8188
 7616SOL     OW34480   1.485   0.394   9.548 -0.5910 -0.1366 -0.4185
 7616SOL    HW134481   1.478   0.484   9.582  0.5855 -0.6950  1.3093
 7616SOL    HW234482   1.423   0.347   9.604  0.4489  0.5466  1.3209
 7617SOL     OW34483   1.980   3.792   7.671 -0.1245 -0.5025 -0.0663
 7617SOL    HW134484   2.004   3.881   7.698 -2.0654  0.3969 -1.2366
 7617SOL    HW234485   1.983   3.740   7.751  0.4019  0.9423  0.8447
 7618SOL     OW34486   2.167   2.758   8.436 -0.0032 -0.1540  0.0619
 7618SOL    HW134487   2.196   2.667   8.441  0.3168  0.0086  1.2372
 7618SOL    HW234488   2.155   2.771   8.342 -2.9560 -0.6828  0.3535
 7619SOL     OW34489   0.129   3.838  17.454 -0.1156 -0.3007 -0.2843
 7619SOL    HW134490   0.191   3.894  17.407 -0.5494 -0.5080 -1.1093
 7619SOL    HW234491   0.065   3.820  17.386  0.0859 -3.5493  0.3859
 7620SOL     OW34492   2.057   4.721   1.690  0.2883 -0.8198  0.2788
 7620SOL    HW134493   2.134   4.669   1.667  0.4178 -1.0704  1.2824
 7620SOL    HW234494   1.998   4.655   1.726  1.2825 -0.8569  1.8745
 7621SOL     OW34495   3.448   1.814   8.377 -0.0911  0.0157  0.1574
 7621SOL    HW134496   3.368   1.782   8.334  1.7598 -4.1561 -0.2115
 7621SOL    HW234497   3.466   1.885   8.316  1.5081  1.3020  2.1275
 7622SOL     OW34498   1.002   0.476   8.813 -0.2023  0.0378  0.3622
 7622SOL    HW134499   1.056   0.497   8.889  1.0132  0.1465 -0.5319
 7622SOL    HW234500   1.053   0.517   8.743 -0.1436 -0.0749  0.3393
 7623SOL     OW34501   2.089   1.629   5.351  0.1931 -0.3329 -0.0962
 7623SOL    HW134502   2.182   1.645   5.338  0.7989 -2.0253  2.2735
 7623SOL    HW234503   2.071   1.667   5.437 -0.7599 -0.6105 -0.1723
 7624SOL     OW34504   3.307   0.431   1.877 -0.1783  0.0405 -0.2203
 7624SOL    HW134505   3.294   0.447   1.970 -1.2583 -0.3409 -0.3016
 7624SOL    HW234506   3.220   0.436   1.837 -0.5062 -1.8021  0.2794
 7625SOL     OW34507   2.514   0.223   1.047  0.0583  0.0892  0.4788
 7625SOL    HW134508   2.466   0.141   1.064 -0.6760  0.4443  0.1256
 7625SOL    HW234509   2.470   0.290   1.098  0.2325  0.8962 -0.4339
 7626SOL     OW34510   1.166   2.914   1.465 -0.2137 -0.1235  0.1356
 7626SOL    HW134511   1.165   2.832   1.514 -1.8445  0.1120  0.4755
 7626SOL    HW234512   1.255   2.946   1.475 -0.6606  1.4317 -0.9876
 7627SOL     OW34513   2.496   1.253   9.434 -0.1892  0.1454  0.5465
 7627SOL    HW134514   2.586   1.274   9.457 -0.1795  1.2333 -0.4714
 7627SOL    HW234515   2.512   1.178   9.377 -0.2630  1.3478 -1.0600
 7628SOL     OW34516   0.854   0.021   2.660  0.5175 -0.0180 -0.3723
 7628SOL    HW134517   0.941   4.717   2.645  0.4090 -0.1137 -0.7506
 7628SOL    HW234518   0.805   4.708   2.593  0.5818  1.3390 -1.3895
 7629SOL     OW34519   0.641   2.247   1.990 -0.1287 -0.5964 -0.0143
 7629SOL    HW134520   0.735   2.268   1.992 -0.5028  1.0096  1.2092
 7629SOL    HW234521   0.615   2.287   1.907  0.1975 -3.4436 -1.4732
 7630SOL     OW34522   4.551   1.299  11.731 -0.0384  0.4247  0.3556
 7630SOL    HW134523   4.545   1.218  11.680  0.7094  0.9726 -0.5989
 7630SOL    HW234524   4.645   1.314  11.723  0.1436  0.7350  3.1472
 7631SOL     OW34525   0.853   4.116   3.151  0.8107  0.0382  0.0745
 7631SOL    HW134526   0.922   4.055   3.127  1.6678  0.7852  0.6651
 7631SOL    HW234527   0.903   4.181   3.199  0.3559  1.0428 -0.8037
 7632SOL     OW34528   3.193   0.300   7.167 -0.2331  0.0806  0.4781
 7632SOL    HW134529   3.189   0.269   7.076  0.0837 -1.2852  0.9194
 7632SOL    HW234530   3.263   0.365   7.173  0.7667 -0.9332 -0.0944
 7633SOL     OW34531   3.912   1.829   3.549 -0.2175 -0.4612 -0.0458
 7633SOL    HW134532   3.867   1.903   3.510  0.3792 -0.4624 -0.7365
 7633SOL    HW234533   3.980   1.867   3.604 -1.9911 -0.5450  2.2300
 7634SOL     OW34534   0.932   0.346   2.976 -0.1503  0.0589 -0.7780
 7634SOL    HW134535   1.014   0.390   2.999 -0.1907  0.7189 -1.8818
 7634SOL    HW234536   0.967   0.313   2.892  2.8847 -3.4015  1.8162
 7635SOL     OW34537   4.241   0.774   5.160 -0.3170 -0.5754  0.2922
 7635SOL    HW134538   4.201   0.833   5.223 -0.5484 -0.6993  0.2622
 7635SOL    HW234539   4.178   0.765   5.089 -0.1044 -0.9004  0.1402
 7636SOL     OW34540   2.380   1.928   6.408 -0.2433 -0.1005 -0.0057
 7636SOL    HW134541   2.369   1.974   6.324 -0.0131  0.3215  0.1949
 7636SOL    HW234542   2.439   1.854   6.392  0.6945  0.9127 -1.2473
 7637SOL     OW34543   3.038   2.613   6.770  0.1530  0.1147  0.2279
 7637SOL    HW134544   3.058   2.523   6.797 -0.4170 -0.9747 -2.9823
 7637SOL    HW234545   2.955   2.625   6.816  0.8941  0.2564  1.5261
 7638SOL     OW34546   1.796   2.160  11.852  0.3006  0.2587 -0.6544
 7638SOL    HW134547   1.701   2.165  11.847  0.2702  1.0690  0.6904
 7638SOL    HW234548   1.808   2.068  11.877 -0.7457  0.3533  0.1841
 7639SOL     OW34549   1.901   1.382  10.840  0.5363  0.0035  0.0876
 7639SOL    HW134550   1.824   1.414  10.794 -0.3046 -1.9404  0.1432
 7639SOL    HW234551   1.863   1.396  10.926 -1.8920 -0.1620 -0.9712
 7640SOL     OW34552   1.470   3.153   2.120 -0.1849 -0.0675 -0.5147
 7640SOL    HW134553   1.479   3.241   2.157  2.5221 -0.7632  0.4879
 7640SOL    HW234554   1.376   3.146   2.137  0.0630 -0.5973  0.5711
 7641SOL     OW34555   0.491   0.873   5.462 -0.2836 -0.0240  0.5962
 7641SOL    HW134556   0.411   0.925   5.454 -0.4208 -0.5586 -1.3377
 7641SOL    HW234557   0.432   0.806   5.496  1.4799 -2.1543 -0.5533
 7642SOL     OW34558   4.412   1.365   7.076  0.3563  0.2676 -0.2031
 7642SOL    HW134559   4.434   1.289   7.022 -2.1818 -0.1322 -0.6834
 7642SOL    HW234560   4.428   1.435   7.012  1.0951  1.9948  1.8935
 7643SOL     OW34561   2.739   1.052  16.509  0.4939  0.4922 -0.2655
 7643SOL    HW134562   2.790   0.972  16.496 -0.8302 -0.7132  2.0425
 7643SOL    HW234563   2.754   1.069  16.602 -0.6295 -1.5343  0.2673
 7644SOL     OW34564   2.867   0.904   4.885  0.6166 -0.0238  0.8260
 7644SOL    HW134565   2.826   0.982   4.923 -0.0665  0.8677 -1.7146
 7644SOL    HW234566   2.793   0.869   4.837 -0.0501 -0.2011  1.9887
 7645SOL     OW34567   4.514   3.721   7.278 -0.1203 -0.3770 -0.2826
 7645SOL    HW134568   4.441   3.667   7.310  0.8340 -0.9016  0.9739
 7645SOL    HW234569   4.507   3.710   7.183 -0.9689 -3.1253  0.0707
 7646SOL     OW34570   4.643   3.296   5.198  0.2267 -0.1174 -0.1444
 7646SOL    HW134571   4.697   3.228   5.237  1.2917 -0.3599 -2.0577
 7646SOL    HW234572   4.582   3.248   5.142 -1.0125  2.3817 -0.9587
 7647SOL     OW34573   0.944   0.601   2.015 -0.0077  0.0911 -0.1070
 7647SOL    HW134574   1.037   0.593   1.994  0.4979  1.6054  1.5481
 7647SOL    HW234575   0.925   0.673   1.955  0.7417 -0.0872 -0.5683
 7648SOL     OW34576   2.715   0.286   4.475 -0.8766 -0.2576 -0.0305
 7648SOL    HW134577   2.642   0.259   4.530 -1.9312  0.1704 -1.1976
 7648SOL    HW234578   2.674   0.303   4.390  0.4225 -2.6475 -1.1314
 7649SOL     OW34579   4.454   2.486   9.962  0.1256 -0.5736  0.0994
 7649SOL    HW134580   4.395   2.511   9.891 -1.9308 -2.0268  1.2795
 7649SOL    HW234581   4.390   2.479  10.032 -1.2865  0.9476 -1.0374
 7650SOL     OW34582   1.783   2.153  17.371 -0.0045 -0.2614 -0.2046
 7650SOL    HW134583   1.723   2.212  17.416  0.0188  0.9708 -1.7923
 7650SOL    HW234584   1.736   2.129  17.291 -1.4101  2.0196 -0.0414
 7651SOL     OW34585   3.362   1.805   8.864 -0.1295  0.0442  0.2647
 7651SOL    HW134586   3.425   1.762   8.807 -1.0216 -1.5762  0.4810
 7651SOL    HW234587   3.320   1.863   8.801 -1.6191 -2.3532 -0.9754
 7652SOL     OW34588   0.657   1.569  13.078  0.0295  0.3154 -0.0354
 7652SOL    HW134589   0.685   1.570  13.170 -1.0267  0.7334  0.2833
 7652SOL    HW234590   0.733   1.599  13.029  1.3208 -1.7527  0.7176
 7653SOL     OW34591   3.357   0.630   7.691 -0.4315 -0.5886 -0.4232
 7653SOL    HW134592   3.275   0.631   7.741  0.4067  0.5740  0.9360
 7653SOL    HW234593   3.319   0.677   7.617  0.5239 -1.2500 -1.3398
 7654SOL     OW34594   3.711   0.032   4.512  0.2188  0.2896  0.5609
 7654SOL    HW134595   3.660   4.685   4.506  0.2191  0.1650  2.2797
 7654SOL    HW234596   3.693   0.049   4.604  0.7486  1.0948  0.5127
 7655SOL     OW34597   2.342   4.257   3.090 -0.1442  0.4458  0.4068
 7655SOL    HW134598   2.435   4.272   3.075 -0.0430 -0.5324  0.0405
 7655SOL    HW234599   2.345   4.178   3.143  2.4992  0.5279  0.3779
 7656SOL     OW34600   4.140   3.612   2.976 -0.2482  0.4166 -0.3288
 7656SOL    HW134601   4.044   3.605   2.976 -0.2564  0.5195  0.9458
 7656SOL    HW234602   4.164   3.613   2.883  0.5806  3.8108 -0.0661
 7657SOL     OW34603   2.631   1.046  12.883  0.1459  0.1082  0.1216
 7657SOL    HW134604   2.714   1.055  12.930  0.0963 -1.4669  0.5019
 7657SOL    HW234605   2.571   1.049  12.958 -0.6136  1.2138 -0.5251
 7658SOL     OW34606   2.488   1.583   4.800  0.3349 -0.5171  0.3576
 7658SOL    HW134607   2.540   1.642   4.746 -2.0885  2.7640  1.6024
 7658SOL    HW234608   2.423   1.555   4.735  0.5773  0.9953 -0.5432
 7659SOL     OW34609   3.398   2.515   6.796 -0.7438  0.5297 -0.0744
 7659SOL    HW134610   3.344   2.528   6.719  2.1196 -3.4956 -2.7910
 7659SOL    HW234611   3.394   2.419   6.800 -1.9985  0.5735 -0.2557
 7660SOL     OW34612   4.384   1.760   3.273 -0.4748 -0.2167  0.2406
 7660SOL    HW134613   4.329   1.809   3.212 -0.9592 -0.3034  0.6096
 7660SOL    HW234614   4.375   1.674   3.232 -0.7864  0.5451 -1.2761
 7661SOL     OW34615   4.182   1.998   7.899 -0.7805 -0.5631 -0.1986
 7661SOL    HW134616   4.149   2.023   7.813 -0.1266  1.5392  0.1614
 7661SOL    HW234617   4.273   1.993   7.872 -0.1439  0.8924  1.6307
 7662SOL     OW34618   3.970   1.209   3.779  0.1206  0.2909  0.6902
 7662SOL    HW134619   3.876   1.189   3.780  0.4776 -1.2548  2.2219
 7662SOL    HW234620   3.969   1.296   3.819  0.4429  0.1641  0.9678
 7663SOL     OW34621   4.514   2.582   4.628  0.0413  0.2716 -0.1771
 7663SOL    HW134622   4.419   2.583   4.639 -0.0233 -0.4349 -0.6828
 7663SOL    HW234623   4.530   2.638   4.703  3.0248 -1.4754  0.4894
 7664SOL     OW34624   0.992   2.182   2.030 -0.2989  0.4652  0.4752
 7664SOL    HW134625   0.939   2.185   1.950 -0.9746 -2.4196  0.8083
 7664SOL    HW234626   0.981   2.270   2.066  0.9990  1.3105 -1.2387
 7665SOL     OW34627   2.768   4.227  16.392  0.2480  1.0007 -0.5042
 7665SOL    HW134628   2.748   4.204  16.482 -0.1094 -0.6757 -1.0063
 7665SOL    HW234629   2.800   4.149  16.346 -0.2870  0.9038 -0.7100
 7666SOL     OW34630   4.560   0.061   4.205  0.0704  0.5112  0.4001
 7666SOL    HW134631   4.653   0.052   4.186  0.2792  0.0888  1.6008
 7666SOL    HW234632   4.529   4.705   4.216 -1.9314  1.0891 -0.4068
 7667SOL     OW34633   2.426   2.794   3.533 -0.4498 -0.5457  0.2335
 7667SOL    HW134634   2.413   2.719   3.474  1.2133 -0.6424  0.0111
 7667SOL    HW234635   2.440   2.859   3.463 -1.9270  1.7348  2.0574
 7668SOL     OW34636   1.403   2.157   8.842  0.2826 -0.2773 -0.2607
 7668SOL    HW134637   1.331   2.203   8.799  0.4965  1.0343  0.7911
 7668SOL    HW234638   1.436   2.225   8.900  0.1895 -2.8419  2.7777
 7669SOL     OW34639   0.180   0.704   6.201 -0.1335  0.3308  0.5056
 7669SOL    HW134640   0.152   0.619   6.168  1.5290  0.0992 -0.2731
 7669SOL    HW234641   0.216   0.746   6.123 -0.5932  1.1071  0.7136
 7670SOL     OW34642   1.680   0.970  17.705 -0.6204  0.1331 -0.7780
 7670SOL    HW134643   1.770   0.995  17.724 -0.8087 -0.0321  0.3588
 7670SOL    HW234644   1.680   0.959  17.610  2.9876  0.1861 -0.7773
 7671SOL     OW34645   3.995   4.111   6.717 -0.1417 -0.1935 -0.0063
 7671SOL    HW134646   3.960   4.104   6.628 -4.0217  0.7167  1.4561
 7671SOL    HW234647   3.909   4.083   6.749 -0.2197  0.5250  0.4098
 7672SOL     OW34648   3.708   1.464   7.397 -0.1494 -0.0893  0.4696
 7672SOL    HW134649   3.624   1.504   7.374 -0.7819 -0.6404  1.8202
 7672SOL    HW234650   3.727   1.517   7.474  1.4578 -1.0989  0.7716
 7673SOL     OW34651   2.241   1.829  16.147  0.1798  0.1722  0.0446
 7673SOL    HW134652   2.238   1.800  16.056 -2.8291 -0.5145  0.3677
 7673SOL    HW234653   2.161   1.877  16.128  1.0868  1.0805 -1.5508
 7674SOL     OW34654   3.959   4.556  11.799  0.3599  0.3386  0.5493
 7674SOL    HW134655   4.026   4.601  11.747  1.0744 -2.3102 -0.7895
 7674SOL    HW234656   3.993   4.526  11.883 -2.1199 -1.8570  0.7627
 7675SOL     OW34657   4.483   4.352   4.798  0.3489  0.4589  0.3249
 7675SOL    HW134658   4.570   4.390   4.784  0.5781 -1.8360 -4.4773
 7675SOL    HW234659   4.495   4.258   4.784  0.0208  0.2298  1.6017
 7676SOL     OW34660   0.557   1.187   7.503  0.0865 -0.8082  0.3176
 7676SOL    HW134661   0.621   1.187   7.432 -2.3904  0.4341 -1.9286
 7676SOL    HW234662   0.554   1.095   7.530  0.3744 -0.9777 -0.2310
 7677SOL     OW34663   1.302   0.380   8.250  0.0337  0.4168 -0.2588
 7677SOL    HW134664   1.301   0.432   8.170 -1.7006  0.9830  0.1309
 7677SOL    HW234665   1.263   0.298   8.218  0.0072 -0.6712  2.5611
 7678SOL     OW34666   3.996   4.254   7.403 -0.3189 -0.0688  0.3303
 7678SOL    HW134667   4.032   4.233   7.490 -0.3349  1.8469  0.7901
 7678SOL    HW234668   3.999   4.171   7.356 -0.9178  0.0480  0.0879
 7679SOL     OW34669   3.645   3.208   3.695  0.1186  0.1783 -0.2625
 7679SOL    HW134670   3.551   3.225   3.701  0.5676  2.5132  0.0556
 7679SOL    HW234671   3.677   3.252   3.773 -2.4465 -0.9770  1.4305
 7680SOL     OW34672   2.592   0.788   3.684 -0.3403  0.0837  0.2728
 7680SOL    HW134673   2.566   0.776   3.776  2.3187  2.0162  1.2798
 7680SOL    HW234674   2.546   0.714   3.645  1.2161 -0.4480 -0.5436
 7681SOL     OW34675   1.889   2.796   7.362 -0.4569 -0.2577 -0.2272
 7681SOL    HW134676   1.954   2.849   7.316 -0.5557 -0.9726 -1.1771
 7681SOL    HW234677   1.806   2.839   7.342 -0.4510  0.3191  0.9441
 7682SOL     OW34678   4.557   3.316  11.469 -0.1377  0.1658 -0.0242
 7682SOL    HW134679   4.481   3.259  11.455  0.5101 -0.5110 -0.8735
 7682SOL    HW234680   4.533   3.342  11.558 -2.0421  0.0001 -0.4784
 7683SOL     OW34681   3.334   1.563   9.134  0.0811 -0.6433  0.0758
 7683SOL    HW134682   3.325   1.516   9.217 -1.8958  2.2185  1.4712
 7683SOL    HW234683   3.404   1.518   9.088 -0.6800 -3.1098  1.3218
 7684SOL     OW34684   1.698   3.725   6.305 -0.0819  0.1663  0.1532
 7684SOL    HW134685   1.653   3.807   6.326  0.4507  0.9538 -1.7450
 7684SOL    HW234686   1.788   3.744   6.331  0.5019 -0.7250 -1.1853
 7685SOL     OW34687   4.586   3.535   6.630  0.4670 -0.2747 -0.8306
 7685SOL    HW134688   4.624   3.494   6.553  1.7472 -1.0956  0.2460
 7685SOL    HW234689   4.493   3.514   6.616 -0.4625  1.9437  1.9442
 7686SOL     OW34690   4.336   4.329   4.561  0.4705 -0.3272 -0.1488
 7686SOL    HW134691   4.378   4.401   4.513 -1.1172 -0.3689 -1.5863
 7686SOL    HW234692   4.381   4.335   4.645 -2.1226 -1.4505  1.3339
 7687SOL     OW34693   3.899   3.690   2.779 -0.1796 -0.1547  0.2127
 7687SOL    HW134694   3.892   3.648   2.865 -0.5160 -0.4304  0.0525
 7687SOL    HW234695   3.857   3.774   2.797 -1.5170 -0.7181 -0.2514
 7688SOL     OW34696   4.140   0.156   4.767  0.0833 -0.3778  0.1915
 7688SOL    HW134697   4.100   0.154   4.680  0.0558  1.4411  0.1622
 7688SOL    HW234698   4.169   0.065   4.772 -2.3827 -1.1396  0.8395
 7689SOL     OW34699   2.809   4.510   2.818 -0.0848  0.0918 -0.2110
 7689SOL    HW134700   2.766   4.496   2.734  1.8225 -0.4048 -1.0884
 7689SOL    HW234701   2.839   4.423   2.844  0.5442  0.7236  1.1580
 7690SOL     OW34702   2.713   0.033   7.328  0.3232 -0.0137 -0.5833
 7690SOL    HW134703   2.730   0.109   7.272 -0.8943  1.2277  0.7204
 7690SOL    HW234704   2.803   0.003   7.342  0.7945  1.2875 -0.8156
 7691SOL     OW34705   4.685   1.615   0.001  0.1986 -0.6075  0.0278
 7691SOL    HW134706   0.001   1.533   0.000  0.6298 -0.3302 -0.7413
 7691SOL    HW234707   0.009   1.689  17.724 -0.2602 -0.3432 -0.4931
 7692SOL     OW34708   0.279   1.439   4.563 -0.1857 -0.2592  0.3933
 7692SOL    HW134709   0.345   1.504   4.587 -0.9540  0.6001  0.1606
 7692SOL    HW234710   0.259   1.414   4.653  0.5154 -0.7543  0.4114
 7693SOL     OW34711   0.418   4.445  10.545 -0.6074  0.3717  0.0075
 7693SOL    HW134712   0.433   4.490  10.629  0.3557  0.0295  0.0159
 7693SOL    HW234713   0.441   4.510  10.479 -1.5523 -1.0019 -1.6589
 7694SOL     OW34714   1.598   3.872   3.981  0.3338  0.3522  0.0283
 7694SOL    HW134715   1.686   3.896   3.952  0.1142  0.9241 -0.1704
 7694SOL    HW234716   1.553   3.899   3.901 -0.4877  0.7402  0.6184
 7695SOL     OW34717   3.401   1.264  15.871 -0.1357 -0.0383 -0.2122
 7695SOL    HW134718   3.314   1.260  15.910  0.2891 -0.6224  0.6867
 7695SOL    HW234719   3.392   1.329  15.801 -0.0319 -0.3953 -0.5551
 7696SOL     OW34720   1.811   2.465   7.942  0.2939 -0.0764  0.4363
 7696SOL    HW134721   1.771   2.380   7.920 -1.0014  1.4418 -3.1595
 7696SOL    HW234722   1.728   2.513   7.939  1.3609  1.7218 -0.5462
 7697SOL     OW34723   0.670   0.646   8.777  0.1345  0.1076 -0.5722
 7697SOL    HW134724   0.591   0.627   8.827 -1.6559  0.7321 -3.1149
 7697SOL    HW234725   0.730   0.638   8.851  0.6383 -1.4630 -1.1555
 7698SOL     OW34726   3.456   4.191   5.230  0.0576 -0.5362  0.8514
 7698SOL    HW134727   3.541   4.212   5.191 -1.0889  2.1346 -0.2417
 7698SOL    HW234728   3.413   4.276   5.235 -2.7688 -2.0139  1.1475
 7699SOL     OW34729   3.035   3.414   3.308 -0.4008  0.3397  0.0221
 7699SOL    HW134730   2.995   3.337   3.268 -0.7265  0.4709  0.0990
 7699SOL    HW234731   3.024   3.479   3.239  0.5220 -0.3850 -0.8140
 7700SOL     OW34732   3.256   1.627   7.680  0.1440  0.2940 -0.2225
 7700SOL    HW134733   3.257   1.537   7.649  2.3026 -0.5561  2.3449
 7700SOL    HW234734   3.301   1.678   7.612  1.8090 -0.1918  0.5190
 7701SOL     OW34735   0.978   2.555  15.649  0.6217  0.1899  0.0022
 7701SOL    HW134736   0.921   2.515  15.584 -0.7953  0.7241  0.9147
 7701SOL    HW234737   1.032   2.610  15.592  2.4266 -2.8976 -1.2216
 7702SOL     OW34738   3.155   3.996   6.115 -0.0875  0.4280  0.3947
 7702SOL    HW134739   3.212   4.065   6.149 -1.6526  1.9168 -0.0087
 7702SOL    HW234740   3.201   3.989   6.031  1.1161 -3.0958  1.3369
 7703SOL     OW34741   3.870   1.054   4.653  0.1510 -0.7844 -0.7103
 7703SOL    HW134742   3.932   0.985   4.630  0.2764  0.1741 -3.2204
 7703SOL    HW234743   3.785   1.011   4.643 -0.5102  0.3376 -0.0115
 7704SOL     OW34744   0.742   2.159   2.603 -0.4761  0.3884  0.3755
 7704SOL    HW134745   0.753   2.065   2.593 -0.4349  0.4570 -0.2293
 7704SOL    HW234746   0.830   2.195   2.591 -0.4610  0.3020  0.2328
 7705SOL     OW34747   0.314   4.479   4.762  0.0531  0.4842  0.0642
 7705SOL    HW134748   0.291   4.451   4.851 -3.6224  1.4109 -0.6026
 7705SOL    HW234749   0.358   4.563   4.777 -1.0010  1.1813 -0.6905
 7706SOL     OW34750   0.616   1.231  15.808  0.5937 -0.3788 -0.1784
 7706SOL    HW134751   0.704   1.193  15.810  1.0497  0.6851  0.0851
 7706SOL    HW234752   0.639   1.302  15.867 -1.6812  0.3781 -0.1957
 7707SOL     OW34753   1.705   0.057   1.233 -0.1537  0.3790 -0.4042
 7707SOL    HW134754   1.685   0.065   1.326  1.6075  0.1012 -0.0144
 7707SOL    HW234755   1.622   0.020   1.200 -0.4184 -0.3216  1.0271
 7708SOL     OW34756   2.244   0.950   4.710 -0.5268  0.0652 -0.1417
 7708SOL    HW134757   2.278   0.866   4.743  1.4591  1.1236  0.5400
 7708SOL    HW234758   2.293   1.006   4.770  0.2746 -0.4545 -0.3002
 7709SOL     OW34759   1.029   4.638   6.368  0.4240  0.2273 -0.0552
 7709SOL    HW134760   0.991   4.617   6.453 -2.7333 -1.2434 -1.8059
 7709SOL    HW234761   0.986   4.718   6.338  1.2238  1.3961  1.9732
 7710SOL     OW34762   0.311   2.385   7.247  0.4474  0.5097 -0.0073
 7710SOL    HW134763   0.298   2.438   7.168 -0.3243  0.8862  0.3704
 7710SOL    HW234764   0.287   2.446   7.317 -1.6556 -0.2207 -0.0943
 7711SOL     OW34765   0.004   3.934  14.526  0.4123  0.1372  0.5702
 7711SOL    HW134766   0.068   3.905  14.591  1.4078  0.5731 -0.2304
 7711SOL    HW234767   4.673   3.864  14.523 -0.5869  1.1080 -0.0899
 7712SOL     OW34768   0.906   4.734   9.260  0.2113 -0.5616  0.0012
 7712SOL    HW134769   0.940   4.645   9.252 -0.1412 -0.5801 -1.2264
 7712SOL    HW234770   0.945   0.022   9.345  0.4872 -0.4350 -0.1607
 7713SOL     OW34771   1.191   2.328   6.048  0.0014  0.3559  0.1108
 7713SOL    HW134772   1.253   2.256   6.060  1.3031  1.2095 -1.4889
 7713SOL    HW234773   1.214   2.395   6.113  1.1201  0.9989 -0.9437
 7714SOL     OW34774   3.229   0.628   3.384 -0.0954 -0.0705  0.1827
 7714SOL    HW134775   3.252   0.555   3.326 -0.3216 -1.5535  1.9564
 7714SOL    HW234776   3.302   0.687   3.366  0.6787 -1.3621 -0.9397
 7715SOL     OW34777   0.443   2.574  11.363  0.0334  0.0230 -0.0279
 7715SOL    HW134778   0.476   2.579  11.274 -0.7356 -1.6431 -0.3859
 7715SOL    HW234779   0.467   2.659  11.402  0.6593  0.1746 -0.7429
 7716SOL     OW34780   2.976   0.496   7.786  0.1628 -0.1775 -0.3323
 7716SOL    HW134781   3.037   0.559   7.826  0.6147 -1.7685  1.4749
 7716SOL    HW234782   3.021   0.485   7.702 -0.9186 -0.4750 -0.8687
 7717SOL     OW34783   3.223   2.758   2.451 -0.4180  0.4125  0.1286
 7717SOL    HW134784   3.254   2.710   2.527 -2.0819 -1.1514 -0.1746
 7717SOL    HW234785   3.273   2.727   2.375  0.9999  2.8788  0.0866
 7718SOL     OW34786   2.076   2.369   2.975  0.3417  0.0145  0.4255
 7718SOL    HW134787   2.090   2.335   3.064 -1.9960  0.8124  1.0922
 7718SOL    HW234788   2.091   2.462   2.992  0.2704  0.3824 -1.5675
 7719SOL     OW34789   2.026   1.099   2.352 -0.0188 -0.4215 -0.9954
 7719SOL    HW134790   2.103   1.147   2.382 -0.1047 -0.3277 -0.9267
 7719SOL    HW234791   2.011   1.130   2.263 -0.3883  0.1320 -0.7413
 7720SOL     OW34792   4.306   3.877   4.807 -0.2926 -0.1577 -0.0146
 7720SOL    HW134793   4.385   3.867   4.753 -1.1111  0.2925 -1.2938
 7720SOL    HW234794   4.338   3.835   4.887  1.1332  0.9534  0.0036
 7721SOL     OW34795   3.869   3.034   4.850  0.9832 -0.2726  0.4288
 7721SOL    HW134796   3.853   3.103   4.915 -0.1454  2.2166 -2.5212
 7721SOL    HW234797   3.867   3.090   4.773  2.9816  0.8471  1.2025
 7722SOL     OW34798   1.849   3.486   6.163  0.3167  0.2394 -0.3928
 7722SOL    HW134799   1.823   3.503   6.072 -2.5790  0.6767  0.5233
 7722SOL    HW234800   1.944   3.477   6.156  0.3127 -0.1337  0.0458
 7723SOL     OW34801   0.958   1.314   7.275 -0.5412 -0.6702  0.0385
 7723SOL    HW134802   0.909   1.392   7.248 -1.7408 -1.8183 -1.1526
 7723SOL    HW234803   0.967   1.276   7.187 -0.0262  0.6106 -0.4662
 7724SOL     OW34804   2.204   2.392  15.823 -0.2700 -0.2689  0.3767
 7724SOL    HW134805   2.218   2.310  15.869 -0.1813  0.2472  1.2589
 7724SOL    HW234806   2.117   2.420  15.853  0.2765  1.9835 -0.1233
 7725SOL     OW34807   1.155   1.934   3.044 -0.3443  0.0890  0.1827
 7725SOL    HW134808   1.128   1.900   2.959  1.5472  1.1890 -0.8607
 7725SOL    HW234809   1.114   1.875   3.107 -1.1364  2.8182  2.2668
 7726SOL     OW34810   1.232   2.568   2.054 -0.3740  0.4604  0.2002
 7726SOL    HW134811   1.167   2.553   2.122 -0.7777 -0.9873 -0.5035
 7726SOL    HW234812   1.305   2.597   2.108  0.5451  0.7697 -1.2105
 7727SOL     OW34813   0.694   1.726  14.056  0.1099 -0.4577 -0.1389
 7727SOL    HW134814   0.634   1.771  13.997 -1.6490 -1.0214  1.1843
 7727SOL    HW234815   0.665   1.635  14.042 -0.7261 -0.6174  2.5738
 7728SOL     OW34816   4.582   3.600  17.041  0.1490 -0.1112  0.1500
 7728SOL    HW134817   4.602   3.517  16.997  0.6425 -0.3651  0.8432
 7728SOL    HW234818   4.528   3.643  16.975 -0.1818  0.7998  1.0184
 7729SOL     OW34819   2.774   3.157   7.601  0.6186 -0.1089  0.1262
 7729SOL    HW134820   2.774   3.190   7.691 -2.4692 -1.8547  0.7864
 7729SOL    HW234821   2.738   3.233   7.556  0.4243 -0.0851  0.3196
 7730SOL     OW34822   0.146   3.853   2.659 -0.3997  0.1494 -0.1485
 7730SOL    HW134823   0.241   3.863   2.649 -0.5743  2.3124  0.5334
 7730SOL    HW234824   0.136   3.877   2.751  0.4289  0.5994 -0.1773
 7731SOL     OW34825   1.580   3.488   6.413  0.0557  0.2637 -0.2746
 7731SOL    HW134826   1.581   3.556   6.345  0.3436  0.2758 -0.2598
 7731SOL    HW234827   1.531   3.419   6.369  0.6712  0.0188 -0.5828
 7732SOL     OW34828   4.561   3.509   8.972  0.1628  0.4201 -0.3292
 7732SOL    HW134829   4.623   3.443   9.004  0.5115  1.5648  1.3309
 7732SOL    HW234830   4.613   3.561   8.911  0.0376 -0.2103 -0.9781
 7733SOL     OW34831   1.676   0.860   9.462 -0.0373  0.0669  0.0869
 7733SOL    HW134832   1.597   0.898   9.423 -0.0611  0.2955  0.3593
 7733SOL    HW234833   1.748   0.912   9.427  0.7429 -0.1217  1.4451
 7734SOL     OW34834   1.075   1.559   5.649  0.0321 -0.5301 -0.1078
 7734SOL    HW134835   1.130   1.528   5.577  0.6217  1.6622 -0.5909
 7734SOL    HW234836   0.991   1.529   5.614 -0.0234 -1.4220  0.7731
 7735SOL     OW34837   3.287   1.612   0.691  0.4655  0.1412 -0.5963
 7735SOL    HW134838   3.204   1.642   0.730  1.5931  2.2146  0.2025
 7735SOL    HW234839   3.248   1.549   0.630 -0.5588  0.0483  0.1416
 7736SOL     OW34840   3.131   1.731   3.850  0.8123 -0.1290 -0.5202
 7736SOL    HW134841   3.190   1.677   3.903  0.1295 -0.1570  0.2129
 7736SOL    HW234842   3.170   1.731   3.763  1.4939 -3.3405 -0.2174
 7737SOL     OW34843   3.860   1.393   8.457  0.4078  0.4901 -0.4322
 7737SOL    HW134844   3.855   1.441   8.375  1.4238  0.7531 -0.3360
 7737SOL    HW234845   3.813   1.314   8.430  0.3244  0.2422  0.4173
 7738SOL     OW34846   1.738   1.710   4.450  0.3154  0.4573  0.0446
 7738SOL    HW134847   1.769   1.717   4.359 -2.0500  2.3804 -0.6154
 7738SOL    HW234848   1.674   1.781   4.459  1.6678  1.7905 -0.7605
 7739SOL     OW34849   1.150   1.749  10.533  0.3594  0.2462  0.2139
 7739SOL    HW134850   1.070   1.699  10.515  0.1498  1.2716 -1.7507
 7739SOL    HW234851   1.208   1.681  10.567  0.7697 -0.1702 -1.3284
 7740SOL     OW34852   3.667   2.041   2.642 -0.2966 -0.1148  0.5554
 7740SOL    HW134853   3.577   2.069   2.629 -0.1354 -0.6890 -1.7165
 7740SOL    HW234854   3.719   2.100   2.587  1.1988 -0.1745  1.8973
 7741SOL     OW34855   1.567   0.699   2.406  0.0159 -0.5063 -0.5154
 7741SOL    HW134856   1.541   0.785   2.371  0.9998  0.6109  1.4936
 7741SOL    HW234857   1.661   0.706   2.395  0.0386  3.3673  1.7470
 7742SOL     OW34858   0.018   1.390  11.177 -0.0001  0.0448  0.1239
 7742SOL    HW134859   0.070   1.414  11.254  1.3844  2.2884 -1.5070
 7742SOL    HW234860   0.091   1.362  11.122 -0.2707  1.3364 -0.8860
 7743SOL     OW34861   3.379   2.315   1.675 -0.0207  0.0462  0.3744
 7743SOL    HW134862   3.360   2.408   1.659 -1.8037 -0.2443  0.7952
 7743SOL    HW234863   3.304   2.266   1.641  1.5306 -1.1734 -1.2549
 7744SOL     OW34864   2.415   0.706   8.918  0.1111  0.0644 -0.0988
 7744SOL    HW134865   2.466   0.786   8.930  0.5863 -0.1963 -0.3885
 7744SOL    HW234866   2.434   0.653   8.996 -0.6310  2.0064  1.3790
 7745SOL     OW34867   4.211   0.440   9.249  0.3114 -0.4225  0.1038
 7745SOL    HW134868   4.168   0.525   9.239 -0.4114 -0.9505 -1.2116
 7745SOL    HW234869   4.300   0.461   9.223  0.5885  0.8325  2.0218
 7746SOL     OW34870   3.581   3.266   7.957  0.3796 -0.1618 -0.3369
 7746SOL    HW134871   3.555   3.215   7.880  0.3840 -0.3193 -0.2345
 7746SOL    HW234872   3.500   3.317   7.965 -0.4866 -1.2057 -2.5621
 7747SOL     OW34873   3.696   0.735  15.183 -0.6701 -0.1787 -0.2975
 7747SOL    HW134874   3.622   0.712  15.241  1.0958 -0.8533  1.6978
 7747SOL    HW234875   3.671   0.823  15.156  1.2436 -0.1046 -1.7512
 7748SOL     OW34876   2.937   3.794  15.266  0.0684  0.5364  0.3460
 7748SOL    HW134877   2.860   3.830  15.221 -1.0464 -1.5676  0.5959
 7748SOL    HW234878   2.992   3.790  15.187 -2.5327  0.4774 -1.4685
 7749SOL     OW34879   2.775   3.400   7.475  0.0356  0.6229 -0.1841
 7749SOL    HW134880   2.759   3.443   7.391 -0.9305 -0.2625 -0.4537
 7749SOL    HW234881   2.869   3.416   7.478  0.2172 -0.4517 -0.0788
 7750SOL     OW34882   1.111   2.776  14.568  0.3895 -0.0446 -0.1221
 7750SOL    HW134883   1.057   2.735  14.501 -1.8621 -0.5079  1.9694
 7750SOL    HW234884   1.066   2.747  14.648 -0.6940  1.4405 -0.2041
 7751SOL     OW34885   2.860   3.195   9.290  0.4638  0.5447 -0.3226
 7751SOL    HW134886   2.780   3.155   9.257  0.9046 -0.3492 -0.3310
 7751SOL    HW234887   2.837   3.198   9.383  1.8412 -0.3754  0.0452
 7752SOL     OW34888   1.693   4.418   6.904  0.0979  0.2096 -0.1673
 7752SOL    HW134889   1.655   4.420   6.817 -2.7546 -0.6065  1.0767
 7752SOL    HW234890   1.700   4.510   6.930 -0.8802 -0.0762  1.1313
 7753SOL     OW34891   0.408   2.612  12.059 -0.2826 -0.2426 -0.0437
 7753SOL    HW134892   0.447   2.679  12.114  0.5398  0.6264 -1.6928
 7753SOL    HW234893   0.315   2.628  12.069 -0.5434  0.1042 -2.9307
 7754SOL     OW34894   0.716   0.781  14.880  0.2694  0.4690  0.4626
 7754SOL    HW134895   0.647   0.719  14.901  1.1710  0.2505  2.8557
 7754SOL    HW234896   0.682   0.864  14.913 -0.4374  0.3077  0.1279
 7755SOL     OW34897   4.569   0.363   8.387  0.1169 -0.2688 -0.1807
 7755SOL    HW134898   4.626   0.422   8.437  0.0022 -0.6555  0.4056
 7755SOL    HW234899   4.619   0.344   8.308 -0.6233 -1.3405 -0.3891
 7756SOL     OW34900   1.744   0.050  17.144  0.5649  0.1557  0.4027
 7756SOL    HW134901   1.739   0.135  17.101  0.9506 -1.2103 -2.3607
 7756SOL    HW234902   1.680   0.062  17.214  1.4590  0.7804  1.1033
 7757SOL     OW34903   0.476   0.402   8.202 -0.0737 -1.0019  0.3813
 7757SOL    HW134904   0.512   0.374   8.118  1.7046 -0.3401  0.9028
 7757SOL    HW234905   0.549   0.441   8.252  0.6377 -1.2202 -0.4831
 7758SOL     OW34906   0.570   3.745   5.355  0.6157  0.5658 -0.0177
 7758SOL    HW134907   0.625   3.670   5.332  1.8845  2.0398 -1.6821
 7758SOL    HW234908   0.563   3.783   5.268  2.8919  0.3718 -0.2831
 7759SOL     OW34909   0.536   2.679  16.483 -0.1644  0.3268  0.0255
 7759SOL    HW134910   0.494   2.747  16.535  1.1014  0.2143  1.1881
 7759SOL    HW234911   0.453   2.636  16.460  0.1011 -1.0363  1.5934
 7760SOL     OW34912   3.863   4.629  16.091  0.4476 -0.8653  0.0599
 7760SOL    HW134913   3.919   4.641  16.168  1.6587 -1.1161 -0.7803
 7760SOL    HW234914   3.928   4.588  16.034  1.3340  0.4742  0.0983
 7761SOL     OW34915   0.778   2.072   9.084  0.2361  0.3224  0.0275
 7761SOL    HW134916   0.797   2.163   9.106  0.7916  0.3099 -0.4085
 7761SOL    HW234917   0.807   2.055   8.994 -0.8029 -1.3388 -0.0037
 7762SOL     OW34918   3.890   1.585   9.778 -0.0290 -0.4588  0.2250
 7762SOL    HW134919   3.963   1.647   9.769  1.1574 -1.7541  0.9843
 7762SOL    HW234920   3.887   1.572   9.873  1.9651  0.7502  0.4663
 7763SOL     OW34921   4.087   0.754  10.355  0.1653  0.3098 -0.3300
 7763SOL    HW134922   4.129   0.766  10.440  0.2569 -2.1127 -0.0346
 7763SOL    HW234923   4.005   0.801  10.370  0.3588  0.3029  0.7125
 7764SOL     OW34924   0.699   3.180   1.838  0.4376 -0.0808 -0.0222
 7764SOL    HW134925   0.669   3.218   1.755 -2.1976 -2.6369 -0.2905
 7764SOL    HW234926   0.773   3.231   1.869  1.3749 -1.5979  0.2437
 7765SOL     OW34927   3.376   2.246  11.947  0.1076 -0.3593 -0.1701
 7765SOL    HW134928   3.344   2.172  11.999 -0.9721 -1.0898 -1.8365
 7765SOL    HW234929   3.429   2.286  12.015 -2.4209  0.2120  1.4329
 7766SOL     OW34930   3.062   4.502  13.200  0.2493 -0.8410  0.1372
 7766SOL    HW134931   3.079   4.596  13.193  2.3209 -1.0799  1.8635
 7766SOL    HW234932   3.019   4.486  13.116 -2.0366  3.1279  0.5312
 7767SOL     OW34933   0.186   3.157   2.788  0.2564 -0.2924  0.0746
 7767SOL    HW134934   0.265   3.114   2.755  0.1999  0.5538 -1.1786
 7767SOL    HW234935   0.227   3.234   2.828 -0.3358  0.2976 -0.4525
 7768SOL     OW34936   0.759   2.479   2.306  0.5482 -0.0928  0.1606
 7768SOL    HW134937   0.718   2.562   2.327  0.0787 -0.4530  0.6558
 7768SOL    HW234938   0.686   2.421   2.285  0.1407  1.0120 -1.4712
 7769SOL     OW34939   0.129   2.532   0.280 -0.7016  0.7098  0.0335
 7769SOL    HW134940   0.109   2.440   0.262  0.6599  0.4853 -0.3392
 7769SOL    HW234941   0.147   2.553   0.189 -0.7656  0.8789  0.0601
 7770SOL     OW34942   1.901   2.826  12.096  1.4316 -0.0169 -0.1884
 7770SOL    HW134943   1.840   2.894  12.126  2.5965  0.9254  0.0406
 7770SOL    HW234944   1.986   2.866  12.081  1.5697  0.0512  0.7629
 7771SOL     OW34945   0.319   1.910   0.366 -0.4979 -0.1473  0.1431
 7771SOL    HW134946   0.276   1.825   0.354  1.2667 -0.6367 -2.6055
 7771SOL    HW234947   0.351   1.909   0.456 -2.7530 -0.4805  0.9599
 7772SOL     OW34948   1.568   1.293   0.198  0.4376 -0.4548  0.0253
 7772SOL    HW134949   1.536   1.209   0.231  0.1337  0.2660  1.5536
 7772SOL    HW234950   1.546   1.285   0.105  0.6975  2.3892 -0.2916
 7773SOL     OW34951   4.428   2.460   2.571  0.0040  0.7385 -0.3045
 7773SOL    HW134952   4.370   2.393   2.535  1.6870 -1.1791  0.5484
 7773SOL    HW234953   4.463   2.419   2.651  0.1722 -1.6815 -1.6124
 7774SOL     OW34954   1.552   0.629   7.414 -0.1706 -0.1147  0.1281
 7774SOL    HW134955   1.575   0.722   7.405  1.1779 -0.4431  0.1652
 7774SOL    HW234956   1.557   0.611   7.507  1.9656  2.0366  0.4476
 7775SOL     OW34957   1.487   1.059   4.782  0.1059 -0.1631 -0.2306
 7775SOL    HW134958   1.565   1.114   4.780 -0.6167  0.8882  0.6498
 7775SOL    HW234959   1.503   0.982   4.727 -0.0018 -0.6353  0.4134
 7776SOL     OW34960   1.958   3.012   4.001  0.4623  0.1130 -0.0540
 7776SOL    HW134961   1.936   3.105   4.008 -1.5796 -0.3496 -0.2923
 7776SOL    HW234962   1.881   2.982   4.049 -0.4757  0.7640 -1.1335
 7777SOL     OW34963   2.418   3.363   2.756  0.4481  0.2971 -0.6190
 7777SOL    HW134964   2.420   3.363   2.660 -0.7027 -1.2240 -0.6554
 7777SOL    HW234965   2.503   3.324   2.775  0.8747  2.0604  1.0274
 7778SOL     OW34966   0.345   4.218   3.082 -0.0149  0.1726 -0.4409
 7778SOL    HW134967   0.277   4.223   3.014  1.4109  0.6505 -1.8184
 7778SOL    HW234968   0.291   4.169   3.144  1.6284 -0.4571  0.4648
 7779SOL     OW34969   4.229   1.178   6.650 -0.2031 -0.0856 -0.2103
 7779SOL    HW134970   4.302   1.121   6.630 -1.0920 -0.6013 -2.0302
 7779SOL    HW234971   4.155   1.118   6.639 -0.2681  0.0355 -0.4548
 7780SOL     OW34972   0.691   1.093   3.162  0.7446  0.1132 -0.0091
 7780SOL    HW134973   0.672   1.000   3.147 -0.5351  0.6394 -1.7428
 7780SOL    HW234974   0.704   1.096   3.257  0.0941  2.4291 -0.0021
 7781SOL     OW34975   3.001   0.979   2.433 -0.7484 -0.1402  0.3169
 7781SOL    HW134976   2.935   1.031   2.479  1.8059  0.7885  2.9399
 7781SOL    HW234977   2.956   0.915   2.379  0.5937 -1.5902  0.9039
 7782SOL     OW34978   4.520   3.404   4.869  0.4064  0.0048 -0.2461
 7782SOL    HW134979   4.506   3.329   4.926 -2.0162  0.6063 -0.0702
 7782SOL    HW234980   4.610   3.429   4.891  0.8901 -1.7473 -0.1914
 7783SOL     OW34981   1.802   1.792   5.035 -0.0876  0.1115 -0.1238
 7783SOL    HW134982   1.785   1.724   5.101 -0.4557  0.5399  0.2245
 7783SOL    HW234983   1.720   1.840   5.044 -0.1460 -0.3499  2.0125
 7784SOL     OW34984   1.164   3.662  13.952 -0.6217 -0.4178  0.5190
 7784SOL    HW134985   1.167   3.579  13.999  0.6562 -0.1290  0.9590
 7784SOL    HW234986   1.197   3.642  13.864  2.2789  0.7478  1.3547
 7785SOL     OW34987   3.660   4.009   8.711  0.5499 -0.2156 -0.5680
 7785SOL    HW134988   3.628   4.095   8.740 -0.6148 -1.3723  1.5326
 7785SOL    HW234989   3.593   3.983   8.648  0.7062  0.3313 -0.9677
 7786SOL     OW34990   2.606   2.196   3.610  0.6676 -0.0218  0.5324
 7786SOL    HW134991   2.656   2.208   3.529 -1.0525 -0.8662 -0.6412
 7786SOL    HW234992   2.561   2.279   3.624  1.2721  0.4250 -0.1359
 7787SOL     OW34993   3.473   4.261  11.456 -0.7362 -0.0974 -0.4742
 7787SOL    HW134994   3.545   4.320  11.436  0.0201 -0.0124  2.5807
 7787SOL    HW234995   3.459   4.283  11.548  0.0191 -1.3061 -0.0653
 7788SOL     OW34996   1.690   1.497   0.480 -0.3030 -0.4042  0.0483
 7788SOL    HW134997   1.699   1.427   0.545 -1.2525 -1.5795 -1.0780
 7788SOL    HW234998   1.600   1.473   0.459  0.0028 -1.2234 -0.3223
 7789SOL     OW34999   3.695   3.285   3.030  0.4416  0.4313  0.0697
 7789SOL    HW135000   3.630   3.331   3.082  1.7477 -0.4698  2.4822
 7789SOL    HW235001   3.638   3.221   2.988  0.0763  1.3828 -0.8824
 7790SOL     OW35002   3.576   1.036   3.056  0.8885 -0.5700 -0.0063
 7790SOL    HW135003   3.529   0.953   3.068 -0.1426  0.2182  1.4905
 7790SOL    HW235004   3.503   1.098   3.050  2.7112  1.3781 -2.0998
 7791SOL     OW35005   0.959   4.437   4.004 -0.8540  1.1458 -0.4924
 7791SOL    HW135006   1.000   4.405   4.084 -1.5355  2.1440  0.2598
 7791SOL    HW235007   0.982   4.372   3.938  2.1944  3.2040 -1.4888
 7792SOL     OW35008   2.449   1.095   8.948  0.4772  0.0779 -0.4124
 7792SOL    HW135009   2.369   1.052   8.980  2.1365 -1.3491  1.8765
 7792SOL    HW235010   2.524   1.036   8.947 -0.1392 -0.7185 -0.3681
 7793SOL     OW35011   1.026   1.395   8.260 -0.3362 -0.1044 -0.1488
 7793SOL    HW135012   0.952   1.406   8.319  0.8577 -3.6020  1.9433
 7793SOL    HW235013   1.089   1.457   8.298 -1.2955  0.8303 -0.0905
 7794SOL     OW35014   4.699   3.338  13.071 -0.9563 -0.0632  0.9576
 7794SOL    HW135015   4.686   3.345  13.166  0.4682 -2.2797  1.3113
 7794SOL    HW235016   4.638   3.408  13.048 -0.4641  0.3219  0.8329
 7795SOL     OW35017   1.285   0.934  13.675 -0.6970 -0.0825 -0.2520
 7795SOL    HW135018   1.286   0.877  13.752  0.1495 -1.0721 -0.9899
 7795SOL    HW235019   1.252   0.868  13.613  1.3978 -0.1555 -1.2769
 7796SOL     OW35020   0.130   4.389   6.788 -0.0142 -0.6512  0.0398
 7796SOL    HW135021   0.218   4.391   6.824  0.6259  1.4701 -1.6808
 7796SOL    HW235022   0.087   4.390   6.874 -0.2287  0.1662 -0.0762
 7797SOL     OW35023   0.868   1.574   6.248 -0.6728  0.1971  0.3001
 7797SOL    HW135024   0.929   1.645   6.266  0.5011 -1.0107  1.1617
 7797SOL    HW235025   0.917   1.498   6.282  0.0717  0.4937 -0.1028
 7798SOL     OW35026   1.578   4.494   1.326  0.4957  0.3403 -0.5501
 7798SOL    HW135027   1.646   4.444   1.281 -1.2019 -0.6625 -1.9832
 7798SOL    HW235028   1.550   4.551   1.254  0.5457  0.8903 -0.1319
 7799SOL     OW35029   1.181   4.542   6.793 -0.0953 -0.4036  0.4271
 7799SOL    HW135030   1.266   4.520   6.754  0.6308 -0.1349  1.8361
 7799SOL    HW235031   1.124   4.507   6.725 -1.3972  0.4957  1.0533
 7800SOL     OW35032   0.526   3.424   0.662  0.5665  0.5429  0.2501
 7800SOL    HW135033   0.569   3.509   0.673  0.1428  0.7897  0.0028
 7800SOL    HW235034   0.530   3.393   0.753  0.3102 -0.8957 -0.2333
 7801SOL     OW35035   2.323   0.102   6.858  0.0634 -0.0202  0.5788
 7801SOL    HW135036   2.385   0.165   6.895 -0.8898  1.7317 -0.7715
 7801SOL    HW235037   2.251   0.162   6.836  1.2042  0.1668 -2.6462
 7802SOL     OW35038   2.024   2.404   8.078 -0.9648  0.4562 -0.3059
 7802SOL    HW135039   1.965   2.332   8.100 -1.1131  0.8645  0.6288
 7802SOL    HW235040   1.965   2.451   8.019  1.0387  0.3135 -2.4238
 7803SOL     OW35041   2.135   1.558  15.960  0.5124 -0.3946  0.5441
 7803SOL    HW135042   2.045   1.528  15.968  1.2703 -2.9594 -0.5584
 7803SOL    HW235043   2.190   1.507  16.020  0.2885  1.6812  2.4988
 7804SOL     OW35044   2.195   0.602   8.126 -0.4548 -0.0563  0.3603
 7804SOL    HW135045   2.136   0.536   8.090 -0.1794 -0.7469  1.1979
 7804SOL    HW235046   2.248   0.555   8.189  1.6666  1.2516 -0.4471
 7805SOL     OW35047   0.635   3.942   6.243 -0.0073  0.2871  0.4786
 7805SOL    HW135048   0.589   3.956   6.326  0.7987 -0.9134  1.1196
 7805SOL    HW235049   0.573   3.991   6.188 -0.8733 -0.5320  0.7264
 7806SOL     OW35050   2.004   2.331   3.468 -0.2212  0.1517 -0.3449
 7806SOL    HW135051   2.016   2.333   3.563 -0.5057 -1.0548 -0.2904
 7806SOL    HW235052   1.912   2.307   3.473 -0.3707  0.6871 -0.4780
 7807SOL     OW35053   3.813   2.523   7.313 -0.3916 -0.2016  0.1054
 7807SOL    HW135054   3.892   2.500   7.265 -0.5532 -0.5477  0.0108
 7807SOL    HW235055   3.760   2.524   7.234 -0.4375 -1.8258  0.1121
 7808SOL     OW35056   1.445   1.355   8.880  0.7606  0.1791 -0.3508
 7808SOL    HW135057   1.540   1.350   8.874  0.5719 -1.3413 -1.9659
 7808SOL    HW235058   1.451   1.435   8.933 -0.0242 -0.1271  0.2001
 7809SOL     OW35059   3.329   2.167   4.797  0.4484 -0.0594  0.0411
 7809SOL    HW135060   3.262   2.101   4.817  1.5530 -1.2587 -0.2204
 7809SOL    HW235061   3.415   2.125   4.804  0.8572  0.3992 -2.3030
 7810SOL     OW35062   0.812   1.315   4.047  0.1237  0.2605 -0.1627
 7810SOL    HW135063   0.760   1.395   4.052 -0.5525 -0.2340  0.8473
 7810SOL    HW235064   0.739   1.258   4.072 -0.5442  1.7613  1.3418
 7811SOL     OW35065   1.590   0.402   1.301  0.1106  0.2920  0.3152
 7811SOL    HW135066   1.679   0.386   1.272  0.4029  1.5572  0.4987
 7811SOL    HW235067   1.595   0.367   1.390 -0.6305 -1.9676 -0.5449
 7812SOL     OW35068   2.994   2.915   6.354 -0.0424 -0.5600 -0.5133
 7812SOL    HW135069   3.086   2.925   6.331 -0.0738  0.2104 -0.3056
 7812SOL    HW235070   3.009   2.852   6.425 -1.2157  2.5013  2.4277
 7813SOL     OW35071   4.678   4.687  11.733  0.1235 -0.2533 -0.1162
 7813SOL    HW135072   4.630   0.035  11.735 -0.0510 -0.3460 -0.6649
 7813SOL    HW235073   4.616   4.629  11.689  2.2512 -1.1207 -2.0034
 7814SOL     OW35074   2.181   2.307   9.178 -0.2398 -0.0270 -0.2050
 7814SOL    HW135075   2.128   2.284   9.102 -1.1931 -0.8393  0.7003
 7814SOL    HW235076   2.187   2.401   9.163  0.3057  0.1991  1.4421
 7815SOL     OW35077   2.169   4.371   1.898  0.1189  0.0773 -0.0905
 7815SOL    HW135078   2.186   4.303   1.963  0.0046 -0.9734 -1.1430
 7815SOL    HW235079   2.221   4.447   1.923 -0.0684  0.5996 -1.2749
 7816SOL     OW35080   0.929   2.677  14.770 -0.2678  0.2420 -0.1578
 7816SOL    HW135081   0.865   2.678  14.699 -0.7059 -0.4354  0.2181
 7816SOL    HW235082   0.901   2.594  14.809 -1.9500  0.1632 -1.5400
 7817SOL     OW35083   3.706   0.131   8.364 -0.7840 -0.2736  0.1846
 7817SOL    HW135084   3.629   0.160   8.414 -1.5663  1.6274 -2.0801
 7817SOL    HW235085   3.730   0.208   8.313 -0.6550  0.8944  2.0063
 7818SOL     OW35086   0.132   4.281   2.624  0.4099  1.2530 -0.3339
 7818SOL    HW135087   0.069   4.234   2.569  0.5206  2.0393 -1.1204
 7818SOL    HW235088   0.208   4.300   2.570  1.3567  0.0006  0.5559
 7819SOL     OW35089   0.234   3.142   8.306  0.0699  0.0430  0.5267
 7819SOL    HW135090   0.245   3.203   8.233  0.6194 -0.9842 -0.2447
 7819SOL    HW235091   0.265   3.063   8.261 -1.2114 -0.9439  1.3522
 7820SOL     OW35092   0.987   0.893   5.363  0.2849 -0.4902 -0.2338
 7820SOL    HW135093   0.921   0.850   5.417 -0.2327  2.0195  1.0939
 7820SOL    HW235094   1.071   0.853   5.388 -0.7750  1.0688  5.6617
 7821SOL     OW35095   2.938   2.150   8.738 -0.0080 -0.2112 -0.1572
 7821SOL    HW135096   3.034   2.148   8.737 -0.0384 -1.6448 -0.1455
 7821SOL    HW235097   2.916   2.064   8.702 -1.6756 -0.6074  1.8340
 7822SOL     OW35098   0.798   4.162  10.926  0.6042  0.1125  0.1414
 7822SOL    HW135099   0.804   4.254  10.898 -2.3682  0.1830 -0.2353
 7822SOL    HW235100   0.713   4.165  10.969  1.3434 -0.7921  1.6696
 7823SOL     OW35101   2.623   0.681  12.594  0.2887  0.0970  0.3903
 7823SOL    HW135102   2.528   0.673  12.607  0.3477  1.0624  1.3633
 7823SOL    HW235103   2.642   0.774  12.590  2.2008 -0.1946  2.3787
 7824SOL     OW35104   2.445   1.830   4.297  0.2771 -0.4902 -0.3220
 7824SOL    HW135105   2.452   1.861   4.207  1.3164  1.8201  0.5428
 7824SOL    HW235106   2.350   1.822   4.304  0.2339  0.7074  0.6392
 7825SOL     OW35107   1.409   2.745   1.758 -0.4486  0.1962 -0.3991
 7825SOL    HW135108   1.453   2.789   1.831 -1.5079 -0.3993  0.6032
 7825SOL    HW235109   1.449   2.658   1.757  2.8084  1.7198 -0.7582
 7826SOL     OW35110   2.997   0.960  11.077 -0.0872  0.3190  0.6462
 7826SOL    HW135111   3.088   0.932  11.078 -0.1421  0.2044  2.4236
 7826SOL    HW235112   2.973   0.895  11.142 -1.3781  0.4392  0.3130
 7827SOL     OW35113   1.010   4.383   8.451 -0.2133 -0.3029 -0.5032
 7827SOL    HW135114   0.959   4.361   8.373 -2.3533  0.9318  0.5505
 7827SOL    HW235115   1.031   4.295   8.484 -0.5624 -0.2909 -0.2445
 7828SOL     OW35116   2.779   2.408  12.897 -0.2166  0.4215  0.1308
 7828SOL    HW135117   2.753   2.322  12.930 -0.9002 -0.4134 -2.5359
 7828SOL    HW235118   2.823   2.366  12.822  0.9161  1.0930  0.4271
 7829SOL     OW35119   3.904   3.708   7.601  0.6653 -0.1061  0.0326
 7829SOL    HW135120   3.833   3.674   7.654 -0.6748 -2.5290 -3.3118
 7829SOL    HW235121   3.954   3.756   7.667  2.7865 -2.1660 -0.0456
 7830SOL     OW35122   0.021   2.879   7.652  0.0737 -0.2961 -0.1309
 7830SOL    HW135123   0.023   2.793   7.692 -0.2729 -1.2609 -2.1961
 7830SOL    HW235124   0.094   2.878   7.589  0.1619 -2.2820  0.0240
 7831SOL     OW35125   0.048   1.741   2.284  0.2924  0.0185 -0.0116
 7831SOL    HW135126   4.726   1.818   2.293 -2.3489 -2.1167  2.0012
 7831SOL    HW235127   0.022   1.709   2.198 -2.6259 -0.4878  1.0465
 7832SOL     OW35128   1.587   3.320   5.976 -0.3453 -0.4020 -0.2183
 7832SOL    HW135129   1.637   3.390   5.934  1.0167 -0.5153  1.1925
 7832SOL    HW235130   1.651   3.280   6.036  2.2263  1.0187 -2.0182
 7833SOL     OW35131   2.942   1.120   2.050 -0.0717  0.2700 -0.0494
 7833SOL    HW135132   2.892   1.039   2.047 -0.4979  0.5119  0.5448
 7833SOL    HW235133   2.876   1.185   2.027  0.3617  0.5854 -0.4139
 7834SOL     OW35134   1.978   1.954   2.983  0.0176  0.3444  0.3135
 7834SOL    HW135135   2.060   1.996   2.957  0.4182 -0.6035  0.0511
 7834SOL    HW235136   2.012   1.909   3.060  1.5078  1.0516  0.0813
 7835SOL     OW35137   2.034   3.567  16.297 -0.2134  0.1347 -0.2294
 7835SOL    HW135138   1.999   3.654  16.277 -1.4468 -0.4176 -0.4604
 7835SOL    HW235139   2.129   3.579  16.293 -0.5546  2.1671 -2.0873
 7836SOL     OW35140   2.521   2.265   1.416  0.0255  0.7690 -0.5672
 7836SOL    HW135141   2.437   2.221   1.408  0.9450 -1.4507  1.9186
 7836SOL    HW235142   2.571   2.210   1.355 -1.9510 -1.0910 -0.4879
 7837SOL     OW35143   3.280   2.404   3.874  0.1165  0.0307  0.3503
 7837SOL    HW135144   3.325   2.322   3.852 -0.6466 -0.8443  2.0550
 7837SOL    HW235145   3.340   2.469   3.837  0.4435 -1.7364 -2.2876
 7838SOL     OW35146   0.337   1.910   4.464  0.4270 -0.0514 -0.0813
 7838SOL    HW135147   0.333   1.911   4.559 -1.1390 -0.6878 -0.1463
 7838SOL    HW235148   0.375   1.996   4.447 -1.3533  1.3004  2.8262
 7839SOL     OW35149   2.287   1.946   1.585  0.3332  0.1984 -0.7698
 7839SOL    HW135150   2.212   1.887   1.576  1.0783 -0.6871 -1.1930
 7839SOL    HW235151   2.262   2.014   1.523  0.6734  1.2551  0.2625
 7840SOL     OW35152   2.710   3.127   4.282  0.2180 -0.0607 -0.2766
 7840SOL    HW135153   2.728   3.035   4.303  0.0450 -0.2268 -0.8453
 7840SOL    HW235154   2.770   3.147   4.210  1.6522 -0.0164  0.9440
 7841SOL     OW35155   2.389   0.131   2.615 -0.2404  0.1027  0.1531
 7841SOL    HW135156   2.444   0.108   2.690  1.2066 -1.2542 -1.3017
 7841SOL    HW235157   2.315   0.175   2.656  0.5389  0.9255  0.6660
 7842SOL     OW35158   3.135   0.355   6.582  0.1787  0.1749  0.1761
 7842SOL    HW135159   3.156   0.310   6.500  1.7055  0.9507  0.1367
 7842SOL    HW235160   3.187   0.435   6.574  1.6997 -0.8068  0.2359
 7843SOL     OW35161   1.995   4.367   4.227 -0.4601 -0.4235 -0.1489
 7843SOL    HW135162   1.915   4.348   4.179 -1.1416  2.0927  0.0103
 7843SOL    HW235163   1.962   4.405   4.308 -3.6159 -0.2924 -1.5039
 7844SOL     OW35164   0.329   0.071   7.992  0.3727 -0.4554 -0.1494
 7844SOL    HW135165   0.289   0.059   7.906 -0.5618  0.6322  0.1365
 7844SOL    HW235166   0.387   0.147   7.989 -0.5487  0.2246 -0.7859
 7845SOL     OW35167   1.111   3.461   5.662  0.3888 -0.5819 -0.3530
 7845SOL    HW135168   1.123   3.417   5.746  1.5716  1.5499  0.5899
 7845SOL    HW235169   1.110   3.549   5.700 -1.5557 -0.1953 -1.2760
 7846SOL     OW35170   1.660   2.740   3.218  0.2781  0.1698  0.3835
 7846SOL    HW135171   1.639   2.786   3.299 -1.4235  1.3188 -0.7254
 7846SOL    HW235172   1.622   2.810   3.164  2.3519 -0.3304 -1.7234
 7847SOL     OW35173   0.808   4.355   9.222 -0.6122  0.4410 -0.1627
 7847SOL    HW135174   0.899   4.382   9.234 -0.7114  0.2267  0.9933
 7847SOL    HW235175   0.796   4.279   9.279  1.1081  0.1230 -0.2230
 7848SOL     OW35176   1.121   3.877  15.630  0.4446 -0.2886  0.2265
 7848SOL    HW135177   1.215   3.893  15.626  0.1325  1.4818 -0.2875
 7848SOL    HW235178   1.090   3.965  15.655  0.6164 -0.1850  0.0719
 7849SOL     OW35179   2.898   3.917  15.677 -0.2863  0.0729 -0.4080
 7849SOL    HW135180   2.858   3.925  15.763  1.4445  1.4462  0.2791
 7849SOL    HW235181   2.831   3.951  15.618  0.2695  1.8200 -0.0364
 7850SOL     OW35182   4.207   2.355   8.653 -0.2178 -0.3301  0.2032
 7850SOL    HW135183   4.295   2.380   8.680 -0.5958  0.1962  0.9364
 7850SOL    HW235184   4.210   2.394   8.565  2.2551  0.2971  0.5676
 7851SOL     OW35185   3.538   3.356  10.161 -0.2630  0.1887  1.1208
 7851SOL    HW135186   3.495   3.275  10.190  1.3585 -0.7846  0.8237
 7851SOL    HW235187   3.614   3.358  10.220  1.1746 -2.9826 -0.5745
 7852SOL     OW35188   0.364   2.820  12.912  0.0969 -0.2850 -0.1184
 7852SOL    HW135189   0.334   2.870  12.836 -3.3827 -2.0838  0.0508
 7852SOL    HW235190   0.351   2.729  12.885 -0.4322 -0.2892  0.1479
 7853SOL     OW35191   2.330   2.977   2.582  0.4503  0.1540  0.3483
 7853SOL    HW135192   2.270   3.050   2.598  0.3774 -0.0187  0.8932
 7853SOL    HW235193   2.294   2.923   2.653  1.2338 -3.2381 -1.8576
 7854SOL     OW35194   0.269   2.685  15.021 -0.5098  0.1533 -0.2862
 7854SOL    HW135195   0.300   2.773  15.003 -1.9792  0.2845 -2.1952
 7854SOL    HW235196   0.333   2.626  14.982 -1.3604 -0.4726 -0.7411
 7855SOL     OW35197   4.165   3.364   2.380  0.1822 -0.1430  0.0438
 7855SOL    HW135198   4.145   3.381   2.472 -0.0763  0.4620 -0.1267
 7855SOL    HW235199   4.079   3.400   2.356 -1.0379 -1.8739  1.7457
 7856SOL     OW35200   3.798   0.839   3.221  0.2500  0.3173 -0.2309
 7856SOL    HW135201   3.883   0.795   3.214  0.3004  0.2845  0.5263
 7856SOL    HW235202   3.741   0.763   3.228  0.3988  0.3132  0.8913
 7857SOL     OW35203   0.853   4.000   5.506 -0.2822 -0.3604  0.0265
 7857SOL    HW135204   0.894   3.925   5.462  1.8828  2.4060 -2.6773
 7857SOL    HW235205   0.809   3.951   5.576  0.0223 -2.0087 -0.9295
 7858SOL     OW35206   2.504   3.585  11.081  0.0074 -0.3473 -0.1142
 7858SOL    HW135207   2.532   3.525  11.012  4.5808  2.2830 -0.5714
 7858SOL    HW235208   2.557   3.664  11.067  0.1595 -0.6157 -1.0151
 7859SOL     OW35209   2.240   1.817   4.689  0.1057 -0.1326  0.0505
 7859SOL    HW135210   2.199   1.865   4.761  3.8355  1.8776  0.8386
 7859SOL    HW235211   2.159   1.782   4.650  0.6435 -1.1992 -0.1025
 7860SOL     OW35212   4.689   2.397   9.839 -0.2519 -0.1222  0.0682
 7860SOL    HW135213   0.019   2.388   9.909 -1.7116 -2.8772  1.0843
 7860SOL    HW235214   4.612   2.437   9.881 -2.3079 -3.1274 -0.8725
 7861SOL     OW35215   2.898   2.557   9.251 -0.6669 -0.4976  0.1368
 7861SOL    HW135216   2.918   2.552   9.344  3.6850  0.7253 -0.7251
 7861SOL    HW235217   2.821   2.501   9.246 -1.9782  1.2195  0.9033
 7862SOL     OW35218   2.270   1.097   2.827 -0.6151  0.3160 -0.4282
 7862SOL    HW135219   2.234   1.026   2.774  3.9279 -0.8792 -1.9184
 7862SOL    HW235220   2.302   1.053   2.905  0.4105  2.0859  0.1443
 7863SOL     OW35221   2.371   2.230   4.872  0.7753 -0.4225  0.3370
 7863SOL    HW135222   2.391   2.136   4.869  0.6626 -0.4535  0.5219
 7863SOL    HW235223   2.331   2.238   4.785 -1.2097 -1.4976  1.1537
 7864SOL     OW35224   0.143   4.387   7.297 -0.4056 -0.1851 -0.0477
 7864SOL    HW135225   0.084   4.454   7.331  0.5330  1.0048 -0.7941
 7864SOL    HW235226   0.134   4.319   7.365 -0.4579 -2.2650 -2.1239
 7865SOL     OW35227   0.239   0.420  14.645 -0.1241 -0.1623  0.2288
 7865SOL    HW135228   0.220   0.378  14.561  1.6440  1.3290 -0.9180
 7865SOL    HW235229   0.184   0.371  14.706 -0.5115  0.5299  0.4412
 7866SOL     OW35230   3.219   4.525  11.647 -0.8036 -0.6612 -0.4185
 7866SOL    HW135231   3.305   4.515  11.607 -0.1763 -1.3272  1.0854
 7866SOL    HW235232   3.166   4.459  11.603 -1.3968 -0.2205 -0.3685
 7867SOL     OW35233   0.439   2.103   8.575  0.4384  0.0513  0.6138
 7867SOL    HW135234   0.453   2.024   8.627  0.9766 -0.4270 -0.2783
 7867SOL    HW235235   0.454   2.174   8.639 -0.9200  1.5268 -0.6926
 7868SOL     OW35236   1.127   4.201  15.974 -0.1123 -0.1139  0.0088
 7868SOL    HW135237   1.089   4.135  16.031 -2.3955  1.2160  0.0065
 7868SOL    HW235238   1.188   4.145  15.925  0.6496 -1.3101  2.3268
 7869SOL     OW35239   3.470   3.234  10.805  0.6141 -0.9740  0.0502
 7869SOL    HW135240   3.395   3.288  10.828  1.7716  0.5360  0.3296
 7869SOL    HW235241   3.432   3.191  10.728 -0.5241 -0.3443  0.2733
 7870SOL     OW35242   2.098   0.636   6.604 -0.1171 -0.0688 -0.0665
 7870SOL    HW135243   2.183   0.607   6.571  0.1186  1.5838 -0.9359
 7870SOL    HW235244   2.042   0.574   6.558  1.4053 -1.2025 -0.3605
 7871SOL     OW35245   4.366   0.224   6.438  0.2722 -0.5503 -0.1427
 7871SOL    HW135246   4.395   0.315   6.436 -0.8961 -0.1261  2.0104
 7871SOL    HW235247   4.407   0.187   6.516  0.3249 -1.5416 -0.6483
 7872SOL     OW35248   4.732   0.899  12.259  0.1120  0.0915  0.3277
 7872SOL    HW135249   0.050   0.871  12.334 -1.8028  0.9288  1.9665
 7872SOL    HW235250   0.063   0.902  12.189  0.2757 -0.9810  0.4239
 7873SOL     OW35251   3.737   2.297   4.823  0.0374 -0.2398 -0.2091
 7873SOL    HW135252   3.649   2.333   4.816 -0.3734 -1.3584 -0.7443
 7873SOL    HW235253   3.728   2.222   4.882  0.1024 -3.3886 -4.2350
 7874SOL     OW35254   3.657   2.717   0.290 -0.4919 -0.3914  0.1573
 7874SOL    HW135255   3.724   2.706   0.223 -0.3730  2.2467 -0.1869
 7874SOL    HW235256   3.654   2.633   0.335  1.3922 -0.5101  0.0457
 7875SOL     OW35257   0.492   1.365   2.946 -0.0576 -0.2611  0.8564
 7875SOL    HW135258   0.491   1.320   3.031 -1.1074  0.2072  1.0874
 7875SOL    HW235259   0.400   1.366   2.920  0.7332 -2.4808 -2.0653
 7876SOL     OW35260   0.775   0.137  13.640  0.1540  0.5608 -0.1183
 7876SOL    HW135261   0.769   0.129  13.544  5.6948 -2.7495 -0.2022
 7876SOL    HW235262   0.707   0.075  13.665 -0.3207  1.4837  0.8627
 7877SOL     OW35263   3.663   3.126   6.808 -0.2113  0.4397 -0.1635
 7877SOL    HW135264   3.593   3.120   6.873  0.3905  0.5520  0.4900
 7877SOL    HW235265   3.621   3.184   6.744 -1.1644 -1.5734 -1.3932
 7878SOL     OW35266   3.315   2.252   9.531 -0.3880 -0.2985 -0.9302
 7878SOL    HW135267   3.330   2.197   9.454 -0.1019 -1.5891  0.0648
 7878SOL    HW235268   3.246   2.317   9.517  1.0660  1.2882 -0.7406
 7879SOL     OW35269   1.360   1.038   7.888 -0.4178 -0.1453  0.5450
 7879SOL    HW135270   1.439   1.085   7.862 -1.3429  0.2053 -1.6755
 7879SOL    HW235271   1.305   1.075   7.819  0.6508 -0.4740 -0.4756
 7880SOL     OW35272   0.808   2.294  15.847  0.0842  0.5841 -0.2568
 7880SOL    HW135273   0.816   2.218  15.790 -1.3231  0.7366 -0.6500
 7880SOL    HW235274   0.787   2.370  15.794  0.4663  2.1446  1.8068
 7881SOL     OW35275   4.012   2.051   9.818  0.5932 -0.3403  0.3619
 7881SOL    HW135276   4.093   2.102   9.824  2.2392 -2.9944  0.6516
 7881SOL    HW235277   3.950   2.111   9.860 -0.8207  0.1863 -2.4888
 7882SOL     OW35278   0.731   2.474   1.626 -0.2549 -0.0711 -0.1889
 7882SOL    HW135279   0.805   2.533   1.633  0.2305 -0.5184 -1.4412
 7882SOL    HW235280   0.737   2.439   1.537  0.9617  1.1981 -0.5971
 7883SOL     OW35281   2.920   3.379  10.683  0.0338  0.3627 -0.0994
 7883SOL    HW135282   2.848   3.415  10.630  3.9696  1.9372 -4.3754
 7883SOL    HW235283   2.902   3.407  10.773  1.9733  1.5106 -0.0620
 7884SOL     OW35284   0.552   3.963   3.568 -0.3239 -0.5246 -0.0596
 7884SOL    HW135285   0.582   4.046   3.607 -3.1500  0.0488  0.8868
 7884SOL    HW235286   0.634   3.913   3.567 -0.6257 -1.0553  1.7364
 7885SOL     OW35287   0.361   0.044  16.663 -0.0440  0.0734  0.1825
 7885SOL    HW135288   0.373   0.013  16.573  1.3263  2.7339 -0.5434
 7885SOL    HW235289   0.444   0.090  16.675  1.4342 -2.4127 -0.3839
 7886SOL     OW35290   4.711   0.890   2.539 -0.0896 -0.6327  1.0131
 7886SOL    HW135291   0.029   0.966   2.563  2.6525 -2.4144  0.5849
 7886SOL    HW235292   4.629   0.918   2.580  0.4856  0.7172  1.2498
 7887SOL     OW35293   2.771   3.982   2.911 -0.3017  0.2044 -0.3318
 7887SOL    HW135294   2.757   3.959   2.819  1.7258 -1.9484 -0.1098
 7887SOL    HW235295   2.787   3.892   2.939 -1.9229  0.0152  0.0328
 7888SOL     OW35296   2.913   2.566   9.973 -0.6281 -0.0904  0.0788
 7888SOL    HW135297   2.889   2.536  10.061 -3.7346 -0.4698 -0.8915
 7888SOL    HW235298   2.985   2.628   9.984 -0.5029 -0.5573  1.9062
 7889SOL     OW35299   4.278   2.387   3.147  1.4696  0.4754 -0.0008
 7889SOL    HW135300   4.330   2.311   3.124 -1.5534 -1.3054 -0.9348
 7889SOL    HW235301   4.334   2.439   3.205  1.1083  0.7461  0.1105
 7890SOL     OW35302   2.787   3.527  12.164  0.6026  0.3588 -0.5086
 7890SOL    HW135303   2.835   3.445  12.165 -0.3997 -0.2414 -0.9841
 7890SOL    HW235304   2.743   3.515  12.079 -0.0789  1.1493 -0.2609
 7891SOL     OW35305   0.747   0.817   0.239 -0.0030 -0.1112 -0.1350
 7891SOL    HW135306   0.785   0.905   0.248  0.5331 -0.2356 -1.2693
 7891SOL    HW235307   0.654   0.839   0.237  0.2946  1.3134  1.6675
 7892SOL     OW35308   0.416   2.196   4.392  0.2917 -0.1202 -0.2818
 7892SOL    HW135309   0.461   2.180   4.475 -1.1851  0.7907  0.6891
 7892SOL    HW235310   0.491   2.237   4.348 -2.1555  1.1271 -3.3008
 7893SOL     OW35311   3.925   2.999  13.420 -0.2354  0.4486  0.3929
 7893SOL    HW135312   3.925   3.035  13.331  1.5639  0.2395  0.3094
 7893SOL    HW235313   3.982   2.926  13.393  0.5847  1.7392 -1.3605
 7894SOL     OW35314   3.078   2.234   3.659  0.1237 -0.2646  0.0396
 7894SOL    HW135315   3.117   2.194   3.582 -1.1952 -2.0151  0.2952
 7894SOL    HW235316   3.025   2.302   3.618 -0.4260 -0.6896  0.0584
 7895SOL     OW35317   2.648   0.510   2.623  0.7428  0.0647 -0.4965
 7895SOL    HW135318   2.670   0.498   2.531 -0.7999  3.8620 -1.3817
 7895SOL    HW235319   2.664   0.425   2.663 -0.8710 -0.8465 -1.7850
 7896SOL     OW35320   3.358   4.022  15.162  0.5324  0.0342  0.0500
 7896SOL    HW135321   3.334   3.951  15.103 -0.9198  1.8214 -1.5117
 7896SOL    HW235322   3.306   4.098  15.135  0.6109 -0.0384 -0.3100
 7897SOL     OW35323   2.602   0.410   6.282  0.2556 -0.3274  0.0175
 7897SOL    HW135324   2.612   0.353   6.359  1.4381 -1.9382 -1.3250
 7897SOL    HW235325   2.547   0.481   6.316  0.4604 -0.7534  1.2539
 7898SOL     OW35326   0.020   3.218   7.150 -0.5237  0.3298 -0.6389
 7898SOL    HW135327   0.094   3.196   7.208 -0.0346 -0.7241 -1.6697
 7898SOL    HW235328   4.695   3.145   7.166  0.0182 -0.0093 -0.1812
 7899SOL     OW35329   2.828   2.757  17.093  0.2509 -0.4431 -0.1374
 7899SOL    HW135330   2.782   2.768  17.009 -0.7312 -1.3413  0.2878
 7899SOL    HW235331   2.753   2.756  17.152  0.5237  0.5196  0.2217
 7900SOL     OW35332   2.767   1.432   6.661 -0.3876  0.1059  0.1393
 7900SOL    HW135333   2.739   1.463   6.575 -1.7894 -1.0549  0.1779
 7900SOL    HW235334   2.747   1.508   6.716  1.3844  0.8369 -0.2273
 7901SOL     OW35335   3.050   2.408  10.731 -0.1938 -0.2008 -0.2525
 7901SOL    HW135336   2.972   2.386  10.783  0.6311  0.8763  1.4663
 7901SOL    HW235337   3.101   2.327  10.730  0.5238  0.2366  0.4666
 7902SOL     OW35338   0.910   0.533   2.706  0.4258  0.0191 -0.0134
 7902SOL    HW135339   0.953   0.589   2.641  1.0024  0.6736  0.9294
 7902SOL    HW235340   0.895   0.592   2.780  0.9554  0.3259 -0.1534
 7903SOL     OW35341   0.808   2.500   8.654 -1.1000 -0.2062  0.5570
 7903SOL    HW135342   0.785   2.409   8.636  0.8211 -0.7889  1.1181
 7903SOL    HW235343   0.765   2.555   8.589  0.9260  0.7653  0.0596
 7904SOL     OW35344   2.995   4.036   9.801 -0.1097 -0.2572 -0.2793
 7904SOL    HW135345   2.989   3.950   9.759 -1.5338 -0.3730  0.1872
 7904SOL    HW235346   2.908   4.044   9.840 -0.1334 -1.6337 -0.0389
 7905SOL     OW35347   2.166   3.522   7.700  0.3405  0.1308 -0.2244
 7905SOL    HW135348   2.105   3.527   7.774 -0.0115  2.1145 -0.6459
 7905SOL    HW235349   2.104   3.524   7.627  1.9697 -0.0311 -1.6251
 7906SOL     OW35350   2.575   4.523   9.193 -0.2090 -0.3725 -0.1912
 7906SOL    HW135351   2.532   4.575   9.261 -0.5202 -0.4469 -0.3311
 7906SOL    HW235352   2.532   4.438   9.182 -0.5396 -0.2880  0.4780
 7907SOL     OW35353   2.682   0.017  15.402  0.3165  0.3168  0.0263
 7907SOL    HW135354   2.669   0.038  15.495 -0.6829  1.2160 -0.3157
 7907SOL    HW235355   2.673   4.656  15.400 -1.3046  0.4851 -1.3294
 7908SOL     OW35356   4.634   3.143  10.347  0.4675 -0.0400  0.0333
 7908SOL    HW135357   4.578   3.080  10.303 -0.3568  0.8199 -0.1423
 7908SOL    HW235358   4.719   3.132  10.304  1.3823  0.8528  1.6173
 7909SOL     OW35359   0.351   3.590   3.386 -0.4103  0.0801  0.2988
 7909SOL    HW135360   0.319   3.623   3.471  1.6842  0.5520  0.9177
 7909SOL    HW235361   0.401   3.670   3.370 -0.8461  0.4410  0.7305
 7910SOL     OW35362   2.869   0.867  12.335 -0.1270  0.1506 -0.1628
 7910SOL    HW135363   2.775   0.884  12.339 -0.2536 -0.4077 -0.6733
 7910SOL    HW235364   2.872   0.788  12.281 -0.2426 -0.4290  0.6845
 7911SOL     OW35365   2.098   2.526  10.533 -0.0638 -0.0295  0.0598
 7911SOL    HW135366   2.042   2.601  10.513  0.9202  0.3528 -1.2552
 7911SOL    HW235367   2.051   2.478  10.601 -2.8335  2.3109 -0.2153
 7912SOL     OW35368   4.527   2.607  17.102  0.1732  0.2903  0.1778
 7912SOL    HW135369   4.550   2.568  17.186 -1.1767  1.7108  1.1921
 7912SOL    HW235370   4.504   2.696  17.129 -2.7572 -0.3571 -0.1810
 7913SOL     OW35371   2.437   0.557   4.503  0.3772  0.2433  0.0405
 7913SOL    HW135372   2.414   0.487   4.442  1.7061 -1.8844  1.9820
 7913SOL    HW235373   2.399   0.628   4.451 -1.3575 -0.6834  0.0544
 7914SOL     OW35374   4.246   4.544   7.512 -0.1874  0.3553 -0.1216
 7914SOL    HW135375   4.287   4.629   7.501  0.0575 -0.1034 -2.7445
 7914SOL    HW235376   4.216   4.543   7.603 -0.3208  1.3038 -0.1628
 7915SOL     OW35377   1.413   2.741   5.671 -0.2697  0.3539 -0.0540
 7915SOL    HW135378   1.475   2.807   5.641 -0.9916  0.1999 -1.8819
 7915SOL    HW235379   1.359   2.734   5.593 -0.5764 -0.1961  0.2049
 7916SOL     OW35380   4.428   1.539  15.557  0.7400  0.1001  0.7025
 7916SOL    HW135381   4.380   1.469  15.513 -1.6375  0.6958  2.3196
 7916SOL    HW235382   4.512   1.532  15.512  0.1741 -2.8038  0.1055
 7917SOL     OW35383   2.530   3.722   1.578  0.1179  0.1185 -0.1452
 7917SOL    HW135384   2.510   3.723   1.484 -1.1934 -0.5018  0.1260
 7917SOL    HW235385   2.607   3.779   1.579  0.5689 -0.4365 -1.8165
 7918SOL     OW35386   0.017   2.999   4.214 -0.4128 -0.5539  0.0071
 7918SOL    HW135387   0.084   2.962   4.272 -0.7078  0.1242  0.7770
 7918SOL    HW235388   4.720   2.922   4.167 -0.1983 -0.4898 -0.2410
 7919SOL     OW35389   4.302   1.810   2.767  0.3048  0.2112  0.1061
 7919SOL    HW135390   4.328   1.831   2.677 -0.4446 -1.0599 -0.4050
 7919SOL    HW235391   4.209   1.833   2.760  0.2265 -0.2497 -0.4052
 7920SOL     OW35392   1.303   0.433   2.690 -0.5060 -0.4582  0.0867
 7920SOL    HW135393   1.384   0.483   2.704  0.1322 -1.5630  0.3062
 7920SOL    HW235394   1.240   0.497   2.657  0.1278 -0.0269 -0.2683
 7921SOL     OW35395   3.688   1.721   8.469  0.0980 -0.3218  0.0526
 7921SOL    HW135396   3.606   1.747   8.428  0.8460  2.1276  0.1179
 7921SOL    HW235397   3.734   1.687   8.392  0.4541 -1.0691  0.5955
 7922SOL     OW35398   2.868   2.790   1.310  0.1338 -0.5829 -0.5070
 7922SOL    HW135399   2.792   2.847   1.316  1.8834  1.6447  0.4671
 7922SOL    HW235400   2.826   2.707   1.331  0.5729 -0.1811  1.9478
 7923SOL     OW35401   2.563   0.805   5.282  0.0387 -0.0781  0.1286
 7923SOL    HW135402   2.566   0.740   5.212 -0.1539  0.0102  0.0396
 7923SOL    HW235403   2.555   0.882   5.227  0.3991 -1.3726 -1.7298
 7924SOL     OW35404   2.298   4.051   3.375 -0.0092 -0.1696 -0.7203
 7924SOL    HW135405   2.214   4.019   3.407  0.2472  1.8586  2.0102
 7924SOL    HW235406   2.313   4.126   3.432 -0.2343 -0.0391 -0.8302
 7925SOL     OW35407   4.030   0.086   4.997 -0.2698  0.3569  0.3284
 7925SOL    HW135408   3.944   0.118   4.971 -0.4571 -0.7617 -0.4213
 7925SOL    HW235409   4.077   0.100   4.915 -2.5676  0.6295 -0.9219
 7926SOL     OW35410   3.206   1.502   8.261  0.0384 -0.2799 -0.4654
 7926SOL    HW135411   3.120   1.488   8.221 -0.8534  0.6365  1.1244
 7926SOL    HW235412   3.220   1.597   8.255  0.0147 -0.1910  1.0873
 7927SOL     OW35413   4.609   4.559   3.932 -0.0459  0.3447 -0.6608
 7927SOL    HW135414   4.652   4.475   3.915 -2.3782 -0.8680 -0.5913
 7927SOL    HW235415   4.524   4.547   3.890 -0.8854 -1.0921  1.4498
 7928SOL     OW35416   4.426   2.016   7.781  0.3112  0.5022 -0.5960
 7928SOL    HW135417   4.515   2.048   7.770  0.3188  0.3998 -0.8431
 7928SOL    HW235418   4.413   1.951   7.711 -0.4368 -0.4517  0.4290
 7929SOL     OW35419   1.032   3.574  13.551 -0.3020  0.1251  0.1777
 7929SOL    HW135420   1.102   3.538  13.605 -0.4868  0.0867  0.3862
 7929SOL    HW235421   0.992   3.495  13.516 -2.1634  0.7210  0.9994
 7930SOL     OW35422   4.327   0.136   8.251 -0.1980  0.3694 -0.1504
 7930SOL    HW135423   4.406   0.151   8.199  1.3464 -0.0277  2.0826
 7930SOL    HW235424   4.333   0.204   8.319 -1.5217 -1.7369  2.0652
 7931SOL     OW35425   2.544   2.616   6.323  0.1300  0.2596  0.1303
 7931SOL    HW135426   2.592   2.692   6.289 -2.4282  1.9758  0.3107
 7931SOL    HW235427   2.612   2.559   6.358 -1.8785 -1.6168  0.9602
 7932SOL     OW35428   0.715   0.416   8.624 -0.8248 -0.3806 -0.2269
 7932SOL    HW135429   0.705   0.498   8.673 -1.4564  0.9895 -2.6449
 7932SOL    HW235430   0.758   0.358   8.687  0.8205  1.9642  0.7886
 7933SOL     OW35431   0.116   1.350   3.198 -0.5356  0.1805  0.7734
 7933SOL    HW135432   0.206   1.379   3.178 -0.2585 -1.3293 -0.1762
 7933SOL    HW235433   0.136   1.259   3.220  2.0590  0.3364 -0.8425
 7934SOL     OW35434   2.585   2.225   5.551  0.2251  0.0848  0.2544
 7934SOL    HW135435   2.679   2.210   5.559  0.3523  0.7979  0.0703
 7934SOL    HW235436   2.587   2.266   5.465  0.5193 -2.1959 -0.8277
 7935SOL     OW35437   0.881   2.472   9.527 -0.0036  0.1476  0.5792
 7935SOL    HW135438   0.839   2.386   9.519 -0.8191  0.4450  1.6562
 7935SOL    HW235439   0.939   2.456   9.601  2.4503  0.2153 -1.3417
 7936SOL     OW35440   0.591   2.562   5.485 -1.1028 -0.3617  0.0211
 7936SOL    HW135441   0.547   2.646   5.471  3.4201  1.5307 -2.7476
 7936SOL    HW235442   0.633   2.552   5.399 -0.8378 -0.7195  0.1927
 7937SOL     OW35443   0.647   0.480  12.049 -0.3719  0.1683  0.2808
 7937SOL    HW135444   0.733   0.489  12.007 -0.7783  0.7189 -0.4423
 7937SOL    HW235445   0.595   0.445  11.976 -1.3188  0.7084  0.6961
 7938SOL     OW35446   3.860   2.738   8.902  0.1714  0.0633 -0.3023
 7938SOL    HW135447   3.928   2.758   8.967  1.0086  0.8246 -1.3938
 7938SOL    HW235448   3.879   2.811   8.842 -0.7764  1.4784  1.1298
 7939SOL     OW35449   1.833   2.046   6.973  0.3405  0.5225  0.3892
 7939SOL    HW135450   1.906   1.997   6.935 -0.2695  0.1662 -0.3355
 7939SOL    HW235451   1.820   1.988   7.048  1.8146 -0.1177  0.1567
 7940SOL     OW35452   1.464   3.705   4.489  0.4404  0.0277  0.5651
 7940SOL    HW135453   1.553   3.715   4.523  0.5315 -0.1555  0.3806
 7940SOL    HW235454   1.432   3.792   4.515  1.1524  0.7665 -0.9698
 7941SOL     OW35455   0.549   1.291   4.947  0.0347  0.2671  0.0845
 7941SOL    HW135456   0.529   1.217   4.889 -0.5376  1.5440 -1.3459
 7941SOL    HW235457   0.469   1.284   4.999 -1.0493  0.4790 -1.5668
 7942SOL     OW35458   2.002   4.719   2.073  0.1667 -0.1300 -0.5143
 7942SOL    HW135459   2.044   0.070   2.082  0.8163 -0.8021  2.6294
 7942SOL    HW235460   1.914   0.011   2.100  0.1034 -1.0608  0.2004
 7943SOL     OW35461   4.006   2.138   4.335 -0.1432  0.1137 -0.1657
 7943SOL    HW135462   4.031   2.226   4.366  0.2733 -0.3279  0.7611
 7943SOL    HW235463   3.971   2.103   4.417 -2.3151  0.0972 -1.1042
 7944SOL     OW35464   0.101   1.842   9.711  0.3593  0.0948  0.3177
 7944SOL    HW135465   0.166   1.843   9.782 -0.4287 -0.1447  1.0398
 7944SOL    HW235466   0.028   1.819   9.768 -0.5457 -0.2121 -0.9686
 7945SOL     OW35467   1.979   2.651  16.942  0.1594  0.6297  0.7053
 7945SOL    HW135468   1.998   2.593  17.016  1.2739 -0.2407 -0.2662
 7945SOL    HW235469   1.951   2.580  16.885 -0.9334  0.2565  1.7290
 7946SOL     OW35470   3.953   3.052   7.792 -0.2957 -0.3845 -1.0284
 7946SOL    HW135471   3.860   3.032   7.801 -0.4017  0.0522 -1.1611
 7946SOL    HW235472   3.935   3.133   7.840  1.4468 -0.9718  0.6150
 7947SOL     OW35473   4.659   4.171   2.514 -0.2719 -0.4668  0.6260
 7947SOL    HW135474   4.643   4.189   2.422  1.7589 -1.5017  0.0760
 7947SOL    HW235475   4.663   4.075   2.519 -1.0195 -0.5111  0.2519
 7948SOL     OW35476   1.934   3.421   2.088  0.1025 -0.8058 -0.2601
 7948SOL    HW135477   2.014   3.368   2.083  0.2752 -0.2007 -3.7245
 7948SOL    HW235478   1.868   3.369   2.043 -0.1375 -1.5572  0.9529
 7949SOL     OW35479   1.157   0.617  15.435  0.3763 -0.2724 -0.8442
 7949SOL    HW135480   1.063   0.615  15.450  1.0259 -0.9690  3.0283
 7949SOL    HW235481   1.196   0.651  15.515  0.9467  1.0964 -1.6982
 7950SOL     OW35482   4.707   4.721   4.463  0.0476  0.0049 -0.0705
 7950SOL    HW135483   0.005   0.037   4.389  0.5738  0.6613  0.6044
 7950SOL    HW235484   4.687   0.061   4.521  1.5233  0.1467  0.2791
 7951SOL     OW35485   1.790   3.443   9.276 -0.0793 -0.5202 -0.2998
 7951SOL    HW135486   1.825   3.480   9.357 -0.5208  2.4996 -1.4600
 7951SOL    HW235487   1.819   3.353   9.269 -1.7874 -1.1432  0.4916
 7952SOL     OW35488   1.756   0.284   6.041  0.2209  0.3750  0.8321
 7952SOL    HW135489   1.681   0.289   5.982  1.2296 -1.1687 -0.5672
 7952SOL    HW235490   1.753   0.368   6.087  1.5631  1.0804 -0.3675
 7953SOL     OW35491   0.219   2.430   6.836  0.4840 -0.1883  0.7099
 7953SOL    HW135492   0.150   2.371   6.867  0.5917 -0.9744 -0.5826
 7953SOL    HW235493   0.168   2.493   6.785  1.2923 -1.2354 -1.3899
 7954SOL     OW35494   0.341   0.820   8.183  0.4158 -0.3631 -0.4224
 7954SOL    HW135495   0.260   0.863   8.156  1.1688  1.0127 -0.4868
 7954SOL    HW235496   0.404   0.893   8.183  1.3114 -1.1380 -0.6464
 7955SOL     OW35497   1.622   3.088  14.099  0.1192  0.7590 -0.1085
 7955SOL    HW135498   1.597   3.023  14.034  2.5965 -0.6459  0.3290
 7955SOL    HW235499   1.715   3.068  14.099  0.4608  2.3068  1.6928
 7956SOL     OW35500   1.041   3.652   7.508 -0.5354  0.1001 -0.3156
 7956SOL    HW135501   1.045   3.642   7.603  3.2919  1.7012 -0.3146
 7956SOL    HW235502   1.073   3.566   7.482  0.7006  0.1666  1.0182
 7957SOL     OW35503   1.926   3.954  10.630 -0.1171 -0.2807  0.5773
 7957SOL    HW135504   1.855   4.012  10.603 -0.0766 -0.4025  0.2129
 7957SOL    HW235505   1.870   3.882  10.657 -0.3680 -0.9589 -1.7280
 7958SOL     OW35506   3.350   4.666  13.061  0.2327  0.2483  0.0539
 7958SOL    HW135507   3.259   4.694  13.074 -0.6871 -2.0937 -1.4098
 7958SOL    HW235508   3.336   4.574  13.083  2.8821  0.2659  1.8273
 7959SOL     OW35509   1.565   1.579   1.223  0.2429 -0.3486  0.4175
 7959SOL    HW135510   1.501   1.624   1.168  0.0435  0.6472  1.4767
 7959SOL    HW235511   1.504   1.525   1.273  0.3781 -1.3607 -0.5108
 7960SOL     OW35512   1.306   4.482   2.287  0.3368  1.1434  0.0160
 7960SOL    HW135513   1.382   4.477   2.229 -0.8632 -1.4810 -1.3284
 7960SOL    HW235514   1.336   4.436   2.366  2.2437  2.7662  0.2689
 7961SOL     OW35515   4.438   0.772  14.981 -0.1052  0.2542 -0.2156
 7961SOL    HW135516   4.491   0.778  15.061  0.4371 -0.9900 -0.4868
 7961SOL    HW235517   4.439   0.862  14.949 -0.6690  1.2228  2.5019
 7962SOL     OW35518   0.942   2.941   3.922  0.1354 -0.5381  0.6603
 7962SOL    HW135519   0.929   3.034   3.936  4.3997  0.2752 -0.5205
 7962SOL    HW235520   0.924   2.914   4.012 -2.0147 -1.2633 -0.0014
 7963SOL     OW35521   2.713   2.364   9.165  0.3635 -0.0520 -0.0351
 7963SOL    HW135522   2.617   2.364   9.173  0.2133  0.6974 -1.8966
 7963SOL    HW235523   2.725   2.439   9.107 -0.1456 -0.6057 -0.8483
 7964SOL     OW35524   0.768   1.718   3.879 -0.5903 -0.0418 -0.0718
 7964SOL    HW135525   0.793   1.802   3.917 -1.3619  0.0259  0.3027
 7964SOL    HW235526   0.752   1.743   3.788  0.0385  3.7845  0.9118
 7965SOL     OW35527   1.077   1.815   8.195 -0.1664 -0.0077  0.4662
 7965SOL    HW135528   1.151   1.873   8.214  0.1401 -0.3224  0.2464
 7965SOL    HW235529   1.077   1.824   8.100 -1.2499  1.9116  0.6592
 7966SOL     OW35530   2.330   0.213   4.770 -0.4162 -0.1026  0.1573
 7966SOL    HW135531   2.238   0.194   4.755 -0.2050 -1.3932  0.4690
 7966SOL    HW235532   2.367   0.181   4.688  0.3071 -0.1346  0.4980
 7967SOL     OW35533   0.022   2.389   4.011 -0.0933  0.3829  0.1632
 7967SOL    HW135534   4.682   2.380   3.952  0.7226 -2.5189 -0.4610
 7967SOL    HW235535   0.059   2.472   3.983 -2.7583  1.1336 -1.0873
 7968SOL     OW35536   4.185   3.298   3.417  0.8516 -0.2837 -0.0049
 7968SOL    HW135537   4.123   3.317   3.347  1.0144 -1.2753 -0.4165
 7968SOL    HW235538   4.196   3.205   3.395  0.8732 -1.1154  3.5475
 7969SOL     OW35539   0.209   2.553  12.807 -0.3108 -0.7935  0.0331
 7969SOL    HW135540   0.136   2.568  12.747  2.2198  0.2709 -2.7775
 7969SOL    HW235541   0.180   2.468  12.840  0.8648 -0.8239  0.9984
 7970SOL     OW35542   0.904   1.469   3.775  0.7535  0.5669  0.0308
 7970SOL    HW135543   0.921   1.492   3.683 -0.0521 -0.7338 -0.4445
 7970SOL    HW235544   0.833   1.529   3.799  1.1823  1.5775 -1.2280
 7971SOL     OW35545   3.425   3.126  10.203 -0.1200 -0.2108 -0.1971
 7971SOL    HW135546   3.361   3.141  10.273 -0.4810 -0.4471 -0.4797
 7971SOL    HW235547   3.464   3.047  10.242 -1.3093 -0.4610  0.5096
 7972SOL     OW35548   2.854   3.224   1.955 -0.3266  0.0101  0.2935
 7972SOL    HW135549   2.776   3.274   1.932  0.4320  1.1950  0.3107
 7972SOL    HW235550   2.821   3.136   1.936  1.1446 -1.0259  2.4838
 7973SOL     OW35551   4.226   4.701   2.516 -0.4693 -0.0964 -0.3776
 7973SOL    HW135552   4.232   0.062   2.513 -1.5565 -0.0800 -2.1876
 7973SOL    HW235553   4.172   4.687   2.594  0.7340  0.9749  0.6513
 7974SOL     OW35554   4.734   3.369  10.001  0.2611 -0.2092  0.0521
 7974SOL    HW135555   4.734   3.452   9.954  4.2698  0.4381  1.1866
 7974SOL    HW235556   4.733   3.406  10.089 -0.1568  2.1289 -0.9596
 7975SOL     OW35557   4.464   4.552   5.700 -0.5210 -0.0000 -0.0192
 7975SOL    HW135558   4.545   4.503   5.683 -1.3135 -0.6315 -1.9835
 7975SOL    HW235559   4.394   4.488   5.712 -1.0340  1.0406  2.3711
 7976SOL     OW35560   2.186   3.258   8.415  0.4030  0.4909 -0.5247
 7976SOL    HW135561   2.111   3.199   8.421  0.1947  0.8015 -0.0035
 7976SOL    HW235562   2.150   3.341   8.384  0.9117  1.8883  2.5863
 7977SOL     OW35563   2.534   4.410  14.698 -0.0909  0.2671 -0.7528
 7977SOL    HW135564   2.488   4.456  14.627  0.6242  1.0140 -0.7327
 7977SOL    HW235565   2.557   4.328  14.656 -0.3401  0.2316 -0.8198
 7978SOL     OW35566   2.478   4.163  15.396  0.4035  0.4471 -0.6141
 7978SOL    HW135567   2.458   4.069  15.396 -1.3014  0.8107 -0.0778
 7978SOL    HW235568   2.398   4.214  15.382  1.0722  2.3731  2.5735
 7979SOL     OW35569   2.203   4.180  14.154  0.1873 -0.2179 -0.1621
 7979SOL    HW135570   2.128   4.178  14.095  1.3001  2.2377 -1.6561
 7979SOL    HW235571   2.169   4.255  14.204  4.3372  1.7814 -0.3375
 7980SOL     OW35572   0.853   2.373   7.777 -0.3270 -0.7069 -0.4758
 7980SOL    HW135573   0.934   2.423   7.786 -0.8272  0.1605 -0.8108
 7980SOL    HW235574   0.840   2.339   7.865  0.6119 -1.2235 -0.5321
 7981SOL     OW35575   2.895   1.824   4.909  0.5090  0.1667 -0.5977
 7981SOL    HW135576   2.875   1.863   4.824 -2.5751  0.1467  0.0897
 7981SOL    HW235577   2.879   1.903   4.962  0.0890 -1.3129  1.5090
 7982SOL     OW35578   3.847   3.730   8.127  0.1106  0.2596  0.5693
 7982SOL    HW135579   3.807   3.817   8.124 -0.3573 -0.0115 -0.8517
 7982SOL    HW235580   3.823   3.701   8.215 -0.6344 -0.0105  0.2724
 7983SOL     OW35581   3.192   4.664   6.677 -0.4499 -0.3968 -0.2586
 7983SOL    HW135582   3.217   4.678   6.585  2.0370  0.9739  0.6237
 7983SOL    HW235583   3.251   4.726   6.721 -0.8788  0.0353 -0.2875
 7984SOL     OW35584   4.380   3.742  17.663 -0.4184  0.2081 -0.1686
 7984SOL    HW135585   4.434   3.675  17.705  1.4371 -0.7938 -4.1359
 7984SOL    HW235586   4.441   3.815  17.652  0.3740 -0.3711  0.3992
 7985SOL     OW35587   0.594   3.691   6.530 -0.3063  0.4027  0.0595
 7985SOL    HW135588   0.590   3.787   6.529 -0.6195  0.3815 -0.6979
 7985SOL    HW235589   0.569   3.668   6.620 -2.4645  0.7729 -0.4567
 7986SOL     OW35590   2.296   0.906   3.438  0.3777  0.1863  0.2611
 7986SOL    HW135591   2.361   0.842   3.410  0.0846 -0.5169  1.1861
 7986SOL    HW235592   2.347   0.987   3.428  0.0687  0.5907  2.1023
 7987SOL     OW35593   2.633   1.149  12.500  0.8032  0.3280 -0.1156
 7987SOL    HW135594   2.692   1.208  12.455  1.9554 -1.5287 -1.0342
 7987SOL    HW235595   2.597   1.216  12.558  1.5438  2.1749 -1.8065
 7988SOL     OW35596   4.696   1.991   4.375 -0.0983  0.1282  0.3799
 7988SOL    HW135597   0.039   2.019   4.325  1.3655 -0.6406  2.2139
 7988SOL    HW235598   4.633   2.008   4.305  1.0932 -1.5467 -1.1227
 7989SOL     OW35599   2.170   4.363  11.122  0.5310  0.0741 -0.5042
 7989SOL    HW135600   2.256   4.390  11.152  1.0997 -1.4130 -0.7891
 7989SOL    HW235601   2.187   4.269  11.114  2.0206  0.3300 -0.2330
 7990SOL     OW35602   4.108   3.949   1.795  0.4050  0.4449 -0.1899
 7990SOL    HW135603   4.026   3.981   1.832  1.7907 -0.1939  3.3769
 7990SOL    HW235604   4.167   3.943   1.870  2.2049 -0.3161 -1.6800
 7991SOL     OW35605   3.358   0.345  11.482 -0.2180  0.5393 -0.0246
 7991SOL    HW135606   3.308   0.295  11.418 -2.9354  0.5463  2.0953
 7991SOL    HW235607   3.421   0.278  11.506  1.1700  1.1642 -1.9209
 7992SOL     OW35608   4.371   4.249   9.195  0.2424 -0.0744  0.2056
 7992SOL    HW135609   4.406   4.213   9.276 -1.2695 -0.4712  0.6961
 7992SOL    HW235610   4.399   4.341   9.202 -0.0421 -0.1294  2.1130
 7993SOL     OW35611   3.971   3.421   5.620 -0.7390 -0.2228 -0.0324
 7993SOL    HW135612   3.947   3.512   5.641 -1.0461 -0.3447  0.1399
 7993SOL    HW235613   3.922   3.405   5.539  0.0206  0.6931 -0.6729
 7994SOL     OW35614   0.652   0.124   2.066 -0.3647  0.2484 -0.1175
 7994SOL    HW135615   0.666   0.218   2.053  1.9875 -0.0296  0.4495
 7994SOL    HW235616   0.558   0.113   2.049 -0.5643 -1.1952  1.9543
 7995SOL     OW35617   3.250   1.460   8.834  0.4715 -0.6171 -0.5913
 7995SOL    HW135618   3.233   1.543   8.878  0.2089 -2.0178  1.9476
 7995SOL    HW235619   3.343   1.440   8.833  0.6873  0.2330  1.5054
 7996SOL     OW35620   2.713   4.268  13.051  0.5837 -0.0647  0.4931
 7996SOL    HW135621   2.775   4.339  13.033  2.5273 -1.7575  0.5509
 7996SOL    HW235622   2.632   4.298  13.010  2.4811  0.0682 -3.1229
 7997SOL     OW35623   4.215   4.628   7.785 -0.2177 -0.1265 -0.4318
 7997SOL    HW135624   4.129   4.596   7.811 -0.4253  0.0876 -0.8601
 7997SOL    HW235625   4.200   4.721   7.802 -0.7640 -0.2241 -0.3993
 7998SOL     OW35626   2.868   4.012   7.678 -0.0950 -0.2153  0.2264
 7998SOL    HW135627   2.781   4.008   7.717  0.0668 -0.5817  0.5398
 7998SOL    HW235628   2.895   4.103   7.692 -0.8183  0.0725 -0.2055
 7999SOL     OW35629   2.676   1.347   3.660  0.2881  0.3852  0.4019
 7999SOL    HW135630   2.660   1.256   3.685 -0.0437  0.7971  1.6962
 7999SOL    HW235631   2.770   1.358   3.673  0.5467 -1.0262 -0.2985
 8000SOL     OW35632   1.893   2.057  13.011  0.2844 -0.8005 -0.2921
 8000SOL    HW135633   1.873   2.135  12.959 -0.5678 -0.9458 -0.1756
 8000SOL    HW235634   1.963   2.086  13.070 -1.7225  1.2386  1.0883
 8001SOL     OW35635   1.289   2.630   0.813 -0.0315  0.0464  0.1459
 8001SOL    HW135636   1.378   2.613   0.844 -0.2914 -1.2788  0.1423
 8001SOL    HW235637   1.262   2.543   0.783  1.3563 -0.5894  0.7606
 8002SOL     OW35638   0.432   1.430  12.264 -0.1187 -0.2176  0.0819
 8002SOL    HW135639   0.352   1.479  12.246 -0.4796 -0.9586 -0.3592
 8002SOL    HW235640   0.501   1.492  12.240 -0.8630  0.5414 -0.0975
 8003SOL     OW35641   1.440   3.307   6.199 -0.1255 -0.5582  0.0863
 8003SOL    HW135642   1.451   3.299   6.104 -3.3711  0.1057 -0.3523
 8003SOL    HW235643   1.345   3.297   6.197 -0.1337 -0.2504 -1.3848
 8004SOL     OW35644   2.627   3.106   3.437  0.0722  0.0772 -0.2319
 8004SOL    HW135645   2.665   3.088   3.523  2.4495 -2.1109 -1.7525
 8004SOL    HW235646   2.687   3.167   3.393  0.3356 -0.0026  0.0155
 8005SOL     OW35647   4.627   0.406  16.013  0.4703  0.1387 -0.0293
 8005SOL    HW135648   4.621   0.400  15.917 -1.2608 -0.0482  0.0986
 8005SOL    HW235649   4.535   0.419  16.036  0.3537 -1.1695  0.2340
 8006SOL     OW35650   0.553   0.451   4.327 -0.0299  0.4350 -0.0503
 8006SOL    HW135651   0.475   0.504   4.344  1.1407  1.1775  2.9993
 8006SOL    HW235652   0.511   0.367   4.307  0.5638  0.6277 -2.1703
 8007SOL     OW35653   4.235   2.126   9.987  0.1570 -0.5137 -0.0940
 8007SOL    HW135654   4.321   2.124  10.029  0.4758 -0.4601 -0.7477
 8007SOL    HW235655   4.246   2.196   9.923 -1.7271  2.8396  3.2093
 8008SOL     OW35656   0.846   1.435   1.016 -0.0057  0.2839  0.2543
 8008SOL    HW135657   0.811   1.359   1.062  0.3128 -1.5078 -2.4342
 8008SOL    HW235658   0.899   1.473   1.087 -0.0877 -0.8882  0.9415
 8009SOL     OW35659   3.712   3.295  16.527  0.4273  0.1080  1.2862
 8009SOL    HW135660   3.681   3.385  16.518 -1.7523 -0.8705 -0.9514
 8009SOL    HW235661   3.738   3.288  16.619  0.9910 -0.6378  1.0750
 8010SOL     OW35662   3.590   1.917   3.070  0.1304  0.3848 -0.0267
 8010SOL    HW135663   3.660   1.962   3.024  0.6995 -1.2453 -0.7781
 8010SOL    HW235664   3.578   1.839   3.016  0.7092 -1.1543  2.0547
 8011SOL     OW35665   1.446   2.169   3.836 -0.0809  0.1687 -0.2201
 8011SOL    HW135666   1.470   2.115   3.761  1.3855 -0.1242  0.4704
 8011SOL    HW235667   1.444   2.254   3.792  0.3387  0.4301  0.2670
 8012SOL     OW35668   2.805   4.587  14.641  0.2492 -0.4186 -0.4936
 8012SOL    HW135669   2.833   4.496  14.651  0.0355 -0.6603 -2.2070
 8012SOL    HW235670   2.773   4.582  14.551 -1.0841 -0.5304 -0.0102
 8013SOL     OW35671   3.644   3.263   5.292 -0.3944 -0.3355  0.0294
 8013SOL    HW135672   3.559   3.294   5.326 -1.1067 -1.5550 -0.6517
 8013SOL    HW235673   3.616   3.205   5.222  0.1572 -0.7521  0.1524
 8014SOL     OW35674   1.369   1.487   0.302 -0.9695  0.1202 -0.3864
 8014SOL    HW135675   1.395   1.469   0.393  1.3205  0.8137 -0.9115
 8014SOL    HW235676   1.427   1.434   0.248 -1.1367 -1.5100  1.0301
 8015SOL     OW35677   4.135   2.432   7.591  0.5026 -0.0751  0.2102
 8015SOL    HW135678   4.133   2.527   7.583 -0.6866 -0.1360 -0.2127
 8015SOL    HW235679   4.068   2.408   7.656  0.7758  0.8589  0.8277
 8016SOL     OW35680   0.470   4.240   5.191  0.1302 -0.6814 -0.3226
 8016SOL    HW135681   0.521   4.160   5.206 -0.9096 -1.8928 -3.1056
 8016SOL    HW235682   0.476   4.270   5.282 -1.5337 -0.5390 -0.2570
 8017SOL     OW35683   0.706   2.103   0.251 -0.7352 -0.1236  0.4805
 8017SOL    HW135684   0.693   2.115   0.345 -1.0844 -1.2844  0.5762
 8017SOL    HW235685   0.699   2.193   0.219  0.3372  0.6352  2.4107
 8018SOL     OW35686   4.465   3.317  15.930 -0.4762 -0.4812 -1.1417
 8018SOL    HW135687   4.397   3.280  15.986  0.9700 -1.0503  0.2585
 8018SOL    HW235688   4.498   3.234  15.895  1.0340 -0.5778  0.5223
 8019SOL     OW35689   0.138   0.417  16.162 -0.5144  0.0649 -0.4356
 8019SOL    HW135690   0.058   0.404  16.111 -0.2230 -2.3409 -0.2885
 8019SOL    HW235691   0.196   0.369  16.102  2.8523  0.9006  2.1508
 8020SOL     OW35692   1.734   2.177   4.240 -0.4971  0.0170  0.2966
 8020SOL    HW135693   1.661   2.137   4.286 -1.4408  1.5646  0.1602
 8020SOL    HW235694   1.809   2.147   4.291 -1.5212 -1.9802  0.5980
 8021SOL     OW35695   4.072   4.129   8.525 -0.0571 -0.1033 -0.2938
 8021SOL    HW135696   4.143   4.164   8.579  0.5902  0.1080 -1.2872
 8021SOL    HW235697   4.073   4.202   8.462 -0.9572  2.0379  2.1934
 8022SOL     OW35698   2.841   0.291   5.907  0.2690 -0.1470 -0.6069
 8022SOL    HW135699   2.835   0.270   6.000 -0.9731  0.5407 -0.5387
 8022SOL    HW235700   2.796   0.375   5.900 -0.5119 -0.4050  1.5188
 8023SOL     OW35701   4.477   0.875   5.087 -0.1220 -0.2911  0.2882
 8023SOL    HW135702   4.488   0.825   5.007 -0.0745  0.9009 -0.4520
 8023SOL    HW235703   4.415   0.823   5.138 -1.1359  2.6565  2.0747
 8024SOL     OW35704   1.562   3.652   9.619 -0.1408  0.4100 -0.1623
 8024SOL    HW135705   1.527   3.667   9.531 -0.7114  0.6416  0.1006
 8024SOL    HW235706   1.501   3.701   9.675 -0.2549  3.2557 -2.8312
 8025SOL     OW35707   1.695   2.639   6.977  0.3214 -0.0605  0.4814
 8025SOL    HW135708   1.671   2.599   7.060 -0.3292  2.9744  1.7326
 8025SOL    HW235709   1.680   2.569   6.913 -0.1318  0.5201 -0.0546
 8026SOL     OW35710   3.673   1.384   5.765  0.1817  0.2487  0.2285
 8026SOL    HW135711   3.591   1.351   5.801  0.9756 -0.2879  1.5336
 8026SOL    HW235712   3.677   1.474   5.799 -2.8360  1.1522 -1.8611
 8027SOL     OW35713   4.603   4.196  16.375  0.0275 -0.3011  0.0946
 8027SOL    HW135714   4.652   4.129  16.423 -1.5212 -1.5857 -0.1208
 8027SOL    HW235715   4.644   4.277  16.405  0.0798  0.0295 -0.8571
 8028SOL     OW35716   0.326   3.767   1.323  0.2034 -0.0961  0.7078
 8028SOL    HW135717   0.354   3.803   1.407 -0.6944  0.4981  0.7573
 8028SOL    HW235718   0.257   3.706   1.347 -3.5225  2.9772 -2.0214
 8029SOL     OW35719   0.547   3.321   9.102 -0.1820  0.6759  0.5828
 8029SOL    HW135720   0.636   3.353   9.117 -0.4034  1.0401  1.1291
 8029SOL    HW235721   0.500   3.374   9.166 -0.0397  0.6233  0.7314
 8030SOL     OW35722   3.210   2.468   5.152 -0.3075 -0.1009 -0.0420
 8030SOL    HW135723   3.118   2.446   5.169 -0.2252 -1.6462 -1.6287
 8030SOL    HW235724   3.250   2.426   5.228  1.3254 -0.2182 -0.9718
 8031SOL     OW35725   2.460   1.330   1.286 -0.4589  0.2010  0.2732
 8031SOL    HW135726   2.422   1.258   1.235 -1.9467  0.0670  1.5513
 8031SOL    HW235727   2.411   1.411   1.275  1.1652  1.3000  1.2671
 8032SOL     OW35728   0.856   0.515   7.793 -0.0396  0.3825 -0.4878
 8032SOL    HW135729   0.871   0.605   7.821  0.3629 -0.1131  0.8798
 8032SOL    HW235730   0.776   0.517   7.741 -1.1520 -0.7816  1.2026
 8033SOL     OW35731   4.499   4.655   7.820 -0.4809  0.2292 -0.3953
 8033SOL    HW135732   4.419   4.605   7.808 -0.7377  0.5381  0.0231
 8033SOL    HW235733   4.468   4.734   7.865 -0.1254  0.4939 -0.6106
 8034SOL     OW35734   0.885   1.737   5.950  0.0721  0.3909  0.3699
 8034SOL    HW135735   0.799   1.772   5.970  0.0739 -0.4445  1.8998
 8034SOL    HW235736   0.869   1.645   5.929  0.8815  0.0165  1.3491
 8035SOL     OW35737   0.315   3.179   5.356 -0.2926 -0.0239  0.7146
 8035SOL    HW135738   0.259   3.254   5.374 -0.8403  0.3202 -2.5370
 8035SOL    HW235739   0.256   3.105   5.343  0.5570 -0.4510 -0.7576
 8036SOL     OW35740   2.878   4.034  16.231 -0.0927  0.1805  0.1074
 8036SOL    HW135741   2.826   4.050  16.153 -1.6801 -1.4041  0.8304
 8036SOL    HW235742   2.837   3.957  16.271 -0.4571  0.1399 -0.3512
 8037SOL     OW35743   2.480   4.368   2.286 -0.0772  0.0048 -0.2532
 8037SOL    HW135744   2.403   4.352   2.231  1.1768 -0.8612 -1.7783
 8037SOL    HW235745   2.545   4.326   2.229  0.5536  0.0972  0.3993
 8038SOL     OW35746   4.633   1.402   9.152  0.3635 -0.3103  0.2993
 8038SOL    HW135747   4.546   1.423   9.118 -0.2980 -2.2607  0.8056
 8038SOL    HW235748   4.640   1.471   9.217 -0.7940  0.8535 -0.8289
 8039SOL     OW35749   0.791   1.040  11.065 -0.2046 -0.4117 -0.6253
 8039SOL    HW135750   0.715   1.097  11.077 -0.5788 -0.7254 -1.4699
 8039SOL    HW235751   0.754   0.959  11.029 -2.0589 -0.0486  0.4471
 8040SOL     OW35752   1.231   1.874   5.469 -0.3393 -0.3819 -0.0407
 8040SOL    HW135753   1.146   1.843   5.435  0.4663 -1.3582 -1.1565
 8040SOL    HW235754   1.235   1.962   5.431  4.0220 -0.0650  1.2134
 8041SOL     OW35755   3.534   3.097   4.662  0.0660  0.1443  0.2496
 8041SOL    HW135756   3.489   3.037   4.602 -0.7397 -0.9468  1.9419
 8041SOL    HW235757   3.461   3.144   4.704 -0.3901 -0.2000 -0.1500
 8042SOL     OW35758   2.223   3.432  17.446  0.2264  0.6270 -0.1208
 8042SOL    HW135759   2.168   3.376  17.502  0.9759 -1.6406 -1.6413
 8042SOL    HW235760   2.156   3.475  17.393 -1.3232 -0.6838  0.7274
 8043SOL     OW35761   3.579   2.227  11.756 -0.1823  0.6516 -0.2784
 8043SOL    HW135762   3.508   2.228  11.821 -0.5477  0.8190 -0.6801
 8043SOL    HW235763   3.609   2.137  11.751 -2.1039  0.0106 -0.3937
 8044SOL     OW35764   4.029   3.683   4.566 -0.2177  0.3438  0.6254
 8044SOL    HW135765   4.039   3.776   4.586  0.9182 -0.2253  2.6748
 8044SOL    HW235766   4.082   3.673   4.486  0.4322  0.4012  1.0447
 8045SOL     OW35767   2.640   4.457  17.139 -0.3624 -0.4247 -0.2101
 8045SOL    HW135768   2.687   4.447  17.057  0.1521 -2.5317  0.3284
 8045SOL    HW235769   2.553   4.421  17.122 -0.9399  1.5193 -1.3798
 8046SOL     OW35770   2.617   4.247   7.018 -0.3517  0.7675 -0.2592
 8046SOL    HW135771   2.652   4.295   7.094 -0.6016  2.1095 -0.9965
 8046SOL    HW235772   2.698   4.251   6.967 -0.6715 -2.9665 -1.0492
 8047SOL     OW35773   2.527   2.453   2.415 -0.0825 -0.2215 -0.5516
 8047SOL    HW135774   2.577   2.520   2.462 -3.0506  2.0433 -0.5918
 8047SOL    HW235775   2.480   2.494   2.342  3.0988 -0.0020 -2.4619
 8048SOL     OW35776   3.840   2.154  13.018 -0.3575  0.1984 -0.1572
 8048SOL    HW135777   3.895   2.087  13.060  0.2441  0.5585 -0.3751
 8048SOL    HW235778   3.828   2.121  12.929 -2.9386 -3.3070  1.4790
 8049SOL     OW35779   1.618   1.910  11.649  0.1657  0.4058 -0.2829
 8049SOL    HW135780   1.535   1.884  11.688  1.0670 -0.7311  0.8824
 8049SOL    HW235781   1.679   1.851  11.693  0.1166 -0.1517 -0.9523
 8050SOL     OW35782   2.282   4.314   4.453 -0.2669  0.4034 -0.1251
 8050SOL    HW135783   2.251   4.288   4.539 -1.2141 -0.2944 -0.6776
 8050SOL    HW235784   2.210   4.363   4.413  0.7831  1.0513 -1.2298
 8051SOL     OW35785   1.846   0.665   2.381  0.1602  0.3263  0.2647
 8051SOL    HW135786   1.866   0.684   2.472  0.7660  2.8681 -0.4084
 8051SOL    HW235787   1.855   0.570   2.373  0.3884  0.2994  0.8842
 8052SOL     OW35788   4.029   0.171   4.174  0.0466 -0.1735  0.1912
 8052SOL    HW135789   4.018   0.154   4.081  0.3154  0.0988  0.1076
 8052SOL    HW235790   4.117   0.135   4.186 -0.4799 -0.0659  4.3181
 8053SOL     OW35791   2.885   0.753  12.710  0.2163 -0.0815 -0.3850
 8053SOL    HW135792   2.812   0.802  12.673  1.6698  1.8210 -0.7547
 8053SOL    HW235793   2.953   0.783  12.650  0.0708 -1.5287 -1.2598
 8054SOL     OW35794   4.493   0.108   7.274  0.0160  0.0129 -0.4518
 8054SOL    HW135795   4.454   0.083   7.358 -1.4315  1.5169 -0.6865
 8054SOL    HW235796   4.584   0.134   7.291 -0.0064 -0.6984  0.7578
 8055SOL     OW35797   4.370   0.718   3.851 -0.5661 -0.1969 -0.8455
 8055SOL    HW135798   4.449   0.668   3.830 -0.7470 -0.4215 -0.9801
 8055SOL    HW235799   4.311   0.699   3.778 -0.6484 -0.8212 -0.6140
 8056SOL     OW35800   4.436   3.109   4.095  0.7101 -0.1714 -0.3653
 8056SOL    HW135801   4.358   3.164   4.091  1.2147  0.6592  1.1618
 8056SOL    HW235802   4.498   3.162   4.145 -0.5784  1.1729 -0.1876
 8057SOL     OW35803   2.530   1.920  10.967 -1.0101  0.4114 -0.0923
 8057SOL    HW135804   2.462   1.855  10.951 -2.7748  2.5550 -1.2309
 8057SOL    HW235805   2.558   1.939  10.877  2.0160 -3.0154  0.0921
 8058SOL     OW35806   2.274   0.047  15.734  0.3881  0.2012 -0.2484
 8058SOL    HW135807   2.244   0.056  15.644 -1.9837 -0.5437  0.4752
 8058SOL    HW235808   2.354   4.730  15.720 -0.3354 -0.9225 -0.2979
 8059SOL     OW35809   2.439   0.320   0.776 -0.0004 -0.5260  0.3958
 8059SOL    HW135810   2.475   0.293   0.860  0.8917  0.9780  0.5034
 8059SOL    HW235811   2.363   0.262   0.766  0.1009 -0.5505 -0.2131
 8060SOL     OW35812   1.714   0.411   4.094 -0.5925  0.2466  0.3058
 8060SOL    HW135813   1.656   0.411   4.170 -0.6112 -1.1896  0.2826
 8060SOL    HW235814   1.753   0.499   4.091  1.6005 -0.6877  1.7217
 8061SOL     OW35815   3.375   1.287   4.133 -0.0349 -0.1148 -0.1187
 8061SOL    HW135816   3.344   1.216   4.077  1.6102 -1.2943  0.4612
 8061SOL    HW235817   3.318   1.279   4.210  0.5519  0.9203  0.4197
 8062SOL     OW35818   3.705   1.440   4.589  0.2189 -0.3009  0.0690
 8062SOL    HW135819   3.745   1.520   4.557  0.9998 -0.3341  0.9525
 8062SOL    HW235820   3.665   1.390   4.517  0.9261  0.2320 -0.6872
 8063SOL     OW35821   3.455   4.666   7.607 -0.3172  0.3905 -0.0853
 8063SOL    HW135822   3.547   4.667   7.582 -0.1034  2.9109  0.8592
 8063SOL    HW235823   3.419   4.579   7.589 -1.5921  0.5582  1.5975
 8064SOL     OW35824   0.094   0.976   8.216  0.1447  0.2826  0.2111
 8064SOL    HW135825   0.096   1.032   8.138  1.4013  0.7159  0.5492
 8064SOL    HW235826   0.004   0.945   8.213 -1.0377  3.8948 -1.0729
 8065SOL     OW35827   3.648   3.689  14.776  0.5216  0.9473 -0.3076
 8065SOL    HW135828   3.706   3.642  14.716  0.9809 -0.0178  0.8927
 8065SOL    HW235829   3.706   3.755  14.814  1.4226 -0.9313  1.5555
 8066SOL     OW35830   4.180   3.724  17.161  0.3215  0.0718  0.2405
 8066SOL    HW135831   4.131   3.766  17.232  0.7503  1.2410 -0.1724
 8066SOL    HW235832   4.215   3.805  17.125 -1.8997  0.9595  0.0934
 8067SOL     OW35833   1.274   3.078   7.310  0.6399 -0.2640  0.1435
 8067SOL    HW135834   1.181   3.098   7.294  0.2222 -0.8086  1.8460
 8067SOL    HW235835   1.319   3.159   7.289 -0.8045  0.1678 -1.3245
 8068SOL     OW35836   2.126   4.382   0.359  0.4255  0.5789  0.8413
 8068SOL    HW135837   2.034   4.356   0.363  1.3250 -2.8340 -1.1653
 8068SOL    HW235838   2.122   4.449   0.427 -4.0867 -0.4665  1.5790
 8069SOL     OW35839   2.725   2.079   3.368 -0.3741 -0.4268 -0.2154
 8069SOL    HW135840   2.720   2.169   3.338 -0.8574 -0.3348  0.1453
 8069SOL    HW235841   2.813   2.054   3.339  0.5305  2.7437 -0.1785
 8070SOL     OW35842   1.854   3.375   4.378 -0.2019 -0.1952 -0.2653
 8070SOL    HW135843   1.909   3.343   4.306 -0.4157 -0.2224 -0.4185
 8070SOL    HW235844   1.836   3.290   4.420 -0.7955  0.4024  0.6936
 8071SOL     OW35845   1.658   0.068   3.432 -0.5311  0.2276 -1.0030
 8071SOL    HW135846   1.676   0.161   3.423 -0.3758  0.3243  0.2932
 8071SOL    HW235847   1.635   0.073   3.525 -1.0569  0.3705 -1.1412
 8072SOL     OW35848   1.502   2.468   5.797 -0.7790  0.1866 -0.1349
 8072SOL    HW135849   1.479   2.554   5.762  1.3151  1.0536  0.5951
 8072SOL    HW235850   1.468   2.403   5.736 -0.9823  1.4204 -1.3264
 8073SOL     OW35851   2.613   2.628   3.313 -0.8673  0.9154  0.3671
 8073SOL    HW135852   2.586   2.679   3.236  1.0000 -2.3617 -2.4558
 8073SOL    HW235853   2.524   2.600   3.337 -0.3257 -1.4055 -0.3552
 8074SOL     OW35854   1.950   4.257   2.116 -0.0164 -0.0281  0.1044
 8074SOL    HW135855   1.885   4.313   2.072 -1.1238 -1.1593  0.3005
 8074SOL    HW235856   1.895   4.182   2.137  1.5588 -1.0283  0.6009
 8075SOL     OW35857   3.872   0.444   0.568 -0.2678  0.4037  0.1284
 8075SOL    HW135858   3.922   0.420   0.490 -0.4965  0.4603 -0.0361
 8075SOL    HW235859   3.938   0.438   0.637 -1.9824 -3.4691  1.4403
 8076SOL     OW35860   1.532   3.532   7.792 -0.7360  0.5208 -0.5414
 8076SOL    HW135861   1.556   3.620   7.764 -0.0873  1.1654  2.0758
 8076SOL    HW235862   1.438   3.534   7.773 -0.8606  0.4622  0.0720
 8077SOL     OW35863   3.724   2.666  17.389 -0.0051  0.2039  0.5200
 8077SOL    HW135864   3.816   2.643  17.375 -1.1102 -1.6002 -3.9126
 8077SOL    HW235865   3.713   2.661  17.294  1.9100 -0.0527  0.3050
 8078SOL     OW35866   2.126   0.568   7.365 -0.7854  0.2944  0.4207
 8078SOL    HW135867   2.129   0.644   7.423  3.1547  3.4494 -3.8351
 8078SOL    HW235868   2.220   0.552   7.354 -1.0611 -0.1539 -1.2960
 8079SOL     OW35869   0.879   3.573   1.840  0.3475 -0.2898 -0.4418
 8079SOL    HW135870   0.878   3.480   1.864  2.4818 -0.3237 -0.4677
 8079SOL    HW235871   0.788   3.593   1.821  0.2837  1.0833  1.2967
 8080SOL     OW35872   4.032   4.159  14.563 -0.0504  0.3452 -0.2018
 8080SOL    HW135873   4.053   4.236  14.509  1.8094  1.4021  2.0603
 8080SOL    HW235874   4.045   4.190  14.652  0.3895  0.1773 -0.2067
 8081SOL     OW35875   1.222   0.555   4.911 -0.0643  0.1795  0.4338
 8081SOL    HW135876   1.201   0.627   4.971  0.6967  0.5116  0.3085
 8081SOL    HW235877   1.150   0.554   4.848  2.0026  0.8898 -1.9898
 8082SOL     OW35878   2.532   1.096   4.029  0.3606  0.0436 -0.8885
 8082SOL    HW135879   2.566   1.178   4.066 -0.6123  0.4225 -0.8585
 8082SOL    HW235880   2.443   1.091   4.062  0.2006  1.3588 -1.1548
 8083SOL     OW35881   1.544   3.237  11.297 -0.5107  0.2551 -0.5959
 8083SOL    HW135882   1.460   3.246  11.343  1.0579  0.4316  2.1801
 8083SOL    HW235883   1.608   3.278  11.355 -1.0908 -0.2377  0.3973
 8084SOL     OW35884   0.756   3.565   5.141 -0.1720  0.5039  0.0405
 8084SOL    HW135885   0.733   3.511   5.217 -0.5615  2.1189  1.0839
 8084SOL    HW235886   0.793   3.502   5.079 -0.8872 -0.2870  0.4191
 8085SOL     OW35887   4.511   4.399   2.196 -0.0416 -0.1375 -0.1237
 8085SOL    HW135888   4.488   4.459   2.268 -0.0854 -1.6123  1.0899
 8085SOL    HW235889   4.570   4.456   2.147 -1.0871  1.7575  0.8180
 8086SOL     OW35890   0.377   1.352   4.314 -0.6425 -0.3745 -0.9406
 8086SOL    HW135891   0.358   1.442   4.290 -2.9867 -0.1377  1.8211
 8086SOL    HW235892   0.356   1.358   4.407  1.3791 -1.4136 -0.4187
 8087SOL     OW35893   1.869   4.650   7.481  0.4045 -0.1394 -0.4005
 8087SOL    HW135894   1.866   4.622   7.390 -0.4518  0.2335 -0.4943
 8087SOL    HW235895   1.963   4.665   7.491  0.6039 -1.9556  0.3826
 8088SOL     OW35896   1.253   4.053   0.399 -0.1866 -0.6220  0.5025
 8088SOL    HW135897   1.217   4.129   0.354 -0.2425  0.7562  2.8508
 8088SOL    HW235898   1.196   3.983   0.369  1.3339 -1.4993 -0.3152
 8089SOL     OW35899   0.345   1.004   9.706  0.3406 -0.5903 -0.1929
 8089SOL    HW135900   0.342   1.074   9.771 -0.9622  0.2903 -1.1936
 8089SOL    HW235901   0.348   1.062   9.631  0.5378 -0.7759 -0.3296
 8090SOL     OW35902   0.131   0.561   7.555  0.3234 -0.3477  0.5833
 8090SOL    HW135903   0.165   0.641   7.514  0.0254 -0.1234  0.7757
 8090SOL    HW235904   0.042   0.594   7.562 -0.1683 -1.7067  0.5530
 8091SOL     OW35905   3.862   3.668   5.698  0.2376 -0.3206  0.1525
 8091SOL    HW135906   3.899   3.747   5.660  1.6815 -0.3636  1.4360
 8091SOL    HW235907   3.814   3.697   5.776 -0.9469  1.9945 -1.4748
 8092SOL     OW35908   2.799   2.389  14.517 -0.6405 -0.4080  0.1308
 8092SOL    HW135909   2.879   2.358  14.476  0.1330  0.8563  0.6943
 8092SOL    HW235910   2.769   2.322  14.578  2.8394 -1.2631  0.8768
 8093SOL     OW35911   0.486   0.102   2.619  0.4833 -0.4125  0.4269
 8093SOL    HW135912   0.514   0.031   2.561 -2.8942 -1.6828  0.3428
 8093SOL    HW235913   0.512   0.070   2.705 -0.0620 -1.2307  0.2875
 8094SOL     OW35914   1.357   3.187   5.510  0.1301  0.5856  0.1536
 8094SOL    HW135915   1.330   3.177   5.602 -1.0727  1.6031 -0.0798
 8094SOL    HW235916   1.387   3.098   5.493 -1.0809  0.0731  0.7289
 8095SOL     OW35917   2.420   4.330   8.693 -0.1880  0.0884 -0.5585
 8095SOL    HW135918   2.361   4.359   8.762  1.2792 -1.8485  1.5231
 8095SOL    HW235919   2.498   4.371   8.732  0.1750  1.4390 -2.7107
 8096SOL     OW35920   4.445   0.117   9.419 -0.3195 -0.3738 -0.2164
 8096SOL    HW135921   4.454   0.025   9.394 -0.7319 -0.3547 -0.4305
 8096SOL    HW235922   4.378   0.114   9.487 -1.6063 -2.0251 -1.5768
 8097SOL     OW35923   1.935   0.712   8.501 -0.3327  0.3073  0.1837
 8097SOL    HW135924   1.999   0.765   8.453 -1.1277 -0.3858 -1.6563
 8097SOL    HW235925   1.998   0.646   8.530 -0.5567  0.0148  0.0049
 8098SOL     OW35926   0.240   1.599  12.195  0.2946 -0.4914  0.5453
 8098SOL    HW135927   0.258   1.693  12.199  0.2434 -0.5037  1.0020
 8098SOL    HW235928   0.146   1.588  12.203  0.1562  0.9835  0.9822
 8099SOL     OW35929   2.420   1.687   4.535 -0.3535  0.4767  0.4144
 8099SOL    HW135930   2.449   1.741   4.462  2.6251 -0.1196  1.1730
 8099SOL    HW235931   2.357   1.745   4.578 -0.3448 -0.1630  1.2862
 8100SOL     OW35932   0.192   0.253   5.195  0.5772 -0.0101 -0.1412
 8100SOL    HW135933   0.183   0.321   5.262 -0.0310  0.9720 -1.2117
 8100SOL    HW235934   0.169   0.306   5.119  2.2052  0.3019 -0.4114
 8101SOL     OW35935   0.545   3.441   2.677 -0.2665  0.0188  0.2673
 8101SOL    HW135936   0.518   3.374   2.613  1.1746 -1.0174  0.7240
 8101SOL    HW235937   0.482   3.509   2.657  0.5413  0.6207 -0.2443
 8102SOL     OW35938   4.692   1.014  10.622  0.0969 -0.2762 -0.1482
 8102SOL    HW135939   4.710   1.030  10.530 -0.1425  2.7107  0.3346
 8102SOL    HW235940   4.683   1.104  10.652 -2.5643 -1.7014  3.3893
 8103SOL     OW35941   2.560   2.433  13.101  0.1177  0.4833  0.0882
 8103SOL    HW135942   2.642   2.467  13.067  0.2260 -0.7210 -0.8433
 8103SOL    HW235943   2.545   2.345  13.067  0.9402  0.2106  0.4455
 8104SOL     OW35944   3.525   2.493  16.689 -0.5884  0.1911 -0.0290
 8104SOL    HW135945   3.497   2.576  16.651  0.7787  0.0224 -1.4025
 8104SOL    HW235946   3.467   2.424  16.657 -0.1746  0.1202 -0.6219
 8105SOL     OW35947   2.254   2.188   5.917 -0.0167  0.3077 -0.0501
 8105SOL    HW135948   2.324   2.235   5.871  1.3938 -0.6228  1.1288
 8105SOL    HW235949   2.210   2.248   5.977 -1.3873 -0.5101 -0.2248
 8106SOL     OW35950   2.150   3.263   6.618  0.1732 -0.2638 -0.0749
 8106SOL    HW135951   2.168   3.334   6.680  0.7349  1.3350 -2.0718
 8106SOL    HW235952   2.155   3.306   6.533 -0.2614  0.8098  0.4296
 8107SOL     OW35953   0.377   3.589   2.967  0.7896 -0.6495 -0.0817
 8107SOL    HW135954   0.350   3.614   2.879  0.4325 -1.0549 -0.0882
 8107SOL    HW235955   0.309   3.528   2.996 -1.0823  1.9207  0.9201
 8108SOL     OW35956   3.335   0.796   8.044  0.5398  0.3871  1.0052
 8108SOL    HW135957   3.410   0.753   8.005 -1.3292 -2.0018  0.0549
 8108SOL    HW235958   3.344   0.755   8.130  1.2653  0.0297  0.7537
 8109SOL     OW35959   2.994   3.476  13.322 -0.1835 -0.0349 -0.0992
 8109SOL    HW135960   2.942   3.556  13.315  1.7414  1.0159 -2.5091
 8109SOL    HW235961   3.082   3.512  13.334  1.0415 -2.7491 -0.7120
 8110SOL     OW35962   2.913   2.088   7.657 -0.2792  0.3816 -0.1121
 8110SOL    HW135963   2.867   2.125   7.732  0.1672  0.1021  0.3029
 8110SOL    HW235964   2.836   2.081   7.601 -0.7271  1.0147  0.4233
 8111SOL     OW35965   1.516   1.117  13.659 -0.3809  0.4426 -0.3944
 8111SOL    HW135966   1.447   1.052  13.666  0.5287 -0.3810  0.9500
 8111SOL    HW235967   1.458   1.193  13.663 -0.6470  0.1108  2.0718
 8112SOL     OW35968   1.883   1.500   7.087  0.1585 -0.0113  0.0884
 8112SOL    HW135969   1.926   1.554   7.021 -1.2609 -0.6810 -1.3854
 8112SOL    HW235970   1.831   1.443   7.030 -1.6495  0.4046  1.3559
 8113SOL     OW35971   3.656   0.979  11.607 -0.1134 -0.1750  0.0743
 8113SOL    HW135972   3.698   0.939  11.683 -2.1240 -0.0165  1.2645
 8113SOL    HW235973   3.565   0.981  11.636 -0.3399 -2.1005 -0.5294
 8114SOL     OW35974   2.843   4.623   8.314 -0.3967  0.2525  0.8418
 8114SOL    HW135975   2.915   4.645   8.255 -0.4564 -0.0728  0.6523
 8114SOL    HW235976   2.879   4.540   8.346 -1.4804 -0.9157 -1.0059
 8115SOL     OW35977   0.214   0.487   5.025 -0.0249 -0.3498 -0.4847
 8115SOL    HW135978   0.255   0.452   4.946 -3.3815 -2.1257 -1.4548
 8115SOL    HW235979   0.136   0.532   4.995 -0.4356 -1.3317 -0.9076
 8116SOL     OW35980   0.201   3.241   6.609 -0.5665 -0.0431 -0.8204
 8116SOL    HW135981   0.116   3.228   6.652 -0.6534  1.2071 -0.6122
 8116SOL    HW235982   0.237   3.157   6.582  1.4376  0.3920  0.4192
 8117SOL     OW35983   1.940   3.009   6.336  0.2131  0.0878 -0.1578
 8117SOL    HW135984   1.938   2.913   6.333 -0.6883  0.1455 -1.2703
 8117SOL    HW235985   1.939   3.021   6.431 -1.1720 -2.5565  0.1719
 8118SOL     OW35986   0.253   3.276   9.892  0.8564 -0.5566 -0.4083
 8118SOL    HW135987   0.173   3.317   9.925  0.5161 -1.2508 -0.3779
 8118SOL    HW235988   0.312   3.247   9.961  2.0413  1.7295 -0.4699
 8119SOL     OW35989   3.985   2.209   4.777 -0.3902 -0.5929 -0.1609
 8119SOL    HW135990   3.902   2.252   4.798 -1.5991 -2.4284 -1.1444
 8119SOL    HW235991   3.951   2.119   4.776  2.1610 -1.5262 -1.4907
 8120SOL     OW35992   2.735   0.016   2.617 -0.2699  0.4228 -0.6633
 8120SOL    HW135993   2.815   4.723   2.663  0.3427 -0.7071 -2.3842
 8120SOL    HW235994   2.709   4.664   2.583 -1.3618  0.9138 -1.0591
 8121SOL     OW35995   2.189   2.171  14.257  0.6391  0.0131  0.3427
 8121SOL    HW135996   2.178   2.241  14.193  1.7768  1.5955  1.9053
 8121SOL    HW235997   2.100   2.134  14.261  0.8845 -0.7170 -0.9886
 8122SOL     OW35998   4.441   1.014  10.814  0.3912 -0.5261 -0.1082
 8122SOL    HW135999   4.472   0.930  10.780  1.5555 -2.0986  4.8499
 8122SOL    HW236000   4.495   1.082  10.775  0.0108 -0.9179 -1.3308
 8123SOL     OW36001   0.170   1.750   4.281  0.2523  0.2497  0.2312
 8123SOL    HW136002   0.099   1.711   4.333  0.6877  0.4076  0.9517
 8123SOL    HW236003   0.226   1.807   4.333  0.5015  1.4934 -1.4013
 8124SOL     OW36004   3.753   0.396   6.994 -0.5898  0.5549  0.0972
 8124SOL    HW136005   3.829   0.377   6.939 -0.2081 -0.6209  1.0203
 8124SOL    HW236006   3.804   0.447   7.057 -0.9217  0.6260  0.3109
 8125SOL     OW36007   2.051   2.488  12.841  0.1236 -0.0727  0.3016
 8125SOL    HW136008   1.958   2.472  12.856 -0.3219  0.4840 -1.8776
 8125SOL    HW236009   2.069   2.459  12.752 -0.5484  1.8794 -0.4746
 8126SOL     OW36010   3.000   1.878   1.549  0.2355  0.6581  0.9090
 8126SOL    HW136011   3.011   1.955   1.492  0.3724  0.0299  0.0774
 8126SOL    HW236012   3.063   1.809   1.527 -0.5539  0.5233 -0.9627
 8127SOL     OW36013   1.610   2.876   3.444  0.9050  0.1764 -0.4249
 8127SOL    HW136014   1.627   2.966   3.417 -0.7431  0.1603 -1.5074
 8127SOL    HW236015   1.530   2.890   3.496  0.8511 -1.9853  0.0911
 8128SOL     OW36016   4.058   0.598  16.428  0.2403  0.0898 -0.1216
 8128SOL    HW136017   4.041   0.510  16.463 -0.9408 -0.0420 -1.0482
 8128SOL    HW236018   4.035   0.646  16.508 -0.6824 -0.1706 -0.2355
 8129SOL     OW36019   2.815   0.239   7.586  0.0664 -0.0465 -0.2889
 8129SOL    HW136020   2.899   0.202   7.561  1.1564  1.9623  0.3943
 8129SOL    HW236021   2.819   0.334   7.572  1.2971 -0.4601 -2.8103
 8130SOL     OW36022   3.484   0.264   6.333 -0.1606 -0.2437  0.7462
 8130SOL    HW136023   3.579   0.261   6.324  0.0341 -0.8944  3.0615
 8130SOL    HW236024   3.454   0.277   6.243  1.4620 -3.7539 -0.2912
 8131SOL     OW36025   3.615   4.253   9.136  0.3445  0.6722 -0.0843
 8131SOL    HW136026   3.674   4.243   9.211 -0.8448  0.3881  0.8218
 8131SOL    HW236027   3.590   4.344   9.153  1.6017  0.8694  0.6875
 8132SOL     OW36028   0.529   3.785   3.340  0.5069  0.1437 -0.7536
 8132SOL    HW136029   0.558   3.871   3.369  0.4311  0.3457 -1.2832
 8132SOL    HW236030   0.582   3.776   3.261 -0.2553  0.4750 -1.3015
 8133SOL     OW36031   0.395   4.367   6.899  0.3572  0.2508 -0.0672
 8133SOL    HW136032   0.385   4.365   6.995 -2.2517  0.5283 -0.3215
 8133SOL    HW236033   0.488   4.347   6.890 -0.1447 -1.7615 -0.6220
 8134SOL     OW36034   2.745   0.347  10.441 -0.0143 -0.4760 -0.2221
 8134SOL    HW136035   2.659   0.334  10.481 -0.3529  0.0322 -0.7909
 8134SOL    HW236036   2.758   0.440  10.423  0.9272 -0.4193  0.7536
 8135SOL     OW36037   3.657   2.518  13.355  0.1635  0.5767 -0.9521
 8135SOL    HW136038   3.744   2.509  13.393  0.4087  0.1928 -1.5933
 8135SOL    HW236039   3.661   2.459  13.279  0.5019 -1.6702  0.8178
 8136SOL     OW36040   1.677   3.782   8.209  0.0878 -0.2724  0.2559
 8136SOL    HW136041   1.668   3.687   8.221 -5.7892  0.1402 -0.8682
 8136SOL    HW236042   1.763   3.798   8.247  0.3742 -2.8008  0.6932
 8137SOL     OW36043   3.534   3.477   3.445  0.5342 -0.2827 -0.0210
 8137SOL    HW136044   3.474   3.552   3.441  0.8895 -0.0113 -0.2880
 8137SOL    HW236045   3.470   3.407   3.432 -0.2478  0.8019 -1.9867
 8138SOL     OW36046   1.857   1.075   7.675 -0.0190  0.3145  0.0030
 8138SOL    HW136047   1.804   1.018   7.731  0.8537 -2.6199 -2.1927
 8138SOL    HW236048   1.799   1.132   7.625  3.2685  3.4902 -0.2020
 8139SOL     OW36049   0.472   2.223  17.493 -0.0988  0.1324 -0.2702
 8139SOL    HW136050   0.455   2.187  17.406 -2.4462  0.1978  0.1459
 8139SOL    HW236051   0.381   2.214  17.524 -0.3572 -0.4695 -1.1970
 8140SOL     OW36052   1.770   2.139   4.939 -0.3925 -0.2302  0.5969
 8140SOL    HW136053   1.693   2.135   4.996  0.0259  0.0702  1.1790
 8140SOL    HW236054   1.841   2.141   5.004 -0.8626 -0.3409  1.1191
 8141SOL     OW36055   2.656   4.040   3.871 -0.2056  0.0674  0.1144
 8141SOL    HW136056   2.646   4.032   3.966  0.8348 -3.1874 -0.0542
 8141SOL    HW236057   2.750   4.027   3.867 -0.3791 -1.2177  0.1506
 8142SOL     OW36058   3.594   3.007  16.183  0.3552  0.2818  0.1929
 8142SOL    HW136059   3.624   2.920  16.209 -0.8096 -0.7033 -1.7825
 8142SOL    HW236060   3.572   2.993  16.091  2.7819 -3.2134  0.1571
 8143SOL     OW36061   4.642   2.777   9.863 -0.2222 -0.1814 -0.3356
 8143SOL    HW136062   4.684   2.732   9.937 -0.2151 -0.0234 -0.2434
 8143SOL    HW236063   4.564   2.809   9.908 -0.7596 -1.3078 -0.4640
 8144SOL     OW36064   3.191   3.719   8.803  0.0537  0.0454  0.0188
 8144SOL    HW136065   3.194   3.722   8.707 -0.1298 -1.4866 -0.0338
 8144SOL    HW236066   3.237   3.636   8.817  0.2068 -0.1771 -1.7264
 8145SOL     OW36067   4.532   1.335   7.714 -0.7947  0.1290 -0.0906
 8145SOL    HW136068   4.608   1.280   7.736 -0.8001  0.2920  0.3243
 8145SOL    HW236069   4.496   1.333   7.803  2.0334  3.6089  1.1209
 8146SOL     OW36070   2.849   1.398  10.264 -0.8576 -0.3936  0.6738
 8146SOL    HW136071   2.776   1.460  10.254 -1.8509 -1.1759  2.9178
 8146SOL    HW236072   2.923   1.458  10.260 -1.5067  0.3392 -0.3809
 8147SOL     OW36073   4.242   4.596   4.817  0.0766  0.4001  0.7408
 8147SOL    HW136074   4.214   4.549   4.896 -4.3232 -0.0038 -1.0521
 8147SOL    HW236075   4.329   4.625   4.844 -0.0427  2.3268 -0.9366
 8148SOL     OW36076   0.954   1.654   2.726 -0.2962 -0.0368 -0.3161
 8148SOL    HW136077   1.044   1.678   2.747 -0.1972  0.4006 -1.2309
 8148SOL    HW236078   0.913   1.636   2.810 -0.9933 -1.2061 -0.9078
 8149SOL     OW36079   1.442   4.272   8.838 -0.6631 -1.0102  0.2242
 8149SOL    HW136080   1.474   4.271   8.929 -1.5610 -0.2325  0.5492
 8149SOL    HW236081   1.446   4.366   8.817  0.5817 -0.5871  2.2987
 8150SOL     OW36082   3.722   4.452   6.642 -0.5843  0.3711  0.6383
 8150SOL    HW136083   3.739   4.410   6.727  2.0426 -0.5985 -0.3652
 8150SOL    HW236084   3.628   4.468   6.643 -1.0719 -2.4983 -0.0624
 8151SOL     OW36085   1.015   2.630   3.922 -0.0412  0.1843 -0.5743
 8151SOL    HW136086   1.087   2.694   3.915 -1.4514  1.6591 -1.5394
 8151SOL    HW236087   0.933   2.679   3.919  0.1441  0.4925 -0.6275
 8152SOL     OW36088   0.218   1.876   4.045 -0.3386 -0.5777 -0.2325
 8152SOL    HW136089   0.130   1.913   4.053  0.2137  0.4667  0.9808
 8152SOL    HW236090   0.218   1.825   4.126  1.8425  4.2927  2.7891
 8153SOL     OW36091   3.534   3.116   2.902 -0.3012  0.1095  0.2263
 8153SOL    HW136092   3.486   3.037   2.925 -0.9544  0.9230  1.6944
 8153SOL    HW236093   3.493   3.142   2.820 -0.7985 -0.5828  0.2548
 8154SOL     OW36094   2.812   4.243  10.963  0.8946 -0.3268 -0.7626
 8154SOL    HW136095   2.833   4.277  10.876  2.0586 -0.2452 -0.4517
 8154SOL    HW236096   2.812   4.324  11.015  2.1121 -1.4874  1.0266
 8155SOL     OW36097   3.028   2.833   4.115 -0.3538 -0.0085  0.1321
 8155SOL    HW136098   2.970   2.760   4.135 -0.2519  0.4071  1.9357
 8155SOL    HW236099   3.093   2.790   4.059  1.2475  0.6456  1.4763
 8156SOL     OW36100   4.623   2.568  16.860 -0.2845  0.1860  0.2364
 8156SOL    HW136101   4.709   2.610  16.865  0.2583 -0.9435  0.3536
 8156SOL    HW236102   4.597   2.582  16.952  1.2022 -0.6356  0.7853
 8157SOL     OW36103   1.213   4.205   7.096 -0.2733  0.6372 -0.4854
 8157SOL    HW136104   1.255   4.272   7.150  0.6444  0.6008 -1.1572
 8157SOL    HW236105   1.290   4.164   7.056  0.5125  1.3378  0.3062
 8158SOL     OW36106   4.399   1.546   3.588 -0.4261  0.6494 -0.1411
 8158SOL    HW136107   4.396   1.452   3.567 -1.5735  0.2080  1.9896
 8158SOL    HW236108   4.380   1.553   3.681  2.5501  3.2663  0.2624
 8159SOL     OW36109   0.540   2.375   6.659 -0.2187  0.3934  0.6335
 8159SOL    HW136110   0.466   2.358   6.601 -1.5766  0.1205  2.4659
 8159SOL    HW236111   0.618   2.383   6.602 -0.1976 -0.3907  0.5453
 8160SOL     OW36112   1.963   0.465   7.996 -0.2782  0.0574 -0.2463
 8160SOL    HW136113   1.925   0.528   8.058 -0.6123  1.0417 -1.4454
 8160SOL    HW236114   1.894   0.399   7.991  0.0911 -0.3885  0.6620
 8161SOL     OW36115   1.398   1.024   8.170  0.4214 -0.1738  0.1497
 8161SOL    HW136116   1.352   1.099   8.207 -1.8713 -1.1579 -0.6357
 8161SOL    HW236117   1.387   1.038   8.076 -1.8924  0.3149  0.4874
 8162SOL     OW36118   1.211   0.291   2.408 -1.4304  0.0910  0.5226
 8162SOL    HW136119   1.225   0.197   2.400 -0.8776  0.2666 -0.5019
 8162SOL    HW236120   1.225   0.318   2.499  0.7851  0.9455 -0.0651
 8163SOL     OW36121   0.779   4.303   6.594  0.7502  0.3535  0.5796
 8163SOL    HW136122   0.744   4.296   6.682  0.1964  2.5111  0.5324
 8163SOL    HW236123   0.707   4.349   6.550  0.6965 -1.3055 -1.0420
 8164SOL     OW36124   4.465   0.022   0.866  0.4142  0.1555  0.6629
 8164SOL    HW136125   4.440   4.668   0.838  2.4249  0.3042 -1.5954
 8164SOL    HW236126   4.558   0.023   0.842  0.0581 -3.1674 -0.8128
 8165SOL     OW36127   2.431   1.934   4.843  0.4628 -0.9583  0.0268
 8165SOL    HW136128   2.363   1.907   4.782 -0.3823 -1.5459  1.2255
 8165SOL    HW236129   2.501   1.960   4.783  0.5483 -5.5595 -1.9019
 8166SOL     OW36130   3.122   4.007   8.284 -0.4437  0.3325 -0.2693
 8166SOL    HW136131   3.063   3.955   8.229  1.0012 -1.2305 -0.3605
 8166SOL    HW236132   3.095   4.097   8.265  0.6883  0.6445 -0.3929
 8167SOL     OW36133   1.107   4.627  14.299 -0.1529 -0.2158  0.5540
 8167SOL    HW136134   1.126   4.698  14.238  0.0824 -0.1726  0.6733
 8167SOL    HW236135   1.133   4.556  14.241  2.6744  0.7972  0.5810
 8168SOL     OW36136   1.024   4.345   0.814 -0.0141  0.2006  0.1514
 8168SOL    HW136137   0.971   4.310   0.742 -0.7737  0.6894  0.4703
 8168SOL    HW236138   1.027   4.440   0.801  1.7879  0.1079  0.0016
 8169SOL     OW36139   2.401   2.262  13.436  0.0426  0.5154  0.8134
 8169SOL    HW136140   2.339   2.275  13.365  0.7215 -0.4293  0.0449
 8169SOL    HW236141   2.361   2.183  13.473 -2.2196  2.2757  2.0720
 8170SOL     OW36142   4.331   3.619   2.316  0.2808  0.3978 -0.5820
 8170SOL    HW136143   4.288   3.687   2.368 -1.7524  1.6281 -3.8275
 8170SOL    HW236144   4.371   3.557   2.377 -0.6844 -1.1138 -1.4761
 8171SOL     OW36145   1.018   4.386   4.276  1.0195  0.0326  0.4854
 8171SOL    HW136146   0.928   4.365   4.303  1.3616 -1.0413  0.7823
 8171SOL    HW236147   1.062   4.318   4.327  1.4202  0.1417  0.2802
 8172SOL     OW36148   3.383   3.377   5.371  0.0673  0.1487 -0.1847
 8172SOL    HW136149   3.351   3.420   5.450 -1.8065 -0.0019 -0.8422
 8172SOL    HW236150   3.365   3.432   5.294  1.6329  1.5268  0.4604
 8173SOL     OW36151   1.688   3.920   2.538  0.2142 -0.3227  0.3813
 8173SOL    HW136152   1.634   3.867   2.596  1.2685  1.3189  2.8627
 8173SOL    HW236153   1.721   3.861   2.471 -0.5270 -0.8800  0.5137
 8174SOL     OW36154   3.938   0.141   6.786 -0.0833 -0.3608  0.0823
 8174SOL    HW136155   3.843   0.140   6.790 -0.0180 -0.2667  1.4164
 8174SOL    HW236156   3.963   0.229   6.815 -2.0469  0.5636 -1.0776
 8175SOL     OW36157   3.731   1.386   3.550 -0.4038  0.1829 -0.5861
 8175SOL    HW136158   3.801   1.451   3.550  0.8486 -1.1957 -0.0201
 8175SOL    HW236159   3.706   1.408   3.640  0.6770 -0.3311 -0.1664
 8176SOL     OW36160   4.727   4.540   1.772  0.5617 -0.3275 -0.6466
 8176SOL    HW136161   0.034   4.595   1.705  0.1609  0.5833 -0.1440
 8176SOL    HW236162   4.673   4.482   1.718  0.9360 -1.8158  0.5918
 8177SOL     OW36163   3.078   3.142   6.995  0.6374  0.3252 -0.4453
 8177SOL    HW136164   3.172   3.126   6.985  0.4856  0.9060 -3.0019
 8177SOL    HW236165   3.054   3.100   6.912  1.7847  0.5802 -0.9088
 8178SOL     OW36166   3.730   3.317   4.559  0.4161  0.2464 -0.1691
 8178SOL    HW136167   3.669   3.253   4.594 -0.0087  0.4902 -0.4603
 8178SOL    HW236168   3.667   3.369   4.508 -0.5105 -0.2029  0.5124
 8179SOL     OW36169   4.004   2.013   5.890 -0.3801 -0.4651 -0.0344
 8179SOL    HW136170   3.925   2.000   5.943  0.0981 -3.5461 -0.1245
 8179SOL    HW236171   4.043   2.093   5.926 -2.3326 -0.2235  1.5585
 8180SOL     OW36172   0.771   2.460   3.947 -0.6534  0.6726 -0.2742
 8180SOL    HW136173   0.743   2.551   3.954 -2.1511  0.1830  0.3219
 8180SOL    HW236174   0.807   2.442   4.033 -0.7175  2.3894  0.1093
 8181SOL     OW36175   1.213   0.572   8.992 -0.2503 -0.4433  0.3725
 8181SOL    HW136176   1.291   0.581   9.047 -0.5226  2.4214  0.2878
 8181SOL    HW236177   1.252   0.603   8.910 -0.2824  1.2904  1.0172
 8182SOL     OW36178   2.099   3.670  14.940  0.7067 -0.0203  0.4788
 8182SOL    HW136179   2.171   3.629  14.988 -0.0135 -0.7355  0.9454
 8182SOL    HW236180   2.133   3.681  14.851  1.5868 -0.6124  0.7541
 8183SOL     OW36181   1.480   1.980   7.074 -0.5042 -0.2799  0.6650
 8183SOL    HW136182   1.499   1.905   7.018  1.6230  0.1638  0.8018
 8183SOL    HW236183   1.539   1.964   7.148  0.3267  0.0661  0.0669
 8184SOL     OW36184   2.006   3.343  17.593 -0.0682  0.4913  0.6605
 8184SOL    HW136185   1.910   3.344  17.588 -0.0860  1.6221  1.0757
 8184SOL    HW236186   2.010   3.248  17.600 -0.8418  0.3063 -1.5229
 8185SOL     OW36187   4.198   0.302   7.488 -0.4261 -0.0433  0.0885
 8185SOL    HW136188   4.188   0.397   7.485 -1.0894 -0.0661  1.8724
 8185SOL    HW236189   4.204   0.278   7.395  1.7935  2.1585 -0.3394
 8186SOL     OW36190   1.541   2.226  13.240 -0.2862 -0.7091  0.0228
 8186SOL    HW136191   1.461   2.265  13.275 -1.4417 -1.6539 -1.5888
 8186SOL    HW236192   1.505   2.229  13.151 -2.9214 -1.2093  1.0653
 8187SOL     OW36193   2.831   4.510   6.032 -0.5396 -0.5151  0.0200
 8187SOL    HW136194   2.739   4.527   6.010 -0.3512 -0.6834 -0.9219
 8187SOL    HW236195   2.825   4.436   6.091 -0.1978 -1.6405 -1.3497
 8188SOL     OW36196   0.980   0.567   4.768 -0.3814  0.8419 -0.0762
 8188SOL    HW136197   0.935   0.518   4.837 -1.3423  1.8130  0.0041
 8188SOL    HW236198   0.965   0.656   4.801 -2.3235 -0.6638  3.0471
 8189SOL     OW36199   3.640   4.518  16.214  0.1149 -0.2260 -0.1754
 8189SOL    HW136200   3.728   4.523  16.174  0.1987  0.7983  0.1352
 8189SOL    HW236201   3.589   4.539  16.136 -0.5236  2.7414  1.0565
 8190SOL     OW36202   1.600   3.870  14.201  0.2329  0.2858 -0.2480
 8190SOL    HW136203   1.546   3.797  14.171 -0.3354  1.1184 -1.2438
 8190SOL    HW236204   1.613   3.925  14.124  0.3080  0.8305  0.1571
 8191SOL     OW36205   1.157   1.980   5.146  0.0444  0.0467  0.1836
 8191SOL    HW136206   1.152   2.022   5.060 -1.1885  1.6929  1.0542
 8191SOL    HW236207   1.170   2.050   5.211 -0.5957 -1.6632  2.1716
 8192SOL     OW36208   4.213   1.780  16.138 -0.1718  0.7935  0.4829
 8192SOL    HW136209   4.215   1.721  16.063 -0.9977  2.6368 -0.9881
 8192SOL    HW236210   4.188   1.864  16.099  1.5224  0.7843 -0.6405
 8193SOL     OW36211   0.330   4.156   7.699 -0.2476 -0.5217  0.1795
 8193SOL    HW136212   0.287   4.239   7.716  0.4521 -0.5873  2.3035
 8193SOL    HW236213   0.257   4.097   7.718 -1.4094  1.0656  0.5673
 8194SOL     OW36214   2.557   2.471   1.574 -0.0361  0.1574  0.1520
 8194SOL    HW136215   2.535   2.396   1.518  0.5829 -0.2591  0.4742
 8194SOL    HW236216   2.602   2.425   1.645  0.4268 -1.0452 -0.9311
 8195SOL     OW36217   1.364   0.345   5.523 -0.6793  0.2557 -0.7952
 8195SOL    HW136218   1.337   0.305   5.606  1.4166 -1.6972 -1.0495
 8195SOL    HW236219   1.332   0.272   5.470 -0.3698 -1.6569  1.6313
 8196SOL     OW36220   4.015   0.402   6.889  0.1054  0.1130  0.1892
 8196SOL    HW136221   4.053   0.489   6.892 -0.0886  0.1797  0.8422
 8196SOL    HW236222   4.079   0.356   6.836 -0.3800  0.1524 -0.4260
 8197SOL     OW36223   4.243   3.988   5.141  0.2390  0.0775  0.2204
 8197SOL    HW136224   4.250   4.057   5.075  0.5116  1.5441  1.7829
 8197SOL    HW236225   4.337   3.979   5.157  0.4088 -0.9634 -1.3657
 8198SOL     OW36226   2.487   4.167   5.161  0.3829 -0.5008  0.0425
 8198SOL    HW136227   2.467   4.228   5.232  0.8947  2.3110 -2.1900
 8198SOL    HW236228   2.582   4.162   5.176  0.3019 -0.4081  0.5822
 8199SOL     OW36229   3.636   2.101   9.145 -0.4062  0.2751 -0.0801
 8199SOL    HW136230   3.664   2.069   9.231  1.5830 -0.2751 -0.9328
 8199SOL    HW236231   3.655   2.018   9.101  0.8058  0.7094 -0.3722
 8200SOL     OW36232   0.703   2.986  16.555  0.1538 -0.0627 -0.0145
 8200SOL    HW136233   0.684   3.079  16.547 -0.5966 -0.2334 -0.2281
 8200SOL    HW236234   0.614   2.965  16.585 -0.3967  0.7174 -1.1065
 8201SOL     OW36235   2.286   2.286   3.521 -0.1130 -0.1963 -0.1327
 8201SOL    HW136236   2.292   2.209   3.463  0.6787  2.3259 -3.4358
 8201SOL    HW236237   2.204   2.316   3.484  0.5882 -0.2819 -1.7745
 8202SOL     OW36238   1.218   1.516   3.532 -0.4367 -0.3647  0.3894
 8202SOL    HW136239   1.227   1.612   3.538 -2.1198 -0.2024  0.2395
 8202SOL    HW236240   1.311   1.492   3.533 -0.7780 -1.6786  0.3411
 8203SOL     OW36241   1.760   1.513   9.227 -0.2614 -0.0163 -0.0531
 8203SOL    HW136242   1.671   1.547   9.238  0.1010  0.3663  1.7242
 8203SOL    HW236243   1.746   1.430   9.182 -0.0220 -0.7296  1.2123
 8204SOL     OW36244   0.097   1.669   1.512  0.2857  0.2178  0.1533
 8204SOL    HW136245   0.189   1.690   1.497  0.5708  0.7947  2.7285
 8204SOL    HW236246   0.061   1.741   1.563 -0.0838 -0.2996  0.6288
 8205SOL     OW36247   3.000   4.656   8.097  0.3986  0.3311 -0.4411
 8205SOL    HW136248   3.062   4.583   8.104 -1.1006 -0.6183  3.1790
 8205SOL    HW236249   2.986   4.652   8.002 -2.6998  1.5259 -0.0154
 8206SOL     OW36250   2.944   4.172   6.961 -0.0824 -0.4232 -1.0052
 8206SOL    HW136251   2.944   4.235   6.890  2.8226  0.7988  0.0804
 8206SOL    HW236252   2.899   4.219   7.031 -1.9236 -2.2791 -0.9453
 8207SOL     OW36253   0.700   3.607   2.445 -0.7001 -0.3061 -0.0875
 8207SOL    HW136254   0.720   3.535   2.384 -1.2621 -0.0043 -0.6257
 8207SOL    HW236255   0.668   3.563   2.524 -0.2542 -0.8033 -0.1823
 8208SOL     OW36256   2.176   0.430   9.513 -0.6544 -0.1244 -0.1313
 8208SOL    HW136257   2.246   0.483   9.476 -0.5294 -1.3989 -1.7291
 8208SOL    HW236258   2.109   0.499   9.516 -1.6896 -1.1052 -0.4119
 8209SOL     OW36259   0.198   3.072  10.866  0.1833  0.4223  0.0043
 8209SOL    HW136260   0.179   3.041  10.777 -2.7610  2.2561 -0.0178
 8209SOL    HW236261   0.116   3.099  10.907  1.1147  1.6306  1.0742
 8210SOL     OW36262   0.427   2.871  16.659 -0.2250 -0.0102  0.1281
 8210SOL    HW136263   0.371   2.862  16.737 -2.5622  3.5842 -1.1568
 8210SOL    HW236264   0.381   2.930  16.600 -1.6959 -0.1141  1.1602
 8211SOL     OW36265   0.727   1.558   7.774  0.2430  0.4661  0.4121
 8211SOL    HW136266   0.679   1.495   7.721  1.2495 -0.5291  0.6746
 8211SOL    HW236267   0.768   1.613   7.706 -2.3173  0.9224 -0.7493
 8212SOL     OW36268   4.513   4.058   3.342 -0.4963  0.1727 -0.2101
 8212SOL    HW136269   4.519   3.967   3.371 -2.1909 -0.2759 -1.3105
 8212SOL    HW236270   4.569   4.050   3.265 -0.6713 -1.3023 -0.1745
 8213SOL     OW36271   4.651   2.334   6.531 -0.2539 -0.0736 -0.5884
 8213SOL    HW136272   4.572   2.374   6.494 -0.0968 -0.2628 -1.1158
 8213SOL    HW236273   4.613   2.291   6.608  0.2190 -1.2858 -1.0452
 8214SOL     OW36274   1.485   1.678   7.912  0.0238  0.4966  0.0194
 8214SOL    HW136275   1.481   1.584   7.931 -0.7884  0.3056 -1.0181
 8214SOL    HW236276   1.528   1.681   7.826  2.0836  1.9442  1.1224
 8215SOL     OW36277   2.443   3.994   6.685  0.4195  0.2485 -0.4615
 8215SOL    HW136278   2.529   3.957   6.708 -0.0361 -0.6750 -0.2250
 8215SOL    HW236279   2.400   3.982   6.770  0.8079 -1.9308 -0.5522
 8216SOL     OW36280   4.040   1.963  12.590 -0.2902 -0.0002 -0.0078
 8216SOL    HW136281   4.041   1.877  12.632  0.1496  1.6139  3.2827
 8216SOL    HW236282   4.101   1.947  12.519  0.2832 -1.5394  0.8179
 8217SOL     OW36283   1.527   4.159  11.727  0.9218  0.2946 -0.2472
 8217SOL    HW136284   1.444   4.163  11.679 -0.5274  0.2358  2.2626
 8217SOL    HW236285   1.572   4.085  11.687 -0.7855 -0.5225 -0.6383
 8218SOL     OW36286   3.874   1.301  12.523 -0.6926 -0.2999  0.2004
 8218SOL    HW136287   3.831   1.333  12.444 -1.2091 -1.0401  0.1817
 8218SOL    HW236288   3.835   1.214  12.523 -1.3974  0.0197 -0.5552
 8219SOL     OW36289   2.249   3.298   6.013 -0.3746 -0.2788  0.4996
 8219SOL    HW136290   2.211   3.245   5.943  0.9334 -2.2472  1.2973
 8219SOL    HW236291   2.318   3.343   5.964 -1.1496  0.0739 -0.2814
 8220SOL     OW36292   4.124   1.739   0.694 -0.6515  0.2385 -0.3507
 8220SOL    HW136293   4.061   1.809   0.679 -2.1282 -1.0349 -0.0138
 8220SOL    HW236294   4.201   1.792   0.676 -0.7992  1.2718  2.0261
 8221SOL     OW36295   0.661   1.785   6.791 -0.0477  0.3840 -0.5298
 8221SOL    HW136296   0.710   1.705   6.772  0.7185  0.6222  0.4613
 8221SOL    HW236297   0.593   1.776   6.724 -1.6204  0.2682  1.0585
 8222SOL     OW36298   1.431   2.448   2.719 -0.0489 -0.1244  0.2629
 8222SOL    HW136299   1.489   2.490   2.782 -0.3905 -0.7003  0.9603
 8222SOL    HW236300   1.474   2.459   2.634 -0.2142 -1.3054  0.0303
 8223SOL     OW36301   0.632   4.637   7.908 -0.5401 -0.1080  0.0457
 8223SOL    HW136302   0.678   4.707   7.862 -0.8749  1.5960  2.3324
 8223SOL    HW236303   0.546   4.677   7.916 -0.6812 -0.7233  1.6215
 8224SOL     OW36304   1.849   3.988  17.502 -0.1427 -0.4423 -0.0301
 8224SOL    HW136305   1.877   4.012  17.590  1.4273  0.9432 -0.9120
 8224SOL    HW236306   1.850   3.893  17.515  1.0976 -0.3454  0.5578
 8225SOL     OW36307   0.938   3.195   6.728 -0.0940  0.0402  0.1778
 8225SOL    HW136308   0.998   3.181   6.654 -0.0484 -2.3819  0.6643
 8225SOL    HW236309   0.968   3.133   6.794 -0.6688  1.4582  1.7803
 8226SOL     OW36310   2.887   2.863   4.936 -0.1182 -0.1171 -0.1777
 8226SOL    HW136311   2.943   2.931   4.899 -0.9124 -0.3057 -1.7308
 8226SOL    HW236312   2.951   2.820   4.993  0.0394  0.4434  0.0673
 8227SOL     OW36313   4.346   3.998   2.804 -0.3616 -0.0709 -0.3508
 8227SOL    HW136314   4.324   4.008   2.712 -0.8275 -2.3525 -0.4865
 8227SOL    HW236315   4.376   3.908   2.804  0.3297  0.1578  1.2177
 8228SOL     OW36316   3.001   0.440   6.257  0.4356 -0.1355  0.6322
 8228SOL    HW136317   3.002   0.356   6.210  0.2296  1.2742 -1.9057
 8228SOL    HW236318   3.089   0.469   6.231  0.8897 -0.7330  1.5004
 8229SOL     OW36319   0.337   3.396  10.600  0.3533 -0.1591 -0.1102
 8229SOL    HW136320   0.335   3.411  10.505  0.8184  0.9259  0.0497
 8229SOL    HW236321   0.342   3.301  10.611  2.1850  0.0967  1.1453
 8230SOL     OW36322   4.663   2.049   0.346  0.3185  0.7433 -0.4151
 8230SOL    HW136323   4.676   2.067   0.440  1.8488  0.1371 -0.5148
 8230SOL    HW236324   4.683   1.956   0.335 -2.0772  0.1867  0.0187
 8231SOL     OW36325   1.853   3.327   4.712 -0.5537 -0.7555 -0.1876
 8231SOL    HW136326   1.785   3.356   4.773 -0.5754  1.7363 -1.4342
 8231SOL    HW236327   1.801   3.305   4.635 -0.1185 -1.4739 -0.2754
 8232SOL     OW36328   0.364   3.085   7.421 -0.1252  0.0428 -0.1409
 8232SOL    HW136329   0.376   3.158   7.481 -0.8892 -1.8306  2.2792
 8232SOL    HW236330   0.341   3.132   7.340 -2.4579 -0.5100  0.1877
 8233SOL     OW36331   0.957   2.140   0.673  0.1525 -0.3276  0.2734
 8233SOL    HW136332   1.047   2.113   0.653  0.0135 -0.6968  0.1400
 8233SOL    HW236333   0.933   2.184   0.592  0.4308 -1.2972 -0.3364
 8234SOL     OW36334   1.336   4.018   8.867  0.1241 -0.0349  0.0649
 8234SOL    HW136335   1.305   4.095   8.914 -1.4101 -0.0674 -0.8771
 8234SOL    HW236336   1.403   4.068   8.819 -0.6492  1.1122  0.1896
 8235SOL     OW36337   2.514   1.182   2.759 -0.0071  0.4601 -0.2663
 8235SOL    HW136338   2.517   1.111   2.695 -0.0564  0.5822 -0.4027
 8235SOL    HW236339   2.424   1.175   2.790 -0.2660  1.2548 -0.8484
 8236SOL     OW36340   2.972   0.834   6.702  0.0094 -0.1621  0.7497
 8236SOL    HW136341   2.993   0.833   6.795 -0.8691  1.5723  0.9642
 8236SOL    HW236342   2.925   0.916   6.692 -0.9943 -0.9965 -1.4906
 8237SOL     OW36343   4.689   2.050  14.273  0.1348 -0.0036 -0.0614
 8237SOL    HW136344   4.649   2.058  14.187 -0.1570  0.0372  0.0778
 8237SOL    HW236345   4.621   2.075  14.335 -0.9930  0.4958 -1.4974
 8238SOL     OW36346   2.865   1.498  15.978 -0.4800 -0.5008  0.2911
 8238SOL    HW136347   2.899   1.586  15.995  1.3626 -1.0653 -0.5121
 8238SOL    HW236348   2.772   1.504  16.001 -0.9401 -2.2548 -1.1004
 8239SOL     OW36349   2.087   3.680   7.151  0.0157  0.3578 -0.0784
 8239SOL    HW136350   2.014   3.700   7.093  0.2064 -1.3361 -0.8936
 8239SOL    HW236351   2.060   3.598   7.192 -1.4635  0.2711 -1.2216
 8240SOL     OW36352   2.433   0.185  16.370 -0.4133 -0.2177 -0.1128
 8240SOL    HW136353   2.496   0.194  16.442  0.8926 -1.8436 -1.0529
 8240SOL    HW236354   2.365   0.127  16.406 -1.7534 -0.1453 -2.5228
 8241SOL     OW36355   1.535   3.826   0.591  0.3105  0.1354 -0.5798
 8241SOL    HW136356   1.519   3.920   0.601  0.5300  0.1784 -0.6114
 8241SOL    HW236357   1.532   3.800   0.683  1.5216 -0.7436 -0.7830
 8242SOL     OW36358   2.859   0.900   9.331  0.1557 -0.0915  0.4116
 8242SOL    HW136359   2.923   0.962   9.297 -0.3732 -0.5297 -1.3923
 8242SOL    HW236360   2.910   0.858   9.400  0.4478 -0.0957  0.1905
 8243SOL     OW36361   2.518   3.950   8.610  0.7769  0.2760  0.1091
 8243SOL    HW136362   2.515   3.855   8.599 -1.6436  0.1128  2.1602
 8243SOL    HW236363   2.595   3.967   8.664  0.9415  1.9708 -0.6368
 8244SOL     OW36364   3.722   1.092  14.817  0.6393  0.0339  0.3418
 8244SOL    HW136365   3.705   1.042  14.737 -0.1639  1.1114 -0.1580
 8244SOL    HW236366   3.818   1.099  14.814  0.4859  2.9600  2.2649
 8245SOL     OW36367   4.653   1.237   5.250  0.1193 -0.1880  0.5800
 8245SOL    HW136368   4.702   1.316   5.274  1.7516 -0.2539 -2.4846
 8245SOL    HW236369   4.591   1.217   5.320 -0.1749 -1.7901 -0.1374
 8246SOL     OW36370   3.304   0.344  13.382 -0.6262  0.2210 -0.4510
 8246SOL    HW136371   3.372   0.333  13.316  1.4736 -0.7570  1.8736
 8246SOL    HW236372   3.339   0.418  13.430  0.5465 -1.8688  1.9163
 8247SOL     OW36373   1.798   2.116   3.109 -0.4211 -0.1187  0.5773
 8247SOL    HW136374   1.803   2.199   3.060  3.3057  0.4630  1.9513
 8247SOL    HW236375   1.869   2.069   3.065  0.2962  0.9503  0.5831
 8248SOL     OW36376   4.254   3.653   5.465 -0.0056  0.7499  0.2464
 8248SOL    HW136377   4.315   3.608   5.523  0.0497 -0.7790 -1.0045
 8248SOL    HW236378   4.244   3.594   5.391 -1.2014  0.8022  0.3585
 8249SOL     OW36379   4.205   1.641  15.920  0.0934  0.0700 -0.1327
 8249SOL    HW136380   4.199   1.546  15.910 -0.5178  0.3845 -2.6861
 8249SOL    HW236381   4.191   1.673  15.831 -2.3347 -0.5399  0.0315
 8250SOL     OW36382   1.906   2.720   2.427 -0.9237 -0.4913 -0.2583
 8250SOL    HW136383   1.972   2.652   2.442  0.0594  0.7930  1.1412
 8250SOL    HW236384   1.957   2.799   2.410 -1.0971 -0.2988  0.1211
 8251SOL     OW36385   3.560   1.786   6.247  0.6880 -0.1229  0.3913
 8251SOL    HW136386   3.598   1.799   6.334  0.3642 -0.5700  0.6013
 8251SOL    HW236387   3.511   1.867   6.232  1.4168  0.8547  3.4797
 8252SOL     OW36388   2.312   3.566  15.054  0.4238  0.3787 -0.3272
 8252SOL    HW136389   2.392   3.524  15.085 -0.1619  1.0774  2.1172
 8252SOL    HW236390   2.264   3.579  15.135 -0.8913 -0.6423 -0.9537
 8253SOL     OW36391   0.099   0.230   8.712 -0.0320  0.1959  0.1055
 8253SOL    HW136392   0.098   0.183   8.628  0.9768 -1.0767  0.8121
 8253SOL    HW236393   0.008   0.256   8.724 -0.1781  0.6055 -1.8275
 8254SOL     OW36394   1.811   2.174  16.175  0.3950 -0.1666 -0.2257
 8254SOL    HW136395   1.823   2.141  16.086  1.8475  0.1776 -0.1576
 8254SOL    HW236396   1.826   2.103  16.237  1.9644  2.1424  2.0691
 8255SOL     OW36397   1.865   3.220   7.987 -0.0863 -0.4636 -0.0113
 8255SOL    HW136398   1.959   3.238   7.987 -0.0566 -0.6882  1.4741
 8255SOL    HW236399   1.824   3.306   7.991 -1.2215 -0.9348 -1.4179
 8256SOL     OW36400   4.064   4.408  14.406 -0.0061 -0.0353  0.0115
 8256SOL    HW136401   3.982   4.382  14.365 -0.1320  0.3999 -0.0178
 8256SOL    HW236402   4.021   4.466  14.469 -0.8892 -0.7924  0.1062
 8257SOL     OW36403   4.140   2.558   3.426 -0.0368  0.4007  0.4196
 8257SOL    HW136404   4.219   2.564   3.372 -0.5078  0.8739 -0.2214
 8257SOL    HW236405   4.129   2.464   3.443  0.0512  0.3609  0.2534
 8258SOL     OW36406   4.546   3.033   6.174  0.4244 -0.0929  0.4164
 8258SOL    HW136407   4.501   3.077   6.103 -0.6977 -0.8465  0.6615
 8258SOL    HW236408   4.503   3.055   6.257 -0.9017  1.1328 -0.6201
 8259SOL     OW36409   2.817   3.930   4.070 -0.1627  0.5438 -0.4756
 8259SOL    HW136410   2.846   4.018   4.091  2.8897 -0.8371  1.0344
 8259SOL    HW236411   2.876   3.904   3.999 -1.3313 -0.1528 -1.2044
 8260SOL     OW36412   1.366   1.236   7.090 -0.3267 -0.0446  0.3005
 8260SOL    HW136413   1.434   1.297   7.117  1.6960 -0.9599 -2.7374
 8260SOL    HW236414   1.293   1.299   7.089  0.4218  0.8659  2.3220
 8261SOL     OW36415   4.336   1.148   9.081  0.1312 -0.6414 -0.3476
 8261SOL    HW136416   4.279   1.071   9.088 -1.0313  0.5143  2.7578
 8261SOL    HW236417   4.373   1.127   8.995  0.0623  3.1444 -1.2991
 8262SOL     OW36418   0.148   2.653  15.467  0.2131 -0.2987 -0.2399
 8262SOL    HW136419   0.088   2.609  15.407 -1.1118 -1.0973  1.6569
 8262SOL    HW236420   0.228   2.655  15.414  0.7491  0.1848  0.5903
 8263SOL     OW36421   3.459   0.385   9.379  0.2949 -0.1556  0.6289
 8263SOL    HW136422   3.508   0.443   9.437  3.5066  0.1972 -2.4103
 8263SOL    HW236423   3.400   0.344   9.442  0.3037 -1.3723 -0.1449
 8264SOL     OW36424   4.574   1.664   5.300 -0.1833  0.1816  0.5547
 8264SOL    HW136425   4.496   1.632   5.254 -0.1747  0.5169  0.3069
 8264SOL    HW236426   4.617   1.696   5.221 -1.1080  1.6319  0.6288
 8265SOL     OW36427   3.026   2.616   2.143 -0.1573  0.5145 -0.2708
 8265SOL    HW136428   2.972   2.631   2.065 -2.2781 -1.9210  0.7563
 8265SOL    HW236429   3.071   2.538   2.112  1.4804  1.4870 -0.3100
 8266SOL     OW36430   4.655   4.494   1.428 -0.0709 -0.1184 -0.2391
 8266SOL    HW136431   4.691   4.545   1.355  1.1536  0.6634  0.9158
 8266SOL    HW236432   4.605   4.563   1.471  0.5366 -1.5825  2.8055
 8267SOL     OW36433   4.225   3.265   9.120 -0.1953 -0.1754 -0.1746
 8267SOL    HW136434   4.252   3.194   9.178 -1.3217 -1.8635 -1.7162
 8267SOL    HW236435   4.287   3.338   9.130  1.8862 -1.9032 -0.6373
 8268SOL     OW36436   1.867   0.296   7.293  0.8768 -0.1801  0.2889
 8268SOL    HW136437   1.822   0.372   7.256  0.8490  0.3517  1.4004
 8268SOL    HW236438   1.811   0.229   7.254  0.2112  0.4407  0.1958
 8269SOL     OW36439   3.941   2.558   3.637 -0.1263 -0.3270 -0.2094
 8269SOL    HW136440   4.015   2.590   3.585  0.5843  1.4694  1.8709
 8269SOL    HW236441   3.904   2.633   3.685  0.7704  0.3125 -0.5186
 8270SOL     OW36442   3.700   3.967   1.912  0.4125  0.2661  0.1017
 8270SOL    HW136443   3.689   3.999   2.001 -0.5937  0.5252 -0.1066
 8270SOL    HW236444   3.713   3.874   1.933 -0.0873  0.6169  1.9315
 8271SOL     OW36445   3.383   4.630   3.737  0.2320  0.3807 -0.3401
 8271SOL    HW136446   3.454   4.653   3.677 -0.9044  0.5114 -1.6336
 8271SOL    HW236447   3.420   4.628   3.825 -0.9395  0.8566  0.1676
 8272SOL     OW36448   3.382   2.011   7.361 -0.2628 -0.1416 -0.5110
 8272SOL    HW136449   3.447   1.943   7.341  0.9548  1.2032 -1.1216
 8272SOL    HW236450   3.440   2.085   7.379 -0.9874 -0.0034  1.2208
 8273SOL     OW36451   2.998   4.159   8.875  0.5132  0.1544  0.1454
 8273SOL    HW136452   3.069   4.136   8.814  1.5268  1.1036  0.9756
 8273SOL    HW236453   2.934   4.092   8.852 -0.3703  1.5275 -1.3535
 8274SOL     OW36454   3.359   4.206   6.151  0.0101  0.0081  0.1735
 8274SOL    HW136455   3.393   4.220   6.063  0.6951  0.1085  0.4545
 8274SOL    HW236456   3.408   4.268   6.205  0.6524 -0.8881  0.6230
 8275SOL     OW36457   4.329   2.062   0.457  0.7143 -0.1844  0.2997
 8275SOL    HW136458   4.283   2.118   0.520 -1.0272 -1.4690  0.1455
 8275SOL    HW236459   4.356   1.997   0.521  3.3483  0.7816  0.1922
 8276SOL     OW36460   2.463   0.815  14.253 -0.1318 -0.3542  0.1264
 8276SOL    HW136461   2.431   0.772  14.174  0.5415  1.0969 -0.9369
 8276SOL    HW236462   2.461   0.755  14.328  0.6327 -0.2655  0.2214
 8277SOL     OW36463   1.146   2.246   8.090  0.7417 -0.7211 -0.3408
 8277SOL    HW136464   1.096   2.218   8.166  2.6301 -0.5660  0.9675
 8277SOL    HW236465   1.150   2.170   8.031  0.0047 -1.2100  0.2374
 8278SOL     OW36466   0.491   2.951   4.704 -0.1010 -0.5802  0.2101
 8278SOL    HW136467   0.559   2.919   4.645  0.7736  2.3338 -0.3701
 8278SOL    HW236468   0.502   3.045   4.690  0.4018 -0.9733 -1.9288
 8279SOL     OW36469   4.388   1.748   9.278 -0.1596 -0.1796  0.4312
 8279SOL    HW136470   4.300   1.787   9.277 -1.3034 -2.7109  0.3624
 8279SOL    HW236471   4.439   1.821   9.244 -0.7247 -1.0686 -2.3271
 8280SOL     OW36472   1.242   4.625   0.809  0.3344  0.5071  0.4476
 8280SOL    HW136473   1.325   4.670   0.796 -0.0572  1.9926  3.1705
 8280SOL    HW236474   1.204   4.625   0.722  0.2401 -2.6103  0.4822
 8281SOL     OW36475   1.713   0.612   6.527 -0.0695  0.3463  0.1364
 8281SOL    HW136476   1.643   0.657   6.575  1.2325  0.5357  1.8719
 8281SOL    HW236477   1.736   0.668   6.453 -0.2032  0.1787 -0.0328
 8282SOL     OW36478   3.718   0.815   4.588  0.0601 -0.7683 -0.5434
 8282SOL    HW136479   3.756   0.796   4.502 -1.4798 -1.1069 -1.1639
 8282SOL    HW236480   3.625   0.791   4.577 -0.1598  1.0689 -2.7211
 8283SOL     OW36481   3.782   0.857  12.240 -0.2294  0.2239  0.5987
 8283SOL    HW136482   3.727   0.779  12.229 -1.6228  1.1677  0.8850
 8283SOL    HW236483   3.869   0.821  12.225 -0.6378 -0.3013 -0.4580
 8284SOL     OW36484   4.050   3.971   1.133 -0.1165 -0.1183 -0.3643
 8284SOL    HW136485   3.956   3.985   1.141 -0.1389 -0.3696 -0.1988
 8284SOL    HW236486   4.079   3.915   1.204 -2.0763  0.0848  0.5999
 8285SOL     OW36487   0.431   2.174   3.680  0.2475 -0.8627  0.2914
 8285SOL    HW136488   0.425   2.202   3.589  2.0081  0.0252  0.4576
 8285SOL    HW236489   0.340   2.144   3.690 -0.6128  1.4537 -0.6641
 8286SOL     OW36490   1.571   0.544   3.147 -0.3471  0.3426  0.0215
 8286SOL    HW136491   1.667   0.539   3.146 -0.2086  3.1879 -1.0682
 8286SOL    HW236492   1.566   0.636   3.120 -0.0786 -0.3662 -2.5020
 8287SOL     OW36493   1.098   1.592   8.018 -0.2789 -0.2405 -0.0220
 8287SOL    HW136494   1.028   1.535   7.987 -2.5380  2.3329  0.3343
 8287SOL    HW236495   1.082   1.594   8.112  2.2625 -0.1752  0.4032
 8288SOL     OW36496   2.903   3.859   8.166  0.3547  0.6748  0.3353
 8288SOL    HW136497   2.828   3.867   8.224 -0.0487  1.3621 -0.2799
 8288SOL    HW236498   2.857   3.824   8.090  3.3479 -0.6321 -0.8527
 8289SOL     OW36499   4.285   1.111   4.696 -0.0925  0.5817  0.1793
 8289SOL    HW136500   4.271   1.169   4.620 -0.8891  1.0941  0.7120
 8289SOL    HW236501   4.243   1.162   4.766  0.8528 -1.1764  2.0294
 8290SOL     OW36502   4.358   3.865  10.390  0.0619  0.5513 -0.0975
 8290SOL    HW136503   4.375   3.773  10.373 -0.0530  0.9326 -2.2203
 8290SOL    HW236504   4.437   3.914  10.367  0.5352  0.1247  0.6482
 8291SOL     OW36505   0.518   4.213   2.557  0.2329  0.4252 -0.2521
 8291SOL    HW136506   0.515   4.251   2.645 -1.6107  0.1712 -0.2034
 8291SOL    HW236507   0.446   4.262   2.516  0.2665  0.6521 -0.0419
 8292SOL     OW36508   2.725   1.229   1.322 -0.7686 -0.3982 -0.0984
 8292SOL    HW136509   2.630   1.245   1.320 -1.1951 -3.1016 -0.6873
 8292SOL    HW236510   2.749   1.269   1.238 -0.5374  0.2992  0.2978
 8293SOL     OW36511   4.198   1.061  17.242  0.0085  0.3286  0.1924
 8293SOL    HW136512   4.225   1.059  17.151  0.8515 -1.7369  0.4863
 8293SOL    HW236513   4.258   1.123  17.284  1.0484  1.3499 -2.7959
 8294SOL     OW36514   2.943   0.741   7.555 -0.4019 -0.4695 -0.0548
 8294SOL    HW136515   2.981   0.675   7.497  0.4541 -0.2866  0.3016
 8294SOL    HW236516   2.852   0.713   7.567 -0.3165  0.0093  1.6587
 8295SOL     OW36517   4.095   3.934   8.280  0.4612 -0.0129  0.2872
 8295SOL    HW136518   4.046   3.897   8.354 -0.3915  2.5222  0.9907
 8295SOL    HW236519   4.037   4.003   8.251  0.1784  0.2559  1.5010
 8296SOL     OW36520   1.608   3.979   6.307 -0.0053 -1.0451  0.0909
 8296SOL    HW136521   1.678   4.010   6.250 -0.7753  0.2758 -0.1401
 8296SOL    HW236522   1.535   4.037   6.286 -0.7844 -1.1940  2.4009
 8297SOL     OW36523   2.931   3.703  16.098  0.2774  0.5689  0.4140
 8297SOL    HW136524   2.866   3.728  16.033 -0.4034  0.1504  0.9248
 8297SOL    HW236525   2.893   3.735  16.180  0.3468  0.6140  0.4284
 8298SOL     OW36526   4.541   0.922   8.149  0.5824  0.0377  0.3432
 8298SOL    HW136527   4.455   0.961   8.134 -0.7069 -2.9588 -0.1839
 8298SOL    HW236528   4.532   0.840   8.100  0.9682 -0.9591  1.9286
 8299SOL     OW36529   1.030   3.126   8.683 -0.0619 -0.4486 -0.3423
 8299SOL    HW136530   1.002   3.190   8.748  0.5639 -1.6569  1.1168
 8299SOL    HW236531   1.122   3.142   8.706  0.2149 -2.2208 -0.2518
 8300SOL     OW36532   0.226   3.645   6.423  0.1473 -0.5083  0.1031
 8300SOL    HW136533   0.233   3.598   6.506  1.5382 -0.3809  0.0440
 8300SOL    HW236534   0.160   3.593   6.377 -1.5950 -0.7301  2.7870
 8301SOL     OW36535   0.584   0.129   1.634 -0.0161 -0.4593  0.2427
 8301SOL    HW136536   0.571   0.078   1.554  1.9396 -0.4408 -0.0807
 8301SOL    HW236537   0.673   0.105   1.660  1.0002  1.1046 -1.7772
 8302SOL     OW36538   0.920   2.263   2.983 -0.0575  0.4497  0.0568
 8302SOL    HW136539   0.945   2.173   2.963 -0.1398  0.2602  0.8333
 8302SOL    HW236540   0.839   2.266   2.932  0.0464  1.1667 -0.0642
 8303SOL     OW36541   3.264   3.022   2.495  0.7137 -0.3137  0.2082
 8303SOL    HW136542   3.177   3.061   2.503 -0.1190 -1.6103 -2.4787
 8303SOL    HW236543   3.244   2.954   2.431  0.0597 -1.4415  1.6252
 8304SOL     OW36544   3.259   2.364   3.427  0.1455  0.0498 -0.2485
 8304SOL    HW136545   3.287   2.283   3.470  1.4114  0.9429  0.5821
 8304SOL    HW236546   3.205   2.335   3.353 -0.1561  1.5543 -0.6243
 8305SOL     OW36547   1.087   1.300   1.195  0.2324 -0.1605 -0.4322
 8305SOL    HW136548   1.058   1.262   1.278  1.1352 -1.4048 -0.7059
 8305SOL    HW236549   1.041   1.263   1.120 -0.0686  0.9525 -0.7971
 8306SOL     OW36550   2.385   3.253  11.386  0.6513  0.2555 -0.4183
 8306SOL    HW136551   2.435   3.179  11.351 -2.2733 -1.4112 -1.0506
 8306SOL    HW236552   2.456   3.317  11.380  1.4024 -0.6698 -1.3293
 8307SOL     OW36553   1.663   0.613   5.175 -0.0561 -0.8497 -0.7676
 8307SOL    HW136554   1.667   0.708   5.173  1.1404 -0.8736  0.7868
 8307SOL    HW236555   1.569   0.597   5.184  0.4645 -3.9125 -0.6915
 8308SOL     OW36556   0.767   2.203   7.152  0.5409  0.4933  0.7899
 8308SOL    HW136557   0.711   2.150   7.209 -1.0090  0.5964 -0.6193
 8308SOL    HW236558   0.709   2.227   7.079  1.3648 -1.3716 -0.4519
 8309SOL     OW36559   0.148   3.499   2.402 -0.0210  0.2936  0.3654
 8309SOL    HW136560   0.187   3.451   2.329  0.9598  0.5561  0.7175
 8309SOL    HW236561   0.192   3.584   2.399 -2.7886  1.7549  1.3129
 8310SOL     OW36562   0.434   3.156  10.385 -0.5080 -0.2486  0.3659
 8310SOL    HW136563   0.506   3.217  10.400  0.2848 -1.2484  0.5649
 8310SOL    HW236564   0.415   3.132  10.476 -0.2551 -0.2819  0.4096
 8311SOL     OW36565   4.227   3.655   7.859  0.4948 -0.2753  0.6181
 8311SOL    HW136566   4.241   3.721   7.927  2.7164  0.6922 -0.7780
 8311SOL    HW236567   4.176   3.593   7.911  0.3155 -0.6698 -0.0255
 8312SOL     OW36568   1.389   4.268   8.568  0.2260 -0.1797 -0.0367
 8312SOL    HW136569   1.354   4.357   8.561  0.9772  0.0024 -1.4848
 8312SOL    HW236570   1.409   4.265   8.662 -1.6227  0.9663  0.4026
 8313SOL     OW36571   0.838   1.644   6.587 -0.5075 -0.0450  0.1145
 8313SOL    HW136572   0.871   1.611   6.670 -0.7645 -0.4558  0.0554
 8313SOL    HW236573   0.870   1.734   6.598 -1.7742  0.4917 -0.5685
 8314SOL     OW36574   1.487   3.130   7.070 -0.1357  0.1660  0.3321
 8314SOL    HW136575   1.514   3.218   7.095 -2.3980  1.2422 -0.9809
 8314SOL    HW236576   1.534   3.076   7.133 -0.9087 -1.3236 -0.3599
 8315SOL     OW36577   3.733   3.135   6.319  0.1288  0.4532 -0.4716
 8315SOL    HW136578   3.699   3.165   6.235  1.5271  0.4302 -1.0463
 8315SOL    HW236579   3.712   3.041   6.317 -0.0402  0.5154 -1.5114
 8316SOL     OW36580   3.106   0.757   8.250  0.1903 -0.8315  0.3736
 8316SOL    HW136581   3.077   0.799   8.169 -1.2526  0.9650  1.8222
 8316SOL    HW236582   3.124   0.843   8.288 -0.2069 -0.6641  0.1793
 8317SOL     OW36583   4.273   2.740  11.114 -0.1961 -0.1367  0.1119
 8317SOL    HW136584   4.261   2.697  11.029  2.4716  0.7912 -0.7473
 8317SOL    HW236585   4.253   2.661  11.164 -0.7130  0.5945  1.0596
 8318SOL     OW36586   4.029   1.945   3.152  0.3698  0.4105 -0.2755
 8318SOL    HW136587   3.943   1.979   3.178  0.0079 -1.0192  0.4184
 8318SOL    HW236588   3.995   1.855   3.149 -0.4621  0.7457 -0.8739
 8319SOL     OW36589   3.661   0.986  15.068 -0.4282 -0.4617 -0.1119
 8319SOL    HW136590   3.726   1.003  15.000 -0.1955 -0.7838  0.0317
 8319SOL    HW236591   3.644   1.075  15.098 -1.5672 -1.0632  1.0137
 8320SOL     OW36592   3.047   1.545   2.960  0.1471 -0.2835 -0.0540
 8320SOL    HW136593   2.985   1.472   2.951  1.6269 -1.6321  0.7791
 8320SOL    HW236594   3.049   1.545   3.056 -1.0572  0.6529 -0.0232
 8321SOL     OW36595   2.350   3.530   2.067  0.0739  0.5233 -0.1497
 8321SOL    HW136596   2.340   3.436   2.080  0.3615 -0.0691 -4.2912
 8321SOL    HW236597   2.272   3.549   2.014  0.5328  0.2384 -0.9152
 8322SOL     OW36598   3.627   1.202   5.371 -0.2528  0.3104 -0.2289
 8322SOL    HW136599   3.691   1.166   5.309 -1.3623  1.4770 -2.0308
 8322SOL    HW236600   3.652   1.163   5.455  0.5757  1.4975  0.0669
 8323SOL     OW36601   4.579   0.314   5.730  0.1908 -0.0624  0.6187
 8323SOL    HW136602   4.529   0.233   5.741 -0.3727 -0.1109 -2.3164
 8323SOL    HW236603   4.587   0.318   5.635  0.5491 -0.8859  0.6084
 8324SOL     OW36604   0.802   2.504   6.166  0.3242  0.1736 -0.9309
 8324SOL    HW136605   0.798   2.599   6.178 -0.1198  0.0777 -0.3184
 8324SOL    HW236606   0.855   2.482   6.242 -0.8503 -0.6734 -0.3493
 8325SOL     OW36607   4.210   3.167   9.686  0.4311  0.2589  0.1994
 8325SOL    HW136608   4.143   3.167   9.618  1.6496 -0.2535 -1.0253
 8325SOL    HW236609   4.214   3.258   9.713  0.5106 -0.5608  3.0087
 8326SOL     OW36610   1.977   0.742   7.170  0.9424  0.3667 -0.0830
 8326SOL    HW136611   1.960   0.699   7.254  1.9119 -2.4519 -1.3382
 8326SOL    HW236612   2.052   0.690   7.142  0.0581 -1.9480  1.8681
 8327SOL     OW36613   2.583   2.238   4.131  0.2201 -0.1520 -0.1802
 8327SOL    HW136614   2.530   2.177   4.183 -1.0633  2.0498  1.0929
 8327SOL    HW236615   2.505   2.292   4.118  0.2108 -0.7783 -2.6532
 8328SOL     OW36616   1.679   3.926   3.072 -0.5955 -0.4446 -0.3027
 8328SOL    HW136617   1.730   3.958   3.146  1.4644  0.5829 -2.1837
 8328SOL    HW236618   1.655   3.838   3.103 -0.9026 -0.0272  0.6552
 8329SOL     OW36619   0.434   3.303   7.635 -0.6605 -0.3484  0.2782
 8329SOL    HW136620   0.385   3.383   7.655  1.2721  0.4616  1.8152
 8329SOL    HW236621   0.492   3.337   7.567 -2.1459  0.9021 -0.3622
 8330SOL     OW36622   2.822   0.441   6.495  0.0776  0.2111 -0.1949
 8330SOL    HW136623   2.909   0.446   6.456 -0.2712  0.9781 -0.8802
 8330SOL    HW236624   2.824   0.353   6.531  0.5711 -0.1903 -1.2193
 8331SOL     OW36625   2.051   3.574  13.009  0.7702  1.6120  0.3792
 8331SOL    HW136626   2.025   3.634  13.079  2.8079  1.1370  1.5345
 8331SOL    HW236627   2.143   3.565  13.032  0.8091  2.1438  0.4261
 8332SOL     OW36628   0.084   2.423   8.117  0.1837  0.1789 -0.0802
 8332SOL    HW136629   4.725   2.401   8.118 -0.4314  3.1569  4.0221
 8332SOL    HW236630   0.083   2.498   8.058 -0.2088 -0.8460 -1.3964
 8333SOL     OW36631   0.721   4.402  15.447 -0.2741 -0.3158  0.1387
 8333SOL    HW136632   0.672   4.459  15.505 -0.3019  0.4678 -0.6449
 8333SOL    HW236633   0.796   4.388  15.504 -0.0761  0.6013  0.1131
 8334SOL     OW36634   2.055   2.421  17.065  0.1373 -0.3437  0.2983
 8334SOL    HW136635   2.035   2.330  17.046  0.7770 -0.2191 -0.9532
 8334SOL    HW236636   2.137   2.422  17.016 -0.3088  0.5710 -0.4421
 8335SOL     OW36637   3.086   3.126  10.678  0.4287  0.6181 -0.0396
 8335SOL    HW136638   3.069   3.045  10.726  0.4847  0.4149 -0.3700
 8335SOL    HW236639   3.002   3.172  10.671 -0.3852 -0.6823  1.1753
 8336SOL     OW36640   0.397   3.371   5.739 -0.3924 -0.1489  0.0391
 8336SOL    HW136641   0.430   3.460   5.753 -1.0786  0.0233  0.5349
 8336SOL    HW236642   0.308   3.373   5.774 -0.2411 -0.1057  0.4181
 8337SOL     OW36643   0.733   0.685   5.729 -0.5593 -0.1079  0.0653
 8337SOL    HW136644   0.644   0.680   5.764 -1.1951  0.2573 -1.4833
 8337SOL    HW236645   0.778   0.678   5.813 -1.0243 -0.7270  0.2600
 8338SOL     OW36646   2.148   1.452  11.188 -0.0510  0.0139 -0.5770
 8338SOL    HW136647   2.235   1.432  11.153  1.4443  1.5636  2.2499
 8338SOL    HW236648   2.119   1.502  11.112  1.0182  2.8470  0.8419
 8339SOL     OW36649   1.707   1.319   0.689  0.0984  0.5553 -0.3870
 8339SOL    HW136650   1.772   1.256   0.722 -0.1587  1.2267  1.4101
 8339SOL    HW236651   1.689   1.368   0.770  1.9264  2.4674 -1.1343
 8340SOL     OW36652   1.983   1.371   6.736 -0.2458 -0.9117 -0.4734
 8340SOL    HW136653   2.061   1.402   6.780  0.0552 -0.7748 -1.0972
 8340SOL    HW236654   2.028   1.335   6.660  0.3459 -0.2766 -0.4218
 8341SOL     OW36655   1.334   1.075  13.385  0.7736  0.8626 -0.0526
 8341SOL    HW136656   1.287   1.134  13.326 -2.3045  0.9896  2.4891
 8341SOL    HW236657   1.341   1.129  13.463 -2.6088  1.5404 -0.1916
 8342SOL     OW36658   1.686   3.556   0.790  0.5390  0.2456 -0.2870
 8342SOL    HW136659   1.619   3.624   0.798 -1.0471 -1.0829 -2.4604
 8342SOL    HW236660   1.641   3.482   0.832 -0.1181  1.4348  1.1277
 8343SOL     OW36661   3.401   0.562   2.999  0.0308  0.3423  0.6488
 8343SOL    HW136662   3.322   0.540   2.949  1.5601 -0.1252 -1.5932
 8343SOL    HW236663   3.385   0.546   3.092 -2.1927 -0.0869  0.2058
 8344SOL     OW36664   1.537   4.318   7.801 -0.1598  0.1022  1.0126
 8344SOL    HW136665   1.622   4.360   7.795 -0.9877  1.6857  0.3578
 8344SOL    HW236666   1.497   4.354   7.722 -0.4992  2.1445  2.1084
 8345SOL     OW36667   2.087   1.433   6.101 -0.8057  0.1790 -0.8314
 8345SOL    HW136668   2.027   1.438   6.175  0.1153 -1.3363  0.0142
 8345SOL    HW236669   2.111   1.526   6.098  1.3212 -0.2940  2.1674
 8346SOL     OW36670   4.485   4.061   5.644 -0.4569 -0.1134 -0.1386
 8346SOL    HW136671   4.453   3.976   5.675 -0.7333  0.0980  0.1527
 8346SOL    HW236672   4.508   4.112   5.722 -2.1211 -1.4380  1.1986
 8347SOL     OW36673   1.449   2.041  17.429 -0.0609 -0.6150  0.0220
 8347SOL    HW136674   1.424   2.123  17.385 -0.5522 -0.5772  0.3693
 8347SOL    HW236675   1.419   2.074  17.514  1.6360 -0.6262  0.6165
 8348SOL     OW36676   1.506   2.836  15.649 -0.7591 -0.2327  0.0053
 8348SOL    HW136677   1.452   2.773  15.697  1.3823 -1.7433  0.4063
 8348SOL    HW236678   1.484   2.924  15.680 -0.1453 -0.8772  2.2693
 8349SOL     OW36679   3.778   3.272   8.822 -0.1198 -0.7112 -0.2884
 8349SOL    HW136680   3.785   3.321   8.740 -0.4926  0.0236  0.1187
 8349SOL    HW236681   3.821   3.337   8.878 -0.6233 -0.3032 -0.3801
 8350SOL     OW36682   2.641   0.893   7.965 -0.1452  0.1068 -0.0208
 8350SOL    HW136683   2.594   0.870   7.884 -0.8811  1.1668  0.1035
 8350SOL    HW236684   2.574   0.919   8.028  0.5916  0.0192  0.8029
 8351SOL     OW36685   4.380   0.648   6.631  0.3614 -0.2718 -0.4933
 8351SOL    HW136686   4.348   0.653   6.541 -0.3247 -2.3377 -0.3633
 8351SOL    HW236687   4.471   0.679   6.626 -0.9217  3.1783 -2.2958
 8352SOL     OW36688   1.098   0.768   2.809 -0.3724 -0.5134 -0.4033
 8352SOL    HW136689   1.016   0.740   2.851 -0.0552 -1.4664 -0.4100
 8352SOL    HW236690   1.147   0.791   2.888 -0.2634 -1.6528 -0.1330
 8353SOL     OW36691   2.283   2.420   0.183  0.1693  0.0660 -0.3795
 8353SOL    HW136692   2.295   2.349   0.120 -2.8309 -0.8155 -0.0003
 8353SOL    HW236693   2.324   2.495   0.140  1.3235  0.4947  1.4869
 8354SOL     OW36694   1.754   2.787   3.956 -0.5451 -0.1537  0.4144
 8354SOL    HW136695   1.680   2.818   3.904 -1.5806  0.0993  2.0067
 8354SOL    HW236696   1.708   2.787   4.041 -1.1716  0.7557  0.0741
 8355SOL     OW36697   1.732   0.459  14.549  0.2595 -0.3175  0.4547
 8355SOL    HW136698   1.655   0.402  14.548 -0.0533  0.0874  1.9135
 8355SOL    HW236699   1.698   0.537  14.505  2.2459  0.1399 -0.2787
 8356SOL     OW36700   3.169   1.670   4.669  0.0330 -0.3322  0.4890
 8356SOL    HW136701   3.119   1.662   4.588  4.4881 -3.0615 -1.9956
 8356SOL    HW236702   3.215   1.753   4.658 -0.4709 -0.1632 -0.3136
 8357SOL     OW36703   3.243   3.120  16.966  0.5655  0.9023  0.0200
 8357SOL    HW136704   3.202   3.206  16.976 -1.9367  0.0730 -3.0391
 8357SOL    HW236705   3.327   3.141  16.924  0.2842 -0.7857 -1.3794
 8358SOL     OW36706   3.093   0.800   6.438  1.0596 -0.0756 -0.0446
 8358SOL    HW136707   3.038   0.793   6.516  0.8064  1.3720 -0.1056
 8358SOL    HW236708   3.178   0.774   6.474  0.2697 -3.0531 -0.3246
 8359SOL     OW36709   3.151   1.711   2.763 -0.1139 -0.0030 -0.4616
 8359SOL    HW136710   3.105   1.638   2.721  0.5409 -0.4977 -0.3210
 8359SOL    HW236711   3.121   1.692   2.852 -0.0945  0.3972 -0.3714
 8360SOL     OW36712   2.051   1.387   2.893 -0.1029 -0.1875 -0.5200
 8360SOL    HW136713   2.042   1.385   2.989  1.1525 -1.7350 -0.4491
 8360SOL    HW236714   1.962   1.379   2.859  0.1665 -0.5256 -1.1389
 8361SOL     OW36715   3.420   1.783   7.526  0.0938  0.4710  0.5986
 8361SOL    HW136716   3.499   1.770   7.473 -0.0805  0.9941  0.2127
 8361SOL    HW236717   3.367   1.850   7.482 -0.1027  0.8220  1.3652
 8362SOL     OW36718   2.884   3.273   9.925 -0.5199  0.4503  0.0280
 8362SOL    HW136719   2.917   3.211   9.990 -0.0045  0.1422 -0.5272
 8362SOL    HW236720   2.892   3.230   9.840 -2.5333  2.1031 -0.9965
 8363SOL     OW36721   2.520   2.591   3.778 -0.2219  0.1938  0.4413
 8363SOL    HW136722   2.505   2.654   3.708 -2.1456 -2.8679 -1.8894
 8363SOL    HW236723   2.615   2.593   3.780 -0.1714 -1.8949 -0.3314
 8364SOL     OW36724   2.009   4.717   3.150 -0.0464 -0.6456  0.1216
 8364SOL    HW136725   2.063   4.646   3.116  1.3367  1.4268 -1.9849
 8364SOL    HW236726   2.068   0.019   3.217 -0.1047  1.2947 -0.8841
 8365SOL     OW36727   0.017   0.967  17.475  0.2398 -0.5589 -0.9948
 8365SOL    HW136728   4.665   0.945  17.440  0.2192 -1.2907 -0.4747
 8365SOL    HW236729   0.002   0.998  17.564  0.7734 -0.8009 -0.8165
 8366SOL     OW36730   2.909   0.775   1.802 -0.2950  0.5264  0.3754
 8366SOL    HW136731   2.886   0.866   1.818 -1.1960 -0.1285  2.6710
 8366SOL    HW236732   2.847   0.748   1.734 -0.4357  1.2450  0.2221
 8367SOL     OW36733   2.818   4.281   0.707  0.1711  0.6512  0.0155
 8367SOL    HW136734   2.856   4.318   0.628 -0.1989 -1.7610 -1.2928
 8367SOL    HW236735   2.878   4.326   0.767 -0.4954 -0.2058  1.3456
 8368SOL     OW36736   1.867   4.084   0.851  0.1107  0.4200  0.2784
 8368SOL    HW136737   1.835   4.053   0.766  0.1249  0.4682  0.2557
 8368SOL    HW236738   1.911   4.161   0.815  0.3675  0.3163  0.3710
 8369SOL     OW36739   0.153   1.466   3.953  0.3814  0.4230 -0.7271
 8369SOL    HW136740   0.072   1.509   3.923 -1.3515 -2.1376  0.2550
 8369SOL    HW236741   0.176   1.419   3.873 -0.0496 -0.6249 -0.2441
 8370SOL     OW36742   2.536   4.492  15.523 -0.8196  0.2436 -0.1912
 8370SOL    HW136743   2.593   4.417  15.507  0.5091  1.6665 -2.0219
 8370SOL    HW236744   2.463   4.479  15.461 -2.1281 -0.3980  1.4907
 8371SOL     OW36745   2.459   2.522   7.113  0.4843  0.6536 -0.1829
 8371SOL    HW136746   2.505   2.452   7.161  2.7407  2.1374 -0.1907
 8371SOL    HW236747   2.439   2.585   7.182 -1.3800  0.6273 -0.7207
 8372SOL     OW36748   3.216   4.656   7.305  0.1087 -0.4497  0.4420
 8372SOL    HW136749   3.277   4.727   7.325  1.2732 -1.3951  0.1969
 8372SOL    HW236750   3.259   4.641   7.221  0.8495  1.2744  0.5151
 8373SOL     OW36751   3.236   3.511  14.255 -0.5306  0.0311 -0.3820
 8373SOL    HW136752   3.231   3.502  14.160  0.5790  0.5757 -0.4969
 8373SOL    HW236753   3.150   3.542  14.282 -0.3844  0.8114 -0.7965
 8374SOL     OW36754   0.223   3.370   2.145  0.1476  0.2092 -0.0202
 8374SOL    HW136755   0.202   3.305   2.077 -1.2767  0.4099  0.2328
 8374SOL    HW236756   0.236   3.432   2.073  3.3170 -0.7465 -0.2568
 8375SOL     OW36757   0.477   2.701   9.448 -0.0426 -0.6268  0.5178
 8375SOL    HW136758   0.484   2.629   9.385  0.6172 -1.6355  1.7290
 8375SOL    HW236759   0.427   2.756   9.388 -0.3192  0.1887  1.4998
 8376SOL     OW36760   4.220   1.332   2.062  0.5617  0.2819  0.0938
 8376SOL    HW136761   4.152   1.361   2.122 -1.5594 -2.5528 -0.9657
 8376SOL    HW236762   4.164   1.334   1.984  0.8606 -0.5171 -0.1423
 8377SOL     OW36763   0.500   3.088   7.771 -0.3128 -0.4664  0.1857
 8377SOL    HW136764   0.467   3.167   7.729  1.0921  0.6431  1.1614
 8377SOL    HW236765   0.526   3.120   7.857  2.4726  1.0056 -1.1929
 8378SOL     OW36766   1.520   2.211   2.829  0.1962  0.4175 -0.0397
 8378SOL    HW136767   1.610   2.234   2.856  0.1033  0.3796  0.3051
 8378SOL    HW236768   1.486   2.287   2.782  1.2767  0.1151 -1.3106
 8379SOL     OW36769   2.514   2.971   2.370  0.3651 -0.1013  0.0496
 8379SOL    HW136770   2.449   2.972   2.441  0.7561 -1.5013  0.4201
 8379SOL    HW236771   2.587   3.021   2.406 -1.3040  2.0535  0.5063
 8380SOL     OW36772   2.614   4.514   8.863  0.1648  0.3728  0.4977
 8380SOL    HW136773   2.686   4.542   8.919  1.1348 -0.3067 -0.4124
 8380SOL    HW236774   2.624   4.565   8.783 -1.7295  0.3257  0.2249
 8381SOL     OW36775   3.208   2.645   3.294  0.1024  0.4013 -0.1298
 8381SOL    HW136776   3.302   2.628   3.297  0.0660 -0.0307 -1.2483
 8381SOL    HW236777   3.176   2.576   3.352 -2.8890  1.1835 -0.8416
 8382SOL     OW36778   4.078   0.435   3.168  0.1830 -0.1230 -0.0737
 8382SOL    HW136779   4.151   0.378   3.195 -0.2413 -0.8818 -0.5080
 8382SOL    HW236780   4.082   0.425   3.073  1.3866 -1.3903  0.0995
 8383SOL     OW36781   0.722   1.715   5.701 -0.2305  0.1029  0.1727
 8383SOL    HW136782   0.683   1.636   5.739 -0.4038  0.0923 -0.0267
 8383SOL    HW236783   0.678   1.717   5.616  1.1053 -0.4536 -0.5322
 8384SOL     OW36784   3.573   2.257   4.339 -0.0511 -0.0838  0.3906
 8384SOL    HW136785   3.481   2.234   4.352 -0.4434  2.5081  2.2423
 8384SOL    HW236786   3.604   2.202   4.411  0.8445 -0.7803 -0.5281
 8385SOL     OW36787   2.934   4.144   4.111  0.2625 -0.5199 -0.5415
 8385SOL    HW136788   2.870   4.209   4.142 -1.8407 -3.1401  0.6759
 8385SOL    HW236789   3.015   4.175   4.151 -1.7040  2.0375  1.5008
 8386SOL     OW36790   4.039   2.284   3.379 -0.3518  0.0670 -0.3515
 8386SOL    HW136791   4.103   2.220   3.347  0.9620  1.1733  0.0616
 8386SOL    HW236792   3.982   2.299   3.303  0.2680  1.7107 -0.4937
 8387SOL     OW36793   0.703   1.518   5.003  0.1567 -0.0075  0.4744
 8387SOL    HW136794   0.788   1.501   4.962 -0.1200  1.6596 -0.7805
 8387SOL    HW236795   0.638   1.465   4.957  0.1309 -0.1448  0.6695
 8388SOL     OW36796   0.139   2.999   3.265 -0.4694  0.0490 -0.2080
 8388SOL    HW136797   0.071   2.946   3.225  0.3907 -0.3034 -1.2152
 8388SOL    HW236798   0.083   3.066   3.303 -1.8923  0.1754 -2.5859
 8389SOL     OW36799   1.844   0.004  12.326  0.6196 -0.3101 -0.5012
 8389SOL    HW136800   1.808   0.080  12.371 -0.1273  0.2748 -2.1057
 8389SOL    HW236801   1.771   4.709  12.271  0.0416  1.0166 -0.4407
 8390SOL     OW36802   0.828   3.309   9.788  0.6492  0.4088 -0.3114
 8390SOL    HW136803   0.868   3.346   9.867  0.8035 -0.5161  0.0352
 8390SOL    HW236804   0.739   3.298   9.819  0.6911 -0.0947 -0.3740
 8391SOL     OW36805   1.526   4.310   5.901 -0.7339  0.2941  0.6410
 8391SOL    HW136806   1.474   4.379   5.859  1.1178  1.7951  0.7788
 8391SOL    HW236807   1.499   4.231   5.854  3.1462 -0.0405 -1.0387
 8392SOL     OW36808   4.451   2.467   8.702  0.0402  0.4329  0.2231
 8392SOL    HW136809   4.515   2.434   8.765  2.2426  0.2069 -2.1137
 8392SOL    HW236810   4.505   2.518   8.641 -0.5218  0.5000 -0.2237
 8393SOL     OW36811   2.223   0.554  16.436 -0.7272 -0.1256 -0.0248
 8393SOL    HW136812   2.158   0.610  16.479  0.0608  1.5832 -1.0382
 8393SOL    HW236813   2.306   0.587  16.470  0.6637 -0.7270 -2.8279
 8394SOL     OW36814   2.851   1.699   8.091  0.3301 -0.1122  0.0867
 8394SOL    HW136815   2.820   1.721   8.003 -0.0520  0.2505  0.3124
 8394SOL    HW236816   2.936   1.668   8.061  0.1757 -0.6674  0.2229
 8395SOL     OW36817   2.426   4.694   0.826 -0.4989  1.3335 -0.4953
 8395SOL    HW136818   2.479   4.710   0.905  1.3428 -1.4907 -1.1821
 8395SOL    HW236819   2.347   4.684   0.879 -0.6403 -0.8314 -1.1541
 8396SOL     OW36820   0.007   0.926  14.255 -0.1669 -0.0066 -0.3258
 8396SOL    HW136821   0.087   0.877  14.274 -1.7463 -2.3318  0.2720
 8396SOL    HW236822   0.035   1.010  14.292  1.1073 -0.8239  0.5477
 8397SOL     OW36823   4.654   1.492   0.871  0.0249 -0.3068 -0.4955
 8397SOL    HW136824   4.646   1.442   0.952  2.3420  3.2246  1.9245
 8397SOL    HW236825   4.656   1.428   0.800  0.1663 -0.7226 -0.1168
 8398SOL     OW36826   3.369   1.020  11.120 -0.0693  0.3950  0.2419
 8398SOL    HW136827   3.338   1.044  11.032 -0.9955 -0.4365  0.3349
 8398SOL    HW236828   3.464   1.022  11.108 -0.1214 -1.4329 -0.4514
 8399SOL     OW36829   3.850   1.603   2.864 -1.1764 -0.0626  0.1094
 8399SOL    HW136830   3.908   1.575   2.935 -3.2346  1.1564  2.2902
 8399SOL    HW236831   3.876   1.695   2.858 -2.0767  0.1142 -1.0456
 8400SOL     OW36832   3.682   0.750   7.561  0.1690 -0.2304  0.1465
 8400SOL    HW136833   3.655   0.807   7.633  3.1096  2.1522 -0.6479
 8400SOL    HW236834   3.753   0.807   7.532 -0.3160  1.0068  1.3585
 8401SOL     OW36835   2.075   3.300   9.493 -0.1999  0.4500  0.3261
 8401SOL    HW136836   2.001   3.243   9.513 -0.2819 -0.3502 -2.2224
 8401SOL    HW236837   2.147   3.253   9.536  1.8672  3.0134 -0.3441
 8402SOL     OW36838   2.178   2.087   2.411  0.2834  0.0700 -0.0612
 8402SOL    HW136839   2.140   2.132   2.486 -0.6365  0.8659 -1.0113
 8402SOL    HW236840   2.194   1.999   2.446 -4.5414 -0.9393 -0.4694
 8403SOL     OW36841   1.160   1.634  12.931 -0.0855  0.1547  0.1814
 8403SOL    HW136842   1.157   1.552  12.881  0.9732 -0.8901  1.8572
 8403SOL    HW236843   1.156   1.698  12.860  2.5699 -1.2191 -1.1903
 8404SOL     OW36844   2.291   3.598   5.505 -0.1888 -0.2421 -0.1978
 8404SOL    HW136845   2.224   3.664   5.520 -0.7810 -0.1700 -3.1488
 8404SOL    HW236846   2.290   3.584   5.410 -0.7921 -1.6215  0.0140
 8405SOL     OW36847   0.542   0.770   8.576 -0.0792 -0.2325  0.3773
 8405SOL    HW136848   0.578   0.747   8.661 -0.9754  1.3590  1.1641
 8405SOL    HW236849   0.616   0.760   8.515  1.2924 -1.5848  2.2685
 8406SOL     OW36850   0.882   0.704   2.253  0.4531 -0.5442  0.0276
 8406SOL    HW136851   0.826   0.775   2.222  1.4357 -0.6002 -1.8554
 8406SOL    HW236852   0.913   0.659   2.175 -0.8492 -2.0080  0.3753
 8407SOL     OW36853   4.479   0.720   4.865 -0.0780  0.3076 -0.1337
 8407SOL    HW136854   4.476   0.791   4.801  0.5664  1.5171  1.1594
 8407SOL    HW236855   4.422   0.654   4.827  0.0426  0.2916 -0.2860
 8408SOL     OW36856   4.149   1.243   8.309  0.7114 -0.6815  0.1612
 8408SOL    HW136857   4.101   1.189   8.372 -2.7256  0.6114 -1.3181
 8408SOL    HW236858   4.217   1.281   8.364 -0.1113  1.0956 -0.0412
 8409SOL     OW36859   0.480   3.226   4.601  0.3234 -0.4847  0.2278
 8409SOL    HW136860   0.504   3.306   4.555 -0.5206  0.1386  0.8776
 8409SOL    HW236861   0.420   3.267   4.663  2.3718 -1.1982  2.6891
 8410SOL     OW36862   0.017   3.986  16.457  0.0640 -0.3797 -0.0674
 8410SOL    HW136863   0.093   3.988  16.515  0.6385 -1.0994 -0.8189
 8410SOL    HW236864   0.056   3.932  16.389  1.6308  0.7524 -0.0609
 8411SOL     OW36865   3.916   3.208   6.731 -0.6867 -0.2207  0.4939
 8411SOL    HW136866   3.826   3.183   6.750 -1.0727  0.4947 -0.4386
 8411SOL    HW236867   3.968   3.202   6.811 -1.0349 -1.4468  0.6205
 8412SOL     OW36868   2.412   3.685   3.162  0.1932 -0.0992 -0.0387
 8412SOL    HW136869   2.321   3.657   3.172 -0.1865  0.8608 -0.7978
 8412SOL    HW236870   2.423   3.663   3.070  0.1536 -0.9724  0.1691
 8413SOL     OW36871   4.036   1.248   4.461  0.0062 -0.2586 -0.2949
 8413SOL    HW136872   3.976   1.229   4.533  0.3509  0.7181  0.2500
 8413SOL    HW236873   4.021   1.172   4.405 -2.0679 -0.1735  0.1734
 8414SOL     OW36874   2.790   0.275   7.091 -0.6399  0.0925  0.6775
 8414SOL    HW136875   2.844   0.352   7.072  1.2614 -1.5019 -0.3858
 8414SOL    HW236876   2.832   0.254   7.174  1.8427 -0.4741 -0.7472
 8415SOL     OW36877   3.060   0.547   4.444  0.0829 -0.6231 -0.5265
 8415SOL    HW136878   3.055   0.493   4.365  1.0471 -1.5748  0.0721
 8415SOL    HW236879   2.980   0.599   4.430  1.6434  1.4087 -1.7845
 8416SOL     OW36880   3.339   0.168   4.544  0.0721  0.2489  0.2554
 8416SOL    HW136881   3.282   0.239   4.573  0.9755  2.3787 -3.1241
 8416SOL    HW236882   3.426   0.209   4.539  0.5417 -0.5247  2.0450
 8417SOL     OW36883   3.812   1.074   5.196  0.2516 -0.4491  0.0763
 8417SOL    HW136884   3.764   1.103   5.119 -0.0382 -1.2712 -0.0460
 8417SOL    HW236885   3.902   1.099   5.175  0.3892  1.0239  2.3918
 8418SOL     OW36886   4.178   1.296  11.563  0.2217 -0.1360  0.0549
 8418SOL    HW136887   4.175   1.229  11.495 -1.4321  2.1483 -2.1644
 8418SOL    HW236888   4.123   1.263  11.633 -0.0875 -0.1731 -0.2031
 8419SOL     OW36889   0.632   1.398  16.301  0.7188  0.6363 -0.2111
 8419SOL    HW136890   0.678   1.341  16.362  0.9605  1.2123  0.1411
 8419SOL    HW236891   0.544   1.360  16.307  1.4212 -0.6730  1.6180
 8420SOL     OW36892   3.194   1.231   9.002 -0.8967  0.1466  0.4139
 8420SOL    HW136893   3.106   1.266   8.992 -1.0540  0.4464  2.7892
 8420SOL    HW236894   3.255   1.304   8.993  1.4150 -2.0419 -1.6543
 8421SOL     OW36895   0.554   4.145   4.284  0.0452 -0.1543  0.0356
 8421SOL    HW136896   0.602   4.066   4.258  1.4937  0.9110 -0.5708
 8421SOL    HW236897   0.506   4.108   4.358  0.2481  0.7111  0.6022
 8422SOL     OW36898   4.665   1.731   8.721 -0.0486 -0.5417  0.1744
 8422SOL    HW136899   4.656   1.735   8.816 -0.2884  0.9619  0.0804
 8422SOL    HW236900   0.020   1.757   8.698  0.6485 -1.6513  1.6530
 8423SOL     OW36901   0.141   2.450   4.278 -0.2710  0.0391  1.3433
 8423SOL    HW136902   0.099   2.442   4.192 -1.6642 -1.1043  2.1348
 8423SOL    HW236903   0.067   2.476   4.331  0.8938  2.0554  1.9710
 8424SOL     OW36904   4.579   2.895   2.869 -0.7914 -0.0779 -0.3454
 8424SOL    HW136905   4.502   2.950   2.885  1.2567  2.6205  0.3006
 8424SOL    HW236906   4.531   2.815   2.848  0.6451 -0.3381 -2.6166
 8425SOL     OW36907   1.199   1.996   7.222  0.3582 -0.1928  0.4410
 8425SOL    HW136908   1.121   1.987   7.167  0.8130  2.0583 -0.5990
 8425SOL    HW236909   1.238   1.914   7.194 -1.0748 -0.9578  0.6842
 8426SOL     OW36910   3.430   0.269   2.910  0.0237  0.1338  0.0192
 8426SOL    HW136911   3.511   0.293   2.865  0.6273 -1.1496  0.4353
 8426SOL    HW236912   3.429   0.316   2.993 -1.5056  1.2706 -0.6439
 8427SOL     OW36913   1.302   2.160  11.453 -0.2318 -0.3444 -0.3450
 8427SOL    HW136914   1.363   2.100  11.411  3.3276  2.8563  0.1927
 8427SOL    HW236915   1.235   2.172  11.386 -0.8371 -1.6431  0.0341
 8428SOL     OW36916   2.241   0.402   7.107  0.0369 -0.4883 -0.2324
 8428SOL    HW136917   2.242   0.496   7.086 -3.2803  0.1944  2.7681
 8428SOL    HW236918   2.185   0.371   7.037 -0.7429  0.0307  0.1618
 8429SOL     OW36919   2.264   4.560   3.880  0.6195  0.3291  0.4384
 8429SOL    HW136920   2.181   4.606   3.865  0.8142 -0.3501 -2.6383
 8429SOL    HW236921   2.319   4.628   3.842 -0.9493  0.2850 -1.8711
 8430SOL     OW36922   1.119   3.438   6.399  0.4695 -0.1594 -0.0038
 8430SOL    HW136923   1.175   3.504   6.439 -0.0909 -0.6416  1.5536
 8430SOL    HW236924   1.039   3.489   6.385 -0.7798 -2.4802 -1.3238
 8431SOL     OW36925   2.330   1.867   1.845 -0.8552 -0.4169 -0.0746
 8431SOL    HW136926   2.283   1.902   1.769 -0.7976 -1.0900 -0.4193
 8431SOL    HW236927   2.327   1.940   1.906 -1.7639  0.5067 -1.2314
 8432SOL     OW36928   2.849   0.007  13.372  0.3396  0.5752  0.5040
 8432SOL    HW136929   2.862   0.009  13.466 -2.4409  0.6470  0.8745
 8432SOL    HW236930   2.922   0.061  13.342  0.1248 -0.0325 -1.1553
 8433SOL     OW36931   2.201   4.562   2.157 -0.4588 -0.1719 -0.1828
 8433SOL    HW136932   2.126   4.593   2.107 -0.2537  1.0063  0.2342
 8433SOL    HW236933   2.278   4.588   2.107 -0.2079 -1.4051 -0.4327
 8434SOL     OW36934   2.162   0.804   6.299  0.9778  0.3004  0.4143
 8434SOL    HW136935   2.138   0.714   6.322  1.1261  0.4863  1.3027
 8434SOL    HW236936   2.190   0.837   6.384 -0.6235  3.5893 -0.3300
 8435SOL     OW36937   2.684   3.780   9.704  0.5200  0.3369 -0.0368
 8435SOL    HW136938   2.681   3.866   9.746 -0.1921  1.2950 -2.0864
 8435SOL    HW236939   2.730   3.804   9.624  1.1558 -0.8576 -0.0297
 8436SOL     OW36940   2.965   1.645   7.240 -0.7816 -0.0962  0.0804
 8436SOL    HW136941   3.038   1.612   7.292 -0.0826  2.6824  0.8674
 8436SOL    HW236942   3.006   1.685   7.163 -0.1552  0.5294  0.7434
 8437SOL     OW36943   0.072   3.293   9.677 -0.1731  0.7396  0.1597
 8437SOL    HW136944   0.010   3.363   9.696 -2.4391 -1.5408  1.1705
 8437SOL    HW236945   0.098   3.259   9.763 -1.2908 -0.4574  0.0179
 8438SOL     OW36946   2.058   3.634   5.914  0.0990 -0.5531 -0.1565
 8438SOL    HW136947   2.103   3.662   5.993  0.8337 -1.1757 -0.3556
 8438SOL    HW236948   2.129   3.582   5.877 -0.2546 -0.9421 -0.2935
 8439SOL     OW36949   2.733   3.442   5.455  0.6595  0.1518  0.4210
 8439SOL    HW136950   2.712   3.439   5.362 -0.1826  2.1692  0.5500
 8439SOL    HW236951   2.645   3.426   5.487  0.8744 -1.1439  0.3714
 8440SOL     OW36952   1.175   1.863   6.573  0.4681  0.1924  0.2335
 8440SOL    HW136953   1.088   1.864   6.614  0.7985  1.4974  0.9080
 8440SOL    HW236954   1.212   1.937   6.622 -0.8483 -0.4865  2.2552
 8441SOL     OW36955   1.091   3.309   5.898  0.4442  0.4849  0.2434
 8441SOL    HW136956   1.000   3.339   5.898  0.4325  0.3803  3.4040
 8441SOL    HW236957   1.120   3.321   5.988 -2.3077  3.4557  0.7437
 8442SOL     OW36958   3.820   2.312   9.541 -0.0167  0.0562 -0.1284
 8442SOL    HW136959   3.732   2.275   9.538  0.8919 -1.9661 -2.1721
 8442SOL    HW236960   3.875   2.250   9.492 -0.8418 -0.0864 -0.8595
 8443SOL     OW36961   3.878   3.361   8.586 -0.2690  0.2311  0.2719
 8443SOL    HW136962   3.946   3.420   8.556 -1.0576  0.9628 -0.0497
 8443SOL    HW236963   3.807   3.356   8.523 -0.9926 -0.8053  1.1641
 8444SOL     OW36964   3.586   1.627  17.390  0.0653  0.3326 -0.2062
 8444SOL    HW136965   3.567   1.633  17.296 -1.3787  1.0964  0.1274
 8444SOL    HW236966   3.542   1.546  17.416 -1.9966  1.1254 -1.1658
 8445SOL     OW36967   0.063   2.519  14.963  0.4455 -0.3305 -0.6054
 8445SOL    HW136968   0.127   2.457  14.998  0.0364 -1.0117 -1.0387
 8445SOL    HW236969   0.116   2.598  14.971  0.6751 -0.3692 -1.7599
 8446SOL     OW36970   2.508   4.473   4.495  0.3904  0.3798  0.5841
 8446SOL    HW136971   2.495   4.466   4.589 -1.6581  1.4346  0.3733
 8446SOL    HW236972   2.424   4.433   4.474 -0.2122  1.9331  0.0917
 8447SOL     OW36973   4.327   2.514   6.741  0.0280  0.1512  0.5761
 8447SOL    HW136974   4.310   2.595   6.789  0.0023 -0.1821  1.1293
 8447SOL    HW236975   4.271   2.522   6.664  0.7584  2.5117  0.2926
 8448SOL     OW36976   2.318   1.151   6.576  0.1422  0.2528  0.1931
 8448SOL    HW136977   2.258   1.170   6.649  0.3472  1.0572  0.1576
 8448SOL    HW236978   2.396   1.198   6.606 -0.0436  0.6335  0.0822
 8449SOL     OW36979   3.029   4.349  11.476 -0.0567 -0.2522 -0.3812
 8449SOL    HW136980   2.944   4.392  11.486  0.5977  0.0152  4.2131
 8449SOL    HW236981   3.036   4.357  11.381 -0.7821  2.6265 -0.2089
 8450SOL     OW36982   1.562   0.245   8.413  0.3745  0.4700  0.3636
 8450SOL    HW136983   1.531   0.158   8.390 -1.9480  1.9148 -1.9783
 8450SOL    HW236984   1.561   0.284   8.325 -1.0484  0.9615  0.5977
 8451SOL     OW36985   1.081   3.403   7.396 -0.5693  0.1628  0.3774
 8451SOL    HW136986   1.173   3.430   7.395 -1.1433  2.1214 -0.7526
 8451SOL    HW236987   1.098   3.332   7.458 -1.1773  1.3214  1.8733
 8452SOL     OW36988   2.333   2.140   1.931 -0.3083  0.1417  0.4021
 8452SOL    HW136989   2.411   2.192   1.951 -1.5120  2.2576 -0.4669
 8452SOL    HW236990   2.289   2.158   2.014  0.7510  0.0205  0.9959
 8453SOL     OW36991   0.190   2.559  14.133 -0.2706 -0.0969 -0.3821
 8453SOL    HW136992   0.173   2.471  14.167 -2.4087  1.1133  1.6618
 8453SOL    HW236993   0.142   2.558  14.050  0.0538  2.3178 -0.5964
 8454SOL     OW36994   2.673   2.020   8.938 -0.4836 -0.4669 -0.1720
 8454SOL    HW136995   2.589   1.984   8.966  0.3754 -2.3161  0.0265
 8454SOL    HW236996   2.712   2.041   9.023 -0.0116  0.1762 -0.5546
 8455SOL     OW36997   3.698   3.141   8.394  0.5689  0.0977  0.4909
 8455SOL    HW136998   3.609   3.138   8.431  1.5544 -1.8751  2.6586
 8455SOL    HW236999   3.744   3.077   8.448  0.2047  2.2169  3.3578
 8456SOL     OW37000   0.792   1.731  10.866 -0.5881  0.1237 -0.2655
 8456SOL    HW137001   0.756   1.764  10.784 -0.9627  1.4247  0.4245
 8456SOL    HW237002   0.779   1.636  10.861 -1.0619  0.0719  1.5786
 8457SOL     OW37003   0.557   1.508   3.846 -0.2058  0.6596 -0.1230
 8457SOL    HW137004   0.513   1.593   3.838  0.4352  0.9215 -0.8750
 8457SOL    HW237005   0.633   1.531   3.899 -0.5855  1.0151  0.2626
 8458SOL     OW37006   1.842   1.745  12.922 -0.3622 -0.0211  0.1951
 8458SOL    HW137007   1.884   1.820  12.964  0.0339 -0.2507  0.2152
 8458SOL    HW237008   1.862   1.677  12.987 -1.5720  0.0692  0.6597
 8459SOL     OW37009   4.473   1.185   9.320  0.3017 -0.1008 -0.0903
 8459SOL    HW137010   4.471   1.281   9.319  2.9172 -0.0544 -0.5039
 8459SOL    HW237011   4.438   1.170   9.232 -2.1163 -1.7126  1.1549
 8460SOL     OW37012   4.456   0.659   0.727 -0.4951  0.3966 -0.2211
 8460SOL    HW137013   4.484   0.634   0.814 -1.8407 -0.4429 -0.0322
 8460SOL    HW237014   4.403   0.733   0.759  2.2528  1.2869  2.2031
 8461SOL     OW37015   0.118   0.731  17.328  0.5180  0.0268  0.2212
 8461SOL    HW137016   0.089   0.785  17.402  0.3469 -0.5946  0.6131
 8461SOL    HW237017   0.178   0.792  17.286  0.2633  1.2077  1.5789
 8462SOL     OW37018   0.436   2.054  14.831 -0.5535 -0.1077 -0.3134
 8462SOL    HW137019   0.463   1.969  14.795 -2.0384 -0.2042 -1.2145
 8462SOL    HW237020   0.519   2.102  14.831  0.0832 -1.2307  1.4181
 8463SOL     OW37021   3.096   1.592   5.243  0.3904 -0.6147  0.2316
 8463SOL    HW137022   3.003   1.569   5.254  0.4626 -0.0669  2.1195
 8463SOL    HW237023   3.124   1.528   5.179 -2.1588  0.2173 -1.7011
 8464SOL     OW37024   3.972   0.308   5.725 -0.2274  0.2405 -0.0913
 8464SOL    HW137025   4.063   0.278   5.727 -0.1971  0.5282  2.0643
 8464SOL    HW237026   3.956   0.321   5.631  0.6610 -0.1620 -0.2962
 8465SOL     OW37027   2.404   3.351  12.822 -0.2018  0.0421  0.3091
 8465SOL    HW137028   2.473   3.376  12.761  1.7158 -0.2757  2.3508
 8465SOL    HW237029   2.343   3.424  12.820  0.0375  0.2667  1.3217
 8466SOL     OW37030   3.460   1.228   5.803 -0.6174  0.1546 -0.1966
 8466SOL    HW137031   3.427   1.211   5.714  2.3607  0.4142 -1.3617
 8466SOL    HW237032   3.380   1.228   5.855  0.9685 -1.4475  2.2195
 8467SOL     OW37033   0.086   2.127   5.535  0.0975 -0.0586 -0.1958
 8467SOL    HW137034   0.121   2.058   5.478 -1.1800  0.3070 -1.4163
 8467SOL    HW237035   0.172   2.163   5.557  1.3605 -1.5850 -2.5844
 8468SOL     OW37036   1.897   2.380   5.634 -0.0542  0.0417  0.2306
 8468SOL    HW137037   1.992   2.380   5.645 -0.1022  2.7588  0.5674
 8468SOL    HW237038   1.863   2.367   5.723 -0.4690 -0.7219 -0.0408
 8469SOL     OW37039   4.237   2.240   1.371  0.0911  0.2574  0.5696
 8469SOL    HW137040   4.233   2.233   1.466  1.6400  3.2822  0.8272
 8469SOL    HW237041   4.161   2.289   1.338  0.1633  0.3663  0.5654
 8470SOL     OW37042   0.759   1.908   2.993  0.1380  0.1094 -0.1097
 8470SOL    HW137043   0.751   1.812   2.990  0.9936  0.1541 -4.0120
 8470SOL    HW237044   0.689   1.939   2.936 -0.4204 -0.1795  0.4129
 8471SOL     OW37045   3.861   0.633   3.705  0.0612  0.1570 -0.2262
 8471SOL    HW137046   3.820   0.693   3.767 -0.9572  0.4879 -1.2338
 8471SOL    HW237047   3.879   0.558   3.762 -1.6408  0.5398  0.8146
 8472SOL     OW37048   0.109   2.448   4.771  0.3036 -0.3161  0.0644
 8472SOL    HW137049   0.092   2.385   4.702 -1.9086 -0.3014  0.5984
 8472SOL    HW237050   0.179   2.495   4.726  0.6647 -0.0542  0.8948
 8473SOL     OW37051   4.298   2.737   6.040 -0.1461 -0.1485  0.3448
 8473SOL    HW137052   4.266   2.774   6.123  2.0820  0.8804  0.7635
 8473SOL    HW237053   4.254   2.794   5.977 -0.8107 -0.5396  0.4553
 8474SOL     OW37054   1.325   3.388  12.036  0.6287  0.2041  0.6395
 8474SOL    HW137055   1.251   3.431  11.992  0.3390 -2.1676 -1.2241
 8474SOL    HW237056   1.334   3.296  12.010  0.9045  0.1860  0.7974
 8475SOL     OW37057   1.847   3.323   4.041 -0.3718  0.2456  0.8195
 8475SOL    HW137058   1.795   3.391   4.084  1.0167  0.9449  1.3847
 8475SOL    HW237059   1.936   3.340   4.072  0.6608 -1.9598 -0.9534
 8476SOL     OW37060   0.411   0.326  16.022  0.9747  0.4155  0.5894
 8476SOL    HW137061   0.437   0.409  15.983  0.5579 -0.0405 -0.6600
 8476SOL    HW237062   0.461   0.263  15.971  0.2999  0.3424  0.0144
 8477SOL     OW37063   2.090   4.145  12.603  0.1628  0.2095  0.2722
 8477SOL    HW137064   2.114   4.199  12.528 -2.4172  1.7838  0.5805
 8477SOL    HW237065   2.099   4.054  12.574 -0.5325  0.0630  0.5241
 8478SOL     OW37066   1.552   1.009   5.497  0.0109  0.0374  0.1100
 8478SOL    HW137067   1.630   1.011   5.442  0.4393 -1.7457  0.6519
 8478SOL    HW237068   1.505   1.090   5.477  0.3601  0.0503 -0.6448
 8479SOL     OW37069   0.442   2.654   1.993 -0.0711  0.0509  0.1812
 8479SOL    HW137070   0.400   2.570   1.973  0.5870 -0.4699  1.0236
 8479SOL    HW237071   0.522   2.621   2.033 -0.2465  0.4099  0.8245
 8480SOL     OW37072   1.984   1.030   9.970 -0.3059  0.2710  0.2413
 8480SOL    HW137073   2.033   1.054  10.048 -1.4199 -0.6700  1.2352
 8480SOL    HW237074   1.899   1.074   9.977  0.5183  1.5202  2.3521
 8481SOL     OW37075   3.412   1.384   7.413  0.2758 -0.0279  0.8293
 8481SOL    HW137076   3.407   1.337   7.496  2.7212 -1.1723  0.3072
 8481SOL    HW237077   3.475   1.325   7.373 -0.8768 -0.9970  0.4240
 8482SOL     OW37078   1.996   4.585  12.977  0.1512 -0.3509 -0.4135
 8482SOL    HW137079   2.031   4.603  13.064 -2.0213  0.9042  0.1966
 8482SOL    HW237080   2.025   4.665  12.933 -1.3799 -1.3061 -3.1569
 8483SOL     OW37081   1.990   1.179  10.702 -0.7695 -0.2101  0.1065
 8483SOL    HW137082   2.032   1.143  10.780  0.5983  0.0074 -0.5388
 8483SOL    HW237083   1.959   1.262  10.738  2.8480  0.9325  0.6294
 8484SOL     OW37084   0.049   0.393  12.553  0.6842  0.0333  0.6573
 8484SOL    HW137085   0.016   0.321  12.499  0.0192  1.1502 -0.4254
 8484SOL    HW237086   0.091   0.336  12.618 -0.3078  1.8745  2.9315
 8485SOL     OW37087   2.917   3.781  11.256  0.2527  0.3196 -0.7255
 8485SOL    HW137088   2.870   3.864  11.252 -2.8617 -1.5314 -2.3826
 8485SOL    HW237089   2.917   3.770  11.351 -0.9332  1.6019 -0.5637
 8486SOL     OW37090   2.890   1.561   4.982 -0.2565 -0.1188  0.8658
 8486SOL    HW137091   2.889   1.647   4.940  1.6780 -1.2665 -1.4337
 8486SOL    HW237092   2.822   1.566   5.050 -1.6545  3.2211 -0.7827
 8487SOL     OW37093   0.682   2.648   5.233 -0.0085 -0.3924 -0.3550
 8487SOL    HW137094   0.701   2.729   5.185  1.1178 -1.9152 -2.5320
 8487SOL    HW237095   0.637   2.595   5.167 -0.4181  0.3593 -0.6765
 8488SOL     OW37096   4.041   0.563   4.474 -0.4068  0.0991  0.3866
 8488SOL    HW137097   4.080   0.531   4.555 -0.8152  2.3504  1.4822
 8488SOL    HW237098   4.105   0.537   4.408 -1.6495 -1.0803 -0.3484
 8489SOL     OW37099   3.286   0.169  11.299 -0.0255 -0.2815 -0.8646
 8489SOL    HW137100   3.346   0.102  11.267 -1.3528 -1.6274 -0.5207
 8489SOL    HW237101   3.217   0.160  11.233  0.1592  1.4386 -1.3039
 8490SOL     OW37102   2.483   1.943   4.065 -0.1684  0.6390 -0.3634
 8490SOL    HW137103   2.558   1.998   4.041 -0.7465  1.2739 -0.6981
 8490SOL    HW237104   2.424   1.933   3.991  0.3102  0.6926 -0.7544
 8491SOL     OW37105   4.618   2.281   8.281  0.1802  0.3636  0.1703
 8491SOL    HW137106   4.707   2.297   8.314 -0.4483  0.8451  1.6756
 8491SOL    HW237107   4.582   2.257   8.366  1.5715 -2.1732  0.0291
 8492SOL     OW37108   3.511   0.227   6.014 -0.1906 -0.1525 -0.0429
 8492SOL    HW137109   3.558   0.180   5.945 -2.6012  1.5751 -2.8632
 8492SOL    HW237110   3.423   0.189   6.013 -1.3863  2.7087 -2.8937
 8493SOL     OW37111   1.422   0.542   5.247  0.3307 -0.2502 -0.0292
 8493SOL    HW137112   1.393   0.624   5.287 -0.6023  0.3555 -1.9402
 8493SOL    HW237113   1.341   0.490   5.245 -0.4620  0.8777  3.3064
 8494SOL     OW37114   4.075   3.393   2.619 -0.2467 -0.1177 -0.2204
 8494SOL    HW137115   4.006   3.362   2.678 -0.2565 -0.9773 -0.6810
 8494SOL    HW237116   4.120   3.465   2.662 -0.7986  0.7513 -1.0926
 8495SOL     OW37117   2.782   3.470   7.148  0.1618 -0.1044 -0.3102
 8495SOL    HW137118   2.780   3.375   7.155 -1.8195 -0.1077 -0.9553
 8495SOL    HW237119   2.750   3.484   7.059  1.3178  0.2686 -0.6721
 8496SOL     OW37120   4.580   1.284  15.586 -0.7387 -0.4526 -0.0557
 8496SOL    HW137121   4.530   1.261  15.665  0.1537 -1.0032  0.3519
 8496SOL    HW237122   4.619   1.369  15.604 -1.7527  0.2478 -1.1727
 8497SOL     OW37123   2.984   4.110  17.061 -0.3968 -0.3715  0.3507
 8497SOL    HW137124   2.941   4.156  17.134  0.1545  1.3000 -0.3748
 8497SOL    HW237125   3.044   4.178  17.031  0.9234 -1.1893  1.1490
 8498SOL     OW37126   0.766   1.988   3.261 -0.2603  0.1283 -0.4467
 8498SOL    HW137127   0.769   1.952   3.172  0.1566  1.1853 -0.8674
 8498SOL    HW237128   0.683   1.949   3.289  0.2264 -2.0053 -2.0099
 8499SOL     OW37129   1.059   4.162   9.252  0.0310 -0.0038 -0.1983
 8499SOL    HW137130   0.974   4.166   9.296  0.6119  2.5575  0.6977
 8499SOL    HW237131   1.111   4.192   9.327 -0.3369 -0.8364  0.4013
 8500SOL     OW37132   0.278   3.892  15.382  0.5628  0.1240  0.4556
 8500SOL    HW137133   0.338   3.886  15.307 -1.4731 -1.1943 -1.0818
 8500SOL    HW237134   0.345   3.889  15.451  1.9308  0.4709 -0.8491
 8501SOL     OW37135   4.579   0.612   3.733  0.3681  0.1344 -0.5127
 8501SOL    HW137136   4.597   0.609   3.639 -0.6481 -2.9057 -0.6176
 8501SOL    HW237137   4.614   0.526   3.757  0.7046  0.7336  1.1495
 8502SOL     OW37138   3.471   3.312   1.848 -0.3665 -0.0041 -0.6076
 8502SOL    HW137139   3.411   3.348   1.783  0.2302  1.6817 -0.2095
 8502SOL    HW237140   3.434   3.359   1.922 -2.1288 -1.8047 -0.3559
 8503SOL     OW37141   2.326   4.090  17.139 -0.1588 -0.0316  0.6437
 8503SOL    HW137142   2.244   4.105  17.092 -0.7746 -0.8919  1.4458
 8503SOL    HW237143   2.297   4.030  17.208 -0.2068 -3.1405 -2.1229
 8504SOL     OW37144   2.187   0.738   5.089  0.5653 -0.1058 -0.0602
 8504SOL    HW137145   2.136   0.718   5.168  0.9537  0.7872  0.4089
 8504SOL    HW237146   2.121   0.782   5.035 -0.2024 -0.5563  0.5071
 8505SOL     OW37147   1.526   2.909   3.022 -0.1556 -0.4686 -0.0127
 8505SOL    HW137148   1.451   2.961   3.050 -0.3111 -1.4271  1.3732
 8505SOL    HW237149   1.583   2.984   3.004  0.2217 -0.9511 -0.7910
 8506SOL     OW37150   3.820   0.147   2.944 -0.0221  0.6859  0.0973
 8506SOL    HW137151   3.846   0.214   3.007  1.6558  0.3296 -0.2230
 8506SOL    HW237152   3.768   0.200   2.884 -0.7148  0.2591  0.3236
 8507SOL     OW37153   4.358   0.249   3.949  0.1150  0.0429  0.5221
 8507SOL    HW137154   4.335   0.156   3.953  0.4892 -0.0532  0.4350
 8507SOL    HW237155   4.453   0.255   3.945  0.0872 -0.2684 -0.5289
 8508SOL     OW37156   3.604   4.734   3.025 -0.6385 -0.2411 -0.5545
 8508SOL    HW137157   3.680   0.058   3.022  0.0491 -1.3463 -3.9519
 8508SOL    HW237158   3.550   0.059   3.078  1.2150 -0.1353  1.2225
 8509SOL     OW37159   0.833   2.082   0.895 -0.4743 -0.3903 -0.2136
 8509SOL    HW137160   0.886   2.125   0.828 -1.9376  4.1042  1.5259
 8509SOL    HW237161   0.882   2.000   0.900  0.8860  0.3945 -0.5539
 8510SOL     OW37162   2.478   3.976  13.251 -0.1026 -0.2283 -0.5832
 8510SOL    HW137163   2.459   3.925  13.172  1.8195 -0.0743 -1.1740
 8510SOL    HW237164   2.446   4.062  13.223  0.8075 -0.1517 -1.4171
 8511SOL     OW37165   2.477   0.296  10.539  0.3041  0.1127 -0.6903
 8511SOL    HW137166   2.415   0.368  10.536  1.2844  0.9367 -1.0860
 8511SOL    HW237167   2.438   0.240  10.471 -0.2327  0.0311 -0.3137
 8512SOL     OW37168   2.537   1.268   6.695 -0.4754 -0.1175  0.0121
 8512SOL    HW137169   2.589   1.189   6.712 -1.6429 -1.0762 -0.8638
 8512SOL    HW237170   2.605   1.335   6.696 -0.2893 -0.2991 -0.5111
 8513SOL     OW37171   0.145   3.051   5.037 -0.1586  0.6117  0.1668
 8513SOL    HW137172   0.102   3.008   4.964 -0.5015  0.8941  0.2028
 8513SOL    HW237173   0.236   3.022   5.029 -0.3753  0.3792 -1.5519
 8514SOL     OW37174   1.984   1.966  13.635  0.3451 -0.4041 -0.4244
 8514SOL    HW137175   2.049   1.925  13.577  0.5488  0.6122 -0.9142
 8514SOL    HW237176   2.003   1.938  13.724  1.3064 -2.1620 -1.1807
 8515SOL     OW37177   4.036   2.825   3.076  0.0801 -0.2159  0.2266
 8515SOL    HW137178   3.979   2.760   3.119  0.0040  0.8808  1.7673
 8515SOL    HW237179   4.007   2.814   2.985 -0.4718  2.0209  0.1372
 8516SOL     OW37180   2.653   3.892  14.782 -0.2000 -0.3745 -0.0077
 8516SOL    HW137181   2.578   3.847  14.821 -0.0732  2.1411  3.1516
 8516SOL    HW237182   2.650   3.848  14.697  1.5715  1.3312 -0.9733
 8517SOL     OW37183   1.011   2.300  16.022 -1.1422  0.1888  0.0709
 8517SOL    HW137184   1.001   2.388  16.058  0.3708 -0.3967  2.0022
 8517SOL    HW237185   0.943   2.297  15.956  0.5322 -0.7622 -1.6258
 8518SOL     OW37186   1.497   4.661   3.263 -0.0788 -0.0540  0.0422
 8518SOL    HW137187   1.546   4.684   3.341  0.0059  1.5293 -0.4712
 8518SOL    HW237188   1.544   4.698   3.188  0.1115 -0.6915 -0.1569
 8519SOL     OW37189   1.063   0.829   4.688 -0.3336 -0.7235 -0.3579
 8519SOL    HW137190   1.070   0.831   4.784 -0.5663 -1.0176 -0.3355
 8519SOL    HW237191   1.140   0.883   4.668 -1.0198  1.5938  3.2410
 8520SOL     OW37192   4.561   2.965   4.618 -0.3084 -0.3694 -0.4267
 8520SOL    HW137193   4.486   2.960   4.679  0.2734  0.7205  0.3641
 8520SOL    HW237194   4.516   2.934   4.539 -2.2949  0.2223  0.4742
 8521SOL     OW37195   0.314   0.169   5.472  0.4462  0.0648 -0.2426
 8521SOL    HW137196   0.348   0.081   5.489  0.0507 -0.1468 -0.5465
 8521SOL    HW237197   0.381   0.219   5.519 -0.8151 -0.4526  2.1239
 8522SOL     OW37198   4.503   0.461   2.651  0.2813 -0.3974 -0.1826
 8522SOL    HW137199   4.560   0.488   2.722 -0.4310 -2.7176  1.2771
 8522SOL    HW237200   4.444   0.535   2.642  0.3319 -0.2353  0.8426
 8523SOL     OW37201   3.826   2.723   9.300  0.4040  0.4331  0.5443
 8523SOL    HW137202   3.819   2.642   9.249 -0.0396  0.7288  0.1361
 8523SOL    HW237203   3.883   2.692   9.370  0.2334 -1.0684  0.0171
 8524SOL     OW37204   3.624   1.808   6.551 -0.4641  0.4260  0.2501
 8524SOL    HW137205   3.674   1.735   6.516 -1.0582  1.0021 -1.7763
 8524SOL    HW237206   3.535   1.779   6.529 -0.6820 -0.4463  2.1765
 8525SOL     OW37207   3.392   3.042   5.515 -0.3271  0.3419  0.0020
 8525SOL    HW137208   3.347   3.024   5.432 -2.0481  2.5400  0.4608
 8525SOL    HW237209   3.316   3.054   5.570  0.5998 -2.2259  1.8238
 8526SOL     OW37210   4.578   1.229  14.371  0.4366 -0.1443 -0.0110
 8526SOL    HW137211   4.623   1.302  14.327 -0.0292 -0.9279 -1.7912
 8526SOL    HW237212   4.591   1.250  14.463 -1.3039  0.5038  0.0935
 8527SOL     OW37213   3.257   3.623  13.776 -0.4011  0.1647  0.3949
 8527SOL    HW137214   3.251   3.718  13.781 -1.6033  0.1205 -0.0396
 8527SOL    HW237215   3.345   3.616  13.739 -0.7247  2.3375 -0.8272
 8528SOL     OW37216   0.154   3.684   5.910 -0.3561 -0.7457 -0.2085
 8528SOL    HW137217   0.079   3.686   5.970 -0.8752 -1.9283 -0.8093
 8528SOL    HW237218   0.204   3.756   5.947 -0.9804  0.3113 -1.4418
 8529SOL     OW37219   1.210   3.777  13.697 -0.1413  0.0965 -0.1261
 8529SOL    HW137220   1.173   3.741  13.616 -0.0903  0.7284 -0.4290
 8529SOL    HW237221   1.165   3.862  13.701  0.4707  0.5072 -2.0730
 8530SOL     OW37222   0.783   0.775   3.827 -0.3514 -0.1933 -0.2504
 8530SOL    HW137223   0.809   0.867   3.832 -0.1155 -0.4014  2.4826
 8530SOL    HW237224   0.785   0.750   3.919 -2.5491 -0.0702 -0.1718
 8531SOL     OW37225   0.209   4.688  16.392 -1.0699  0.0860  0.3474
 8531SOL    HW137226   0.157   0.014  16.446 -0.0933  0.7723  0.5257
 8531SOL    HW237227   0.194   4.728  16.306  1.9954  0.3242 -0.0784
 8532SOL     OW37228   4.702   0.615   8.685 -0.4441  0.4388  0.1889
 8532SOL    HW137229   4.652   0.667   8.748  1.4708  0.3212  1.8102
 8532SOL    HW237230   4.701   0.527   8.724  1.9372  0.8264  1.1294
 8533SOL     OW37231   4.374   4.702  12.060  0.6575 -0.4801 -0.1168
 8533SOL    HW137232   4.386   4.622  12.008  0.1817  0.5605 -1.8195
 8533SOL    HW237233   4.372   0.035  11.992 -0.8215 -0.2104  0.2022
 8534SOL     OW37234   3.406   2.258   9.795  0.4594 -0.4415 -0.3713
 8534SOL    HW137235   3.361   2.325   9.846  1.3702  1.3056 -1.8474
 8534SOL    HW237236   3.374   2.267   9.706  2.2234 -0.8241 -1.0405
 8535SOL     OW37237   3.393   3.061  10.612  0.7325  0.3902  0.1220
 8535SOL    HW137238   3.323   2.997  10.600  3.0401 -1.8403 -1.3759
 8535SOL    HW237239   3.478   3.017  10.606  1.4913  2.1004 -1.9726
 8536SOL     OW37240   4.240   2.483  16.093 -0.2293  0.1223  0.3310
 8536SOL    HW137241   4.267   2.409  16.148 -0.6090 -1.1901 -1.2449
 8536SOL    HW237242   4.193   2.439  16.023 -0.4249  1.5156 -0.3965
 8537SOL     OW37243   3.291   4.544   6.198 -0.5542  0.1411  0.3481
 8537SOL    HW137244   3.240   4.544   6.279 -0.3116 -0.0722  0.5015
 8537SOL    HW237245   3.223   4.546   6.131 -1.6546 -1.4847  1.4586
 8538SOL     OW37246   1.865   3.578  15.020 -0.0127 -0.6119 -0.0631
 8538SOL    HW137247   1.949   3.623  15.009 -0.8584  1.0202  0.1590
 8538SOL    HW237248   1.833   3.592  14.931 -0.5063  0.4657  0.2827
 8539SOL     OW37249   2.697   2.030   4.342 -0.5197 -0.1419  0.0363
 8539SOL    HW137250   2.733   2.039   4.254  0.2315 -0.3309  0.3163
 8539SOL    HW237251   2.724   2.110   4.388 -0.6353  0.3827 -0.8083
 8540SOL     OW37252   4.084   3.251   6.978  0.5123 -0.0623 -0.0439
 8540SOL    HW137253   4.043   3.254   7.064 -0.0663  0.0898 -0.3239
 8540SOL    HW237254   4.156   3.306   7.008  2.0412 -2.0372 -0.1133
 8541SOL     OW37255   3.420   1.315   7.145 -0.1758 -0.4309  0.2328
 8541SOL    HW137256   3.446   1.380   7.080 -0.3237 -0.1306  0.4752
 8541SOL    HW237257   3.477   1.245   7.113 -2.1251 -1.2664 -1.4102
 8542SOL     OW37258   0.616   2.372   3.690 -0.2317  0.0204 -0.3581
 8542SOL    HW137259   0.687   2.335   3.743  0.1609  1.0695 -0.1481
 8542SOL    HW237260   0.561   2.294   3.683 -0.0129 -0.2049  0.4543
 8543SOL     OW37261   2.631   2.619   9.117 -0.3457 -0.4649  0.3686
 8543SOL    HW137262   2.537   2.635   9.122 -0.1321 -0.1095  3.5064
 8543SOL    HW237263   2.665   2.692   9.066 -0.9111 -1.4731 -1.4555
 8544SOL     OW37264   1.562   1.321   5.389 -0.0615  0.4423 -0.1248
 8544SOL    HW137265   1.500   1.344   5.320  0.8005  0.0896 -1.0292
 8544SOL    HW237266   1.538   1.371   5.466  0.9945  1.5493 -0.5044
 8545SOL     OW37267   0.101   3.566  14.339  0.5619  0.6761 -0.3877
 8545SOL    HW137268   0.091   3.519  14.421  0.0410  2.0194  0.3200
 8545SOL    HW237269   0.114   3.491  14.281  0.4865  0.3106  0.0720
 8546SOL     OW37270   2.023   4.618   5.895  0.1172 -0.3252 -0.3897
 8546SOL    HW137271   2.008   4.674   5.972 -0.9556 -1.8689  0.5197
 8546SOL    HW237272   1.995   4.536   5.935  1.0058 -1.0006 -1.1811
 8547SOL     OW37273   0.442   4.687  15.954 -0.1187 -0.1559  0.5500
 8547SOL    HW137274   0.438   4.683  16.050  1.5391 -2.9076  0.5000
 8547SOL    HW237275   0.356   4.652  15.932 -0.2556  0.0014  0.8305
 8548SOL     OW37276   3.375   2.263   8.324  0.2614 -0.6518  0.4785
 8548SOL    HW137277   3.427   2.236   8.399  1.7326 -0.0640 -0.3447
 8548SOL    HW237278   3.395   2.191   8.264 -0.2749  0.2873 -0.8397
 8549SOL     OW37279   1.730   2.356  14.833 -0.5390 -0.0374 -0.2196
 8549SOL    HW137280   1.737   2.450  14.822 -0.8264  0.0807  0.5923
 8549SOL    HW237281   1.644   2.360  14.875 -1.5803 -2.3842 -2.1460
 8550SOL     OW37282   2.840   1.343   0.108 -0.2619  0.2620  0.3919
 8550SOL    HW137283   2.828   1.372   0.017  1.8423  1.3550  0.4622
 8550SOL    HW237284   2.898   1.413   0.137  0.1740 -0.2625  0.7704
 8551SOL     OW37285   1.205   3.157  11.743 -0.3540  0.5181  0.7635
 8551SOL    HW137286   1.277   3.140  11.682 -0.4460  0.9389  0.5360
 8551SOL    HW237287   1.246   3.138  11.827 -0.2276  1.0120  0.8139
 8552SOL     OW37288   2.693   4.423  12.189 -0.1926  0.5235 -0.3328
 8552SOL    HW137289   2.631   4.392  12.255  1.2670  0.0681  0.8259
 8552SOL    HW237290   2.737   4.499  12.226 -0.7049  0.0817  1.1620
 8553SOL     OW37291   2.830   1.847   6.593  0.1486 -0.3196 -0.0110
 8553SOL    HW137292   2.914   1.801   6.597 -0.3504 -1.5339 -2.7735
 8553SOL    HW237293   2.766   1.790   6.635  0.6800  1.0025  2.5656
 8554SOL     OW37294   4.002   0.929   3.760  0.0799  0.1240 -0.4549
 8554SOL    HW137295   3.921   0.902   3.803 -0.7864  3.0407 -0.2938
 8554SOL    HW237296   3.987   1.023   3.772  0.4052  0.2337 -0.9258
 8555SOL     OW37297   2.667   4.194   5.658  0.1700 -0.7127  0.4876
 8555SOL    HW137298   2.598   4.130   5.643 -1.9939  1.4885  1.0119
 8555SOL    HW237299   2.741   4.135   5.672  0.0347 -0.9338  0.2625
 8556SOL     OW37300   4.161   4.329   6.440  0.2602  0.0221 -0.1784
 8556SOL    HW137301   4.090   4.383   6.474  0.2661  0.3151 -0.6345
 8556SOL    HW237302   4.244   4.369   6.463  0.1625  0.5651 -0.7567
 8557SOL     OW37303   1.667   1.555   6.613  0.1908 -0.1972  0.2246
 8557SOL    HW137304   1.737   1.590   6.557  0.2226  1.1598  1.1071
 8557SOL    HW237305   1.682   1.596   6.698 -0.6456 -0.4731  0.4955
 8558SOL     OW37306   4.438   2.055   1.543  0.4145 -0.6734 -0.0813
 8558SOL    HW137307   4.370   2.006   1.496 -0.1783 -0.8837  0.9943
 8558SOL    HW237308   4.382   2.098   1.609 -0.8583  1.7140 -2.7166
 8559SOL     OW37309   3.140   4.493   1.313 -0.3796  0.1800  0.6517
 8559SOL    HW137310   3.088   4.527   1.241  1.5310  0.0850 -0.7876
 8559SOL    HW237311   3.164   4.409   1.275  2.8623  1.4104 -0.0763
 8560SOL     OW37312   0.695   3.661  13.360 -0.7082 -0.2879 -0.2531
 8560SOL    HW137313   0.693   3.567  13.345  0.2042 -0.3767  0.1408
 8560SOL    HW237314   0.604   3.689  13.357 -1.0471 -1.5951 -2.1429
 8561SOL     OW37315   1.451   1.105   1.209  0.2465 -0.0296  0.0415
 8561SOL    HW137316   1.496   1.073   1.131 -1.6216  0.0091 -1.0539
 8561SOL    HW237317   1.472   1.040   1.275  1.1767  2.1783  1.8983
 8562SOL     OW37318   1.420   4.274   4.204 -0.0523  0.1678 -0.4680
 8562SOL    HW137319   1.480   4.330   4.254  1.7812 -1.2558 -1.0693
 8562SOL    HW237320   1.357   4.339   4.172 -1.5090 -2.0221 -2.0011
 8563SOL     OW37321   4.598   1.127  17.722  0.2374 -0.2255  0.2447
 8563SOL    HW137322   4.586   1.040   0.025  0.1256  0.5225  1.8493
 8563SOL    HW237323   4.519   1.170   0.016  0.0369 -0.3032 -0.1707
 8564SOL     OW37324   4.159   4.374   4.999  0.2619 -0.6187  0.6291
 8564SOL    HW137325   4.215   4.380   5.077 -0.9490 -0.1782  1.4668
 8564SOL    HW237326   4.193   4.299   4.950  0.8846  0.5308 -0.6961
 8565SOL     OW37327   1.058   1.046   5.134 -0.3431  0.5520 -0.1140
 8565SOL    HW137328   0.975   1.084   5.105 -1.1427 -1.1844 -0.0608
 8565SOL    HW237329   1.035   0.982   5.201  0.0146 -0.6272 -1.1217
 8566SOL     OW37330   2.863   2.089  10.902 -0.0520 -0.2025 -0.1900
 8566SOL    HW137331   2.888   2.179  10.925 -0.8210 -0.1355  0.3901
 8566SOL    HW237332   2.782   2.099  10.853 -0.0033  0.8446 -0.0577
 8567SOL     OW37333   2.793   3.375   5.798 -0.2692  0.6594  0.4004
 8567SOL    HW137334   2.880   3.345   5.827 -0.7863 -0.4438  0.7858
 8567SOL    HW237335   2.762   3.299   5.750  0.5788  0.5889 -0.0447
 8568SOL     OW37336   4.161   2.053  16.771 -0.0358  0.1455  0.1645
 8568SOL    HW137337   4.253   2.027  16.763 -0.0876 -0.2022  0.7201
 8568SOL    HW237338   4.131   1.973  16.813 -0.6333 -0.6384 -1.7189
 8569SOL     OW37339   1.258   4.296  17.076 -0.7796 -0.0212 -0.0567
 8569SOL    HW137340   1.195   4.368  17.082 -1.8095 -0.6786 -3.0118
 8569SOL    HW237341   1.340   4.342  17.093  0.0256 -1.6440  0.4297
 8570SOL     OW37342   1.856   1.607   1.898  0.0153 -0.2508  0.0689
 8570SOL    HW137343   1.772   1.577   1.865 -0.6760 -0.6701  2.1522
 8570SOL    HW237344   1.915   1.593   1.824 -2.2712  0.6593 -1.9080
 8571SOL     OW37345   2.278   0.407   8.978 -1.0322 -0.3722  0.3153
 8571SOL    HW137346   2.301   0.332   9.034  2.4060 -0.1069 -0.7447
 8571SOL    HW237347   2.349   0.428   8.918 -0.8461 -2.2390 -0.1202
 8572SOL     OW37348   3.500   3.412   7.572  0.1527  0.4009 -0.0278
 8572SOL    HW137349   3.476   3.502   7.594 -2.4783 -1.0415  3.0959
 8572SOL    HW237350   3.411   3.377   7.565 -0.5940  2.4426 -0.8090
 8573SOL     OW37351   4.510   3.593   8.039  0.3026  0.7429  0.0359
 8573SOL    HW137352   4.500   3.650   7.963  0.6145  1.8381  0.8163
 8573SOL    HW237353   4.422   3.557   8.049  0.3513  1.0689  1.6280
 8574SOL     OW37354   0.761   0.991   8.889 -0.2840  0.2050  0.2709
 8574SOL    HW137355   0.705   0.913   8.892  0.3826 -0.3043 -0.7529
 8574SOL    HW237356   0.846   0.956   8.916  0.0874 -1.5410 -3.2255
 8575SOL     OW37357   0.392   4.240   1.498 -0.3411  0.1021 -0.3443
 8575SOL    HW137358   0.433   4.326   1.506  0.2476 -0.2057 -0.0691
 8575SOL    HW237359   0.316   4.259   1.443 -1.2791  0.2658  1.0111
 8576SOL     OW37360   3.065   0.004  11.518  0.1996  0.3304 -0.2156
 8576SOL    HW137361   3.100   0.081  11.563  1.2254 -0.4135  0.2779
 8576SOL    HW237362   3.133   4.678  11.549  0.1293  1.8635  2.9405
 8577SOL     OW37363   1.166   2.898   5.016  0.4844  0.4451 -0.0664
 8577SOL    HW137364   1.099   2.869   5.078  1.6087  0.7423  1.2922
 8577SOL    HW237365   1.132   2.859   4.936  1.9100 -0.4201 -0.2497
 8578SOL     OW37366   0.515   4.085   6.042 -0.2080  0.1226  0.2382
 8578SOL    HW137367   0.579   4.123   5.982  1.3947 -1.0672  1.1675
 8578SOL    HW237368   0.438   4.141   6.033 -0.2952 -0.0963 -0.3290
 8579SOL     OW37369   2.504   1.394   5.894  0.3587 -0.1154  0.0343
 8579SOL    HW137370   2.492   1.488   5.902 -0.9744 -0.2520 -0.2827
 8579SOL    HW237371   2.468   1.359   5.976  0.1417 -0.2017 -0.0975
 8580SOL     OW37372   1.097   1.345   8.721  0.5255  0.2864 -0.1628
 8580SOL    HW137373   1.144   1.275   8.677  2.3739  2.2274 -1.2986
 8580SOL    HW237374   1.116   1.417   8.661  0.0116 -1.5113 -2.4753
 8581SOL     OW37375   3.934   0.647  15.340  0.5267 -0.0784 -0.4098
 8581SOL    HW137376   3.902   0.617  15.425 -0.3468  1.2400 -0.2664
 8581SOL    HW237377   3.864   0.699  15.301 -0.7390 -2.4022 -1.1977
 8582SOL     OW37378   3.190   3.728   8.529 -0.4452  0.0556 -0.1392
 8582SOL    HW137379   3.271   3.753   8.484  0.0932  0.3921  1.0105
 8582SOL    HW237380   3.162   3.649   8.484 -0.9219 -0.7119  1.5090
 8583SOL     OW37381   2.492   3.465  16.709 -0.5112 -0.5618 -0.4667
 8583SOL    HW137382   2.584   3.484  16.723 -0.1428 -1.5016 -1.6643
 8583SOL    HW237383   2.465   3.425  16.792 -0.2253  1.5132  0.6328
 8584SOL     OW37384   0.135   4.028   6.941  0.1884 -0.5533  0.1332
 8584SOL    HW137385   0.152   4.061   6.853  1.2718  2.5601  1.4792
 8584SOL    HW237386   0.222   4.003   6.974 -0.1561 -4.5263 -2.0289
 8585SOL     OW37387   2.522   2.097  16.032  0.1233 -0.5301  0.0585
 8585SOL    HW137388   2.497   2.065  16.119 -0.0406  0.2363  0.2944
 8585SOL    HW237389   2.474   2.034  15.978  0.0752  0.6187 -1.2077
 8586SOL     OW37390   1.748   2.398  13.133 -0.5592 -0.1439  0.6999
 8586SOL    HW137391   1.761   2.485  13.172 -0.1387 -0.2728  0.8431
 8586SOL    HW237392   1.689   2.349  13.189  0.0073 -0.1805  1.2580
 8587SOL     OW37393   0.250   3.504   1.351 -0.3525  0.2190  0.2917
 8587SOL    HW137394   0.269   3.422   1.396  0.6599  2.0253  3.2280
 8587SOL    HW237395   0.329   3.552   1.376 -2.1326  1.7358  3.0753
 8588SOL     OW37396   0.385   3.975  15.853  0.1097 -0.2755 -0.1500
 8588SOL    HW137397   0.412   4.066  15.857  0.7954 -0.4519 -0.7771
 8588SOL    HW237398   0.400   3.943  15.764  0.9889 -1.7780  0.5383
 8589SOL     OW37399   1.874   1.236   8.195  0.3194 -0.0925  0.0796
 8589SOL    HW137400   1.952   1.208   8.243 -0.9448 -2.5392  0.7035
 8589SOL    HW237401   1.831   1.150   8.195  0.9356 -0.3952  2.7489
 8590SOL     OW37402   0.970   1.416   3.416 -0.0522  0.3482 -0.4929
 8590SOL    HW137403   1.047   1.414   3.472  0.2871 -1.0172 -1.0217
 8590SOL    HW237404   0.979   1.336   3.365  0.3596 -0.3860  0.7341
 8591SOL     OW37405   4.286   3.823   8.125 -0.1042 -0.3944  0.1198
 8591SOL    HW137406   4.311   3.754   8.186 -0.0960 -1.0571 -0.6240
 8591SOL    HW237407   4.209   3.864   8.163  1.3141 -0.4439  3.0437
 8592SOL     OW37408   4.269   2.792   4.990  0.6267 -0.3140 -0.2733
 8592SOL    HW137409   4.262   2.702   5.023  1.8415  0.1501  1.2229
 8592SOL    HW237410   4.183   2.808   4.951  0.2961  1.1487  1.0405
 8593SOL     OW37411   4.493   2.829  17.238 -0.6003  0.3780 -0.8462
 8593SOL    HW137412   4.433   2.854  17.309 -1.8140  0.8176 -2.0320
 8593SOL    HW237413   4.454   2.886  17.172  3.3430  1.8446 -1.8665
 8594SOL     OW37414   2.468   0.859   2.009 -0.4567 -0.5760  0.1043
 8594SOL    HW137415   2.406   0.903   1.952  1.1695  0.8839 -0.5274
 8594SOL    HW237416   2.420   0.780   2.035 -0.7452 -0.2353  0.6170
 8595SOL     OW37417   3.626   4.179   2.631  0.1995  0.1779 -0.5956
 8595SOL    HW137418   3.600   4.260   2.674  0.3961  0.4981 -1.0812
 8595SOL    HW237419   3.716   4.197   2.602  0.5606 -1.7783 -0.7378
 8596SOL     OW37420   3.941   3.011   9.252 -0.4800  0.7271 -0.3217
 8596SOL    HW137421   3.994   3.064   9.191 -0.5722  0.8979 -0.2524
 8596SOL    HW237422   3.946   2.919   9.224 -4.2666  0.6602 -0.6847
 8597SOL     OW37423   3.341   4.703   2.618 -0.0718 -0.2826 -0.0700
 8597SOL    HW137424   3.353   4.713   2.712  0.7777  1.4805 -0.3585
 8597SOL    HW237425   3.290   0.044   2.589 -1.3192 -0.6795  1.0583
 8598SOL     OW37426   4.131   4.242   3.489  0.4851 -0.4048 -0.3741
 8598SOL    HW137427   4.198   4.260   3.424  1.0210  1.2737  0.6452
 8598SOL    HW237428   4.188   4.243   3.566 -0.6809 -1.4129  0.5059
 8599SOL     OW37429   2.492   3.973   7.333  0.2879  0.4942  0.1551
 8599SOL    HW137430   2.403   3.945   7.311  0.6340  0.0084 -0.6537
 8599SOL    HW237431   2.479   4.044   7.396 -0.7543  1.5573 -1.2608
 8600SOL     OW37432   2.071   0.295   5.511 -0.8685 -0.3279  0.1131
 8600SOL    HW137433   2.080   0.327   5.421 -0.3041  3.3301  1.4950
 8600SOL    HW237434   2.036   0.374   5.551 -0.0265  0.3404 -0.4617
 8601SOL     OW37435   3.780   3.570   8.335  0.0263 -0.1204  0.2638
 8601SOL    HW137436   3.725   3.591   8.411 -0.9500 -0.7732 -0.2520
 8601SOL    HW237437   3.729   3.508   8.283  0.5684 -1.5340  1.4240
 8602SOL     OW37438   4.293   4.219   5.520 -0.0251  0.0216  0.2892
 8602SOL    HW137439   4.351   4.143   5.533  1.3721  0.8700 -0.8795
 8602SOL    HW237440   4.273   4.235   5.612 -1.6109 -2.3608  0.3623
 8603SOL     OW37441   1.383   3.658   3.973 -0.0665  0.1052 -0.1070
 8603SOL    HW137442   1.391   3.700   4.058  1.6867  1.4206 -0.9192
 8603SOL    HW237443   1.454   3.697   3.922 -2.5478 -0.8205 -4.2973
 8604SOL     OW37444   3.049   0.576  13.384  0.4674 -0.4045  0.7009
 8604SOL    HW137445   3.054   0.567  13.479 -2.0359 -0.3160  0.8475
 8604SOL    HW237446   3.108   0.508  13.352  0.8074  0.4711 -0.5623
 8605SOL     OW37447   2.071   0.191   4.662 -0.4557  0.0591  0.6582
 8605SOL    HW137448   2.032   0.181   4.575 -0.4801  1.2504  0.5318
 8605SOL    HW237449   2.015   0.139   4.721  1.1430  1.0838  3.0831
 8606SOL     OW37450   1.844   0.651   4.106 -0.1434 -0.2509 -0.0074
 8606SOL    HW137451   1.872   0.726   4.053 -3.8027  1.3678  0.3927
 8606SOL    HW237452   1.876   0.685   4.189 -1.8372  0.9797  0.1230
 8607SOL     OW37453   3.686   1.187   9.012 -0.1149  0.6584  0.1117
 8607SOL    HW137454   3.604   1.179   8.963 -0.0387 -1.5846  0.3575
 8607SOL    HW237455   3.744   1.185   8.936 -1.1405 -1.0189 -0.6280
 8608SOL     OW37456   1.525   0.603   0.881 -0.2335  0.4207 -0.0114
 8608SOL    HW137457   1.495   0.517   0.849 -0.9922  0.4397  0.6430
 8608SOL    HW237458   1.610   0.585   0.922 -2.4623 -3.4445  2.9647
 8609SOL     OW37459   4.029   3.062   6.067  0.3264 -0.3691 -0.2284
 8609SOL    HW137460   4.104   3.109   6.104 -0.3759  0.9770 -0.4921
 8609SOL    HW237461   3.962   3.131   6.069  2.4247  1.7225 -2.0755
 8610SOL     OW37462   1.687   1.962   7.427  0.5862  0.5789 -0.5752
 8610SOL    HW137463   1.746   2.012   7.483  0.2539 -1.9805  2.0360
 8610SOL    HW237464   1.604   2.010   7.427 -0.2095 -0.7963  0.2421
 8611SOL     OW37465   2.384   2.208   0.029  0.1322 -0.1204  0.1540
 8611SOL    HW137466   2.387   2.169  17.678 -1.4903  0.8319 -0.3200
 8611SOL    HW237467   2.477   2.234   0.032 -0.6375  2.5265  1.4413
 8612SOL     OW37468   3.201   1.443   2.588 -0.0173 -0.0413 -0.0231
 8612SOL    HW137469   3.106   1.449   2.599  0.0057  1.7490 -0.7555
 8612SOL    HW237470   3.208   1.367   2.530 -1.6008  0.4612 -0.8874
 8613SOL     OW37471   0.849   1.037   4.810  0.3256 -0.3893  0.6094
 8613SOL    HW137472   0.892   0.979   4.747 -0.0934 -0.2364  0.1871
 8613SOL    HW237473   0.756   1.016   4.808 -0.2478  1.9308  3.3768
 8614SOL     OW37474   1.419   0.062   2.200 -0.6068  0.9455  0.5194
 8614SOL    HW137475   1.509   0.075   2.230 -0.6302 -0.0479  1.0397
 8614SOL    HW237476   1.373   0.028   2.277 -1.5681 -1.9698 -1.3336
 8615SOL     OW37477   4.314   4.494   8.048 -0.4659  0.2234 -0.2959
 8615SOL    HW137478   4.241   4.555   8.036  0.1089  1.3449  1.8246
 8615SOL    HW237479   4.378   4.534   8.107 -0.9044  0.4258  0.0421
 8616SOL     OW37480   4.321   1.934   4.450 -0.2300 -0.0582  0.0586
 8616SOL    HW137481   4.389   1.951   4.515 -0.2449  2.4747 -0.5597
 8616SOL    HW237482   4.329   2.012   4.394  0.2262 -0.1124  0.0470
 8617SOL     OW37483   4.472   3.477   4.439  0.2381  0.6600 -0.4372
 8617SOL    HW137484   4.466   3.436   4.352 -2.7278  2.2168 -0.9562
 8617SOL    HW237485   4.499   3.400   4.489 -0.9100  0.1403 -0.6342
 8618SOL     OW37486   3.547   1.707   8.072 -0.1327 -0.3068 -0.2211
 8618SOL    HW137487   3.621   1.760   8.101  0.0948  1.1182 -3.3931
 8618SOL    HW237488   3.497   1.774   8.026 -0.5614 -0.3654  0.1593
 8619SOL     OW37489   4.146   2.675   7.096  1.0342 -0.5651  0.2543
 8619SOL    HW137490   4.129   2.716   7.181 -1.3740  2.2266 -1.5476
 8619SOL    HW237491   4.201   2.738   7.050  0.6075  0.3401  0.9649
 8620SOL     OW37492   1.244   3.611   2.335  0.0723  0.7769  0.1224
 8620SOL    HW137493   1.301   3.688   2.328  0.5577  0.3241 -0.9719
 8620SOL    HW237494   1.181   3.646   2.397 -0.7028 -0.1612 -0.1440
 8621SOL     OW37495   1.136   0.011   9.949 -0.8195 -0.0875 -0.3025
 8621SOL    HW137496   1.217   0.061   9.954 -0.7147 -0.3567  0.6294
 8621SOL    HW237497   1.142   4.701  10.034 -0.2546 -0.8752 -0.7456
 8622SOL     OW37498   3.565   0.915   9.396  0.1135  0.4630 -0.2392
 8622SOL    HW137499   3.624   0.968   9.451 -1.2695  0.0649  1.6337
 8622SOL    HW237500   3.595   0.945   9.310 -0.8826 -0.2716 -0.8321
 8623SOL     OW37501   3.119   4.301   3.048  0.8034  0.1800  0.4554
 8623SOL    HW137502   3.053   4.238   3.076  0.1788  0.6444  0.0365
 8623SOL    HW237503   3.071   4.382   3.069  1.5620  0.7632 -0.0505
 8624SOL     OW37504   3.770   1.396   2.339  0.7636  0.1031  0.4387
 8624SOL    HW137505   3.707   1.415   2.408 -0.0090  0.3942 -0.3516
 8624SOL    HW237506   3.730   1.331   2.282 -1.6481  1.9491  0.0543
 8625SOL     OW37507   1.197   2.348   0.673  0.2417  0.0165 -0.2823
 8625SOL    HW137508   1.132   2.361   0.742  0.3996 -4.0165  0.6255
 8625SOL    HW237509   1.132   2.351   0.603 -0.8382 -1.7588  0.6289
 8626SOL     OW37510   4.341   1.565   3.863  0.0330 -0.0380 -0.1600
 8626SOL    HW137511   4.326   1.610   3.946 -0.2604 -0.4553  0.0127
 8626SOL    HW237512   4.296   1.483   3.882 -0.6209  0.1934 -0.7400
 8627SOL     OW37513   3.305   0.557   8.312  0.3366 -0.5124  0.5458
 8627SOL    HW137514   3.322   0.480   8.258  0.1382 -0.2013  0.0372
 8627SOL    HW237515   3.213   0.576   8.289  0.9347  1.8732  0.0786
 8628SOL     OW37516   3.329   4.071   7.077 -0.0769 -0.1777 -0.3580
 8628SOL    HW137517   3.319   4.083   6.983  0.7428  2.2250 -0.1345
 8628SOL    HW237518   3.238   4.065   7.106  0.4451 -1.4860  1.0181
 8629SOL     OW37519   0.621   1.687   1.045  0.2276 -0.3090  0.4372
 8629SOL    HW137520   0.679   1.612   1.042  1.0946  0.3331  0.9235
 8629SOL    HW237521   0.532   1.651   1.052  0.8898 -2.0377 -0.3775
 8630SOL     OW37522   3.046   3.033   7.839  0.1944  0.4712  0.3036
 8630SOL    HW137523   3.120   3.016   7.897  0.5959 -0.4036 -0.4784
 8630SOL    HW237524   2.980   3.034   7.908 -2.5006 -1.4222 -2.2736
 8631SOL     OW37525   3.995   3.108   2.484 -0.0480  0.0045 -0.0285
 8631SOL    HW137526   3.916   3.162   2.491 -0.1988 -0.1640 -0.4148
 8631SOL    HW237527   4.044   3.148   2.413 -0.6435  0.6452 -0.0842
 8632SOL     OW37528   0.437   2.814  12.498 -0.4605 -0.4041 -0.4587
 8632SOL    HW137529   0.390   2.862  12.566  0.7258 -0.1577  0.1971
 8632SOL    HW237530   0.520   2.807  12.544  0.1205  3.3297 -0.9564
 8633SOL     OW37531   2.752   3.956   2.623  0.0245  0.1541 -0.3174
 8633SOL    HW137532   2.829   4.003   2.655  0.8391  0.2843 -2.4473
 8633SOL    HW237533   2.779   3.936   2.533 -2.0733 -1.1979 -0.6462
 8634SOL     OW37534   1.330   1.478   7.744  0.1751  0.5562  0.2149
 8634SOL    HW137535   1.268   1.550   7.754 -0.2533  0.1482  0.4842
 8634SOL    HW237536   1.273   1.421   7.693 -0.2170  2.8026 -1.8583
 8635SOL     OW37537   1.897   3.169   9.209 -0.3151 -0.6305  0.3814
 8635SOL    HW137538   1.983   3.165   9.251 -1.6278  2.1967  3.3065
 8635SOL    HW237539   1.879   3.080   9.176  0.9817 -1.5741  2.2203
 8636SOL     OW37540   2.505   0.276   7.168 -0.3841  0.1305  0.1530
 8636SOL    HW137541   2.586   0.270   7.117  0.3033  0.5949  1.1672
 8636SOL    HW237542   2.442   0.308   7.103 -3.0243 -1.1990  2.0799
 8637SOL     OW37543   2.705   2.289   9.590 -0.3646 -0.4368 -0.0945
 8637SOL    HW137544   2.685   2.239   9.511  0.7740 -0.0117 -0.6343
 8637SOL    HW237545   2.625   2.337   9.612  0.2763  0.4440  0.3310
 8638SOL     OW37546   4.685   2.644  10.108  0.2853  0.1896  0.4248
 8638SOL    HW137547   0.031   2.593  10.110 -0.2205 -0.5718  1.5230
 8638SOL    HW237548   4.613   2.587  10.137  2.2438 -2.1827  0.5929
 8639SOL     OW37549   4.023   1.799   4.874  0.2470  0.6165 -0.0784
 8639SOL    HW137550   3.994   1.748   4.950  5.0266 -0.5057  0.9896
 8639SOL    HW237551   4.118   1.807   4.883  0.1545  0.9498  0.5747
 8640SOL     OW37552   1.359   4.268   9.295 -0.3978  0.2007 -0.3861
 8640SOL    HW137553   1.293   4.215   9.249  0.3986  0.0866 -1.3951
 8640SOL    HW237554   1.429   4.285   9.232 -1.5126 -0.2587 -1.7657
 8641SOL     OW37555   3.927   2.553   9.484  0.4296  0.0264  0.1254
 8641SOL    HW137556   3.868   2.477   9.485  2.6983 -1.7057  0.4762
 8641SOL    HW237557   4.008   2.509   9.459  0.9196  0.9999  0.0321
 8642SOL     OW37558   1.283   1.744   8.534  0.5197  0.2592  0.4476
 8642SOL    HW137559   1.322   1.823   8.571 -0.3875  1.6219 -1.5518
 8642SOL    HW237560   1.329   1.671   8.576  0.7206  1.9375  3.1499
 8643SOL     OW37561   3.657   1.439  14.612  0.1539  0.1418 -0.6415
 8643SOL    HW137562   3.631   1.506  14.548 -1.6929  1.2814  1.3183
 8643SOL    HW237563   3.687   1.368  14.555 -0.6331  0.6022 -1.6430
 8644SOL     OW37564   3.988   1.864   2.782 -0.3426  0.0755 -0.5482
 8644SOL    HW137565   3.924   1.914   2.832 -0.5965  0.0816 -0.8781
 8644SOL    HW237566   3.939   1.855   2.700 -0.5073 -1.5325 -0.2683
 8645SOL     OW37567   2.650   2.772   7.261  0.4206  0.4175 -0.1655
 8645SOL    HW137568   2.588   2.810   7.198 -0.7629 -1.8124 -0.3553
 8645SOL    HW237569   2.733   2.815   7.240  0.2056  0.2276 -1.4113
 8646SOL     OW37570   0.869   1.735   8.605  0.3510 -1.2036 -0.0461
 8646SOL    HW137571   0.822   1.773   8.530  1.1231  1.2932  0.7371
 8646SOL    HW237572   0.798   1.721   8.669 -0.1604 -0.7685 -0.5137
 8647SOL     OW37573   1.790   1.201   7.251 -0.5255  0.0502  0.0912
 8647SOL    HW137574   1.881   1.204   7.279 -0.6981 -1.0712  0.7508
 8647SOL    HW237575   1.798   1.109   7.227 -3.6948  0.1325 -1.3386
 8648SOL     OW37576   4.330   1.848   1.297  0.4378  0.5691  0.3444
 8648SOL    HW137577   4.238   1.825   1.285  1.3478 -2.4493 -0.8420
 8648SOL    HW237578   4.338   1.920   1.235  1.3397  0.3613  0.2239
 8649SOL     OW37579   4.293   3.396   3.095  0.4256  0.4175  0.4992
 8649SOL    HW137580   4.309   3.490   3.082 -3.8862  1.0122 -0.5429
 8649SOL    HW237581   4.200   3.388   3.116  0.5098 -1.1766  0.2185
 8650SOL     OW37582   2.991   0.674   5.725  0.1023  0.3428  0.2402
 8650SOL    HW137583   2.962   0.733   5.795 -0.7799  0.1683  0.0251
 8650SOL    HW237584   3.066   0.629   5.764  1.0895  0.9461 -0.9657
 8651SOL     OW37585   2.784   4.238  17.310  0.1095  1.0216  0.4490
 8651SOL    HW137586   2.732   4.301  17.359 -1.7619  0.0670 -0.3292
 8651SOL    HW237587   2.726   4.164  17.293  2.6105 -0.6293 -0.9781
 8652SOL     OW37588   0.291   1.856   9.909  0.1883 -0.0276  0.3480
 8652SOL    HW137589   0.372   1.901   9.935 -0.4724  1.9986 -1.1425
 8652SOL    HW237590   0.313   1.778   9.960 -0.5281  1.9330  3.6584
 8653SOL     OW37591   2.620   2.083  15.176 -0.1803 -0.2565 -0.0586
 8653SOL    HW137592   2.708   2.046  15.174  0.1873  0.6418 -0.7247
 8653SOL    HW237593   2.611   2.105  15.083 -0.1973 -0.2153 -0.0474
 8654SOL     OW37594   4.245   1.159   2.483 -0.1754 -0.1778 -0.0200
 8654SOL    HW137595   4.311   1.186   2.419  0.6758 -1.6226  0.2444
 8654SOL    HW237596   4.182   1.231   2.482 -0.7770 -0.7131 -0.2035
 8655SOL     OW37597   3.044   0.717   3.125  0.3664  0.0560 -0.1928
 8655SOL    HW137598   2.948   0.724   3.120  0.3142 -0.6047 -0.0829
 8655SOL    HW237599   3.060   0.772   3.202  0.7466 -0.2865 -0.0297
 8656SOL     OW37600   1.862   1.096   8.982 -0.5325 -0.4717 -0.1065
 8656SOL    HW137601   1.946   1.110   8.937 -2.4133 -0.6388 -3.7004
 8656SOL    HW237602   1.869   1.003   9.004 -0.6483 -0.2759  0.7207
 8657SOL     OW37603   2.342   2.005  15.087 -0.0146 -0.6701  0.3183
 8657SOL    HW137604   2.281   2.071  15.119  0.7488  0.5551 -0.7652
 8657SOL    HW237605   2.413   2.014  15.152 -0.5007  0.5554  0.6742
 8658SOL     OW37606   3.230   3.348  10.791  0.3905  0.1925 -0.3758
 8658SOL    HW137607   3.168   3.421  10.788 -1.1248 -1.0683 -0.4030
 8658SOL    HW237608   3.183   3.275  10.750  0.6007  0.0688 -0.3968
 8659SOL     OW37609   2.397   2.001  16.260  0.1168  0.2626 -0.0408
 8659SOL    HW137610   2.385   1.991  16.355  2.6046 -0.2573  0.2217
 8659SOL    HW237611   2.354   1.924  16.224 -0.0068 -0.2145  1.1284
 8660SOL     OW37612   0.411   2.692  15.360 -0.2426 -0.5868  0.4052
 8660SOL    HW137613   0.491   2.672  15.407 -0.5034 -0.5198  0.8773
 8660SOL    HW237614   0.430   2.644  15.279 -1.2707  0.1670 -0.2973
 8661SOL     OW37615   2.556   1.865  12.626 -0.0111 -0.2723  0.2637
 8661SOL    HW137616   2.505   1.935  12.585  2.6042  2.4571  1.6878
 8661SOL    HW237617   2.564   1.879  12.720  1.3228  0.9528 -0.0358
 8662SOL     OW37618   3.853   2.645   4.907  0.2972  0.5242  0.1069
 8662SOL    HW137619   3.782   2.582   4.896 -0.9017  1.7905  0.4637
 8662SOL    HW237620   3.824   2.684   4.990  0.0834  2.9627 -1.1038
 8663SOL     OW37621   0.296   4.510   9.550  0.1540  0.4286  0.2460
 8663SOL    HW137622   0.277   4.505   9.644 -3.2159  0.2412 -0.4507
 8663SOL    HW237623   0.209   4.498   9.513 -0.2773  1.0083  1.0718
 8664SOL     OW37624   1.479   0.365   0.782 -0.0005  0.6788 -0.1625
 8664SOL    HW137625   1.499   0.290   0.725 -1.1467  0.7807 -0.6992
 8664SOL    HW237626   1.389   0.353   0.815  0.2117 -1.2627 -0.2612
 8665SOL     OW37627   4.176   4.556   4.142  0.3630  0.1820  0.8672
 8665SOL    HW137628   4.086   4.546   4.111  0.4338  1.1870  0.3471
 8665SOL    HW237629   4.194   4.468   4.177 -0.2228 -0.3807 -0.2475
 8666SOL     OW37630   3.287   3.306   7.295  0.4314  0.1917  0.2787
 8666SOL    HW137631   3.266   3.327   7.203 -0.3339 -0.1912  0.3663
 8666SOL    HW237632   3.360   3.244   7.289 -0.4807 -1.0356  2.1977
 8667SOL     OW37633   2.669   0.410   1.488  0.2550 -0.0037  0.1018
 8667SOL    HW137634   2.653   0.326   1.531  1.5994 -0.4729 -0.3261
 8667SOL    HW237635   2.695   0.382   1.400  0.9800  1.2051 -0.0733
 8668SOL     OW37636   0.705   4.033   2.277  0.5310  0.5367 -0.3407
 8668SOL    HW137637   0.654   3.954   2.292  1.9410 -0.3722 -0.2588
 8668SOL    HW237638   0.714   4.022   2.183  0.3478  1.9975 -0.5389
 8669SOL     OW37639   3.462   2.913   9.832 -0.3059  0.6562  0.2491
 8669SOL    HW137640   3.376   2.916   9.873  0.9330 -2.7278  3.0928
 8669SOL    HW237641   3.468   3.008   9.820  1.4130  0.5404  0.1165
 8670SOL     OW37642   1.657   2.960   7.390 -0.0606  0.1152  0.7616
 8670SOL    HW137643   1.605   2.922   7.462  0.5076 -0.5256  0.8275
 8670SOL    HW237644   1.619   2.907   7.320 -0.9270 -0.8672  1.9730
 8671SOL     OW37645   0.410   2.168   2.402 -0.3591  0.0003 -0.4847
 8671SOL    HW137646   0.451   2.232   2.344 -0.5405  1.1961  0.7047
 8671SOL    HW237647   0.473   2.096   2.396  2.0798  2.0485  0.6105
 8672SOL     OW37648   0.901   2.441   4.645 -0.2964 -0.0830  0.0047
 8672SOL    HW137649   0.929   2.471   4.732  1.5128 -0.4512 -0.4737
 8672SOL    HW237650   0.906   2.346   4.650  0.4713 -0.1091 -1.2757
 8673SOL     OW37651   2.573   4.532  10.735 -0.2015 -0.1516  0.1039
 8673SOL    HW137652   2.516   4.508  10.807  0.2636  1.8781  1.1453
 8673SOL    HW237653   2.539   4.621  10.729 -0.6609 -0.3676 -0.5212
 8674SOL     OW37654   4.710   1.854   5.684  0.0066 -0.4715  0.1225
 8674SOL    HW137655   4.631   1.866   5.737 -0.2079 -3.4129  0.4501
 8674SOL    HW237656   0.042   1.873   5.751 -0.7247  1.4827  0.2900
 8675SOL     OW37657   1.166   1.798   3.589  0.5620 -0.7009 -0.0592
 8675SOL    HW137658   1.136   1.750   3.665 -1.7924  0.6832 -0.1302
 8675SOL    HW237659   1.108   1.874   3.590  1.8557  0.3710 -3.9329
 8676SOL     OW37660   3.172   0.979   8.386 -0.3332 -0.5202  0.1925
 8676SOL    HW137661   3.159   0.936   8.470 -1.0043 -3.5605 -1.4588
 8676SOL    HW237662   3.092   1.031   8.394 -1.0447 -1.9930  2.5455
 8677SOL     OW37663   0.732   1.211  11.346 -0.1629  0.1309  0.2333
 8677SOL    HW137664   0.782   1.228  11.265  0.2653 -3.9251 -0.3194
 8677SOL    HW237665   0.656   1.268  11.330  0.9550  1.0571 -1.8201
 8678SOL     OW37666   1.541   3.456  12.181  0.4958 -0.8864  0.0122
 8678SOL    HW137667   1.473   3.451  12.114  0.9747 -0.2367 -0.5269
 8678SOL    HW237668   1.588   3.377  12.153  0.9048 -1.1665  1.4896
 8679SOL     OW37669   0.917   0.351   9.826 -0.4796  0.1850 -0.1895
 8679SOL    HW137670   0.930   0.264   9.789 -0.0467  0.2194 -0.1157
 8679SOL    HW237671   0.823   0.360   9.810 -0.9671 -0.2643  2.4606
 8680SOL     OW37672   2.499   0.683   5.696 -0.7360 -0.4581 -0.0904
 8680SOL    HW137673   2.478   0.774   5.678 -1.9136 -0.9735 -1.3119
 8680SOL    HW237674   2.414   0.645   5.673 -1.1470 -0.8147  2.0094
 8681SOL     OW37675   1.599   2.541   7.205  0.3287 -0.2124  0.1108
 8681SOL    HW137676   1.680   2.504   7.240 -0.7812 -2.1565  0.6290
 8681SOL    HW237677   1.589   2.612   7.268 -3.4733 -0.3345 -0.3584
 8682SOL     OW37678   2.098   1.183   4.050 -0.5219 -0.1575 -0.5293
 8682SOL    HW137679   2.106   1.167   3.956  1.0945 -1.4239 -0.1743
 8682SOL    HW237680   2.004   1.176   4.066 -0.0796 -0.3721  2.0572
 8683SOL     OW37681   0.100   0.429   7.919 -0.2640  0.0612 -0.5959
 8683SOL    HW137682   0.186   0.410   7.881 -0.4653  1.5741 -1.7986
 8683SOL    HW237683   0.061   0.342   7.919  1.1356 -0.5687 -2.0310
 8684SOL     OW37684   4.206   4.544   5.276 -0.3593 -0.2020  0.3136
 8684SOL    HW137685   4.168   4.588   5.352  1.2843 -2.1145  2.2454
 8684SOL    HW237686   4.273   4.483   5.307 -1.4836 -1.3174  0.5805
 8685SOL     OW37687   3.839   1.681   6.441  0.3363  0.2500 -0.3533
 8685SOL    HW137688   3.857   1.759   6.388 -0.0593  0.3086 -0.4022
 8685SOL    HW237689   3.919   1.657   6.486  1.0076 -1.1417 -2.2503
 8686SOL     OW37690   0.165   0.657   6.556  0.0426  0.1949 -0.3911
 8686SOL    HW137691   0.172   0.672   6.462  0.7333  2.1456 -0.0042
 8686SOL    HW237692   0.205   0.570   6.559  1.9968  1.0935 -0.8215
 8687SOL     OW37693   3.094   2.765   9.951  0.3010  0.1803  0.3112
 8687SOL    HW137694   3.186   2.755   9.978  0.4178  0.1467 -0.0996
 8687SOL    HW237695   3.112   2.856   9.926  1.8590 -0.4005 -0.6928
 8688SOL     OW37696   1.521   1.621   3.266  0.2677  0.0564 -0.1232
 8688SOL    HW137697   1.526   1.711   3.299 -1.5613  0.1505 -0.0930
 8688SOL    HW237698   1.584   1.620   3.194 -1.3184  1.4912 -1.5280
 8689SOL     OW37699   0.063   1.010   6.627  0.1837  0.2466  0.4395
 8689SOL    HW137700   0.140   0.954   6.619  1.0047  1.0418  2.8127
 8689SOL    HW237701   0.036   0.978   6.713 -2.2159 -0.2734 -0.5037
 8690SOL     OW37702   2.154   3.244  14.367  0.0838 -0.4135  0.3889
 8690SOL    HW137703   2.156   3.332  14.407 -2.3660  0.1688 -0.7888
 8690SOL    HW237704   2.064   3.217  14.385 -0.3377  0.8511  0.1883
 8691SOL     OW37705   0.345   2.124   0.186 -0.0663 -0.1252 -0.3558
 8691SOL    HW137706   0.436   2.099   0.201  0.0337 -0.9387 -2.3183
 8691SOL    HW237707   0.298   2.068   0.249  2.5604  0.5286  2.2080
 8692SOL     OW37708   2.767   2.992   1.830  0.0364  0.0312 -0.4645
 8692SOL    HW137709   2.705   2.968   1.761 -1.4051 -0.1333  0.8866
 8692SOL    HW237710   2.806   2.906   1.846 -1.3950 -0.7207 -1.0483
 8693SOL     OW37711   1.291   4.009  15.877 -0.1307  0.1660  0.0728
 8693SOL    HW137712   1.338   3.937  15.919 -0.0302  0.1878 -0.0017
 8693SOL    HW237713   1.341   4.010  15.795 -0.1402 -1.3614  0.0323
 8694SOL     OW37714   3.264   1.225   6.001 -0.2209  0.4166 -0.6572
 8694SOL    HW137715   3.169   1.225   6.016  0.1078  0.5069  1.4979
 8694SOL    HW237716   3.276   1.130   5.998 -1.1831  0.3290 -1.6020
 8695SOL     OW37717   2.967   4.261   1.108 -0.2428 -0.7361  0.2913
 8695SOL    HW137718   2.986   4.224   1.022 -0.7080 -3.6299  1.4533
 8695SOL    HW237719   3.052   4.242   1.147  1.8126  3.6290 -2.0009
 8696SOL     OW37720   1.701   2.913  15.969  0.0525 -0.4992 -0.4094
 8696SOL    HW137721   1.625   2.942  15.918  1.1541  0.3459 -1.5469
 8696SOL    HW237722   1.739   3.000  15.974  1.2222 -1.0827  0.8470
 8697SOL     OW37723   4.168   2.574   4.364 -0.0973  0.5215  0.4123
 8697SOL    HW137724   4.137   2.513   4.431  0.6973  0.4324  0.7081
 8697SOL    HW237725   4.142   2.663   4.385 -1.5788 -0.0496  0.9368
 8698SOL     OW37726   1.951   2.726   4.150  0.2445  0.2356 -0.3336
 8698SOL    HW137727   1.866   2.738   4.106  0.2046 -0.8436 -0.5412
 8698SOL    HW237728   1.971   2.634   4.132  2.2593  0.5724  0.2019
 8699SOL     OW37729   3.908   0.233   7.549 -0.2406  0.3014 -0.0647
 8699SOL    HW137730   3.933   0.311   7.501 -4.1352  0.7603 -1.3478
 8699SOL    HW237731   3.955   0.170   7.495 -1.8333 -1.3544  0.4820
 8700SOL     OW37732   4.564   4.728   8.589 -0.1261  0.3598 -0.3210
 8700SOL    HW137733   4.554   4.634   8.604  0.7728 -0.0668 -2.4836
 8700SOL    HW237734   4.638   4.734   8.528  0.0501 -2.8740 -0.3993
 8701SOL     OW37735   4.060   3.951   3.096  0.3659 -0.5278 -0.3364
 8701SOL    HW137736   4.148   3.985   3.111  0.8622 -0.9959 -2.2431
 8701SOL    HW237737   4.050   3.886   3.166 -0.4125 -0.4594 -0.3827
 8702SOL     OW37738   4.174   3.961   1.523  0.1246 -0.1237 -0.4757
 8702SOL    HW137739   4.090   3.920   1.542 -0.0971 -0.2621 -1.7502
 8702SOL    HW237740   4.209   3.959   1.613 -1.9469 -1.2540  0.3037
 8703SOL     OW37741   1.281   3.409   4.067 -0.2659 -0.1731  0.0906
 8703SOL    HW137742   1.322   3.487   4.029  2.1634 -1.9956 -0.9999
 8703SOL    HW237743   1.355   3.351   4.086  0.9725  2.0416  2.0200
 8704SOL     OW37744   2.253   4.458  11.532  0.4241 -0.2165 -0.0538
 8704SOL    HW137745   2.169   4.430  11.496  1.1183  0.5844 -2.3377
 8704SOL    HW237746   2.227   4.509  11.608  0.7766  0.3373 -0.3033
 8705SOL     OW37747   1.714   4.665   3.721 -0.6859 -0.0517 -0.1055
 8705SOL    HW137748   1.626   4.704   3.723 -0.7632 -0.2108 -0.3603
 8705SOL    HW237749   1.768   0.010   3.714  0.3429 -0.8466 -1.1239
 8706SOL     OW37750   2.965   3.563   9.496  0.4474 -0.6812  0.1821
 8706SOL    HW137751   2.888   3.520   9.535 -0.2831 -0.6049 -1.1844
 8706SOL    HW237752   2.957   3.533   9.405 -0.1239  1.6558 -0.5175
 8707SOL     OW37753   4.277   2.386   4.201 -0.0896 -0.5489 -0.1369
 8707SOL    HW137754   4.360   2.362   4.242  0.1134  0.5529  0.0975
 8707SOL    HW237755   4.237   2.452   4.257  1.8411 -0.1526  0.7824
 8708SOL     OW37756   1.429   4.075   7.002  0.0933 -0.2614 -0.0896
 8708SOL    HW137757   1.425   3.995   6.951  0.1469 -0.2998 -0.0333
 8708SOL    HW237758   1.518   4.105   6.986  0.3764 -1.5002 -0.7869
 8709SOL     OW37759   3.057   2.654   0.703  0.9811 -0.0724 -0.2481
 8709SOL    HW137760   3.100   2.715   0.763 -0.9728  1.8867 -0.8450
 8709SOL    HW237761   2.973   2.651   0.747  1.2364  0.9902  0.3084
 8710SOL     OW37762   0.504   0.620  15.005  0.4785  0.1347  0.3560
 8710SOL    HW137763   0.475   0.540  15.049 -3.0289  1.5447  0.6175
 8710SOL    HW237764   0.423   0.670  15.014 -0.7991 -1.2472 -3.4467
 8711SOL     OW37765   0.728   1.710   2.325 -0.0367  0.1167 -0.1451
 8711SOL    HW137766   0.653   1.767   2.306  0.2139 -0.2340 -2.1964
 8711SOL    HW237767   0.751   1.695   2.234 -0.1054  3.2305 -0.6919
 8712SOL     OW37768   3.358   2.613  14.712  0.2569 -0.2828  0.3368
 8712SOL    HW137769   3.431   2.660  14.672  1.9538 -1.0848  2.4229
 8712SOL    HW237770   3.282   2.623  14.655 -0.3688  0.2900  1.2812
 8713SOL     OW37771   1.012   0.605   9.316  0.2842 -0.4909 -0.0160
 8713SOL    HW137772   0.936   0.653   9.285  1.5178  0.6799 -1.2323
 8713SOL    HW237773   1.065   0.610   9.237 -0.0185  0.1369 -0.1767
 8714SOL     OW37774   0.130   4.265   2.005  0.3061  0.1189  0.4638
 8714SOL    HW137775   0.191   4.316   1.951 -1.7678  1.5549 -0.5052
 8714SOL    HW237776   0.098   4.327   2.069  0.1344  0.3657  0.1409
 8715SOL     OW37777   1.010   4.145   0.586  0.8307 -0.2548 -0.2495
 8715SOL    HW137778   0.927   4.141   0.539 -1.2462  2.6330  3.1227
 8715SOL    HW237779   1.079   4.142   0.519  0.7168 -0.8837 -0.3316
 8716SOL     OW37780   1.753   0.254   6.350  0.0165  0.1214 -0.0459
 8716SOL    HW137781   1.839   0.294   6.335  0.8168 -2.0991 -1.3085
 8716SOL    HW237782   1.706   0.324   6.305  1.5641  0.5065 -1.0701
 8717SOL     OW37783   3.539   0.040  12.119 -0.6066 -0.0545  0.5900
 8717SOL    HW137784   3.484   0.005  12.188  0.2721 -1.2729  0.6868
 8717SOL    HW237785   3.591   4.695  12.103  1.8758  1.5748  0.6329
 8718SOL     OW37786   0.914   4.523   7.211  0.3972  0.0836  0.2079
 8718SOL    HW137787   0.867   4.595   7.169  1.4506  0.0966 -0.9309
 8718SOL    HW237788   0.838   4.465   7.220  0.0332  0.7827  1.6505
 8719SOL     OW37789   0.929   2.657   8.021 -0.8956 -0.0890  0.5399
 8719SOL    HW137790   0.994   2.623   7.960  0.1768 -0.2117  1.7497
 8719SOL    HW237791   0.947   2.613   8.104 -1.6023 -1.5924 -0.1116
 8720SOL     OW37792   2.817   4.144   9.244 -0.1379  0.3395  0.0879
 8720SOL    HW137793   2.764   4.079   9.199 -0.6062  0.5107  0.3902
 8720SOL    HW237794   2.896   4.101   9.275  0.3109  0.1345 -1.3567
 8721SOL     OW37795   2.061   4.116   4.842  0.2869 -0.0116 -0.2989
 8721SOL    HW137796   2.097   4.038   4.801 -1.6934 -0.4948 -1.1087
 8721SOL    HW237797   2.106   4.104   4.926  0.4722  0.4563 -0.3310
 8722SOL     OW37798   3.553   3.770   1.135  0.0010 -0.3459 -0.1459
 8722SOL    HW137799   3.544   3.856   1.093 -1.7112 -1.0063 -1.1214
 8722SOL    HW237800   3.623   3.727   1.085  1.6980  1.2059  0.8769
 8723SOL     OW37801   1.998   2.461   0.362 -0.2711 -0.3327 -0.0181
 8723SOL    HW137802   2.071   2.401   0.347 -1.1474 -1.4249  0.0794
 8723SOL    HW237803   1.942   2.411   0.422  1.3104 -0.9302  0.9637
 8724SOL     OW37804   0.285   1.464   6.123 -0.2813 -0.1834 -0.3161
 8724SOL    HW137805   0.277   1.433   6.033 -0.7776  0.6300 -0.5521
 8724SOL    HW237806   0.337   1.543   6.115 -0.1366 -0.2206  0.2351
 8725SOL     OW37807   2.626   1.435   2.737 -0.3063  0.2336  0.1835
 8725SOL    HW137808   2.634   1.349   2.696  0.1494  0.0660  0.6164
 8725SOL    HW237809   2.648   1.414   2.828 -0.0977 -1.5272 -0.2675
 8726SOL     OW37810   3.062   0.914  12.533  0.1617  0.4232 -0.3060
 8726SOL    HW137811   3.144   0.951  12.499 -0.0161  1.4258  0.3481
 8726SOL    HW237812   3.016   0.888  12.453 -1.7448  0.8731  0.6413
 8727SOL     OW37813   1.690   2.388  12.149 -0.8042  0.4296  0.0063
 8727SOL    HW137814   1.679   2.390  12.054 -1.7529  2.9577  0.1695
 8727SOL    HW237815   1.753   2.460  12.154 -0.2535 -0.2316  3.0662
 8728SOL     OW37816   1.097   2.545   3.637 -0.1089  0.8759  0.5257
 8728SOL    HW137817   1.078   2.577   3.549  0.1697  1.1603  0.5714
 8728SOL    HW237818   1.040   2.598   3.691 -1.4170  0.7749 -0.7435
 8729SOL     OW37819   1.788   1.888  11.891 -0.3906  0.1273  0.3031
 8729SOL    HW137820   1.792   1.884  11.987  0.9475  0.0903  0.2360
 8729SOL    HW237821   1.858   1.825  11.876 -0.9571 -0.8754  1.8005
 8730SOL     OW37822   0.365   4.323   8.105 -0.3342  0.7785 -0.3505
 8730SOL    HW137823   0.309   4.270   8.050 -1.9002  1.6046  0.4611
 8730SOL    HW237824   0.318   4.401   8.134  1.0293  0.5912  2.4080
 8731SOL     OW37825   3.635   2.670   4.677  0.0477  0.1520 -0.1533
 8731SOL    HW137826   3.581   2.652   4.601 -1.7055  1.8118  0.7089
 8731SOL    HW237827   3.568   2.687   4.743 -1.2306 -3.0988 -0.6037
 8732SOL     OW37828   3.314   2.008   5.152 -0.2181  0.1360  0.0825
 8732SOL    HW137829   3.298   1.923   5.192 -1.4076 -0.4536 -1.6363
 8732SOL    HW237830   3.347   1.982   5.066  2.4157 -0.9776  1.4295
 8733SOL     OW37831   4.523   0.377  13.576  0.0499  0.5968 -0.1159
 8733SOL    HW137832   4.449   0.396  13.518 -1.0902  1.5337  1.6661
 8733SOL    HW237833   4.596   0.353  13.519 -0.9020 -0.4860 -0.8795
 8734SOL     OW37834   3.504   0.628  15.366  0.0389 -0.1489  0.5061
 8734SOL    HW137835   3.419   0.670  15.378 -0.2713 -1.1513  1.8141
 8734SOL    HW237836   3.486   0.536  15.383  0.3836 -0.2851  0.1302
 8735SOL     OW37837   1.913   0.737   3.796 -0.1918 -0.5696 -0.6535
 8735SOL    HW137838   1.867   0.753   3.714 -0.7468 -2.0860 -0.6452
 8735SOL    HW237839   1.886   0.811   3.851  1.4246  0.2711 -1.0129
 8736SOL     OW37840   0.085   0.306   2.172  0.2308  0.0227 -0.1680
 8736SOL    HW137841   0.065   0.288   2.264 -1.2682  2.6470  0.0324
 8736SOL    HW237842   0.038   0.235   2.130  1.5540  0.9558 -3.2449
 8737SOL     OW37843   2.684   0.802   2.693 -0.1367  0.2096 -0.1127
 8737SOL    HW137844   2.680   0.709   2.716 -1.8447  0.7273  1.6725
 8737SOL    HW237845   2.620   0.809   2.623  1.1779 -1.8047 -1.5093
 8738SOL     OW37846   0.830   1.576  11.658  0.2212 -0.2615 -0.1927
 8738SOL    HW137847   0.758   1.589  11.596 -0.3025  0.5503  0.5962
 8738SOL    HW237848   0.816   1.482  11.674 -0.1698 -0.4307 -1.5644
 8739SOL     OW37849   0.945   3.830   8.687 -0.3862 -0.0155  0.0196
 8739SOL    HW137850   1.000   3.903   8.714  1.1145 -0.9137 -0.5916
 8739SOL    HW237851   0.880   3.836   8.756 -0.4106 -1.0736  0.0860
 8740SOL     OW37852   0.322   2.849   8.841  0.7039 -0.0709  0.4051
 8740SOL    HW137853   0.372   2.796   8.904  1.5076 -0.5652 -0.6499
 8740SOL    HW237854   0.327   2.934   8.885  1.9010  1.1894 -2.1641
 8741SOL     OW37855   3.365   1.547   1.887  0.1999 -0.4573  0.1920
 8741SOL    HW137856   3.364   1.457   1.854  0.5205 -1.3322  2.5667
 8741SOL    HW237857   3.277   1.580   1.872  1.2632  1.8744 -0.9711
 8742SOL     OW37858   2.400   0.418   2.554  0.4787  0.1415 -0.2656
 8742SOL    HW137859   2.460   0.476   2.600  2.4392  0.9671 -3.8714
 8742SOL    HW237860   2.447   0.336   2.565 -0.5365 -0.9089 -3.7624
 8743SOL     OW37861   1.863   2.655  11.832  0.3480  0.2965 -0.1385
 8743SOL    HW137862   1.903   2.699  11.907 -0.2589  0.3792  0.1409
 8743SOL    HW237863   1.893   2.565  11.848 -2.2504 -1.3583 -4.4740
 8744SOL     OW37864   1.839   4.126   1.117 -0.6344 -1.0605 -0.0343
 8744SOL    HW137865   1.806   4.102   1.030 -0.1151 -0.9848 -0.2503
 8744SOL    HW237866   1.933   4.122   1.097 -0.5202 -0.0311  0.3171
 8745SOL     OW37867   4.720   3.137  13.743  0.6694 -0.1439 -0.2848
 8745SOL    HW137868   0.003   3.159  13.835  0.0481  0.0353 -0.2132
 8745SOL    HW237869   0.064   3.086  13.721 -1.2903 -2.6138 -1.4928
 8746SOL     OW37870   2.931   1.731   2.081 -0.6803  0.4776 -0.1335
 8746SOL    HW137871   2.943   1.663   2.148  1.1247 -0.5101 -1.4571
 8746SOL    HW237872   2.887   1.682   2.012 -0.3810 -1.7064  1.2089
 8747SOL     OW37873   0.459   0.026   4.309 -0.5685 -0.3522 -0.8547
 8747SOL    HW137874   0.453   4.707   4.229  1.6448 -0.4243 -0.9897
 8747SOL    HW237875   0.441   0.112   4.271 -0.1555  1.0091  2.0106
 8748SOL     OW37876   2.090   2.446   6.207  0.2868  0.2336  0.8537
 8748SOL    HW137877   2.128   2.479   6.288  0.9976  2.1954 -0.2773
 8748SOL    HW237878   2.165   2.472   6.153  0.0881  0.1233  0.5190
 8749SOL     OW37879   2.937   0.689   5.185  0.0188 -0.2208  0.3569
 8749SOL    HW137880   2.901   0.776   5.169 -1.7500 -1.0182 -0.0171
 8749SOL    HW237881   2.943   0.684   5.281 -0.5562 -0.3352  0.3851
 8750SOL     OW37882   0.317   3.695   2.103  0.1472  0.2488  0.2908
 8750SOL    HW137883   0.266   3.769   2.069  0.4669  0.3698  0.0740
 8750SOL    HW237884   0.327   3.637   2.027  1.0191 -0.9538  1.3342
 8751SOL     OW37885   4.114   2.444  13.526  0.1674  0.0957 -0.5949
 8751SOL    HW137886   4.130   2.354  13.500  0.7975 -0.3338  1.3081
 8751SOL    HW237887   4.131   2.432  13.619 -0.8007  2.5492 -0.0997
 8752SOL     OW37888   3.567   1.488   3.766 -0.2695 -0.1340  0.2125
 8752SOL    HW137889   3.613   1.571   3.778 -0.6420  0.5863 -3.2795
 8752SOL    HW237890   3.581   1.449   3.853 -1.4327 -1.2806 -0.1024
 8753SOL     OW37891   3.851   2.552  15.604 -0.0848 -0.5486  0.1017
 8753SOL    HW137892   3.863   2.462  15.636  0.5046 -0.9382 -1.2308
 8753SOL    HW237893   3.868   2.543  15.510 -0.9118 -0.7081 -0.0343
 8754SOL     OW37894   1.207   1.126  16.176  0.4345 -0.0409 -0.2226
 8754SOL    HW137895   1.173   1.134  16.265 -0.1104 -1.1508 -0.3335
 8754SOL    HW237896   1.256   1.044  16.180 -3.3509 -2.3036 -0.8069
 8755SOL     OW37897   4.089   2.723  15.377  0.6909  0.5291 -0.1220
 8755SOL    HW137898   4.113   2.736  15.468  1.5359 -2.8678  0.1338
 8755SOL    HW237899   4.073   2.816  15.360  1.6649  0.7363  0.1181
 8756SOL     OW37900   1.194   0.447   7.242  0.3061  0.4744  0.1538
 8756SOL    HW137901   1.190   0.396   7.161  1.4445  0.7433 -0.0672
 8756SOL    HW237902   1.257   0.409   7.303  2.0593  1.5542 -0.9918
 8757SOL     OW37903   0.484   3.233   1.307  0.5916  0.1786 -0.1606
 8757SOL    HW137904   0.556   3.270   1.360  0.3053  0.9756 -0.3291
 8757SOL    HW237905   0.462   3.154   1.356  1.0051  0.4776  0.5089
 8758SOL     OW37906   3.567   3.386  11.021 -0.2054 -0.2642 -0.0654
 8758SOL    HW137907   3.522   3.467  10.996  0.5781 -0.2136 -1.3037
 8758SOL    HW237908   3.569   3.340  10.937 -2.1881  2.5165 -1.6512
 8759SOL     OW37909   2.468   3.270   7.821 -0.6171  0.1817 -0.1907
 8759SOL    HW137910   2.425   3.226   7.748 -1.6640  0.4871  0.2389
 8759SOL    HW237911   2.509   3.338   7.768  0.5023 -1.0625 -0.9166
 8760SOL     OW37912   3.458   1.817   4.560 -0.2096  0.1126 -0.1778
 8760SOL    HW137913   3.546   1.790   4.585 -0.5736 -1.4522 -0.6248
 8760SOL    HW237914   3.431   1.855   4.644  1.0236 -0.2457  0.3888
 8761SOL     OW37915   3.798   2.962   0.077 -0.6593  0.7829 -0.6759
 8761SOL    HW137916   3.769   3.046   0.043 -2.6975  1.2833  2.2352
 8761SOL    HW237917   3.762   2.970   0.166  1.1069 -1.0873  0.1993
 8762SOL     OW37918   0.245   0.571   8.261 -0.0174  0.0202  0.7383
 8762SOL    HW137919   0.305   0.504   8.227 -0.0681  0.5295 -0.3710
 8762SOL    HW237920   0.270   0.648   8.210  0.9081 -0.1145  0.9712
 8763SOL     OW37921   0.480   4.453   9.349  0.4971  0.3999  0.4404
 8763SOL    HW137922   0.408   4.392   9.332  0.8242  0.2406 -0.3782
 8763SOL    HW237923   0.435   4.502   9.417 -0.0651  1.9264 -1.0412
 8764SOL     OW37924   0.452   1.794  10.724 -0.0419  0.6580  0.1797
 8764SOL    HW137925   0.546   1.794  10.706 -0.2951  0.0656 -1.1556
 8764SOL    HW237926   0.421   1.761  10.640  0.8075 -0.4328  0.2868
 8765SOL     OW37927   2.490   4.332  17.520  0.0346 -0.2643 -0.6104
 8765SOL    HW137928   2.499   4.299  17.610 -0.6308 -1.4814 -1.0027
 8765SOL    HW237929   2.436   4.276  17.466  0.0328 -1.4535  0.6034
 8766SOL     OW37930   2.797   0.599   6.172  0.0810 -0.0773 -0.3499
 8766SOL    HW137931   2.864   0.543   6.210 -0.6379 -0.1339  0.8229
 8766SOL    HW237932   2.712   0.555   6.177 -0.2665  0.1594 -3.9513
 8767SOL     OW37933   1.136   4.377   5.476 -0.2886  0.4391  0.4403
 8767SOL    HW137934   1.117   4.431   5.400  0.2908  0.9114  0.6287
 8767SOL    HW237935   1.188   4.307   5.437  0.0391  3.0532 -3.7956
 8768SOL     OW37936   0.558   3.746  16.062  0.2136  0.3509 -0.1360
 8768SOL    HW137937   0.505   3.723  16.138 -0.4789  1.8874 -0.1638
 8768SOL    HW237938   0.510   3.701  15.993 -1.2459 -0.6407  1.5305
 8769SOL     OW37939   2.825   4.503   4.648 -0.4603 -0.0780  0.2027
 8769SOL    HW137940   2.788   4.519   4.561 -0.0614  0.6177  0.1611
 8769SOL    HW237941   2.913   4.474   4.625 -0.2081  1.7070 -1.1092
 8770SOL     OW37942   3.417   4.383   4.649 -0.0264 -0.3042  0.2077
 8770SOL    HW137943   3.467   4.359   4.727  0.2875 -0.7808 -0.1380
 8770SOL    HW237944   3.330   4.408   4.681 -0.4598  1.2350 -2.2098
 8771SOL     OW37945   3.306   0.054   8.988  0.0969 -0.1619 -0.9530
 8771SOL    HW137946   3.356   0.102   9.054 -2.7544  0.2786  0.8722
 8771SOL    HW237947   3.316   4.697   9.016 -0.8892 -0.2081 -0.7744
 8772SOL     OW37948   1.619   0.544   5.756 -0.0472  0.2799  0.2056
 8772SOL    HW137949   1.580   0.626   5.727 -3.6315 -1.0723  1.1952
 8772SOL    HW237950   1.704   0.581   5.780  0.3240 -1.2202  1.2354
 8773SOL     OW37951   0.874   2.871   7.189 -0.0346 -0.2960 -0.9808
 8773SOL    HW137952   0.929   2.805   7.230  0.8956 -0.5132 -2.5703
 8773SOL    HW237953   0.788   2.866   7.230 -0.2078 -0.7157 -1.3961
 8774SOL     OW37954   2.943   1.457   3.641  0.2380 -0.2920  0.2739
 8774SOL    HW137955   3.019   1.452   3.583  1.0829  2.2579  1.1461
 8774SOL    HW237956   2.973   1.412   3.720 -0.1659  0.4420  0.8488
 8775SOL     OW37957   4.727   1.121   4.572 -0.9171 -0.0429 -0.1284
 8775SOL    HW137958   4.634   1.141   4.582 -0.7143  1.2424 -0.8342
 8775SOL    HW237959   0.018   1.200   4.525 -0.9920 -0.3407 -0.6614
 8776SOL     OW37960   2.686   4.217   1.481  0.1832  0.0584 -0.0396
 8776SOL    HW137961   2.775   4.228   1.448 -0.3846 -2.5199 -2.5277
 8776SOL    HW237962   2.659   4.308   1.471  1.3303  0.5667  1.4915
 8777SOL     OW37963   2.806   0.230   3.818 -0.8862 -0.2310  0.2222
 8777SOL    HW137964   2.757   0.176   3.756 -0.8200 -0.3547  0.2781
 8777SOL    HW237965   2.884   0.183   3.848 -2.0442 -2.9627 -1.0575
 8778SOL     OW37966   1.861   1.566  13.525 -0.2669  0.0274 -0.3169
 8778SOL    HW137967   1.858   1.647  13.475  1.7197  0.2369 -0.1138
 8778SOL    HW237968   1.937   1.527  13.483 -1.3312 -0.2950 -1.9201
 8779SOL     OW37969   4.099   3.792   5.867 -0.1381  0.5607 -0.2474
 8779SOL    HW137970   4.064   3.854   5.802 -1.0035  1.0745  0.7080
 8779SOL    HW237971   4.031   3.803   5.934 -1.3053  1.0502 -1.5000
 8780SOL     OW37972   3.688   1.485   4.266 -0.2805  0.4034 -0.1663
 8780SOL    HW137973   3.754   1.465   4.199  0.7287 -1.0655  1.2499
 8780SOL    HW237974   3.677   1.575   4.237  0.7116  0.1344 -1.3870
 8781SOL     OW37975   4.050   2.481  12.059 -0.1750 -0.1942 -0.3456
 8781SOL    HW137976   3.989   2.553  12.076  0.0228 -0.2784  0.7427
 8781SOL    HW237977   4.001   2.420  12.005  0.9549  1.2839 -3.0426
 8782SOL     OW37978   4.445   0.108   3.517  0.6634  0.0530  0.0466
 8782SOL    HW137979   4.519   0.147   3.471 -1.1609  0.4648 -2.4952
 8782SOL    HW237980   4.439   0.021   3.478 -2.6216  0.1978  0.2030
 8783SOL     OW37981   1.396   3.033   7.584 -0.3681 -0.0756  0.5362
 8783SOL    HW137982   1.382   3.039   7.490 -0.1345 -0.4935  0.4748
 8783SOL    HW237983   1.323   2.977   7.611 -0.2748  0.4312  1.8570
 8784SOL     OW37984   1.588   3.254   1.613 -0.7704 -0.8715 -0.6549
 8784SOL    HW137985   1.578   3.251   1.518  1.4712  1.5676 -0.9741
 8784SOL    HW237986   1.635   3.337   1.623  0.7937 -1.8731  0.2174
 8785SOL     OW37987   3.022   3.094   8.870 -0.0632  0.2880  0.2904
 8785SOL    HW137988   3.029   3.108   8.964 -0.1486 -0.0123  0.3433
 8785SOL    HW237989   3.077   3.015   8.871 -0.8738 -0.2930 -0.5618
 8786SOL     OW37990   3.033   2.028  10.176 -0.2341  0.3629 -0.1348
 8786SOL    HW137991   3.042   2.089  10.103 -0.6870  0.8730  0.2407
 8786SOL    HW237992   2.957   1.977  10.147 -0.6283  1.7012 -1.4184
 8787SOL     OW37993   1.585   3.058   4.310  0.2868  0.2806 -0.2851
 8787SOL    HW137994   1.506   3.020   4.349 -0.4675  0.5687 -1.5433
 8787SOL    HW237995   1.589   2.988   4.245 -0.1970  0.0255 -0.0406
 8788SOL     OW37996   3.396   3.571  14.853  0.2254  0.3018 -0.0757
 8788SOL    HW137997   3.326   3.554  14.791  0.8823  0.0805 -0.7591
 8788SOL    HW237998   3.478   3.588  14.807 -0.6557  1.8404 -1.0818
 8789SOL     OW37999   4.333   4.309   2.848  0.4014  0.2049  0.2950
 8789SOL    HW138000   4.394   4.330   2.778 -0.3671 -0.9316 -0.7223
 8789SOL    HW238001   4.308   4.217   2.834 -3.7454  1.0855  1.9776
 8790SOL     OW38002   1.368   3.661   5.449  0.0060 -0.2022 -0.0798
 8790SOL    HW138003   1.380   3.570   5.421 -0.4500  0.2974 -1.9305
 8790SOL    HW238004   1.375   3.713   5.369 -0.5236 -1.2144 -0.7825
 8791SOL     OW38005   1.202   4.226   8.991 -0.4624 -0.0439  0.5211
 8791SOL    HW138006   1.158   4.220   9.076 -0.3548  2.0524  0.7237
 8791SOL    HW238007   1.211   4.321   8.990 -0.2829 -0.0559  1.2182
 8792SOL     OW38008   2.986   4.714   2.649  0.1568  0.0273  0.3581
 8792SOL    HW138009   3.043   0.056   2.658  1.4844 -1.0841  1.3562
 8792SOL    HW238010   3.044   4.638   2.656 -0.1246 -0.0773  1.6439
 8793SOL     OW38011   2.282   2.830  13.590 -0.0397  0.5081  0.0850
 8793SOL    HW138012   2.204   2.782  13.561 -0.5248  0.2081  1.9015
 8793SOL    HW238013   2.272   2.914  13.545  1.5319  0.4631 -0.3510
 8794SOL     OW38014   1.090   4.607   2.637  0.8568  0.2642  0.2739
 8794SOL    HW138015   1.078   4.542   2.706  1.0795 -2.8879 -2.7033
 8794SOL    HW238016   1.104   4.550   2.562 -3.9339  0.4488 -0.7475
 8795SOL     OW38017   3.816   1.142   8.774 -0.4317 -0.1057  0.4904
 8795SOL    HW138018   3.840   1.227   8.738  0.1760 -1.5158 -2.4617
 8795SOL    HW238019   3.748   1.116   8.712 -1.7361 -1.5381  2.5230
 8796SOL     OW38020   4.534   0.865  15.230 -0.2104 -0.3441 -0.4274
 8796SOL    HW138021   4.620   0.845  15.267 -1.0181 -0.5281  1.3648
 8796SOL    HW238022   4.503   0.909  15.310 -0.4006 -0.9666 -0.1590
 8797SOL     OW38023   3.192   2.566   5.897 -0.0018  0.1208 -0.5341
 8797SOL    HW138024   3.201   2.640   5.837 -1.3158  0.8724  0.1820
 8797SOL    HW238025   3.115   2.518   5.865 -0.7642  0.7431  0.3342
 8798SOL     OW38026   3.015   0.770  14.884 -0.2063  0.2267 -0.6974
 8798SOL    HW138027   2.949   0.795  14.819 -1.0194 -0.9169 -0.3049
 8798SOL    HW238028   2.970   0.726  14.956  0.7560 -2.0444 -1.5023
 8799SOL     OW38029   1.369   1.606   4.877  0.1430  0.2107 -0.3566
 8799SOL    HW138030   1.421   1.527   4.887 -1.3601 -0.5108  1.6496
 8799SOL    HW238031   1.333   1.591   4.790  1.0100 -1.6966 -0.3861
 8800SOL     OW38032   0.434   2.443  14.255  0.2536  0.0007 -0.4831
 8800SOL    HW138033   0.443   2.349  14.275  1.3738  0.5974  1.7837
 8800SOL    HW238034   0.345   2.477  14.252  0.5156  0.6870 -0.3267
 8801SOL     OW38035   0.150   0.894   2.351 -0.5123  0.3034  0.2912
 8801SOL    HW138036   0.164   0.807   2.314  0.0661  0.3641  0.3723
 8801SOL    HW238037   0.086   0.877   2.421  0.8748 -2.5576  0.8400
 8802SOL     OW38038   4.434   0.080   4.563 -0.5056  0.2664 -0.2619
 8802SOL    HW138039   4.390   0.003   4.526  0.9253 -0.4294 -0.4955
 8802SOL    HW238040   4.465   0.043   4.645  0.8729 -0.8927 -1.3141
 8803SOL     OW38041   2.338   0.394   4.304  0.7671  0.1356  0.1764
 8803SOL    HW138042   2.415   0.445   4.278  0.1625 -0.6481 -3.1858
 8803SOL    HW238043   2.383   0.309   4.307 -3.1983 -1.8878  1.4105
 8804SOL     OW38044   2.683   1.920   2.506  0.4371  0.0367  0.5703
 8804SOL    HW138045   2.697   1.837   2.552 -2.3505  0.1535  1.6233
 8804SOL    HW238046   2.698   1.895   2.414  0.3578  2.6884 -0.1585
 8805SOL     OW38047   4.320   3.560   1.441  0.1895  0.2317  0.2417
 8805SOL    HW138048   4.315   3.574   1.535 -1.0826 -1.0040  0.3535
 8805SOL    HW238049   4.392   3.617   1.412  0.6334 -0.3343  0.2291
 8806SOL     OW38050   3.291   1.790   9.379 -0.2301 -0.1008  0.5074
 8806SOL    HW138051   3.373   1.749   9.407  0.8368  0.7601 -1.3351
 8806SOL    HW238052   3.319   1.823   9.294 -0.3840  0.7199  0.7816
 8807SOL     OW38053   1.831   2.449   6.637 -0.1312 -0.3890 -0.4097
 8807SOL    HW138054   1.748   2.447   6.685 -0.7807  0.8152 -1.5000
 8807SOL    HW238055   1.820   2.533   6.593  0.7961 -0.4657 -0.7867
 8808SOL     OW38056   2.243   0.809   3.983 -0.3442 -0.0723  0.4399
 8808SOL    HW138057   2.185   0.878   4.017 -1.1766 -0.6683  0.2379
 8808SOL    HW238058   2.222   0.815   3.890  0.7075 -1.2596  0.1243
 8809SOL     OW38059   3.968   1.515   4.393 -0.5194 -0.6594 -0.3113
 8809SOL    HW138060   4.056   1.550   4.378 -0.7015 -1.3012 -2.9034
 8809SOL    HW238061   3.987   1.421   4.384 -1.6054 -1.0994  1.9737
 8810SOL     OW38062   3.030   2.184   2.901  0.4981 -0.1631 -0.7495
 8810SOL    HW138063   3.122   2.157   2.894  0.1737 -1.4135 -0.1585
 8810SOL    HW238064   2.986   2.103   2.926  1.1566  0.0071  0.9355
 8811SOL     OW38065   0.979   0.801  10.672  0.3503  0.1387 -0.2711
 8811SOL    HW138066   0.961   0.712  10.702  0.9592  1.3457  3.6281
 8811SOL    HW238067   0.988   0.850  10.754 -0.9636 -2.4026  1.3901
 8812SOL     OW38068   4.656   4.130   6.637  0.4018  0.7598  0.0943
 8812SOL    HW138069   4.656   4.035   6.647  0.1806  0.4683 -2.8658
 8812SOL    HW238070   4.629   4.127   6.546  0.4834  3.9758 -0.0434
 8813SOL     OW38071   3.141   0.025  11.092 -0.5779  0.1062  0.2374
 8813SOL    HW138072   3.107   4.707  11.165 -0.0436  0.0026  0.4156
 8813SOL    HW238073   3.196   4.702  11.040 -1.4241 -1.8263  1.4557
 8814SOL     OW38074   3.400   3.122   7.651 -0.4257 -0.3423  0.1999
 8814SOL    HW138075   3.353   3.050   7.695 -2.6326 -0.5473 -2.5449
 8814SOL    HW238076   3.333   3.189   7.667 -1.5743 -1.3013 -0.5673
 8815SOL     OW38077   1.694   0.918   7.824 -0.2448 -0.1841 -0.0410
 8815SOL    HW138078   1.740   0.851   7.774  0.9541 -0.1632  1.0362
 8815SOL    HW238079   1.693   0.887   7.914 -0.6501  2.7015  0.9460
 8816SOL     OW38080   0.711   4.005   4.513 -0.6599 -0.3258  0.0564
 8816SOL    HW138081   0.771   4.006   4.587 -2.9361 -0.5024  1.9296
 8816SOL    HW238082   0.698   3.910   4.518  1.0548 -0.4211  2.4268
 8817SOL     OW38083   1.795   4.075   4.197 -0.2812 -1.1297  0.2167
 8817SOL    HW138084   1.731   4.143   4.174  2.5307  1.4324  0.0671
 8817SOL    HW238085   1.830   4.051   4.112  0.0849 -1.9457  0.5983
 8818SOL     OW38086   4.656   0.478  16.377  0.4051 -0.2457  0.2761
 8818SOL    HW138087   4.732   0.430  16.344  0.9414  0.7588  0.0438
 8818SOL    HW238088   4.596   0.410  16.408 -0.2327 -0.4307 -1.3520
 8819SOL     OW38089   2.722   2.365   3.297  0.4393 -0.1679  0.2872
 8819SOL    HW138090   2.718   2.385   3.204 -0.8222 -0.7844  0.2071
 8819SOL    HW238091   2.692   2.443   3.343 -1.8661 -1.0281  0.2375
 8820SOL     OW38092   1.313   3.783  14.728 -0.9822 -0.4707 -0.2265
 8820SOL    HW138093   1.261   3.712  14.691  0.3035 -1.1174 -0.7763
 8820SOL    HW238094   1.291   3.864  14.682 -1.8832 -0.8526 -0.4616
 8821SOL     OW38095   2.776   2.653   3.785 -0.1272 -0.1197 -0.0438
 8821SOL    HW138096   2.817   2.737   3.765 -0.5638  0.0728 -0.1266
 8821SOL    HW238097   2.855   2.599   3.797  0.8869  1.1580 -0.9862
 8822SOL     OW38098   4.295   4.616   9.799 -0.2954  0.2636  0.3625
 8822SOL    HW138099   4.271   4.549   9.863 -1.3489  1.4466  1.2292
 8822SOL    HW238100   4.263   4.573   9.720 -3.5642  1.2767  1.1301
 8823SOL     OW38101   2.479   1.354  12.716 -0.6653  0.6936 -0.0464
 8823SOL    HW138102   2.521   1.433  12.681 -1.9704  1.3311 -0.1464
 8823SOL    HW238103   2.538   1.312  12.779  0.0809  1.9064  0.0741
 8824SOL     OW38104   0.098   3.768   7.996 -0.4639  0.3021 -0.2802
 8824SOL    HW138105   0.070   3.676   7.997 -0.8835  0.4326 -0.1892
 8824SOL    HW238106   0.019   3.806   7.958 -0.2059  1.8591  0.7708
 8825SOL     OW38107   4.005   4.115   5.089  0.5451 -0.2452 -0.3833
 8825SOL    HW138108   3.969   4.151   5.170 -0.1961  0.7190 -1.1464
 8825SOL    HW238109   4.080   4.060   5.113  0.9260  0.7489  0.7374
 8826SOL     OW38110   4.210   0.360   0.145 -0.5620  0.3566 -0.4731
 8826SOL    HW138111   4.254   0.292   0.196 -2.2986  0.5928  1.3671
 8826SOL    HW238112   4.139   0.388   0.202 -0.9687 -1.2836 -0.1703
 8827SOL     OW38113   0.720   1.941   4.701 -0.2321  0.2862 -0.0900
 8827SOL    HW138114   0.796   1.918   4.754 -2.0076 -1.5156  1.7059
 8827SOL    HW238115   0.717   1.871   4.635  0.9918 -1.4941  1.7532
 8828SOL     OW38116   1.715   1.863   1.248 -0.2213 -0.0023  0.1648
 8828SOL    HW138117   1.702   1.844   1.340  0.9911  0.5834  0.4654
 8828SOL    HW238118   1.693   1.777   1.214  2.6661 -1.4486  1.9802
 8829SOL     OW38119   1.220   0.668   9.625 -0.7095  0.2054  0.5450
 8829SOL    HW138120   1.287   0.705   9.681  1.2962 -1.3258 -0.8587
 8829SOL    HW238121   1.147   0.657   9.687 -1.4551 -0.3375 -0.4104
 8830SOL     OW38122   4.203   1.519  11.859  0.2256  0.2426  0.1676
 8830SOL    HW138123   4.254   1.501  11.780  0.7032 -0.2171  0.5796
 8830SOL    HW238124   4.162   1.436  11.884 -0.8643  1.3342  2.0948
 8831SOL     OW38125   3.577   4.057   9.595  0.3692  0.0801 -0.1031
 8831SOL    HW138126   3.494   4.010   9.587 -1.0432  2.7702 -1.3163
 8831SOL    HW238127   3.639   3.988   9.575  1.9729  1.9106 -1.4834
 8832SOL     OW38128   2.066   2.298   2.703  0.0921 -0.3786 -0.4034
 8832SOL    HW138129   2.094   2.306   2.794  0.4984  0.8328 -0.6310
 8832SOL    HW238130   2.114   2.367   2.657  0.4336 -0.2914  0.0889
 8833SOL     OW38131   4.379   3.182   8.084  0.2163  0.2854  0.1336
 8833SOL    HW138132   4.475   3.183   8.084  0.2566 -2.2099 -0.9486
 8833SOL    HW238133   4.358   3.127   8.008 -1.8277 -0.5210  1.3134
 8834SOL     OW38134   1.863   3.658   8.659 -0.0847  0.4836  0.0168
 8834SOL    HW138135   1.771   3.630   8.664  0.5054 -1.1661  1.5051
 8834SOL    HW238136   1.887   3.592   8.594  0.4007  0.0707  0.6176
 8835SOL     OW38137   4.189   2.832   8.128  0.3161  0.4103  0.3657
 8835SOL    HW138138   4.222   2.885   8.056 -1.7531  2.0449  0.6480
 8835SOL    HW238139   4.108   2.797   8.090  0.6356 -1.7307  1.6225
 8836SOL     OW38140   4.665   1.923   6.145  0.1243 -0.5631  0.7854
 8836SOL    HW138141   4.637   2.015   6.138 -0.8909 -0.6854  3.0638
 8836SOL    HW238142   4.636   1.910   6.235 -0.8242 -1.7614  0.3161
 8837SOL     OW38143   0.464   2.042   7.648 -0.0695 -0.4332 -0.4433
 8837SOL    HW138144   0.532   2.047   7.716  0.9961 -2.8989 -1.3656
 8837SOL    HW238145   0.515   2.056   7.568 -0.9525  0.9219 -0.7693
 8838SOL     OW38146   3.444   2.307   9.072 -0.0881 -0.1059 -0.7808
 8838SOL    HW138147   3.484   2.394   9.072  1.2216 -0.7031 -0.3587
 8838SOL    HW238148   3.517   2.251   9.099  0.5164  0.2652 -1.6256
 8839SOL     OW38149   1.271   3.898   6.134 -0.9117 -0.4706  0.0000
 8839SOL    HW138150   1.317   3.867   6.212  1.3998 -0.5674 -1.4002
 8839SOL    HW238151   1.314   3.850   6.063  1.4830 -0.6621  1.5700
 8840SOL     OW38152   0.145   1.536   8.514 -0.1707 -0.5491  0.0294
 8840SOL    HW138153   0.148   1.489   8.597  1.6330 -1.1586 -0.3766
 8840SOL    HW238154   0.227   1.584   8.515  0.0437 -0.9592  1.2554
 8841SOL     OW38155   3.352   3.410   8.011  0.2048  0.2364 -0.3398
 8841SOL    HW138156   3.288   3.420   7.940 -1.1014  2.8186  1.2038
 8841SOL    HW238157   3.349   3.498   8.047 -1.2445 -0.5925  1.5651
 8842SOL     OW38158   3.631   2.436   7.943  0.0152  0.1152  0.2215
 8842SOL    HW138159   3.549   2.401   7.978  0.1355 -0.5245 -0.1346
 8842SOL    HW238160   3.615   2.449   7.850 -1.3838 -2.7959  0.0450
 8843SOL     OW38161   2.557   3.293   7.268 -0.2681  0.1146 -0.3301
 8843SOL    HW138162   2.491   3.362   7.271  0.0700  0.3267  2.1437
 8843SOL    HW238163   2.568   3.285   7.173 -0.3244  1.0746 -0.4102
 8844SOL     OW38164   2.251   0.003   3.578  0.2076  0.3732  0.2436
 8844SOL    HW138165   2.177   4.715   3.636  0.1461 -0.6294 -0.2089
 8844SOL    HW238166   2.295   0.059   3.642 -0.7418  1.4314 -0.0401
 8845SOL     OW38167   1.868   4.098   7.951 -0.2865 -0.4580  0.4868
 8845SOL    HW138168   1.875   4.073   8.044 -0.7622  2.5916  1.3314
 8845SOL    HW238169   1.871   4.193   7.948 -1.0974 -0.4588 -0.2974
 8846SOL     OW38170   1.111   2.418   1.507  0.0614  0.1959 -0.0956
 8846SOL    HW138171   1.176   2.450   1.444  0.1775  0.0153 -0.0677
 8846SOL    HW238172   1.109   2.484   1.576  0.0380  0.2144 -0.1137
 8847SOL     OW38173   2.397   1.101   7.220 -0.3909 -0.5152 -0.0979
 8847SOL    HW138174   2.483   1.126   7.255 -0.8695  0.2942  0.4973
 8847SOL    HW238175   2.402   1.152   7.140  1.9721 -0.5606  0.0157
 8848SOL     OW38176   1.391   3.862   6.856  0.3864  0.0157 -0.5292
 8848SOL    HW138177   1.368   3.790   6.797 -2.4040 -0.5383  1.2153
 8848SOL    HW238178   1.420   3.814   6.933 -1.4362 -1.5113 -0.8057
 8849SOL     OW38179   4.632   0.955   1.388  0.3711  0.0180  0.3294
 8849SOL    HW138180   4.664   0.902   1.315  1.1011  0.9396 -0.0190
 8849SOL    HW238181   4.594   1.032   1.345  0.0373  0.4328  1.3678
 8850SOL     OW38182   2.391   3.076   6.104 -0.0688  0.3226 -0.3439
 8850SOL    HW138183   2.462   3.075   6.168 -0.0929  1.7624 -0.3063
 8850SOL    HW238184   2.358   3.166   6.099 -2.2504 -0.4124  0.5373
 8851SOL     OW38185   2.213   1.574  16.596  0.1770 -0.1576  0.1195
 8851SOL    HW138186   2.297   1.535  16.619  1.2732  2.0064 -0.1322
 8851SOL    HW238187   2.224   1.597  16.504 -1.7633 -2.6264 -0.7042
 8852SOL     OW38188   1.913   3.160   5.289  0.3153 -0.5451 -0.5758
 8852SOL    HW138189   1.826   3.123   5.275  0.9513 -0.6379 -4.2105
 8852SOL    HW238190   1.956   3.119   5.214  1.5792 -0.2078 -0.0412
 8853SOL     OW38191   4.397   2.198   7.465  0.1508  0.5173  0.1923
 8853SOL    HW138192   4.382   2.234   7.378  0.1385 -0.6383 -0.2858
 8853SOL    HW238193   4.407   2.106   7.439 -1.3260 -0.2376  2.2819
 8854SOL     OW38194   0.368   0.762   3.225 -0.0270 -0.1659  0.2832
 8854SOL    HW138195   0.384   0.805   3.141  2.4356 -2.5126 -0.4664
 8854SOL    HW238196   0.352   0.838   3.281 -0.6096 -0.0675 -0.0171
 8855SOL     OW38197   3.491   1.422   6.013 -0.3845 -0.2170 -0.5170
 8855SOL    HW138198   3.444   1.344   5.983  1.0591 -1.4045  0.3276
 8855SOL    HW238199   3.435   1.499   6.015 -1.0878 -0.7238 -0.3060
 8856SOL     OW38200   2.967   0.896  11.937 -0.0315 -0.5871  0.3225
 8856SOL    HW138201   2.954   0.887  11.842  1.3947  0.0126  0.0663
 8856SOL    HW238202   3.052   0.940  11.938 -0.1399 -0.4526  2.0058
 8857SOL     OW38203   4.369   2.772  15.303 -0.0281  0.5739 -0.3574
 8857SOL    HW138204   4.431   2.784  15.375  0.0161 -0.0515 -0.2934
 8857SOL    HW238205   4.289   2.744  15.347  0.5321  0.3149  0.4973
 8858SOL     OW38206   2.449   1.486   3.643  0.0639  0.3835  0.3905
 8858SOL    HW138207   2.411   1.420   3.585  0.1321 -0.3945  1.2442
 8858SOL    HW238208   2.534   1.441   3.647 -0.1536  0.0794  1.5534
 8859SOL     OW38209   1.870   1.337   5.049 -0.3240 -0.2981 -0.2420
 8859SOL    HW138210   1.961   1.333   5.019 -0.4311 -0.0083 -0.6088
 8859SOL    HW238211   1.882   1.414   5.105 -0.2521  0.1164 -0.8179
 8860SOL     OW38212   0.193   0.012   9.782  0.1746 -0.0372  0.0561
 8860SOL    HW138213   0.230   4.659   9.799 -0.4585 -0.7223 -2.1228
 8860SOL    HW238214   0.165   0.004   9.691 -1.9493  0.5523  0.6499
 8861SOL     OW38215   1.029   3.193   1.413 -0.1230  0.0208  0.1019
 8861SOL    HW138216   1.088   3.236   1.476 -0.1112 -1.1823  0.9156
 8861SOL    HW238217   1.005   3.117   1.466 -1.3810  0.7130  0.5133
 8862SOL     OW38218   2.027   0.843   3.341  0.3231  0.5502 -0.2292
 8862SOL    HW138219   2.020   0.788   3.263  0.7983 -2.8353  2.1417
 8862SOL    HW238220   2.119   0.848   3.367  0.1125  2.2711  0.1787
 8863SOL     OW38221   1.224   0.393   2.980 -0.3667 -1.2021  0.2539
 8863SOL    HW138222   1.218   0.420   2.888 -2.1919 -3.7424 -0.3758
 8863SOL    HW238223   1.291   0.326   2.969  1.8095  1.4691 -2.8961
 8864SOL     OW38224   4.443   2.172   3.460  0.7582 -0.0579 -0.4570
 8864SOL    HW138225   4.477   2.082   3.453  1.2209  0.0498  0.3420
 8864SOL    HW238226   4.360   2.149   3.418 -1.2401  1.9301  2.3976
 8865SOL     OW38227   4.239   0.244   2.575  0.5056  0.1968  0.0690
 8865SOL    HW138228   4.233   0.339   2.564  4.0142  0.3879 -0.2881
 8865SOL    HW238229   4.315   0.225   2.630  0.9283  0.3428 -0.4634
 8866SOL     OW38230   0.756   4.021   7.128  0.3426 -0.2882  0.2656
 8866SOL    HW138231   0.824   3.989   7.188 -1.1313 -2.3660  0.8171
 8866SOL    HW238232   0.816   4.048   7.058  0.7203  2.0174  1.4814
 8867SOL     OW38233   0.847   0.567  10.480  0.9970  0.9855  0.3904
 8867SOL    HW138234   0.877   0.592  10.567  2.9422  1.2107 -0.3507
 8867SOL    HW238235   0.934   0.557  10.440  1.0076  0.0311  0.6465
 8868SOL     OW38236   0.986   0.489   6.314  0.3126  0.4579  0.2723
 8868SOL    HW138237   0.894   0.464   6.319  0.2614  0.7969  1.1352
 8868SOL    HW238238   0.989   0.562   6.376 -1.6607  1.0119 -0.2722
 8869SOL     OW38239   3.537   0.424   0.660  0.0075 -0.2299 -0.7057
 8869SOL    HW138240   3.558   0.501   0.608 -0.1134  0.9804  1.0140
 8869SOL    HW238241   3.590   0.348   0.635  1.1283  1.1456 -2.4141
 8870SOL     OW38242   4.034   1.038   7.019 -0.5516 -0.0663 -0.2018
 8870SOL    HW138243   3.948   1.074   7.001 -0.4987 -0.9678 -2.3033
 8870SOL    HW238244   4.084   1.115   7.044 -0.1991 -1.0682  2.1690
 8871SOL     OW38245   4.129   1.426  12.445 -0.8018 -0.1745  0.0254
 8871SOL    HW138246   4.063   1.378  12.494 -0.6934  0.4459  0.7838
 8871SOL    HW238247   4.074   1.499  12.416 -0.4895 -0.2581 -0.7998
 8872SOL     OW38248   1.146   0.794   3.709  0.5137 -0.2803 -0.6765
 8872SOL    HW138249   1.135   0.718   3.653  0.8934 -1.1126  0.3778
 8872SOL    HW238250   1.165   0.748   3.791  0.6184 -0.0788 -0.5861
 8873SOL     OW38251   4.405   3.122   7.666 -0.1843 -0.3908 -0.4239
 8873SOL    HW138252   4.352   3.090   7.593 -1.1674  1.1361 -0.3900
 8873SOL    HW238253   4.336   3.175   7.707  1.4232  0.6510  0.9298
 8874SOL     OW38254   3.311   0.034  17.501 -0.0432 -0.4568  0.0467
 8874SOL    HW138255   3.382   0.097  17.516  1.3685 -2.7526  3.1543
 8874SOL    HW238256   3.315   0.025  17.406 -1.7590 -3.3828  0.2784
 8875SOL     OW38257   1.510   0.198   0.573 -0.2478 -0.7238  0.0306
 8875SOL    HW138258   1.587   0.193   0.516  0.0160  2.1881  0.1561
 8875SOL    HW238259   1.433   0.224   0.522  0.8120  0.2082 -1.1050
 8876SOL     OW38260   2.399   0.409   1.178  0.2898  0.7027  0.2123
 8876SOL    HW138261   2.387   0.472   1.249  1.0883  0.1637  0.8357
 8876SOL    HW238262   2.306   0.392   1.169  0.5439  0.3450 -1.7972
 8877SOL     OW38263   1.488   2.850   8.142 -0.4667  0.0994  0.1117
 8877SOL    HW138264   1.545   2.915   8.183 -0.0972 -0.0673 -0.1463
 8877SOL    HW238265   1.414   2.834   8.201  0.1392 -0.3677  0.7419
 8878SOL     OW38266   0.754   0.669  10.025  0.1792 -0.0024 -0.5979
 8878SOL    HW138267   0.762   0.764  10.017 -1.8488  0.1056 -1.3892
 8878SOL    HW238268   0.739   0.665  10.120  3.4442  1.2384 -0.0346
 8879SOL     OW38269   1.733   3.400   9.008 -0.0875 -0.5779  0.0924
 8879SOL    HW138270   1.780   3.424   9.088  1.2898 -0.7198 -0.6911
 8879SOL    HW238271   1.707   3.488   8.981 -2.5457 -1.6586 -1.0191
 8880SOL     OW38272   0.921   3.829   4.322  0.1061 -0.2684  0.3560
 8880SOL    HW138273   0.834   3.793   4.340 -0.1408 -0.6318 -1.5586
 8880SOL    HW238274   0.914   3.847   4.228 -4.9445 -0.3899  0.7166
 8881SOL     OW38275   2.657   3.435  15.196  0.2106  0.2789 -0.4061
 8881SOL    HW138276   2.663   3.345  15.165 -2.1567  0.3022 -0.9268
 8881SOL    HW238277   2.747   3.457  15.221  0.1535  1.1513 -0.9544
 8882SOL     OW38278   1.156   0.392  13.625 -0.5685  0.0103  0.1294
 8882SOL    HW138279   1.067   0.404  13.658 -0.9134 -0.4769 -0.6287
 8882SOL    HW238280   1.190   0.307  13.652  0.9413  1.0327  1.4420
 8883SOL     OW38281   0.523   1.158  11.091  0.0348 -0.1453  0.3835
 8883SOL    HW138282   0.475   1.236  11.118 -0.0963 -0.2417  0.4294
 8883SOL    HW238283   0.456   1.113  11.039 -0.7983  1.0337  0.4401
 8884SOL     OW38284   3.001   3.499   3.946 -1.3574 -0.3991 -0.3855
 8884SOL    HW138285   3.050   3.446   4.008 -1.4224 -0.6479 -0.5489
 8884SOL    HW238286   2.960   3.430   3.895  0.4928 -1.7080 -0.1161
 8885SOL     OW38287   1.246   1.462   7.350 -0.1184  0.3204 -0.0458
 8885SOL    HW138288   1.174   1.517   7.381 -0.9389  0.7434 -2.6892
 8885SOL    HW238289   1.242   1.466   7.254 -0.8491 -0.9829 -0.0680
 8886SOL     OW38290   3.055   1.541   3.222 -0.1168 -0.4743  0.6381
 8886SOL    HW138291   3.033   1.458   3.264  0.5438 -1.0983 -0.2323
 8886SOL    HW238292   3.008   1.602   3.279  0.4975  0.4801  0.1201
 8887SOL     OW38293   1.526   2.865   3.817  0.4284  0.2664 -0.1249
 8887SOL    HW138294   1.489   2.949   3.790 -2.1945 -0.1313  2.2043
 8887SOL    HW238295   1.529   2.827   3.729 -1.6411  0.7127 -0.3847
 8888SOL     OW38296   1.259   0.213  14.034 -0.2135  0.2158 -0.1651
 8888SOL    HW138297   1.245   0.199  13.940 -1.7641  2.9990 -0.3262
 8888SOL    HW238298   1.321   0.143  14.057 -1.6581 -1.3101 -0.8907
 8889SOL     OW38299   3.721   4.674   8.062 -0.1484  0.2331  0.0405
 8889SOL    HW138300   3.651   4.678   7.996 -2.5475 -0.1792  2.5796
 8889SOL    HW238301   3.707   4.593   8.110 -1.3774 -0.8295 -2.1114
 8890SOL     OW38302   3.681   4.293   5.098 -0.5815  0.3340 -0.0622
 8890SOL    HW138303   3.681   4.389   5.104 -2.1810  0.3442 -0.0708
 8890SOL    HW238304   3.771   4.276   5.125  0.0075  1.1989 -1.4809
 8891SOL     OW38305   2.994   1.308   4.933 -0.5828  0.3921 -0.1306
 8891SOL    HW138306   3.029   1.301   5.022  0.1714 -0.0825 -0.4546
 8891SOL    HW238307   2.938   1.385   4.939 -0.2763  0.4290  2.0988
 8892SOL     OW38308   2.704   0.135   2.375  0.0930  0.2668  0.3741
 8892SOL    HW138309   2.683   0.114   2.466 -1.3328  0.4114  0.0698
 8892SOL    HW238310   2.662   0.067   2.323 -0.1456  0.4077  0.3849
 8893SOL     OW38311   2.978   2.147   8.201 -0.5443  0.8460  0.3095
 8893SOL    HW138312   2.900   2.096   8.179  0.6304 -0.4063 -0.9878
 8893SOL    HW238313   2.935   2.185   8.278 -1.1616  0.0331  0.3636
 8894SOL     OW38314   0.033   4.626   1.234  0.3274  0.0811  0.2206
 8894SOL    HW138315   0.030   4.717   1.205 -0.8629 -0.5017 -1.4184
 8894SOL    HW238316   0.046   4.586   1.149 -2.1376 -0.0369 -0.0792
 8895SOL     OW38317   4.272   4.331  17.410 -0.3134 -0.2756  0.0161
 8895SOL    HW138318   4.268   4.236  17.400 -2.3273 -0.1266 -0.7629
 8895SOL    HW238319   4.270   4.362  17.319  0.0140 -0.2802  0.0096
 8896SOL     OW38320   2.062   1.565   2.559  0.5430  0.4465  0.1755
 8896SOL    HW138321   2.066   1.474   2.588 -1.2141  0.0017 -0.9807
 8896SOL    HW238322   2.049   1.560   2.465 -0.2173  1.2736  0.2407
 8897SOL     OW38323   2.885   2.647   5.607  0.1075  0.6591  0.3231
 8897SOL    HW138324   2.874   2.564   5.655 -0.7296  0.2626 -0.5513
 8897SOL    HW238325   2.861   2.623   5.518  0.9180 -0.6898  0.4597
 8898SOL     OW38326   1.969   4.062  16.529  0.0549  0.0873 -0.5788
 8898SOL    HW138327   2.052   4.095  16.492 -0.8118  0.5242 -2.1603
 8898SOL    HW238328   2.002   3.980  16.566  2.2290  1.6088  0.8529
 8899SOL     OW38329   0.170   2.458  10.069 -0.3426 -0.2047  0.2057
 8899SOL    HW138330   0.234   2.386  10.070  1.1031  1.0541 -1.1423
 8899SOL    HW238331   0.213   2.524  10.014 -0.8274 -0.1045 -0.0523
 8900SOL     OW38332   4.448   1.851  14.248  0.0667  0.0395  0.5098
 8900SOL    HW138333   4.367   1.820  14.288  0.0402  1.0949  1.2785
 8900SOL    HW238334   4.508   1.851  14.323 -0.1240  2.4214  0.6588
 8901SOL     OW38335   2.509   4.482   0.318  0.3506 -0.2302 -0.1296
 8901SOL    HW138336   2.566   4.552   0.286 -0.2097 -0.4173 -1.5550
 8901SOL    HW238337   2.533   4.478   0.411  0.2216 -0.6641 -0.1132
 8902SOL     OW38338   4.058   4.135   7.645  0.1367  0.3330 -0.2751
 8902SOL    HW138339   4.051   4.084   7.726  3.0442 -0.9582 -0.8233
 8902SOL    HW238340   4.083   4.224   7.669  1.5275 -0.1156 -0.0582
 8903SOL     OW38341   0.836   1.421   7.990  0.1206  0.4023 -0.7505
 8903SOL    HW138342   0.781   1.454   7.919 -1.7149 -0.6344  0.1661
 8903SOL    HW238343   0.797   1.339   8.021  1.2387  0.5089  0.9474
 8904SOL     OW38344   3.697   2.932   3.141  0.8065  0.4331 -0.1934
 8904SOL    HW138345   3.750   3.011   3.150  0.3481  0.5907  1.1764
 8904SOL    HW238346   3.772   2.878   3.115 -0.9161 -1.1923 -1.8012
 8905SOL     OW38347   1.937   2.788   7.850 -0.1710 -0.3323  0.0926
 8905SOL    HW138348   1.904   2.829   7.770 -0.1538  2.7093  1.6484
 8905SOL    HW238349   1.954   2.698   7.823 -1.9577 -0.1193 -1.7803
 8906SOL     OW38350   3.455   0.431   2.242  0.0915  0.2065 -0.0069
 8906SOL    HW138351   3.371   0.385   2.252 -1.6641  3.0827 -1.7228
 8906SOL    HW238352   3.514   0.355   2.246 -1.8585 -1.5201 -3.2584
 8907SOL     OW38353   2.511   0.016   4.948 -0.3941 -0.4937 -0.2425
 8907SOL    HW138354   2.442   4.695   4.985 -0.6949  0.4981  0.7073
 8907SOL    HW238355   2.457   0.092   4.923 -0.3343 -0.4768 -0.3170
 8908SOL     OW38356   0.620   1.611   2.677 -0.0467 -1.0129  0.2418
 8908SOL    HW138357   0.538   1.575   2.643 -0.1179 -0.8348  0.2267
 8908SOL    HW238358   0.585   1.658   2.753  1.0088  1.6609 -0.9668
 8909SOL     OW38359   2.415   0.532   2.947  0.2946 -0.1206  0.2723
 8909SOL    HW138360   2.419   0.437   2.935  0.4926  0.1415 -1.7660
 8909SOL    HW238361   2.324   0.552   2.926 -0.1078 -1.1799  1.0350
 8910SOL     OW38362   0.226   0.331  16.405  0.0979 -0.5038  0.5319
 8910SOL    HW138363   0.163   0.294  16.467 -1.1838 -2.2936 -1.8533
 8910SOL    HW238364   0.186   0.329  16.318 -2.2190  1.2357  1.5583
 8911SOL     OW38365   4.335   2.074   2.637  0.0916  0.3468 -0.7133
 8911SOL    HW138366   4.301   2.006   2.578  1.2058  0.9013 -1.9954
 8911SOL    HW238367   4.361   2.134   2.567  0.3481 -0.4005 -1.2577
 8912SOL     OW38368   1.503   3.964   4.784 -0.0254 -0.4070 -0.0927
 8912SOL    HW138369   1.443   3.959   4.710  0.8592 -0.6334 -0.7855
 8912SOL    HW238370   1.545   3.878   4.776  0.8722  0.2244 -2.0684
 8913SOL     OW38371   2.579   1.333   8.054 -0.3057  0.3271 -0.2580
 8913SOL    HW138372   2.618   1.398   8.112  0.8003 -0.8140  0.2855
 8913SOL    HW238373   2.627   1.359   7.975  2.7027  0.3824  1.5927
 8914SOL     OW38374   2.788   3.470   2.623 -0.2281  0.0461  0.1244
 8914SOL    HW138375   2.747   3.389   2.654  1.8622 -1.5512 -1.3095
 8914SOL    HW238376   2.717   3.505   2.569  1.0640  3.5448  0.6842
 8915SOL     OW38377   1.730   0.379   3.630  0.0034  0.1285 -0.0885
 8915SOL    HW138378   1.730   0.437   3.554 -0.2100 -1.8757 -1.6077
 8915SOL    HW238379   1.701   0.442   3.697 -0.7125  0.3274 -0.5938
 8916SOL     OW38380   3.673   2.129   8.018 -0.4706  0.1523 -0.6729
 8916SOL    HW138381   3.754   2.082   7.999 -0.2414  0.1760  0.2786
 8916SOL    HW238382   3.675   2.186   7.941  0.2747  0.3603 -0.5003
 8917SOL     OW38383   1.105   2.564   8.482 -0.1336  0.6743 -0.2066
 8917SOL    HW138384   1.028   2.543   8.536  1.4591 -1.0912  1.3790
 8917SOL    HW238385   1.178   2.569   8.543  0.0267  0.3657 -0.3733
 8918SOL     OW38386   3.758   4.333   6.877  0.9449  0.5784  0.2078
 8918SOL    HW138387   3.763   4.239   6.862 -0.1216  0.4881  0.3921
 8918SOL    HW238388   3.779   4.326   6.971 -0.0876 -0.6971  0.3443
 8919SOL     OW38389   2.137   1.883   2.634 -0.4336 -0.2009  0.1752
 8919SOL    HW138390   2.231   1.895   2.650 -0.2756 -0.5664 -0.4593
 8919SOL    HW238391   2.131   1.791   2.608  1.4961 -0.7343  1.5442
 8920SOL     OW38392   3.245   0.432   9.178 -0.5459 -0.2034 -0.0646
 8920SOL    HW138393   3.185   0.361   9.153  0.3984 -0.0324 -2.7378
 8920SOL    HW238394   3.305   0.379   9.230 -1.4600 -1.8090 -0.6340
 8921SOL     OW38395   0.217   3.461   7.071  0.1967 -0.1410  0.1161
 8921SOL    HW138396   0.209   3.541   7.122  0.5977 -0.4006  0.5912
 8921SOL    HW238397   0.143   3.477   7.013  0.9461 -0.7778 -1.0271
 8922SOL     OW38398   3.912   2.516  15.337 -0.2614 -0.3750  0.0666
 8922SOL    HW138399   3.936   2.475  15.254  0.1058  1.3634 -0.6806
 8922SOL    HW238400   3.952   2.602  15.327  0.2528 -0.8085 -1.5390
 8923SOL     OW38401   1.627   3.232  12.075  0.0959  0.0728  0.5828
 8923SOL    HW138402   1.690   3.178  12.122  0.1826 -0.7175 -0.4461
 8923SOL    HW238403   1.679   3.266  12.002  0.8081 -2.2173  0.0322
 8924SOL     OW38404   3.655   2.105   6.977 -0.1383  0.3786  0.3945
 8924SOL    HW138405   3.633   2.032   6.919  1.1659  1.5461 -1.5775
 8924SOL    HW238406   3.580   2.163   6.968 -0.9766 -1.0159 -1.6902
 8925SOL     OW38407   2.403   2.777   5.694  0.5315 -0.3519 -0.2960
 8925SOL    HW138408   2.320   2.766   5.647  0.6831 -0.4227 -0.5444
 8925SOL    HW238409   2.460   2.766   5.619 -0.5945  0.7986 -1.3260
 8926SOL     OW38410   4.621   1.466   1.391  0.4128  0.1740  0.1884
 8926SOL    HW138411   4.587   1.554   1.406 -2.1306 -0.6198 -0.8780
 8926SOL    HW238412   4.689   1.461   1.458  0.3728 -0.7719  0.1649
 8927SOL     OW38413   4.424   3.319   2.347  0.0595 -0.6838  0.2699
 8927SOL    HW138414   4.430   3.224   2.357  0.9583 -0.3458  3.1628
 8927SOL    HW238415   4.329   3.322   2.337  0.2093  1.0901 -0.6144
 8928SOL     OW38416   3.532   0.443   5.550  0.2948  0.0133 -0.1085
 8928SOL    HW138417   3.605   0.494   5.585  0.7342  0.4505 -1.6626
 8928SOL    HW238418   3.473   0.513   5.526  1.9292  1.6350  0.6032
 8929SOL     OW38419   0.116   0.480   9.209  0.6373 -0.0252 -0.5213
 8929SOL    HW138420   0.088   0.397   9.170  0.9655  0.0658 -0.9491
 8929SOL    HW238421   0.205   0.457   9.237  0.4407 -0.1550 -0.0005
 8930SOL     OW38422   3.161   1.970   4.604 -0.1878 -0.1072  0.9497
 8930SOL    HW138423   3.134   2.062   4.597  1.2939  0.2175 -0.7367
 8930SOL    HW238424   3.174   1.958   4.698  2.3419 -0.8349  0.5189
 8931SOL     OW38425   1.326   2.568   2.416 -0.0865 -0.3673  0.5425
 8931SOL    HW138426   1.356   2.611   2.336  2.2905 -1.4840  0.8169
 8931SOL    HW238427   1.402   2.580   2.473 -1.3362 -0.2410  2.1960
 8932SOL     OW38428   1.870   4.344   8.449  0.1236  0.7822  0.6694
 8932SOL    HW138429   1.845   4.434   8.473  1.1375  0.8194  1.5806
 8932SOL    HW238430   1.939   4.322   8.511  0.4303  1.8578  0.7176
 8933SOL     OW38431   1.765   1.950   2.817 -0.3733 -0.4896 -0.0620
 8933SOL    HW138432   1.831   1.934   2.885 -1.4752  2.2758  1.6326
 8933SOL    HW238433   1.683   1.934   2.862 -1.3785  2.1974 -0.9150
 8934SOL     OW38434   0.135   4.549   6.510  0.1724  0.1260  0.4032
 8934SOL    HW138435   0.066   4.496   6.551 -2.4804  1.3053 -2.5377
 8934SOL    HW238436   0.184   4.488   6.456 -0.7897  0.9492 -1.4043
 8935SOL     OW38437   1.612   4.509   5.437  0.1411  0.1695  0.2421
 8935SOL    HW138438   1.615   4.415   5.419 -2.0253  0.0586  0.4701
 8935SOL    HW238439   1.706   4.526   5.448 -0.0894  0.5776  1.5324
 8936SOL     OW38440   2.667   3.494   6.857 -0.0651  0.4689 -0.1682
 8936SOL    HW138441   2.608   3.569   6.856 -0.9756 -0.2319  0.6626
 8936SOL    HW238442   2.667   3.478   6.763  1.1961 -2.3305  0.3097
 8937SOL     OW38443   1.213   3.676  14.326  0.3283  0.0050  0.0981
 8937SOL    HW138444   1.196   3.600  14.272  0.2588 -0.8039  1.2580
 8937SOL    HW238445   1.269   3.723  14.264 -0.0923  1.9208  1.1459
 8938SOL     OW38446   4.487   4.536   4.459 -0.5353 -0.8103 -0.3706
 8938SOL    HW138447   4.491   4.517   4.365  1.6750 -1.9533 -0.0500
 8938SOL    HW238448   4.565   4.588   4.479 -0.0898 -1.3412 -0.7287
 8939SOL     OW38449   1.969   3.031   1.469  0.0268 -0.2192 -0.4092
 8939SOL    HW138450   1.896   2.969   1.471  0.8645 -1.2008  0.1146
 8939SOL    HW238451   2.045   2.973   1.471 -0.1492 -0.4371 -0.0397
 8940SOL     OW38452   3.319   0.528  10.793  0.3377 -0.7544 -0.0659
 8940SOL    HW138453   3.392   0.540  10.854 -0.0166  3.2558 -0.4371
 8940SOL    HW238454   3.281   0.615  10.805 -2.0191 -1.8538  0.3288
 8941SOL     OW38455   1.355   4.000  15.619 -0.2514 -0.2328  0.5819
 8941SOL    HW138456   1.314   4.078  15.582 -1.5269 -0.3233  1.7942
 8941SOL    HW238457   1.439   3.986  15.575 -0.1140  0.5992  0.5802
 8942SOL     OW38458   2.062   2.415   4.030  0.6268  0.1937 -0.2119
 8942SOL    HW138459   2.140   2.361   4.017 -0.1227 -0.7462 -0.7416
 8942SOL    HW238460   2.084   2.508   4.032 -1.0472  0.6292 -2.8025
 8943SOL     OW38461   3.033   2.333  17.699 -0.4684  0.7170 -0.3954
 8943SOL    HW138462   3.009   2.395   0.032 -1.5064  0.2591 -0.3486
 8943SOL    HW238463   3.125   2.354  17.679 -0.4643  0.4475 -0.6538
 8944SOL     OW38464   2.562   3.720  10.419  0.2681 -0.3586 -0.1225
 8944SOL    HW138465   2.606   3.723  10.334 -0.2010 -2.3953 -0.4529
 8944SOL    HW238466   2.490   3.661  10.395 -0.5722  1.0047 -0.9569
 8945SOL     OW38467   1.485   2.313  12.966  0.3105 -0.5781 -0.2345
 8945SOL    HW138468   1.514   2.392  12.921  2.8442 -0.0669  2.3367
 8945SOL    HW238469   1.515   2.238  12.913  2.4705  0.5606 -0.6096
 8946SOL     OW38470   4.123   2.665   2.266 -0.4018  0.5805 -0.0445
 8946SOL    HW138471   4.201   2.673   2.211 -0.4107  0.7967 -0.0280
 8946SOL    HW238472   4.165   2.705   2.343  2.6536 -1.3213 -0.7112
 8947SOL     OW38473   4.290   2.957   5.561  0.2539 -0.0749  0.0118
 8947SOL    HW138474   4.294   2.952   5.466 -0.2848  1.2882 -0.0915
 8947SOL    HW238475   4.267   3.048   5.584 -1.0616 -0.4993  0.3789
 8948SOL     OW38476   4.327   1.266   4.455  0.4470 -0.1154  0.2588
 8948SOL    HW138477   4.372   1.184   4.437  0.0440 -0.4173  0.6066
 8948SOL    HW238478   4.237   1.260   4.422  0.4968  1.0526 -0.1228
 8949SOL     OW38479   3.519   1.841   5.947  0.4900  0.2055 -0.0101
 8949SOL    HW138480   3.452   1.904   5.919  0.9599  1.0847  0.8416
 8949SOL    HW238481   3.467   1.792   6.011  0.9940  0.5885  0.6866
 8950SOL     OW38482   2.064   3.820   6.738 -0.0245 -0.1666 -0.4872
 8950SOL    HW138483   2.136   3.787   6.685  0.0894 -0.5361 -0.0945
 8950SOL    HW238484   1.988   3.801   6.682 -1.4692 -0.1544  1.4724
 8951SOL     OW38485   0.499   2.193  14.365 -0.4415  0.5063  0.0947
 8951SOL    HW138486   0.564   2.124  14.353 -1.3800 -0.2743 -0.5269
 8951SOL    HW238487   0.419   2.146  14.340 -0.1733  0.0303  0.1373
 8952SOL     OW38488   3.921   2.977   9.944  0.0366 -0.2044  0.3146
 8952SOL    HW138489   3.866   3.006   9.871  1.7974 -0.2270 -1.0184
 8952SOL    HW238490   3.928   3.050  10.006 -4.8889  0.5417 -0.0464
 8953SOL     OW38491   0.136   3.218   1.524  0.1468 -0.0854  0.0072
 8953SOL    HW138492   0.081   3.214   1.445 -1.3308  0.2256  1.0232
 8953SOL    HW238493   0.074   3.195   1.593  2.0309 -1.7291  1.1575
 8954SOL     OW38494   1.825   3.093   3.477  0.0644 -0.7869 -0.0047
 8954SOL    HW138495   1.753   3.110   3.416  1.9942 -2.6616 -2.8126
 8954SOL    HW238496   1.869   3.022   3.429  1.8334  0.1524  0.2455
 8955SOL     OW38497   3.652   4.478  12.419 -0.6619 -0.0341  0.0045
 8955SOL    HW138498   3.741   4.465  12.452 -0.3304 -0.2575 -0.9950
 8955SOL    HW238499   3.633   4.542  12.487 -0.0840  0.7099 -0.5332
 8956SOL     OW38500   4.019   4.150   0.897  0.5742 -0.1743 -0.0166
 8956SOL    HW138501   3.929   4.180   0.891  0.9957  1.4314  1.8610
 8956SOL    HW238502   4.022   4.110   0.984 -1.7436  0.7615  0.4712
 8957SOL     OW38503   2.822   1.366   1.722  0.0722 -0.0896 -0.4045
 8957SOL    HW138504   2.843   1.353   1.630 -0.3339  1.8771 -0.7854
 8957SOL    HW238505   2.774   1.286   1.739 -0.9177  1.0168  2.0282
 8958SOL     OW38506   4.036   2.104  13.219  0.8520  0.5094 -0.4006
 8958SOL    HW138507   4.084   2.123  13.300  0.6140 -1.1401  0.1387
 8958SOL    HW238508   4.091   2.133  13.146 -2.1644  2.2867 -1.9254
 8959SOL     OW38509   0.315   3.927  13.889  0.0705 -0.3195 -0.6714
 8959SOL    HW138510   0.406   3.928  13.917 -0.1357 -0.9531  0.0410
 8959SOL    HW238511   0.273   3.969  13.964 -2.2368 -0.6921 -1.7236
 8960SOL     OW38512   3.769   3.589   0.294 -0.1512  0.0946  0.0849
 8960SOL    HW138513   3.841   3.612   0.235 -0.7266  0.3990 -0.4923
 8960SOL    HW238514   3.718   3.663   0.261  0.3275  0.8915  1.1440
 8961SOL     OW38515   2.162   3.164   2.655  0.5652 -0.4553  0.3390
 8961SOL    HW138516   2.078   3.207   2.634 -0.1713 -0.6744  2.8908
 8961SOL    HW238517   2.173   3.167   2.750 -0.8779  1.5392  0.4336
 8962SOL     OW38518   3.111   1.376  15.940  0.1872  0.0683 -0.5624
 8962SOL    HW138519   3.171   1.446  15.915  0.0566 -0.0731 -1.2745
 8962SOL    HW238520   3.034   1.429  15.958 -0.9382 -1.0289 -2.2038
 8963SOL     OW38521   4.337   4.506   6.566  0.9569  0.4010 -0.3404
 8963SOL    HW138522   4.293   4.549   6.640 -0.8386  1.6991 -2.1539
 8963SOL    HW238523   4.410   4.474   6.619 -0.1178  0.1118  0.9781
 8964SOL     OW38524   1.262   3.881  14.966  0.0354  0.1619  0.4313
 8964SOL    HW138525   1.169   3.863  14.956 -0.2720  1.5094  0.8462
 8964SOL    HW238526   1.295   3.836  14.888 -0.3138  0.5741  0.0429
 8965SOL     OW38527   0.906   2.674  13.120 -0.3308 -0.0604 -0.5920
 8965SOL    HW138528   0.847   2.600  13.131  0.1861 -0.2891  0.6629
 8965SOL    HW238529   0.970   2.665  13.191 -1.0498 -0.1986  0.0394
 8966SOL     OW38530   1.340   3.955   4.557 -0.3186 -0.5360  0.3716
 8966SOL    HW138531   1.329   4.000   4.473  0.3266  0.6148  0.9059
 8966SOL    HW238532   1.253   3.917   4.569 -0.3979 -0.4413  0.0916
 8967SOL     OW38533   0.374   4.462   7.158  0.0238  0.2747 -0.6160
 8967SOL    HW138534   0.364   4.437   7.250 -2.0661  1.5851 -0.4855
 8967SOL    HW238535   0.308   4.527   7.136  0.8677  0.8579 -1.4378
 8968SOL     OW38536   2.197   1.744   3.014 -0.3495  0.0508 -0.0283
 8968SOL    HW138537   2.214   1.753   3.108 -0.4194 -0.4004  0.0264
 8968SOL    HW238538   2.286   1.731   2.980  0.5754 -1.5111  2.9438
 8969SOL     OW38539   0.369   2.501   3.340 -0.5583  0.3914  0.1894
 8969SOL    HW138540   0.369   2.589   3.379  1.5009  0.2500  0.5068
 8969SOL    HW238541   0.360   2.521   3.247 -0.6343  2.6012  0.6607
 8970SOL     OW38542   2.757   0.524   5.783  0.4860  0.1278 -0.2700
 8970SOL    HW138543   2.686   0.587   5.768 -0.7528 -0.8469  1.6289
 8970SOL    HW238544   2.828   0.578   5.746  0.0458  0.6186 -0.3927
 8971SOL     OW38545   2.479   1.645  17.459 -0.0041  0.3899 -0.1735
 8971SOL    HW138546   2.454   1.726  17.416 -0.4776  1.1571  1.5472
 8971SOL    HW238547   2.405   1.622  17.516  0.4875  0.6752  0.5753
 8972SOL     OW38548   3.696   2.505   7.045 -0.4852 -0.6559  0.5018
 8972SOL    HW138549   3.765   2.456   7.000 -0.3722 -0.1927  0.1696
 8972SOL    HW238550   3.651   2.435   7.092 -2.3819 -0.0027 -0.3680
 8973SOL     OW38551   2.587   4.622  11.629 -1.1252  0.1470  0.4322
 8973SOL    HW138552   2.619   4.633  11.719  0.7005 -1.1492 -0.0554
 8973SOL    HW238553   2.593   4.527  11.622 -0.0190  0.1236  1.6872
 8974SOL     OW38554   2.691   1.462   1.124  0.1028 -0.3547  0.1876
 8974SOL    HW138555   2.700   1.411   1.044 -0.5514 -0.0486 -0.0756
 8974SOL    HW238556   2.604   1.442   1.159 -0.1605 -0.0317 -0.2934
 8975SOL     OW38557   3.367   1.893   1.799 -0.3663  0.3396 -0.3126
 8975SOL    HW138558   3.381   1.866   1.708 -0.6887 -0.7876 -0.0267
 8975SOL    HW238559   3.291   1.838   1.816  0.0872 -0.0480  0.4605
 8976SOL     OW38560   4.101   4.679  16.212 -0.0238 -0.3425  0.3642
 8976SOL    HW138561   4.179   4.686  16.267  0.2313  1.6692 -0.2468
 8976SOL    HW238562   4.139   4.714  16.131 -0.1836 -1.7060 -0.3074
 8977SOL     OW38563   2.230   2.464   1.945 -0.1263 -0.4852 -0.1934
 8977SOL    HW138564   2.319   2.450   1.979 -0.0805  0.3095  0.0317
 8977SOL    HW238565   2.225   2.385   1.892 -0.9523  0.6813 -1.8347
 8978SOL     OW38566   3.747   0.081   8.741 -0.7169  0.1591  0.4258
 8978SOL    HW138567   3.691   0.156   8.719 -1.1374 -0.2702  0.0267
 8978SOL    HW238568   3.791   0.123   8.814 -1.5545  1.4811  0.1792
 8979SOL     OW38569   2.259   3.820   4.944 -0.2871 -0.9578 -0.2524
 8979SOL    HW138570   2.236   3.893   5.002 -0.8225 -1.5229  0.2552
 8979SOL    HW238571   2.354   3.825   4.949 -0.6576  2.5390  3.3952
 8980SOL     OW38572   3.047   4.107   7.984 -0.2263 -0.2698 -0.2549
 8980SOL    HW138573   3.009   4.180   7.935 -2.8822 -2.0510 -0.8604
 8980SOL    HW238574   2.976   4.043   7.994 -0.0996 -0.0519  1.9378
 8981SOL     OW38575   4.292   0.133   9.645  0.1958  0.3821  0.1187
 8981SOL    HW138576   4.294   0.062   9.709  0.7377 -1.5342 -2.0287
 8981SOL    HW238577   4.253   0.203   9.698 -1.7981 -0.5241 -0.1333
 8982SOL     OW38578   3.816   1.188   9.260  0.2115  0.6864  0.1310
 8982SOL    HW138579   3.762   1.204   9.183  0.9122 -1.4650 -0.8167
 8982SOL    HW238580   3.783   1.255   9.320  1.3165  1.9560 -0.6680
 8983SOL     OW38581   0.690   2.571   5.898 -0.2435  0.3682 -0.6754
 8983SOL    HW138582   0.613   2.570   5.956 -0.1410 -1.0680 -0.5758
 8983SOL    HW238583   0.763   2.569   5.960 -0.4130 -2.1482 -0.5618
 8984SOL     OW38584   2.910   1.281   4.285 -0.1391 -0.4068  0.2894
 8984SOL    HW138585   2.904   1.187   4.271  0.1141 -0.1679 -1.3950
 8984SOL    HW238586   2.977   1.283   4.354 -0.5869  0.1547  0.7155
 8985SOL     OW38587   4.577   1.920   3.437 -0.7827 -0.7042 -0.0132
 8985SOL    HW138588   4.660   1.872   3.442 -1.1223 -1.2150  0.7211
 8985SOL    HW238589   4.531   1.863   3.375 -1.4656  0.4111 -0.5170
 8986SOL     OW38590   4.585   2.129   8.568  0.1023 -0.1683  0.5757
 8986SOL    HW138591   4.671   2.127   8.610  0.4387  1.5769 -0.0212
 8986SOL    HW238592   4.543   2.092   8.646  2.1573  1.0876  2.2885
 8987SOL     OW38593   2.274   0.893  15.208  0.4374  0.3088  0.5251
 8987SOL    HW138594   2.289   0.842  15.288  0.5205  0.5659  0.6734
 8987SOL    HW238595   2.291   0.825  15.142 -0.7541  0.6954 -0.1831
 8988SOL     OW38596   0.924   1.617   6.830  0.5628  0.3187 -0.3538
 8988SOL    HW138597   1.013   1.651   6.843  0.1598  1.4651 -0.5926
 8988SOL    HW238598   0.891   1.649   6.914 -0.5876 -0.6220 -0.4501
 8989SOL     OW38599   2.369   3.583   1.049  0.4233  0.5069 -0.4472
 8989SOL    HW138600   2.280   3.558   1.023 -0.3565  2.8378 -0.0370
 8989SOL    HW238601   2.427   3.548   0.982 -0.5628  0.1300 -1.0993
 8990SOL     OW38602   3.811   2.626  11.942 -0.1544 -0.1409  0.5006
 8990SOL    HW138603   3.885   2.673  11.904 -1.2229 -0.2344 -1.6831
 8990SOL    HW238604   3.768   2.590  11.864  0.2482  0.9145 -0.2005
 8991SOL     OW38605   1.897   3.817  16.394 -0.0066 -0.3292 -0.2457
 8991SOL    HW138606   1.890   3.906  16.427  1.1949 -0.4727  0.3897
 8991SOL    HW238607   1.969   3.794  16.453  0.0581  0.4731 -0.0110
 8992SOL     OW38608   0.275   1.165   3.589 -0.0630 -0.2089 -0.2057
 8992SOL    HW138609   0.328   1.163   3.668 -0.6980 -0.5295  0.2210
 8992SOL    HW238610   0.302   1.252   3.561 -0.2605 -0.2652 -0.5762
 8993SOL     OW38611   3.215   4.113  15.435  0.0489  0.0604 -0.1709
 8993SOL    HW138612   3.179   4.139  15.350 -1.7326 -0.1046  0.5368
 8993SOL    HW238613   3.267   4.036  15.412 -0.4689 -0.6015  0.8746
 8994SOL     OW38614   0.721   4.045   0.431  0.2341 -0.0484 -0.2594
 8994SOL    HW138615   0.660   4.029   0.503  1.8640 -0.4112  1.0348
 8994SOL    HW238616   0.663   4.078   0.362  0.0097  1.3714  0.6127
 8995SOL     OW38617   4.318   3.091   6.858 -0.1397 -0.2306 -0.4521
 8995SOL    HW138618   4.242   3.141   6.889  1.2879  1.5161  0.1982
 8995SOL    HW238619   4.315   3.018   6.920 -0.7782 -0.6775 -1.0123
 8996SOL     OW38620   1.557   0.668   0.164  0.3069  0.4383  0.1959
 8996SOL    HW138621   1.475   0.677   0.116  0.8100 -0.9312 -0.9312
 8996SOL    HW238622   1.529   0.727   0.234 -0.4884 -0.5426  0.6941
 8997SOL     OW38623   1.488   0.335   3.875  0.1262 -0.2137  0.2998
 8997SOL    HW138624   1.418   0.369   3.932  0.7272  0.6513  0.5234
 8997SOL    HW238625   1.543   0.413   3.865 -0.8450  0.3063 -0.9857
 8998SOL     OW38626   0.751   2.359   8.303 -0.3825 -0.5177 -0.1284
 8998SOL    HW138627   0.819   2.304   8.343  0.2437 -0.4695 -1.1234
 8998SOL    HW238628   0.672   2.310   8.324 -1.7345  1.5092 -0.4385
 8999SOL     OW38629   0.591   2.427   4.604 -0.0043  0.2852 -0.0331
 8999SOL    HW138630   0.676   2.442   4.646  0.0147  0.6475 -0.2016
 8999SOL    HW238631   0.583   2.331   4.604  0.8368  0.1999 -1.3684
 9000SOL     OW38632   1.984   0.379   8.313  0.1887 -0.3552  0.1543
 9000SOL    HW138633   1.971   0.358   8.406  2.6122 -3.2126 -0.1374
 9000SOL    HW238634   2.031   0.302   8.281  0.5628  1.1851 -3.0183
 9001SOL     OW38635   0.785   4.638   2.430  0.8235 -0.0541 -0.3148
 9001SOL    HW138636   0.819   4.718   2.390  0.9945  1.9794  3.9431
 9001SOL    HW238637   0.778   4.582   2.353  1.2542 -1.5102  0.7138
 9002SOL     OW38638   1.827   1.974   0.295  0.3137 -0.2702  0.1477
 9002SOL    HW138639   1.819   1.975   0.200  1.4779 -1.7350  0.0292
 9002SOL    HW238640   1.733   1.963   0.311  0.5242 -0.6612  1.1028
 9003SOL     OW38641   1.180   0.942   1.589  1.1128  0.4174 -0.6684
 9003SOL    HW138642   1.213   0.871   1.646  1.1112 -0.9000 -2.2964
 9003SOL    HW238643   1.164   1.018   1.644 -1.8319  0.0783 -1.0565
 9004SOL     OW38644   3.999   1.741  12.744 -0.5416  0.3062  0.0237
 9004SOL    HW138645   3.924   1.682  12.732  0.1129  0.2793 -4.0795
 9004SOL    HW238646   4.069   1.677  12.761 -0.0133  0.9117  0.1360
 9005SOL     OW38647   3.132   0.099   6.008 -0.4863  0.0209 -0.0251
 9005SOL    HW138648   3.037   0.085   6.005 -0.3682 -1.3904  2.5892
 9005SOL    HW238649   3.166   0.010   6.013 -1.5612 -0.3736  0.4932
 9006SOL     OW38650   2.283   4.322  16.183  1.1306 -0.1310 -0.1288
 9006SOL    HW138651   2.376   4.303  16.195  1.0258 -2.6787 -3.4693
 9006SOL    HW238652   2.275   4.318  16.088  1.2673 -4.5913  0.0508
 9007SOL     OW38653   0.717   3.169   2.160  0.4246 -0.4991  0.3445
 9007SOL    HW138654   0.778   3.102   2.189  0.3678 -1.1844 -1.1406
 9007SOL    HW238655   0.670   3.135   2.084  1.3599 -2.7040  0.7611
 9008SOL     OW38656   1.872   0.641   5.775  0.5435 -0.4733  0.0969
 9008SOL    HW138657   1.925   0.561   5.771 -0.4457 -1.1408  0.3245
 9008SOL    HW238658   1.935   0.698   5.731  0.4431  0.4453  1.1290
 9009SOL     OW38659   3.445   3.670  14.364  0.7704  0.2850  0.0701
 9009SOL    HW138660   3.376   3.608  14.342 -1.3249  3.1427 -1.3679
 9009SOL    HW238661   3.507   3.651  14.294  0.4306 -2.8634  0.6046
 9010SOL     OW38662   3.079   4.134  11.160 -0.2543 -0.2778 -0.3079
 9010SOL    HW138663   3.103   4.227  11.151 -0.0569 -0.2511  0.4436
 9010SOL    HW238664   3.137   4.091  11.098  2.0256  1.5337  0.5535
 9011SOL     OW38665   1.365   2.533   8.404 -0.0471  0.3476 -0.4454
 9011SOL    HW138666   1.287   2.497   8.446  0.2453 -1.0345 -1.1046
 9011SOL    HW238667   1.335   2.526   8.314  1.1816 -0.0632 -0.8228
 9012SOL     OW38668   3.002   0.508   4.989 -0.2951 -0.0598  0.1042
 9012SOL    HW138669   2.980   0.561   5.066  0.2680  1.8971 -1.0736
 9012SOL    HW238670   2.915   0.486   4.955 -1.0801 -1.3332  2.9227
 9013SOL     OW38671   3.642   1.186   2.202 -0.7187  1.0032 -0.2914
 9013SOL    HW138672   3.609   1.193   2.112  0.2841 -0.7243 -0.7920
 9013SOL    HW238673   3.565   1.154   2.249  0.7405  2.5870  3.2248
 9014SOL     OW38674   1.657   2.321   4.594 -0.1207 -0.3024 -0.2537
 9014SOL    HW138675   1.623   2.258   4.657  0.6467 -1.4269 -0.9757
 9014SOL    HW238676   1.593   2.317   4.522  0.4340 -1.3676 -0.6801
 9015SOL     OW38677   2.260   1.816  16.837 -0.3944  0.1161  0.3363
 9015SOL    HW138678   2.260   1.779  16.748 -0.1915  0.3554  0.2379
 9015SOL    HW238679   2.323   1.885  16.816 -1.6721  2.1045  3.0166
 9016SOL     OW38680   2.657   2.184   6.106 -0.2858 -0.1357  0.2343
 9016SOL    HW138681   2.721   2.228   6.162 -2.1679 -0.4786  2.7032
 9016SOL    HW238682   2.583   2.245   6.100 -1.9170 -1.8205  2.9604
 9017SOL     OW38683   4.220   3.800   2.491  0.8297  0.0653 -0.2944
 9017SOL    HW138684   4.257   3.887   2.476  0.0732  0.3646 -0.4395
 9017SOL    HW238685   4.124   3.807   2.486  0.8694  0.8764  0.1387
 9018SOL     OW38686   3.773   3.314   5.836 -0.0734  0.9159 -0.0164
 9018SOL    HW138687   3.721   3.383   5.795 -2.7240 -0.5635  0.8707
 9018SOL    HW238688   3.808   3.269   5.759 -3.9482 -1.4680 -0.3872
 9019SOL     OW38689   0.756   3.299   6.908 -0.1297 -0.1064  0.1393
 9019SOL    HW138690   0.802   3.246   6.843  0.5548 -0.7438  1.1444
 9019SOL    HW238691   0.792   3.386   6.892 -0.5943 -0.1500 -1.1228
 9020SOL     OW38692   2.597   2.350   7.252  0.5217  0.2421 -0.4104
 9020SOL    HW138693   2.616   2.258   7.270 -0.0459  0.6084  1.9712
 9020SOL    HW238694   2.642   2.398   7.321 -0.2564 -2.3718  1.8816
 9021SOL     OW38695   0.229   3.713  17.217  0.1806  0.1166  0.3166
 9021SOL    HW138696   0.239   3.633  17.269  1.1668 -0.0508 -0.1328
 9021SOL    HW238697   0.137   3.734  17.234  0.1612  0.7579 -0.5304
 9022SOL     OW38698   0.614   0.882  15.190 -0.0924 -0.2697  0.2830
 9022SOL    HW138699   0.707   0.902  15.195 -0.0211 -0.9155  1.5134
 9022SOL    HW238700   0.613   0.788  15.204 -2.6217 -0.8023 -3.3396
 9023SOL     OW38701   1.749   4.498   8.234  0.1956  0.2444  0.4618
 9023SOL    HW138702   1.702   4.438   8.293  0.1648 -0.7691 -0.6022
 9023SOL    HW238703   1.679   4.537   8.181  0.8222 -0.7239 -1.0561
 9024SOL     OW38704   3.597   3.768   3.636  0.0985  0.3867  0.4795
 9024SOL    HW138705   3.669   3.758   3.573  1.3699 -0.5868  2.0755
 9024SOL    HW238706   3.638   3.835   3.691  0.0161  2.1716 -1.6378
 9025SOL     OW38707   2.553   3.737   3.400 -0.8777 -0.2119 -0.3644
 9025SOL    HW138708   2.516   3.730   3.312 -0.1431 -1.1017 -0.6078
 9025SOL    HW238709   2.500   3.808   3.436 -0.8956  0.1149 -1.0374
 9026SOL     OW38710   1.244   3.089   5.871 -0.2825 -0.1932 -0.8152
 9026SOL    HW138711   1.186   3.165   5.880 -0.2804 -0.2002 -0.7385
 9026SOL    HW238712   1.208   3.031   5.804 -0.1568 -1.4509  0.1956
 9027SOL     OW38713   2.119   3.584   1.941  0.3385 -0.2579  1.0524
 9027SOL    HW138714   2.075   3.652   1.890 -0.8742 -1.9863 -0.2733
 9027SOL    HW238715   2.046   3.553   1.996 -0.8008  0.4282 -0.0648
 9028SOL     OW38716   1.720   0.054   8.209 -0.3741  0.0485  0.0953
 9028SOL    HW138717   1.660   0.025   8.277  0.7260  0.4544  1.2355
 9028SOL    HW238718   1.752   4.703   8.178  1.9485  1.0747 -0.3518
 9029SOL     OW38719   2.861   2.921   2.565  0.4634  0.1863  0.2037
 9029SOL    HW138720   2.889   2.867   2.491 -0.5814  0.4091 -0.3433
 9029SOL    HW238721   2.943   2.922   2.615 -0.4615 -0.5164  1.7530
 9030SOL     OW38722   2.151   0.507   0.236  0.0580  0.2589 -0.3238
 9030SOL    HW138723   2.192   0.520   0.151 -0.5134  1.0652 -0.4725
 9030SOL    HW238724   2.056   0.515   0.223  0.0402 -0.4001 -0.6260
 9031SOL     OW38725   2.210   3.878   8.472 -0.2295  0.6678  0.2756
 9031SOL    HW138726   2.239   3.816   8.539  1.9228  0.2631 -1.0080
 9031SOL    HW238727   2.225   3.963   8.513 -0.2584  2.0728 -2.6325
 9032SOL     OW38728   2.731   3.236   9.532  0.2635  0.1936  0.2513
 9032SOL    HW138729   2.739   3.326   9.564  1.8327 -0.5053  1.8221
 9032SOL    HW238730   2.761   3.183   9.606 -0.8313 -0.6792  0.0677
 9033SOL     OW38731   3.515   3.396   8.642  0.1315 -0.1355  0.3000
 9033SOL    HW138732   3.506   3.301   8.629  2.9010 -0.3339 -0.2215
 9033SOL    HW238733   3.446   3.398   8.709  0.1487  0.4844  0.3001
 9034SOL     OW38734   1.581   3.909  16.682  0.0376  0.4504 -0.0732
 9034SOL    HW138735   1.559   3.939  16.594 -0.3031  0.4547  0.0114
 9034SOL    HW238736   1.542   3.822  16.692 -1.2721  1.1708  1.1147
 9035SOL     OW38737   3.459   1.132   7.584 -0.2504 -0.2016 -0.0831
 9035SOL    HW138738   3.517   1.107   7.512 -0.6921 -0.3398 -0.3927
 9035SOL    HW238739   3.368   1.128   7.554 -0.9139  1.1397  1.7791
 9036SOL     OW38740   0.741   4.715  10.543 -0.1568  0.0436  0.1046
 9036SOL    HW138741   0.697   0.054  10.584  0.1022  0.2514  0.0112
 9036SOL    HW238742   0.668   4.686  10.489  0.1871  1.1589 -0.9563
 9037SOL     OW38743   3.122   2.888   2.015 -1.1188 -0.6908 -0.3024
 9037SOL    HW138744   3.076   2.953   2.068  0.5083 -1.6534  2.3128
 9037SOL    HW238745   3.171   2.940   1.951 -1.9149 -0.0891 -0.4184
 9038SOL     OW38746   2.165   0.296   6.435  0.1267 -0.2602 -0.0092
 9038SOL    HW138747   2.110   0.366   6.469  1.1637 -0.0604  1.2486
 9038SOL    HW238748   2.208   0.344   6.363 -1.5762  1.2876  0.0057
 9039SOL     OW38749   1.539   4.327   9.117  0.4675 -0.2776 -0.3741
 9039SOL    HW138750   1.552   4.422   9.112  0.2568 -0.2455 -0.2994
 9039SOL    HW238751   1.625   4.306   9.154 -1.5722 -1.0113  3.9357
 9040SOL     OW38752   2.432   2.931  17.107 -0.1972 -0.5511 -0.5133
 9040SOL    HW138753   2.339   2.947  17.125  0.0506  0.6589 -0.2672
 9040SOL    HW238754   2.474   2.994  17.166 -1.2079 -0.3210 -0.0396
 9041SOL     OW38755   0.520   3.854   7.859  0.4631 -0.3864 -0.0535
 9041SOL    HW138756   0.548   3.926   7.803  0.4240  1.1486  1.9452
 9041SOL    HW238757   0.496   3.784   7.798  1.1862  0.3640 -1.2026
 9042SOL     OW38758   3.530   3.733   5.042  0.3045 -0.6284 -0.6095
 9042SOL    HW138759   3.621   3.757   5.022  0.1238  0.4236 -0.1483
 9042SOL    HW238760   3.495   3.816   5.072  1.6443 -1.5404  3.5110
 9043SOL     OW38761   1.393   0.115   7.558 -0.5778 -0.0212  0.4148
 9043SOL    HW138762   1.489   0.123   7.554 -0.7957  1.8865 -1.2786
 9043SOL    HW238763   1.397   0.025   7.526  2.0394  0.7164 -1.3837
 9044SOL     OW38764   3.763   2.511  16.829  0.2041  0.4524 -0.5490
 9044SOL    HW138765   3.681   2.504  16.780  0.6655 -1.3148 -1.0867
 9044SOL    HW238766   3.778   2.605  16.833  0.0117  0.4082  1.3464
 9045SOL     OW38767   0.189   1.133  14.317  0.3539 -0.2558  0.0303
 9045SOL    HW138768   0.197   1.127  14.412 -1.5851  3.8084  0.4612
 9045SOL    HW238769   0.271   1.166  14.282 -1.2048  2.3293 -1.2219
 9046SOL     OW38770   3.844   0.250  11.445  0.1788  0.4715  0.3170
 9046SOL    HW138771   3.820   0.325  11.390 -0.4201  1.1813  1.5465
 9046SOL    HW238772   3.908   0.199  11.395  1.0330  1.0111  0.8722
 9047SOL     OW38773   2.230   0.899   2.609 -0.4737  0.3475 -0.3216
 9047SOL    HW138774   2.135   0.893   2.599 -0.4014 -0.8632 -0.3031
 9047SOL    HW238775   2.238   0.804   2.608 -1.6304  0.2592 -1.1085
 9048SOL     OW38776   3.675   1.737   4.146 -0.1026 -0.1475  0.0738
 9048SOL    HW138777   3.725   1.763   4.224 -0.9222  0.6354  0.3334
 9048SOL    HW238778   3.700   1.806   4.085  1.0147  0.5109  1.2579
 9049SOL     OW38779   2.518   2.283  11.404 -0.3216  0.5597 -0.0417
 9049SOL    HW138780   2.516   2.225  11.328  0.6859  0.2942  0.1345
 9049SOL    HW238781   2.432   2.279  11.446 -0.2776 -0.0343 -0.0084
 9050SOL     OW38782   0.812   1.198   1.115  0.6635  0.6505  0.1035
 9050SOL    HW138783   0.788   1.177   1.205 -0.2799  2.2258  0.2290
 9050SOL    HW238784   0.841   1.109   1.095  0.7735  1.2053 -2.1903
 9051SOL     OW38785   3.016   0.509   3.492 -0.0498 -0.5868  0.0543
 9051SOL    HW138786   3.083   0.567   3.455 -2.8996  2.4716 -0.2910
 9051SOL    HW238787   2.935   0.559   3.483  0.6798  0.4267 -0.8246
 9052SOL     OW38788   3.211   0.308   8.532 -0.0489  0.4999  0.3111
 9052SOL    HW138789   3.184   0.265   8.613  0.0771  0.4371  0.3205
 9052SOL    HW238790   3.135   0.308   8.475  1.3724  2.3075 -1.5835
 9053SOL     OW38791   0.955   3.250   4.433 -0.3987  0.2744  0.3449
 9053SOL    HW138792   0.879   3.302   4.406 -2.5887 -0.7610  4.4397
 9053SOL    HW238793   0.952   3.258   4.528 -0.2397 -0.5847  0.4159
 9054SOL     OW38794   4.125   4.344   7.782 -0.1572 -0.3009 -0.1841
 9054SOL    HW138795   4.066   4.405   7.827  0.3875  0.7504 -0.8918
 9054SOL    HW238796   4.205   4.384   7.816 -0.7288  1.1922 -0.5862
 9055SOL     OW38797   1.311   4.355   5.732 -0.5092  0.6996  0.0967
 9055SOL    HW138798   1.361   4.423   5.687  0.1886 -0.6430 -1.1748
 9055SOL    HW238799   1.235   4.360   5.674 -1.2558  2.0430  1.1730
 9056SOL     OW38800   3.554   2.148   8.468  0.1288  0.8827  0.0943
 9056SOL    HW138801   3.551   2.109   8.555  1.7799  0.7809  0.1061
 9056SOL    HW238802   3.640   2.123   8.436 -0.2865  1.6051 -1.6656
 9057SOL     OW38803   0.804   1.387   0.006  0.4763 -0.1744  0.0944
 9057SOL    HW138804   0.857   1.435  17.678  1.9694 -0.6299  1.0015
 9057SOL    HW238805   0.790   1.458   0.069  2.7740 -0.0826  0.5058
 9058SOL     OW38806   3.908   2.393  15.095  0.3647  0.3870  0.2896
 9058SOL    HW138807   3.995   2.351  15.088  0.0538 -0.1181 -0.6572
 9058SOL    HW238808   3.913   2.464  15.031  0.2200 -0.2599 -0.4436
 9059SOL     OW38809   1.584   4.063  16.916  0.7759 -0.2418  0.5015
 9059SOL    HW138810   1.578   4.030  16.826  2.3506 -1.2443  0.7537
 9059SOL    HW238811   1.578   4.156  16.896  0.0200 -0.5097 -0.4910
 9060SOL     OW38812   1.831   0.690  12.598 -0.0890  0.1040 -0.4411
 9060SOL    HW138813   1.803   0.611  12.646  0.5761 -0.7548 -1.4736
 9060SOL    HW238814   1.814   0.766  12.654  0.5160 -1.8032  2.3170
 9061SOL     OW38815   0.612   0.450   3.910  0.3870  0.0611 -0.2635
 9061SOL    HW138816   0.532   0.404   3.936  1.0934 -0.6132  0.7244
 9061SOL    HW238817   0.582   0.531   3.868 -0.8866  0.1265  0.7926
 9062SOL     OW38818   4.646   3.509   1.323 -0.0827  1.2025 -0.6746
 9062SOL    HW138819   0.003   3.482   1.330 -0.8818 -1.4875 -0.6445
 9062SOL    HW238820   4.631   3.474   1.235  1.1348 -2.1512  0.4460
 9063SOL     OW38821   4.576   1.910   5.428 -0.1141 -0.0307  0.4185
 9063SOL    HW138822   4.573   1.823   5.389  1.8536 -0.3597  0.9766
 9063SOL    HW238823   4.643   1.897   5.495 -0.2709  0.4505  0.6638
 9064SOL     OW38824   2.893   4.134   3.139 -0.8429  0.6947  0.5551
 9064SOL    HW138825   2.843   4.093   3.068  0.4369  2.4895 -1.4191
 9064SOL    HW238826   2.856   4.091   3.216 -1.2525 -0.8068 -0.4726
 9065SOL     OW38827   4.606   3.352   9.336  0.3559 -0.1375 -0.1730
 9065SOL    HW138828   4.631   3.441   9.312 -2.0820  1.5344  3.6074
 9065SOL    HW238829   4.525   3.377   9.380 -0.0688  1.6919 -2.0244
 9066SOL     OW38830   0.399   1.262   8.447 -0.1766 -0.1169 -0.1880
 9066SOL    HW138831   0.383   1.319   8.373  4.0600  0.4919 -0.6603
 9066SOL    HW238832   0.454   1.194   8.408 -1.6281 -0.0173 -2.3917
 9067SOL     OW38833   1.667   4.435   9.398 -0.1126  0.2827  0.1828
 9067SOL    HW138834   1.578   4.432   9.433 -0.2219  1.3531 -0.0140
 9067SOL    HW238835   1.662   4.360   9.339  0.7211 -0.1912  0.7119
 9068SOL     OW38836   2.253   4.609   4.677 -0.1741 -0.1579 -0.2104
 9068SOL    HW138837   2.228   4.627   4.586  1.5266 -0.1835 -0.6747
 9068SOL    HW238838   2.223   4.519   4.688  0.4600 -0.2846  0.4721
 9069SOL     OW38839   1.703   4.260  17.649 -0.6606 -0.2055  0.2120
 9069SOL    HW138840   1.625   4.207  17.668  0.0935 -0.1557  3.4191
 9069SOL    HW238841   1.767   4.216  17.705  0.1783 -0.7324 -1.1487
 9070SOL     OW38842   0.510   1.386  10.704 -0.1229 -0.5910 -0.2584
 9070SOL    HW138843   0.424   1.374  10.744 -1.5313  2.3335 -2.3837
 9070SOL    HW238844   0.500   1.415  10.613 -0.3272  1.0568  0.3092
 9071SOL     OW38845   0.915   1.012   3.842 -0.2067  0.5303 -0.2099
 9071SOL    HW138846   0.990   0.977   3.794 -1.0121 -0.1020 -0.9843
 9071SOL    HW238847   0.930   1.004   3.936  2.4850  3.1410 -0.4018
 9072SOL     OW38848   4.579   3.832   4.797  0.3807  0.2477  0.3823
 9072SOL    HW138849   4.542   3.756   4.751 -2.0511  0.2262  2.4420
 9072SOL    HW238850   4.591   3.801   4.887  1.2711 -0.9534 -0.1358
 9073SOL     OW38851   1.236   2.385  11.668  0.0497  0.2296  0.0381
 9073SOL    HW138852   1.277   2.311  11.711  1.0291  1.1148  0.6405
 9073SOL    HW238853   1.161   2.385  11.727  2.2124 -1.4108  2.7808
 9074SOL     OW38854   3.353   4.236  13.692  0.2764 -0.4318 -0.3090
 9074SOL    HW138855   3.292   4.166  13.668  0.9756 -1.8241  2.0084
 9074SOL    HW238856   3.441   4.209  13.666  0.3005 -0.2063 -0.4545
 9075SOL     OW38857   3.088   3.211   2.510 -0.4851 -0.0716 -0.4986
 9075SOL    HW138858   3.057   3.240   2.596  0.6092  1.5626 -0.6686
 9075SOL    HW238859   3.058   3.285   2.457 -2.4337 -1.2430 -1.0341
 9076SOL     OW38860   4.386   3.935   1.757  0.0489  0.8508 -0.3821
 9076SOL    HW138861   4.355   3.852   1.793  1.5293  0.3710 -0.2432
 9076SOL    HW238862   4.437   3.962   1.833 -0.0346 -0.4447  0.1345
 9077SOL     OW38863   0.337   2.970  15.270 -0.0737 -0.4781  0.0904
 9077SOL    HW138864   0.329   2.907  15.341  1.7570 -3.3418 -2.2772
 9077SOL    HW238865   0.324   3.057  15.309  0.3609 -0.4975  0.2869
 9078SOL     OW38866   1.087   0.826  11.359 -0.3378 -0.2228  0.6969
 9078SOL    HW138867   1.044   0.772  11.292 -0.8435  0.6282  0.3389
 9078SOL    HW238868   1.037   0.907  11.350 -0.1987 -0.2443 -0.2431
 9079SOL     OW38869   4.412   3.801   5.716 -0.0286  0.0675 -0.2824
 9079SOL    HW138870   4.389   3.796   5.809 -0.3858 -0.0326 -0.3743
 9079SOL    HW238871   4.349   3.733   5.691 -1.3767  1.1513  0.1633
 9080SOL     OW38872   4.723   2.963   1.958 -0.4955  0.0234  0.3091
 9080SOL    HW138873   0.021   2.885   1.912 -0.2929 -0.4823  1.3263
 9080SOL    HW238874   4.646   2.976   1.902 -1.4352  1.7698  2.0199
 9081SOL     OW38875   0.425   2.207   6.808 -0.2406  0.4422 -0.3378
 9081SOL    HW138876   0.353   2.267   6.825 -1.1484 -0.3311 -1.4171
 9081SOL    HW238877   0.486   2.263   6.759 -1.5950  2.2034  0.0058
 9082SOL     OW38878   2.631   1.885   0.157 -0.3431 -0.4972 -0.2011
 9082SOL    HW138879   2.569   1.887   0.084 -0.3694 -0.4067 -0.1756
 9082SOL    HW238880   2.595   1.825   0.222 -2.9255 -0.3427 -1.4888
 9083SOL     OW38881   3.458   2.242  16.570  0.0577 -0.2757 -0.2764
 9083SOL    HW138882   3.419   2.188  16.501 -2.2192 -0.3756  1.1081
 9083SOL    HW238883   3.540   2.269  16.529  0.5510 -1.3108  0.0622
 9084SOL     OW38884   4.138   4.609   2.796 -0.1948  0.1211  0.3689
 9084SOL    HW138885   4.222   4.581   2.833 -1.4971  0.5060  3.6448
 9084SOL    HW238886   4.068   4.561   2.841 -0.5218  0.3993  0.1599
 9085SOL     OW38887   2.260   0.547   5.309 -0.0502  0.0849  0.0270
 9085SOL    HW138888   2.287   0.522   5.398 -0.8284 -0.2653  0.1676
 9085SOL    HW238889   2.278   0.467   5.260 -1.0301  0.7270 -1.3827
 9086SOL     OW38890   3.246   0.616   5.118  0.5574  0.4083 -0.3220
 9086SOL    HW138891   3.216   0.549   5.057  3.6180 -0.6571 -0.6295
 9086SOL    HW238892   3.193   0.693   5.098  0.7090  0.5316 -0.2474
 9087SOL     OW38893   0.084   1.111   2.201 -0.1046  0.3013  0.6927
 9087SOL    HW138894   0.070   1.042   2.266  1.0196  0.3247  0.9539
 9087SOL    HW238895   0.128   1.060   2.133  0.1793 -0.4184  1.4217
 9088SOL     OW38896   4.609   1.731   3.085  0.1362  0.5581  0.3541
 9088SOL    HW138897   4.545   1.719   3.156  1.6692  2.4416  2.0378
 9088SOL    HW238898   4.646   1.643   3.089 -0.3218  0.3667  0.4487
 9089SOL     OW38899   0.411   1.387  11.713 -0.9014 -0.0559  0.6221
 9089SOL    HW138900   0.357   1.422  11.783  0.0291 -0.4611  1.5428
 9089SOL    HW238901   0.371   1.434  11.641 -0.0527  2.1608  1.6008
 9090SOL     OW38902   3.135   2.353   1.840 -0.4050  0.2205 -0.4274
 9090SOL    HW138903   3.183   2.271   1.830  1.2922  0.9022  2.0675
 9090SOL    HW238904   3.043   2.327   1.841 -1.2772  3.2879  0.2834
 9091SOL     OW38905   1.247   0.370  15.383  0.0123 -0.1384 -0.4311
 9091SOL    HW138906   1.333   0.352  15.345  0.3255  2.6793 -1.0624
 9091SOL    HW238907   1.230   0.464  15.374  1.1592  0.2307  1.3096
 9092SOL     OW38908   0.647   4.468   7.249 -0.3459  0.0974 -0.1456
 9092SOL    HW138909   0.560   4.485   7.212 -0.9051 -0.4147  0.9170
 9092SOL    HW238910   0.637   4.379   7.282  0.0971  1.1148  2.7452
 9093SOL     OW38911   4.561   0.192  17.078  0.0342 -0.1925  0.6455
 9093SOL    HW138912   4.488   0.204  17.018  1.0303 -0.5185 -0.6313
 9093SOL    HW238913   4.569   0.097  17.086 -1.1694 -0.2519  1.1239
 9094SOL     OW38914   3.932   0.034  13.316  0.3247  0.5537  0.0970
 9094SOL    HW138915   3.890   4.699  13.265  0.5893  0.5552 -0.1205
 9094SOL    HW238916   3.973   0.078  13.243 -1.2826  1.1044 -0.4645
 9095SOL     OW38917   3.529   1.289  14.805 -0.3092  0.7533  0.2582
 9095SOL    HW138918   3.607   1.242  14.832 -1.5584 -1.7753 -0.5265
 9095SOL    HW238919   3.567   1.356  14.749 -0.2506  0.8538  0.4171
 9096SOL     OW38920   3.452   2.539   5.338 -0.0899 -0.2780 -0.1574
 9096SOL    HW138921   3.482   2.448   5.328 -0.5166 -0.2056 -2.0634
 9096SOL    HW238922   3.504   2.590   5.277 -1.8066 -1.3976 -2.5850
 9097SOL     OW38923   1.667   4.199   7.508  0.2975 -0.2941 -0.5145
 9097SOL    HW138924   1.719   4.165   7.434 -0.9829 -0.8779 -1.1361
 9097SOL    HW238925   1.731   4.263   7.541 -0.4823  0.4797 -0.5197
 9098SOL     OW38926   4.695   0.378   3.554  0.3580  0.3074  0.3095
 9098SOL    HW138927   4.650   0.437   3.494 -0.8037 -1.8106 -0.9333
 9098SOL    HW238928   0.004   0.316   3.495 -1.1632  0.0725 -0.5545
 9099SOL     OW38929   3.574   3.574   6.465  0.0348 -0.8648 -0.4197
 9099SOL    HW138930   3.629   3.508   6.506 -0.2670 -0.8687 -0.0198
 9099SOL    HW238931   3.571   3.548   6.373 -2.2442 -0.8894 -0.3439
 9100SOL     OW38932   1.143   1.669   7.757  0.0967 -0.4181 -0.2333
 9100SOL    HW138933   1.155   1.653   7.851  1.3505 -1.6631 -0.6193
 9100SOL    HW238934   1.146   1.765   7.755 -2.5175 -0.3834 -1.6204
 9101SOL     OW38935   1.545   2.050   2.515  0.3685 -0.3789 -0.2281
 9101SOL    HW138936   1.557   2.077   2.606 -2.4883 -0.3528  0.1395
 9101SOL    HW238937   1.503   1.965   2.530  0.5624 -0.7041 -1.4850
 9102SOL     OW38938   1.306   1.381   3.798 -0.1116  0.3891  0.2568
 9102SOL    HW138939   1.246   1.434   3.744  0.3359  2.5895  1.9145
 9102SOL    HW238940   1.255   1.300   3.803 -0.3592  0.4503 -1.1952
 9103SOL     OW38941   4.037   2.441   8.841  0.2697 -0.0286  0.2357
 9103SOL    HW138942   4.080   2.526   8.835 -1.9523  1.1301  0.5898
 9103SOL    HW238943   4.088   2.391   8.777  0.9660  0.9400  0.0369
 9104SOL     OW38944   4.629   1.472  17.338  0.2932  0.1872  0.6795
 9104SOL    HW138945   4.537   1.494  17.347  0.1722 -0.5877  1.2554
 9104SOL    HW238946   4.647   1.417  17.414 -0.9506 -2.6879 -1.0993
 9105SOL     OW38947   3.644   3.871   9.342  0.8110  0.3655 -0.5481
 9105SOL    HW138948   3.568   3.824   9.307 -0.9155  1.3717  1.7806
 9105SOL    HW238949   3.691   3.797   9.379 -2.1142 -1.3360 -0.2155
 9106SOL     OW38950   3.176   2.675   4.792  0.3588  0.7198 -0.0255
 9106SOL    HW138951   3.209   2.585   4.794 -0.4799  0.4574  1.6277
 9106SOL    HW238952   3.110   2.670   4.723 -1.1125  0.6041  1.4015
 9107SOL     OW38953   2.159   3.839   5.510 -0.5475  0.7514  0.1469
 9107SOL    HW138954   2.063   3.836   5.515 -0.5800  2.2911  0.2580
 9107SOL    HW238955   2.187   3.904   5.573  0.2950  0.8719 -0.3563
 9108SOL     OW38956   0.678   2.870  14.166  0.0878  0.2068 -0.1065
 9108SOL    HW138957   0.761   2.864  14.118 -0.4433 -2.5612 -0.6895
 9108SOL    HW238958   0.613   2.823  14.114  1.4908  0.1236 -1.7864
 9109SOL     OW38959   2.071   1.578  10.937 -0.0021  0.0821  0.1029
 9109SOL    HW138960   1.987   1.623  10.925  0.6034  1.1939  0.0086
 9109SOL    HW238961   2.046   1.488  10.915 -1.8195  0.6030  0.0042
 9110SOL     OW38962   0.548   3.977  11.018  0.0877  0.2918 -0.3956
 9110SOL    HW138963   0.531   3.910  10.952 -0.9882  0.5405 -0.3785
 9110SOL    HW238964   0.607   3.932  11.079 -0.3049 -0.9644 -0.9459
 9111SOL     OW38965   1.159   2.141   5.373  0.6226 -0.2219 -0.0422
 9111SOL    HW138966   1.105   2.178   5.443 -0.7679 -1.2487 -0.5766
 9111SOL    HW238967   1.219   2.212   5.348  0.2537  0.3318  0.6377
 9112SOL     OW38968   0.560   4.036   8.977 -0.3821 -0.5024 -0.0384
 9112SOL    HW138969   0.499   4.100   8.939  0.5775  0.4590  0.0492
 9112SOL    HW238970   0.632   4.054   8.917 -0.0567  0.8068  0.7350
 9113SOL     OW38971   2.955   3.279   5.461  0.6987 -0.1339 -0.0066
 9113SOL    HW138972   2.870   3.320   5.480  0.2565 -0.7740 -0.5979
 9113SOL    HW238973   3.010   3.355   5.445  0.4079  0.1498  0.3474
 9114SOL     OW38974   0.558   1.995   2.855  0.3852 -0.4531  0.1742
 9114SOL    HW138975   0.479   1.960   2.814  0.9142 -0.4101 -0.8600
 9114SOL    HW238976   0.580   2.068   2.797 -0.8942  0.0548  0.3193
 9115SOL     OW38977   2.682   3.911   8.881 -0.1231 -0.0330  0.2390
 9115SOL    HW138978   2.634   3.934   8.960 -1.5068  0.0343 -0.6154
 9115SOL    HW238979   2.772   3.905   8.912  0.1751  0.5704 -0.5072
 9116SOL     OW38980   2.061   0.589   8.843 -0.1922 -0.1852  0.3919
 9116SOL    HW138981   2.109   0.552   8.917  1.5702 -0.2060 -0.7701
 9116SOL    HW238982   2.017   0.510   8.810  0.1300 -1.7124  3.5429
 9117SOL     OW38983   1.110   3.521   4.301  0.1270 -0.7144 -0.4252
 9117SOL    HW138984   1.089   3.471   4.380  1.3678  3.0928  2.2918
 9117SOL    HW238985   1.191   3.480   4.271 -0.6380 -1.7339 -1.1337
 9118SOL     OW38986   1.082   4.102  16.967 -0.1767 -0.7055  0.4800
 9118SOL    HW138987   1.143   4.166  17.004 -0.1658 -0.0701 -0.6280
 9118SOL    HW238988   1.018   4.160  16.924 -0.3515 -1.2355  0.0258
 9119SOL     OW38989   0.065   0.209  15.919  0.6702 -0.5212  0.7039
 9119SOL    HW138990   4.729   0.230  15.857 -1.3269 -1.5901  2.6267
 9119SOL    HW238991   0.143   0.226  15.866 -0.3506  0.8901 -0.3629
 9120SOL     OW38992   1.271   2.466   6.284  0.2689 -0.1871 -0.0984
 9120SOL    HW138993   1.316   2.513   6.354 -1.0112  1.0051 -0.0744
 9120SOL    HW238994   1.341   2.489   6.223 -0.5535  0.2410 -0.8791
 9121SOL     OW38995   4.087   4.527   7.307 -0.6536  0.4430  0.2662
 9121SOL    HW138996   4.073   4.433   7.318  0.5359  0.1101 -1.1508
 9121SOL    HW238997   4.145   4.548   7.381 -1.2934 -1.2971  1.2692
 9122SOL     OW38998   0.837   0.991  10.048  0.3167  0.8401  0.2637
 9122SOL    HW138999   0.880   0.986  10.134  1.4972  3.8794 -0.1783
 9122SOL    HW239000   0.823   1.085  10.040 -2.5931  0.4303  0.5168
 9123SOL     OW39001   0.626   0.503   6.499 -0.3057 -0.7733  0.0289
 9123SOL    HW139002   0.587   0.590   6.507 -0.6752 -0.8274 -1.2466
 9123SOL    HW239003   0.695   0.500   6.565  0.0790 -1.1385 -0.3903
 9124SOL     OW39004   2.531   2.371  15.642 -0.0372  0.0501  0.1742
 9124SOL    HW139005   2.621   2.373  15.674 -0.9907 -0.7849  2.8614
 9124SOL    HW239006   2.490   2.421  15.711 -0.3401  0.7054 -0.4798
 9125SOL     OW39007   2.633   1.476   9.336 -0.1328  0.2471 -0.0632
 9125SOL    HW139008   2.594   1.402   9.288 -1.4095 -0.9963  2.8558
 9125SOL    HW239009   2.646   1.541   9.267  2.3435 -0.2828 -0.0724
 9126SOL     OW39010   0.557   2.728   4.978  0.2079 -0.1110  0.4327
 9126SOL    HW139011   0.503   2.807   4.969 -0.2272 -0.6087 -1.3654
 9126SOL    HW239012   0.641   2.771   4.997  0.9599 -1.6004  0.4447
 9127SOL     OW39013   1.063   1.830   5.774 -0.1556  0.5944  0.1312
 9127SOL    HW139014   1.017   1.809   5.855  2.6801 -0.5580  1.4461
 9127SOL    HW239015   1.078   1.743   5.738 -1.0017  0.8062 -0.7551
 9128SOL     OW39016   3.357   4.698   8.694  0.1492 -0.7013  0.5081
 9128SOL    HW139017   3.307   4.622   8.662 -0.8590  0.0762  0.2440
 9128SOL    HW239018   3.285   4.731   8.749 -0.1008  0.3403 -0.4615
 9129SOL     OW39019   0.688   0.411   0.070  0.0793  0.0075 -0.5270
 9129SOL    HW139020   0.698   0.488   0.014  0.6740  0.3541  0.0483
 9129SOL    HW239021   0.780   0.388   0.083 -0.3376 -0.9941  0.6423
 9130SOL     OW39022   0.778   1.422   9.186 -0.5489 -0.3667 -0.2111
 9130SOL    HW139023   0.783   1.441   9.280 -2.1779  0.2051 -0.2309
 9130SOL    HW239024   0.838   1.348   9.185  0.0785  0.1041  2.1268
 9131SOL     OW39025   3.612   2.245   5.954  0.3996  0.2264 -0.0142
 9131SOL    HW139026   3.661   2.219   5.876  0.5379  1.1135 -0.2203
 9131SOL    HW239027   3.538   2.294   5.918  0.0121  0.1246  0.6504
 9132SOL     OW39028   4.607   1.868  11.090 -0.1968  0.2756  0.3845
 9132SOL    HW139029   4.607   1.939  11.154  2.6532 -0.4994  1.2422
 9132SOL    HW239030   4.598   1.794  11.150  1.9427 -0.8121 -0.6548
 9133SOL     OW39031   1.732   0.959   2.584 -0.0761 -0.2041  0.0758
 9133SOL    HW139032   1.642   0.939   2.611 -0.5432  0.0498 -1.3296
 9133SOL    HW239033   1.713   1.050   2.560  0.2822  0.0148  0.6130
 9134SOL     OW39034   4.702   1.054  15.674  0.2230 -0.2363 -0.3434
 9134SOL    HW139035   4.666   1.112  15.741  2.0362  1.8118 -1.1319
 9134SOL    HW239036   4.699   1.099  15.589 -0.2017 -0.6516 -0.5465
 9135SOL     OW39037   4.003   3.028   6.495 -0.1130 -0.5514  0.3131
 9135SOL    HW139038   3.982   2.998   6.583 -2.9615  0.3021 -0.0775
 9135SOL    HW239039   3.962   3.114   6.486 -0.2926 -0.5607  1.0338
 9136SOL     OW39040   1.988   3.317   3.351  0.2256 -0.3422 -0.2965
 9136SOL    HW139041   1.990   3.313   3.255  0.2564  0.1773 -0.3210
 9136SOL    HW239042   1.915   3.262   3.377 -0.1211 -0.1272 -0.8101
 9137SOL     OW39043   3.731   4.725  10.777 -0.0113  0.4000 -0.5095
 9137SOL    HW139044   3.790   4.677  10.719 -0.8810 -3.2257  1.6215
 9137SOL    HW239045   3.693   4.653  10.826  1.2805  0.7383  0.9769
 9138SOL     OW39046   0.444   2.505   4.901  0.5605 -0.4128 -0.0194
 9138SOL    HW139047   0.497   2.575   4.940 -1.8553  1.5881 -0.3592
 9138SOL    HW239048   0.377   2.558   4.858 -2.1377 -1.8391  2.4021
 9139SOL     OW39049   1.711   2.430  17.001  0.2212 -0.1767 -0.5358
 9139SOL    HW139050   1.747   2.439  17.089 -0.6997 -0.2750 -0.1550
 9139SOL    HW239051   1.619   2.427  17.026  0.0088  0.7668 -1.2227
 9140SOL     OW39052   3.069   1.233   8.150  0.5749 -0.1107  0.2968
 9140SOL    HW139053   3.017   1.191   8.219  0.9365 -0.1511  0.5406
 9140SOL    HW239054   3.084   1.155   8.097  0.1501  0.1421 -0.1962
 9141SOL     OW39055   1.087   1.949   8.609  0.4939 -0.2714  0.3008
 9141SOL    HW139056   1.171   1.979   8.574  0.5327 -1.0459 -0.2849
 9141SOL    HW239057   1.115   1.895   8.684  1.2724  0.7503  0.7418
 9142SOL     OW39058   3.058   2.776  11.307 -0.3383  0.3448 -0.4174
 9142SOL    HW139059   3.079   2.785  11.214 -0.8346 -1.6890 -0.7241
 9142SOL    HW239060   3.007   2.853  11.329 -0.3702  0.5318 -1.1420
 9143SOL     OW39061   4.424   2.857  15.565 -0.2434  0.0658  0.1102
 9143SOL    HW139062   4.424   2.773  15.611 -0.2734  0.6473  1.1854
 9143SOL    HW239063   4.415   2.916  15.640  1.6232  1.9898 -1.1641
 9144SOL     OW39064   4.714   4.584  11.989  0.0724 -0.1773 -0.0609
 9144SOL    HW139065   4.711   4.641  11.912  0.6806 -2.2254 -1.5884
 9144SOL    HW239066   4.672   4.501  11.968  2.6531 -1.2030 -1.1992
 9145SOL     OW39067   2.290   2.250   4.621  0.1553 -0.2938 -0.1242
 9145SOL    HW139068   2.196   2.237   4.605  0.2146 -1.2322  0.2696
 9145SOL    HW239069   2.322   2.200   4.546 -0.9000  1.4292 -1.7209
 9146SOL     OW39070   3.017   2.928   1.511 -0.0219 -0.1630 -0.1927
 9146SOL    HW139071   2.969   2.883   1.441 -0.6029  0.9069 -0.4837
 9146SOL    HW239072   3.079   2.862   1.543  1.6573  1.8076  0.5736
 9147SOL     OW39073   0.839   1.948   5.232 -0.0601  0.2957  0.0791
 9147SOL    HW139074   0.749   1.928   5.257  0.2932 -1.1128  0.1722
 9147SOL    HW239075   0.872   1.986   5.313  0.8426  0.0007 -0.1527
 9148SOL     OW39076   0.157   2.171   4.587 -0.0843  0.3589  0.0818
 9148SOL    HW139077   0.206   2.252   4.576  0.6308 -0.2255 -1.0925
 9148SOL    HW239078   0.134   2.147   4.497 -1.2234  1.6506  0.0305
 9149SOL     OW39079   3.476   4.683  11.549 -0.0557 -0.0686  0.0119
 9149SOL    HW139080   3.552   4.651  11.598 -1.5951 -0.2431  2.3229
 9149SOL    HW239081   3.481   0.040  11.578 -0.5098  1.5317 -5.0688
 9150SOL     OW39082   4.421   1.213  12.320 -0.3738 -0.2735  0.6545
 9150SOL    HW139083   4.351   1.149  12.308 -1.2493  1.0879 -1.5797
 9150SOL    HW239084   4.491   1.174  12.268 -1.4016 -0.4226 -0.6100
 9151SOL     OW39085   2.055   3.295   1.674 -0.1380 -0.3981  0.3157
 9151SOL    HW139086   2.048   3.229   1.606 -0.4231 -1.5043  1.4263
 9151SOL    HW239087   2.110   3.252   1.740 -2.0840 -0.4270  1.9316
 9152SOL     OW39088   4.625   4.010   9.632  0.2567 -0.2231  0.4139
 9152SOL    HW139089   4.655   3.973   9.715  1.9148 -0.3108 -0.2262
 9152SOL    HW239090   4.698   4.011   9.570 -0.4038  3.8076 -0.3211
 9153SOL     OW39091   2.326   4.415   1.201 -0.6588 -0.4583  0.1891
 9153SOL    HW139092   2.276   4.335   1.218 -0.6941 -0.1688  1.4535
 9153SOL    HW239093   2.410   4.374   1.178 -1.5288 -0.8208 -2.2937
 9154SOL     OW39094   3.644   3.910   8.392 -0.3297 -0.1576  0.1940
 9154SOL    HW139095   3.659   3.990   8.342  0.2184 -0.0385  0.5551
 9154SOL    HW239096   3.729   3.898   8.435 -0.8151 -0.9972  0.9303
 9155SOL     OW39097   3.518   2.378   8.730  0.0950 -0.7151 -0.4084
 9155SOL    HW139098   3.598   2.394   8.781 -0.4524  1.0699 -0.1160
 9155SOL    HW239099   3.540   2.288   8.705 -0.2897 -1.0081  0.3379
 9156SOL     OW39100   4.622   2.186  15.344  0.0390 -0.0217  0.2714
 9156SOL    HW139101   4.632   2.125  15.417 -1.4112  1.8489  2.0715
 9156SOL    HW239102   4.627   2.269  15.393  1.6982 -0.8197  1.4649
 9157SOL     OW39103   1.538   0.038   4.305  0.3193 -0.4129 -0.1064
 9157SOL    HW139104   1.465   0.101   4.301 -0.0226 -0.8089 -0.1008
 9157SOL    HW239105   1.489   4.693   4.285 -1.5536  0.9462 -0.9523
 9158SOL     OW39106   3.999   3.971   3.493  0.1594 -0.1212  0.0498
 9158SOL    HW139107   4.088   3.952   3.464 -0.6662  0.5179 -2.9798
 9158SOL    HW239108   4.004   4.067   3.495 -1.5497 -0.0270 -0.4720
 9159SOL     OW39109   2.843   0.854   4.028  0.3737  0.5153 -0.3292
 9159SOL    HW139110   2.888   0.841   4.112 -1.7253  0.7356  0.8115
 9159SOL    HW239111   2.913   0.905   3.988 -0.4957 -0.0091 -2.4756
 9160SOL     OW39112   2.486   2.479   8.779  0.5687  0.1097 -0.5548
 9160SOL    HW139113   2.545   2.411   8.811 -0.0920  0.5474  1.5678
 9160SOL    HW239114   2.492   2.458   8.685  0.4046  1.7695 -0.9396
 9161SOL     OW39115   3.449   2.209   3.808 -0.0528 -0.6150 -0.2589
 9161SOL    HW139116   3.432   2.115   3.814 -1.1241 -0.3620  0.7918
 9161SOL    HW239117   3.503   2.213   3.887  1.8555 -0.1021 -1.6041
 9162SOL     OW39118   3.146   3.182  14.176 -0.3503 -0.1219  0.3589
 9162SOL    HW139119   3.065   3.154  14.134  0.0566 -0.5741 -0.1216
 9162SOL    HW239120   3.158   3.274  14.153  0.2324  0.0507  1.3466
 9163SOL     OW39121   2.671   1.707   6.773  0.0104  0.2705 -0.1671
 9163SOL    HW139122   2.608   1.708   6.844  0.4708  0.7545  0.2368
 9163SOL    HW239123   2.751   1.720   6.823  1.6159  1.2739 -2.9734
 9164SOL     OW39124   3.880   2.633   5.849  0.0126  0.4010  0.4406
 9164SOL    HW139125   3.888   2.544   5.883 -0.1447 -0.2548 -1.2383
 9164SOL    HW239126   3.786   2.646   5.844  0.1844  0.6884 -1.9209
 9165SOL     OW39127   0.782   0.380   3.706 -0.6032  0.0762  0.8039
 9165SOL    HW139128   0.713   0.411   3.764  0.9495  2.2167  1.5156
 9165SOL    HW239129   0.752   0.393   3.616 -0.4127  3.2084  1.1880
 9166SOL     OW39130   1.214   0.328   0.878 -0.6097  0.3080 -0.2452
 9166SOL    HW139131   1.157   0.336   0.954  3.3146 -0.5934  2.8131
 9166SOL    HW239132   1.161   0.272   0.821 -1.2825 -1.7433  2.4042
 9167SOL     OW39133   1.035   1.770   6.334 -0.1678 -0.5060  0.1256
 9167SOL    HW139134   1.104   1.764   6.269 -0.4368 -2.3514  0.0048
 9167SOL    HW239135   1.085   1.791   6.413  1.4002 -0.8270 -0.7746
 9168SOL     OW39136   3.908   1.732  15.580 -0.4592  0.1195 -0.1645
 9168SOL    HW139137   3.832   1.741  15.523  0.0652  4.6976 -0.1447
 9168SOL    HW239138   3.978   1.720  15.516  0.2051 -1.2393  0.8339
 9169SOL     OW39139   4.124   3.308   8.162 -0.4163 -0.3523 -0.2799
 9169SOL    HW139140   4.199   3.260   8.127  1.1347  0.7657  1.5156
 9169SOL    HW239141   4.074   3.235   8.200 -1.2447  0.9545  1.1254
 9170SOL     OW39142   3.239   3.156  10.411 -0.4020  0.0867 -0.4367
 9170SOL    HW139143   3.163   3.099  10.420 -1.5283  1.4639 -1.1388
 9170SOL    HW239144   3.293   3.130  10.486 -0.1202  0.7367 -0.4127
 9171SOL     OW39145   4.606   1.639  11.232 -0.7710  0.0395  0.2502
 9171SOL    HW139146   4.571   1.635  11.321 -0.0338  0.8252  0.5683
 9171SOL    HW239147   4.626   1.545  11.225  0.0726  0.0774  2.0507
 9172SOL     OW39148   4.250   2.028   2.196 -0.1822  0.0928 -0.3797
 9172SOL    HW139149   4.177   2.090   2.196 -0.2689 -0.0116  0.4818
 9172SOL    HW239150   4.202   1.945   2.192  2.4327 -1.4741  0.7958
 9173SOL     OW39151   1.669   1.039   8.220  0.3371  0.1905  0.5579
 9173SOL    HW139152   1.680   0.957   8.172  1.5933  0.8625 -0.2955
 9173SOL    HW239153   1.577   1.055   8.196  0.9292  3.8499  0.6505
 9174SOL     OW39154   1.915   3.473   3.012 -0.5503  0.5149 -0.5551
 9174SOL    HW139155   1.831   3.431   2.991 -0.9130  0.0438  1.8268
 9174SOL    HW239156   1.960   3.400   3.055 -0.5934 -1.2919 -3.5770
 9175SOL     OW39157   0.926   3.457   9.992  0.5381 -0.4054 -0.2754
 9175SOL    HW139158   0.953   3.537  10.036 -2.8683  0.3464  0.4646
 9175SOL    HW239159   1.003   3.402  10.009  1.3657  0.4650 -1.2194
 9176SOL     OW39160   1.066   1.275   7.845  0.0026  0.1030 -0.1192
 9176SOL    HW139161   1.006   1.254   7.916  0.0179 -2.2697 -0.7896
 9176SOL    HW239162   1.012   1.327   7.786  0.0910  0.1679 -0.1427
 9177SOL     OW39163   1.044   0.971   1.368 -0.6722  0.0148  0.0168
 9177SOL    HW139164   1.125   0.961   1.419 -1.5531  0.7239  1.5468
 9177SOL    HW239165   0.980   0.915   1.411 -0.6150  0.2582  0.4128
 9178SOL     OW39166   4.001   0.130   3.898  0.7541  0.2184 -0.2242
 9178SOL    HW139167   4.051   0.094   3.825  0.7316 -1.1153  0.4230
 9178SOL    HW239168   3.926   0.070   3.899  1.6289 -0.8614  0.1061
 9179SOL     OW39169   3.459   0.428   4.311 -0.9503  0.5277 -0.7570
 9179SOL    HW139170   3.408   0.480   4.374 -3.0870 -0.3978 -1.7022
 9179SOL    HW239171   3.512   0.375   4.370 -0.1922  0.7468 -1.2431
 9180SOL     OW39172   4.333   1.644   8.090 -0.0977 -0.1201  0.0515
 9180SOL    HW139173   4.255   1.701   8.095 -1.3749 -1.8270 -0.3918
 9180SOL    HW239174   4.369   1.647   8.179  0.0290  0.2578 -0.0148
 9181SOL     OW39175   3.809   0.582   2.733 -0.2183  0.0474  0.7838
 9181SOL    HW139176   3.746   0.587   2.662  0.4152  3.0278  0.4603
 9181SOL    HW239177   3.751   0.635   2.788  0.5652 -0.3182  1.9743
 9182SOL     OW39178   3.922   1.654   4.668  0.5611 -0.3107  0.2948
 9182SOL    HW139179   3.987   1.600   4.623  1.1901 -2.1652  3.3928
 9182SOL    HW239180   3.973   1.686   4.743 -0.9484 -0.4787  1.4053
 9183SOL     OW39181   4.457   1.469  15.920  0.1374 -0.2286  0.3287
 9183SOL    HW139182   4.362   1.469  15.909  0.1234 -1.4247  0.4339
 9183SOL    HW239183   4.453   1.556  15.960 -1.9822  0.7658 -2.0825
 9184SOL     OW39184   2.862   4.622   7.108 -0.4200  0.1828  0.3684
 9184SOL    HW139185   2.881   4.713   7.085 -0.6629  0.4475  1.2256
 9184SOL    HW239186   2.828   4.589   7.025 -2.9633  0.9517  1.0843
 9185SOL     OW39187   3.236   3.320  15.614  0.3178 -0.4210 -0.0431
 9185SOL    HW139188   3.147   3.286  15.607  0.5601 -1.0740  0.0191
 9185SOL    HW239189   3.277   3.256  15.673  3.9624  1.1966 -0.7656
 9186SOL     OW39190   3.857   3.265   7.926  0.3698  0.2365 -0.0560
 9186SOL    HW139191   3.888   3.356   7.932  1.5855 -0.1846  0.1137
 9186SOL    HW239192   3.762   3.274   7.931  0.2896 -0.4009 -0.5057
 9187SOL     OW39193   0.984   0.797  14.985  0.2164 -0.3346 -0.1129
 9187SOL    HW139194   0.900   0.797  14.939  0.3457  2.9373 -0.3049
 9187SOL    HW239195   0.953   0.805  15.075  0.3410 -2.8335  0.1674
 9188SOL     OW39196   4.461   4.556  11.612  0.3289 -0.0524 -0.7250
 9188SOL    HW139197   4.442   4.463  11.615  3.7602 -0.6664  1.8695
 9188SOL    HW239198   4.447   4.571  11.518  0.4221  1.2491 -0.5397
 9189SOL     OW39199   2.746   3.890   4.527 -0.4652  0.0270 -0.3170
 9189SOL    HW139200   2.686   3.824   4.491  0.1999 -1.1574  0.7249
 9189SOL    HW239201   2.750   3.959   4.461 -2.4622 -0.7068 -1.1987
 9190SOL     OW39202   3.890   1.600  13.628  0.3781 -0.1465  0.4969
 9190SOL    HW139203   3.844   1.589  13.545  0.4024  0.7472  0.3698
 9190SOL    HW239204   3.831   1.544  13.679 -1.3467  2.3552  1.2448
 9191SOL     OW39205   1.916   1.847   6.606 -0.0879  0.8052 -0.3417
 9191SOL    HW139206   2.002   1.882   6.582 -1.2554  2.1597 -2.4958
 9191SOL    HW239207   1.908   1.764   6.558 -1.4656  1.3875 -1.1097
 9192SOL     OW39208   3.312   2.137   5.430 -0.1224  0.1783 -0.8465
 9192SOL    HW139209   3.336   2.091   5.350 -1.5085 -1.0216 -0.5679
 9192SOL    HW239210   3.310   2.059   5.486  2.5656  1.1674  0.6627
 9193SOL     OW39211   0.195   1.187  11.049 -0.1933  0.2116  0.5812
 9193SOL    HW139212   0.161   1.119  10.990  1.7242 -0.7158  0.5364
 9193SOL    HW239213   0.207   1.133  11.128 -2.3122  0.1312  0.8489
 9194SOL     OW39214   1.418   1.525   1.632 -0.0348  0.1480  0.2450
 9194SOL    HW139215   1.383   1.578   1.560 -1.9732  1.1900  1.9236
 9194SOL    HW239216   1.360   1.449   1.631  1.2712 -0.8347 -0.1750
 9195SOL     OW39217   0.965   2.060   7.053  0.2004  0.1859  0.1868
 9195SOL    HW139218   0.892   2.119   7.068 -0.1994 -0.4012  0.5429
 9195SOL    HW239219   1.015   2.101   6.983 -0.0538 -0.7244 -0.5190
 9196SOL     OW39220   1.547   0.526  15.569  0.6926 -0.2924 -0.2162
 9196SOL    HW139221   1.520   0.609  15.529 -0.8765 -0.6198  0.1877
 9196SOL    HW239222   1.610   0.500  15.501  1.5844 -0.6237  0.7422
 9197SOL     OW39223   2.224   4.121   5.473 -0.0909  0.4266  0.5615
 9197SOL    HW139224   2.168   4.182   5.521  2.2835  2.4015  0.7944
 9197SOL    HW239225   2.176   4.109   5.391  3.7596 -2.0799 -1.3212
 9198SOL     OW39226   4.380   0.328   0.796  0.0828 -0.0048  0.2246
 9198SOL    HW139227   4.372   0.267   0.870  1.2007 -1.1269 -0.5808
 9198SOL    HW239228   4.451   0.389   0.820  1.0304 -1.3390  0.8007
 9199SOL     OW39229   4.037   3.703   8.748 -0.2084 -1.3900  0.1800
 9199SOL    HW139230   4.038   3.677   8.656 -0.0842  1.7179 -0.6655
 9199SOL    HW239231   4.103   3.771   8.752 -0.2235 -1.3714  0.1000
 9200SOL     OW39232   1.399   3.717   8.789  0.5507 -0.2456  0.4613
 9200SOL    HW139233   1.427   3.712   8.697  0.0853 -1.2393  0.3807
 9200SOL    HW239234   1.304   3.721   8.780  0.9462 -0.6963 -3.6920
 9201SOL     OW39235   1.283   1.223   5.560 -0.2868  0.1052  0.8517
 9201SOL    HW139236   1.319   1.308   5.533 -1.2924  0.7151  1.4404
 9201SOL    HW239237   1.286   1.181   5.474 -0.2291 -0.9063  1.3498
 9202SOL     OW39238   1.479   1.478   3.493  0.5785  0.0648 -0.5728
 9202SOL    HW139239   1.492   1.546   3.426  3.9804 -1.2100 -1.2036
 9202SOL    HW239240   1.468   1.395   3.447 -0.3552 -0.0951 -0.0719
 9203SOL     OW39241   0.271   2.495   7.643  0.0554  0.3486  0.7230
 9203SOL    HW139242   0.188   2.449   7.659 -0.1304  0.5208  0.2660
 9203SOL    HW239243   0.307   2.492   7.732 -0.1891  2.4704  0.8887
 9204SOL     OW39244   3.303   4.435  14.372 -0.3227 -0.0670  0.0149
 9204SOL    HW139245   3.240   4.490  14.326  0.2363 -0.2996 -1.0392
 9204SOL    HW239246   3.294   4.350  14.328 -0.2077 -0.1821  0.2133
 9205SOL     OW39247   1.401   1.759   7.404  0.5027  0.6451  0.4955
 9205SOL    HW139248   1.413   1.800   7.489 -0.6765 -1.8016  1.8411
 9205SOL    HW239249   1.426   1.669   7.426  1.4457  0.2795 -1.9901
 9206SOL     OW39250   3.752   0.694  14.584 -0.0431 -0.0010 -0.3445
 9206SOL    HW139251   3.721   0.720  14.671 -0.5886 -1.6292 -0.0649
 9206SOL    HW239252   3.709   0.612  14.562  2.3003 -1.4230  0.2530
 9207SOL     OW39253   1.373   1.158   4.174 -0.0992  0.4025 -0.2485
 9207SOL    HW139254   1.329   1.163   4.089 -0.9647 -1.7329  0.0639
 9207SOL    HW239255   1.374   1.251   4.195 -0.6056  1.1171 -3.4483
 9208SOL     OW39256   3.282   1.617  10.070 -0.4059 -0.1914  0.2552
 9208SOL    HW139257   3.195   1.580  10.059 -1.7228  2.6054  1.3226
 9208SOL    HW239258   3.330   1.589   9.992 -0.7839  1.4253 -0.5637
 9209SOL     OW39259   1.313   4.676  10.877 -0.8068  0.8389  0.0112
 9209SOL    HW139260   1.361   4.594  10.870  0.5964  1.4704  2.1897
 9209SOL    HW239261   1.382   0.003  10.849 -0.8603  1.6989  1.7837
 9210SOL     OW39262   3.380   4.124   8.526  0.2852  0.0021 -0.2874
 9210SOL    HW139263   3.371   4.140   8.432 -1.4166  2.0764  0.2178
 9210SOL    HW239264   3.468   4.157   8.542  0.7930 -1.9761  0.9985
 9211SOL     OW39265   4.556   1.420   4.526 -0.2588  0.1335 -0.7827
 9211SOL    HW139266   4.486   1.383   4.473 -2.4557 -0.2580  2.4545
 9211SOL    HW239267   4.634   1.410   4.470  0.6915 -2.1334  0.9473
 9212SOL     OW39268   3.058   0.136  17.577 -0.4381  0.2233 -0.7011
 9212SOL    HW139269   3.065   0.111  17.669 -1.7413  0.1253 -0.6330
 9212SOL    HW239270   3.144   0.111  17.542 -0.9403 -1.8605 -0.4498
 9213SOL     OW39271   3.432   1.073   8.383  0.2167 -0.2380 -0.1696
 9213SOL    HW139272   3.352   1.029   8.410  1.1828 -3.3681 -2.4723
 9213SOL    HW239273   3.399   1.120   8.306  1.4018  0.7488 -0.0828
 9214SOL     OW39274   2.915   2.603   6.266 -0.6248 -0.0447  0.0746
 9214SOL    HW139275   2.861   2.678   6.242  1.4990  1.4247 -0.0705
 9214SOL    HW239276   2.983   2.644   6.320 -1.0905  0.6979  0.0966
 9215SOL     OW39277   3.591   0.243   5.371  0.0577  0.1383  0.3434
 9215SOL    HW139278   3.530   0.247   5.298 -0.4843 -0.1577  0.7798
 9215SOL    HW239279   3.577   0.319   5.426 -0.5897 -0.3497  0.8557
 9216SOL     OW39280   4.071   0.575   5.867  0.1443 -1.0634 -0.4218
 9216SOL    HW139281   4.054   0.516   5.794  0.2085 -0.7426 -0.6972
 9216SOL    HW239282   4.070   0.663   5.829  1.8012  0.1108  2.2065
 9217SOL     OW39283   1.561   3.198   0.408 -0.0141  0.9415  0.4015
 9217SOL    HW139284   1.508   3.204   0.329 -0.7966 -1.6967  0.7185
 9217SOL    HW239285   1.545   3.110   0.441 -1.4758  0.7177 -0.8938
 9218SOL     OW39286   3.885   3.942   4.891 -0.2275  0.4564 -0.3477
 9218SOL    HW139287   3.907   4.010   4.955 -0.8050 -0.7734  1.1377
 9218SOL    HW239288   3.947   3.877   4.924  0.2278  1.6027  1.0266
 9219SOL     OW39289   0.468   3.998   4.960  0.2090 -0.1568  0.1471
 9219SOL    HW139290   0.396   4.028   5.016  0.8301  0.5424  0.5806
 9219SOL    HW239291   0.526   4.073   4.944  0.5079 -0.5067 -0.4055
 9220SOL     OW39292   0.180   3.193   7.856 -0.6155  0.1786  0.3002
 9220SOL    HW139293   0.090   3.183   7.826 -1.0281 -1.5219  2.1099
 9220SOL    HW239294   0.219   3.205   7.770  0.2609  0.9427  0.7950
 9221SOL     OW39295   3.700   2.376  16.481  0.1336  0.3060  0.3688
 9221SOL    HW139296   3.793   2.361  16.500  0.5323  4.1500  1.2954
 9221SOL    HW239297   3.687   2.460  16.523  0.0245 -0.8528  2.6545
 9222SOL     OW39298   2.869   0.004   5.599 -0.2868  0.5592 -0.0191
 9222SOL    HW139299   2.907   0.087   5.627  0.1535  0.5436 -0.5917
 9222SOL    HW239300   2.822   4.707   5.677 -0.2506  0.2591 -0.1170
 9223SOL     OW39301   4.061   2.210   0.190  0.1211 -0.2630  0.0822
 9223SOL    HW139302   4.004   2.270   0.239  1.1043 -0.3980  1.3782
 9223SOL    HW239303   4.041   2.232   0.098  1.3450  2.1098  0.3974
 9224SOL     OW39304   3.912   3.236   4.310 -0.1995  0.2092  0.1892
 9224SOL    HW139305   3.818   3.252   4.302 -0.5803 -0.5894  2.9849
 9224SOL    HW239306   3.940   3.323   4.281  2.1468 -0.0168  1.7771
 9225SOL     OW39307   1.450   0.877   3.953  0.4387 -0.0904  0.1455
 9225SOL    HW139308   1.503   0.957   3.954 -0.0161  0.1708  3.6172
 9225SOL    HW239309   1.498   0.833   3.882  2.4322 -0.1867  1.5547
 9226SOL     OW39310   2.421   3.731   9.690 -0.0167  0.4389  0.4311
 9226SOL    HW139311   2.507   3.733   9.731  0.0287  0.2707  0.3452
 9226SOL    HW239312   2.408   3.639   9.668  0.6457  0.2332  0.9205
 9227SOL     OW39313   3.255   2.468   6.294 -0.1905  0.0159  0.2930
 9227SOL    HW139314   3.307   2.546   6.276  1.5177 -1.5685 -1.5702
 9227SOL    HW239315   3.185   2.465   6.230 -0.5567  0.9690  0.6514
 9228SOL     OW39316   2.579   0.815   4.005  0.3114  0.1138  0.2107
 9228SOL    HW139317   2.671   0.837   4.023  0.5289  0.6020 -1.4314
 9228SOL    HW239318   2.544   0.902   3.987 -1.7636 -1.3374 -2.7457
 9229SOL     OW39319   1.025   3.216   2.835  0.5089  1.0495  0.1161
 9229SOL    HW139320   0.996   3.125   2.833 -1.6638  1.7621 -1.0398
 9229SOL    HW239321   0.994   3.240   2.747  1.6458  0.7834 -0.3514
 9230SOL     OW39322   2.353   4.041   6.165  0.4786 -0.3469  0.1027
 9230SOL    HW139323   2.379   4.010   6.078  0.9937 -0.5172  0.3100
 9230SOL    HW239324   2.259   4.050   6.154  0.3772 -0.0274  1.2080
 9231SOL     OW39325   3.066   3.479  16.035  0.4993 -0.3416  0.4323
 9231SOL    HW139326   3.142   3.513  15.988  1.2985 -1.9847  0.5191
 9231SOL    HW239327   3.022   3.563  16.046 -0.2896 -1.0986  3.2462
 9232SOL     OW39328   2.641   3.468   3.376  0.0162  0.5940  0.1591
 9232SOL    HW139329   2.641   3.558   3.411  0.5203  0.8998 -0.6248
 9232SOL    HW239330   2.721   3.435   3.416 -1.0040 -0.7058  1.1102
 9233SOL     OW39331   3.001   2.065  13.216 -0.0913 -0.1879 -0.1448
 9233SOL    HW139332   3.053   1.986  13.230 -0.5028 -0.2601  0.9729
 9233SOL    HW239333   2.932   2.061  13.283  1.8444 -1.1212  1.7972
 9234SOL     OW39334   0.121   1.307   7.431  0.0320 -0.4441  0.3881
 9234SOL    HW139335   0.099   1.398   7.449 -1.6169 -0.6854 -0.4108
 9234SOL    HW239336   0.033   1.269   7.430  0.0115 -0.3896  0.1353
 9235SOL     OW39337   3.948   2.797   6.094  0.0820  0.7745  0.0172
 9235SOL    HW139338   3.949   2.770   6.002 -0.1752  0.5116  0.0900
 9235SOL    HW239339   4.009   2.869   6.083  0.6862  0.2310 -0.2337
 9236SOL     OW39340   3.072   2.133   9.174 -0.2546  0.6214  0.3336
 9236SOL    HW139341   3.132   2.074   9.219 -0.7495  0.8957  1.3512
 9236SOL    HW239342   3.132   2.207   9.173 -2.0739  2.1081 -0.2990
 9237SOL     OW39343   4.230   4.658   8.420 -0.0290  0.2408  0.2131
 9237SOL    HW139344   4.207   4.696   8.505  0.2716  1.1117 -0.0959
 9237SOL    HW239345   4.244   0.003   8.368 -2.4088  2.0661  2.3425
 9238SOL     OW39346   2.540   4.612   4.250  0.2165  0.3211 -0.2016
 9238SOL    HW139347   2.449   4.608   4.222 -0.6333  3.3472  2.1116
 9238SOL    HW239348   2.548   4.542   4.316  0.4956 -0.9135 -1.5391
 9239SOL     OW39349   2.111   0.509   4.336  0.4712 -0.0665  0.2048
 9239SOL    HW139350   2.067   0.432   4.301  0.6303 -0.0840  0.0401
 9239SOL    HW239351   2.203   0.483   4.326  0.5438  0.3079 -0.0950
 9240SOL     OW39352   4.572   3.981  13.364  0.5900 -0.2194  0.1952
 9240SOL    HW139353   4.523   4.019  13.437 -0.0331 -0.5987 -0.0236
 9240SOL    HW239354   4.623   4.055  13.331 -0.6899  1.2605  1.5057
 9241SOL     OW39355   3.780   2.001   3.245 -0.4002  0.0303 -0.1156
 9241SOL    HW139356   3.760   1.995   3.339  1.6540  0.9370  0.3669
 9241SOL    HW239357   3.697   1.992   3.198  0.1994 -2.1445 -0.7368
 9242SOL     OW39358   3.714   1.394   1.164  0.7555 -0.2620  0.2322
 9242SOL    HW139359   3.778   1.382   1.094  1.7623  0.9710  0.9444
 9242SOL    HW239360   3.750   1.329   1.225  1.8641  0.2486  0.1256
 9243SOL     OW39361   0.363   1.516   8.730  0.7600 -0.2783  0.4765
 9243SOL    HW139362   0.402   1.511   8.643  1.4437 -1.5057  0.8508
 9243SOL    HW239363   0.345   1.424   8.751  0.1222  0.1569  1.8332
 9244SOL     OW39364   1.125   1.152   1.763 -0.4452 -0.2570  0.2136
 9244SOL    HW139365   1.048   1.207   1.780  0.3022  2.1068 -3.9289
 9244SOL    HW239366   1.148   1.126   1.852  0.5495  0.7389  0.2575
 9245SOL     OW39367   2.458   3.726   2.215 -0.2501 -0.3979  0.7960
 9245SOL    HW139368   2.407   3.651   2.186 -0.8486  0.5077 -0.4659
 9245SOL    HW239369   2.409   3.802   2.187  0.1660 -0.7212 -0.8072
 9246SOL     OW39370   1.448   1.205   8.386  0.3242 -0.0376 -0.4041
 9246SOL    HW139371   1.501   1.249   8.320  0.6005 -0.4144 -0.4345
 9246SOL    HW239372   1.507   1.225   8.459  0.5671 -1.4967 -0.2027
 9247SOL     OW39373   2.213   3.842   7.497 -0.2286 -0.0619 -1.0220
 9247SOL    HW139374   2.132   3.825   7.545 -0.0883  1.6768 -0.1865
 9247SOL    HW239375   2.178   3.921   7.456  0.8277  1.1816  0.4515
 9248SOL     OW39376   3.150   2.925   4.482 -0.6458 -0.3461  0.1695
 9248SOL    HW139377   3.107   2.843   4.507 -0.2502 -0.7643 -0.5331
 9248SOL    HW239378   3.219   2.920   4.549  1.0347 -1.5046 -1.6490
 9249SOL     OW39379   1.793   2.248   8.763  0.1958 -0.0096  0.4291
 9249SOL    HW139380   1.776   2.261   8.857 -1.2541  2.1268 -0.1348
 9249SOL    HW239381   1.837   2.333   8.752 -1.1368  0.5401 -0.6263
 9250SOL     OW39382   2.472   1.480  16.637 -0.2761 -0.4799 -0.1312
 9250SOL    HW139383   2.455   1.387  16.654  0.4760 -0.5650  0.1258
 9250SOL    HW239384   2.567   1.479  16.633 -0.2107 -1.0304  1.4026
 9251SOL     OW39385   1.092   3.890   4.594  0.6259 -0.0303  0.3946
 9251SOL    HW139386   1.030   3.833   4.550 -0.1978  1.5381 -0.4923
 9251SOL    HW239387   1.026   3.932   4.649  0.0542 -0.2943 -0.0921
 9252SOL     OW39388   0.108   1.448   6.335 -0.0203  0.1053 -0.4343
 9252SOL    HW139389   0.027   1.495   6.313 -1.5145 -1.3167  2.0370
 9252SOL    HW239390   0.151   1.449   6.250  2.0640  2.0286  0.6333
 9253SOL     OW39391   2.279   0.723   4.301  0.3233 -0.5395 -0.7635
 9253SOL    HW139392   2.270   0.747   4.209 -0.7852  1.8906 -0.0056
 9253SOL    HW239393   2.211   0.656   4.304 -1.7857  1.7008  0.5578
 9254SOL     OW39394   0.146   0.257   0.380  0.4758 -0.0720 -0.8173
 9254SOL    HW139395   0.127   0.343   0.342 -0.6657 -1.2463 -2.9144
 9254SOL    HW239396   0.239   0.266   0.401  0.0145  1.8018  0.3806
 9255SOL     OW39397   1.860   3.661   2.815  0.1425  0.1004 -0.0687
 9255SOL    HW139398   1.873   3.599   2.887 -1.0415 -2.7745 -2.3526
 9255SOL    HW239399   1.799   3.605   2.766 -1.3551  0.5967  1.2274
 9256SOL     OW39400   3.305   1.756   5.255  0.3134 -0.3829  0.0037
 9256SOL    HW139401   3.238   1.694   5.226  0.4252 -0.0436 -1.0012
 9256SOL    HW239402   3.377   1.693   5.246  0.7688  0.4905 -2.5981
 9257SOL     OW39403   3.588   0.053   4.761  0.1359  0.1393  0.2026
 9257SOL    HW139404   3.497   0.066   4.734  0.6565 -0.2420 -1.7041
 9257SOL    HW239405   3.591   4.696   4.791 -0.1090 -0.3799 -1.3523
 9258SOL     OW39406   1.476   3.077   1.386 -0.0898 -0.0870 -0.0832
 9258SOL    HW139407   1.489   3.011   1.453  2.1459  0.1413 -0.2929
 9258SOL    HW239408   1.445   3.020   1.315 -1.1627  0.1433  0.1888
 9259SOL     OW39409   1.691   3.783   4.699  0.0121  0.0540  0.4803
 9259SOL    HW139410   1.738   3.851   4.650  2.0230 -1.6085  0.0775
 9259SOL    HW239411   1.759   3.767   4.765 -0.1998 -0.4213  0.5881
 9260SOL     OW39412   4.056   1.250  14.328  0.1562  0.0229 -0.0763
 9260SOL    HW139413   4.086   1.164  14.298 -0.7838 -1.1865  2.5180
 9260SOL    HW239414   4.008   1.241  14.410  0.6295 -0.8213  0.0975
 9261SOL     OW39415   1.664   3.129   5.010 -0.3403  0.0884  0.1534
 9261SOL    HW139416   1.740   3.077   4.985 -0.5146 -1.4543  2.8037
 9261SOL    HW239417   1.639   3.181   4.933 -0.6673  1.3523  1.1177
 9262SOL     OW39418   2.238   3.208   3.655 -0.5069 -0.1045 -0.5524
 9262SOL    HW139419   2.298   3.161   3.712  0.1276 -0.6689 -1.6835
 9262SOL    HW239420   2.303   3.238   3.591 -1.4211  0.1553 -1.3596
 9263SOL     OW39421   3.336   0.006   9.459 -0.2054 -0.1468  0.0868
 9263SOL    HW139422   3.418   4.708   9.494  0.3531 -0.5968 -1.6431
 9263SOL    HW239423   3.369   0.027   9.372 -0.8681 -2.1114 -0.6203
 9264SOL     OW39424   1.275   3.940  14.250 -0.2275  0.2349 -0.0236
 9264SOL    HW139425   1.217   3.923  14.324  1.7503  2.0466  1.9665
 9264SOL    HW239426   1.212   3.962  14.181  1.1389 -0.3602 -1.4602
 9265SOL     OW39427   3.361   3.895   4.743 -0.7841  0.3937  0.4394
 9265SOL    HW139428   3.434   3.845   4.708 -1.5353 -0.0064 -0.5609
 9265SOL    HW239429   3.289   3.844   4.706  0.0331 -0.7593  0.4584
 9266SOL     OW39430   0.249   4.709   7.697 -0.3016 -0.1305  0.3872
 9266SOL    HW139431   0.156   4.692   7.682 -0.6840 -0.4790  3.1658
 9266SOL    HW239432   0.265   0.068   7.687  2.1709 -0.6614 -0.7668
 9267SOL     OW39433   0.738   4.652  15.747 -0.7088  0.7721 -0.5110
 9267SOL    HW139434   0.821   4.656  15.794 -0.3475 -0.2051 -1.0616
 9267SOL    HW239435   0.763   4.665  15.655  1.8304  1.1806  0.2381
 9268SOL     OW39436   2.899   1.480   1.949  0.3884  0.5465  0.1696
 9268SOL    HW139437   2.886   1.461   1.856  1.5344  0.1585  0.0929
 9268SOL    HW239438   2.848   1.416   1.998  0.3646 -2.2371 -3.4935
 9269SOL     OW39439   2.829   0.215  16.599  0.1502  0.0236  0.9292
 9269SOL    HW139440   2.888   0.281  16.635  0.0963  1.5587 -1.8023
 9269SOL    HW239441   2.898   0.160  16.562 -1.0738 -0.8264 -0.1116
 9270SOL     OW39442   1.530   3.190   8.010 -0.0763  0.4516  0.0604
 9270SOL    HW139443   1.480   3.188   7.928  0.4248  1.6695 -0.2875
 9270SOL    HW239444   1.621   3.188   7.980  0.0713  1.0033  0.4747
 9271SOL     OW39445   3.252   4.392   4.065  0.1478 -0.0864 -0.1677
 9271SOL    HW139446   3.298   4.338   4.001 -0.0441  2.1166 -2.1849
 9271SOL    HW239447   3.176   4.426   4.017  0.4088 -0.8292 -1.1007
 9272SOL     OW39448   3.138   2.563   1.654 -0.5160  0.1881  0.6215
 9272SOL    HW139449   3.131   2.482   1.704 -0.9495  0.3903  0.8825
 9272SOL    HW239450   3.056   2.607   1.674 -0.4013  0.8975 -0.4569
 9273SOL     OW39451   0.653   1.109   2.533 -0.3062  0.0180 -0.0687
 9273SOL    HW139452   0.741   1.074   2.518  0.0568  0.8402  0.1832
 9273SOL    HW239453   0.671   1.189   2.581  0.9077 -0.1184 -0.3131
 9274SOL     OW39454   2.557   3.682  15.229  0.7325  0.2727  0.3708
 9274SOL    HW139455   2.607   3.602  15.216 -1.4587 -0.7920 -1.5807
 9274SOL    HW239456   2.521   3.668  15.317  0.3865  0.9773  0.3502
 9275SOL     OW39457   1.023   4.141   8.535  0.2669 -0.2588 -0.6918
 9275SOL    HW139458   1.046   4.103   8.620 -1.5513  0.6619  0.2187
 9275SOL    HW239459   1.091   4.113   8.474 -0.0752  0.1125 -1.2420
 9276SOL     OW39460   0.314   2.675   0.418 -0.2120 -0.1714 -0.0113
 9276SOL    HW139461   0.288   2.759   0.380  1.7445  0.0738 -0.7995
 9276SOL    HW239462   0.249   2.612   0.385 -0.4387  0.1298 -0.1413
 9277SOL     OW39463   0.515   3.449  16.485  0.0803  0.9821  1.2120
 9277SOL    HW139464   0.537   3.364  16.524 -2.0948  0.7723  2.0223
 9277SOL    HW239465   0.546   3.511  16.551 -0.4305  0.4014  2.0087
 9278SOL     OW39466   2.683   1.126   7.701 -0.3840 -0.0153  0.7500
 9278SOL    HW139467   2.662   1.059   7.767  2.3497 -0.4471  1.1738
 9278SOL    HW239468   2.603   1.178   7.696 -1.4285 -1.6373  0.5677
 9279SOL     OW39469   0.143   1.735   7.222 -0.0866  0.0145  0.2088
 9279SOL    HW139470   0.171   1.715   7.311  1.1298 -1.9267 -0.6185
 9279SOL    HW239471   0.216   1.704   7.169 -1.1835 -0.4879 -1.0056
 9280SOL     OW39472   1.722   2.644  15.985 -0.5207 -0.3786 -0.2611
 9280SOL    HW139473   1.708   2.738  15.978 -2.8528 -0.7206 -0.3198
 9280SOL    HW239474   1.677   2.632  16.069 -0.2120  0.4163  0.0179
 9281SOL     OW39475   4.020   3.990   9.377  0.7295 -0.1840 -0.3553
 9281SOL    HW139476   4.052   4.006   9.288  0.2574  0.3310 -0.4394
 9281SOL    HW239477   4.093   4.027   9.426 -0.5519  1.3888  0.3969
 9282SOL     OW39478   2.217   4.272   2.186 -0.1077  0.1192 -0.2312
 9282SOL    HW139479   2.131   4.239   2.157 -0.3231 -0.6345  1.2733
 9282SOL    HW239480   2.190   4.362   2.202  2.0395  0.9439 -1.3469
 9283SOL     OW39481   1.158   2.635   1.663 -0.1495 -0.5467  0.3567
 9283SOL    HW139482   1.163   2.568   1.732  1.0886 -2.1226 -1.2684
 9283SOL    HW239483   1.251   2.646   1.642 -0.3143 -1.0887 -0.6175
 9284SOL     OW39484   2.571   2.880   3.156 -0.1961 -0.2989 -0.0673
 9284SOL    HW139485   2.664   2.862   3.169  0.1688  1.1926 -0.6751
 9284SOL    HW239486   2.586   2.973   3.142  1.2170  0.0351  3.7403
 9285SOL     OW39487   4.197   0.998   2.826 -0.0330  0.3419  0.3039
 9285SOL    HW139488   4.152   1.075   2.792 -0.9163 -0.4375 -0.2811
 9285SOL    HW239489   4.240   0.953   2.753 -2.4365 -0.1135 -0.8236
 9286SOL     OW39490   0.427   0.045   6.237  0.2445 -0.1052  0.3465
 9286SOL    HW139491   0.398   0.037   6.147 -0.9395  0.0620  0.7127
 9286SOL    HW239492   0.451   4.689   6.258 -0.3429 -0.4723 -0.5743
 9287SOL     OW39493   4.467   2.438   1.581  0.5687  0.0241 -0.2690
 9287SOL    HW139494   4.393   2.378   1.583 -0.4226  1.2692  0.4899
 9287SOL    HW239495   4.521   2.403   1.510 -0.3520  0.0178 -0.9620
 9288SOL     OW39496   0.011   1.254   9.729 -0.1390 -0.4646 -0.3342
 9288SOL    HW139497   0.059   1.204   9.795  3.1408  1.3089 -1.3831
 9288SOL    HW239498   4.695   1.191   9.678  1.1666 -0.6922 -1.3206
 9289SOL     OW39499   3.453   1.927   2.454 -0.3779  0.2767  0.1989
 9289SOL    HW139500   3.461   1.847   2.506 -0.6372  0.2101  0.1354
 9289SOL    HW239501   3.440   1.899   2.363  1.2482  0.7748 -0.1836
 9290SOL     OW39502   2.454   4.238   3.545  0.1400 -0.9752  0.7388
 9290SOL    HW139503   2.454   4.258   3.638  2.0018  0.9388  0.3457
 9290SOL    HW239504   2.546   4.210   3.545  0.5627  0.4176  0.9073
 9291SOL     OW39505   1.401   0.004   1.243  0.3100 -0.0385 -0.7626
 9291SOL    HW139506   1.353   0.077   1.203 -1.2064  0.0418  1.1963
 9291SOL    HW239507   1.432   4.694   1.164  1.1464  0.7541 -0.8657
 9292SOL     OW39508   3.369   4.322   5.900  0.0062 -0.3446 -0.2877
 9292SOL    HW139509   3.316   4.250   5.865  1.4936 -1.3200 -0.5587
 9292SOL    HW239510   3.360   4.378   5.823 -0.5855  0.5797  0.4700
 9293SOL     OW39511   2.633   0.179   3.499  0.3511 -0.0619 -0.2875
 9293SOL    HW139512   2.685   0.233   3.440  0.8418  0.2298  0.4144
 9293SOL    HW239513   2.589   0.127   3.432 -0.4184 -0.8898  0.8643
 9294SOL     OW39514   2.395   4.588   6.920 -0.0575  0.6485  0.2461
 9294SOL    HW139515   2.340   4.661   6.892  0.2089  0.8655  0.2856
 9294SOL    HW239516   2.414   4.609   7.011  1.3669 -0.9054  0.3154
 9295SOL     OW39517   2.386   2.680   5.008 -0.0179  0.3544 -0.0681
 9295SOL    HW139518   2.355   2.738   4.939 -1.6361 -0.8449 -0.3737
 9295SOL    HW239519   2.417   2.607   4.956  0.1272  0.0831  0.3967
 9296SOL     OW39520   1.353   1.629   6.533 -0.1280  0.2141  0.3371
 9296SOL    HW139521   1.304   1.550   6.555  0.5660 -0.4375 -0.4742
 9296SOL    HW239522   1.283   1.693   6.539  2.0231  2.5021  1.3261
 9297SOL     OW39523   3.992   0.756   2.602 -0.8583 -0.5319  0.3977
 9297SOL    HW139524   3.936   0.740   2.678 -0.3484 -0.9755  0.6788
 9297SOL    HW239525   3.944   0.714   2.530 -1.1091  1.1396 -0.4039
 9298SOL     OW39526   1.785   1.092   6.661  0.1468 -0.2420 -0.4342
 9298SOL    HW139527   1.854   1.042   6.615  0.1301  1.1829 -1.9855
 9298SOL    HW239528   1.811   1.073   6.752 -2.1784  3.7588  1.0300
 9299SOL     OW39529   0.838   4.100   1.557 -0.1524  0.3067  0.5071
 9299SOL    HW139530   0.799   4.042   1.491  0.7855  1.1794 -0.8297
 9299SOL    HW239531   0.808   4.183   1.520 -0.8744  0.3441  1.1777
 9300SOL     OW39532   3.691   0.324   2.789 -0.3353  0.2911  0.4519
 9300SOL    HW139533   3.747   0.395   2.760 -2.1127  1.0528 -1.0977
 9300SOL    HW239534   3.677   0.280   2.705 -0.5094  0.1184  0.5686
 9301SOL     OW39535   0.227   3.698   9.608 -0.5804  0.4044  0.1790
 9301SOL    HW139536   0.278   3.624   9.639 -1.6707 -0.6678 -0.5626
 9301SOL    HW239537   0.237   3.690   9.513  1.6644  1.6508  0.3196
 9302SOL     OW39538   2.462   1.687   1.232 -0.1471 -0.5901 -0.3749
 9302SOL    HW139539   2.506   1.718   1.311 -3.3642  2.5208  0.1841
 9302SOL    HW239540   2.378   1.668   1.272 -0.7813  1.1149 -0.8757
 9303SOL     OW39541   4.531   2.033   4.614 -0.4491  0.2790 -0.3146
 9303SOL    HW139542   4.514   2.116   4.659 -0.4030 -0.2794  0.7074
 9303SOL    HW239543   4.581   2.061   4.537  1.6640 -3.4564 -0.2870
 9304SOL     OW39544   1.967   1.832   7.482 -0.7513 -0.0851 -0.2923
 9304SOL    HW139545   1.937   1.791   7.401  1.7299  1.0733 -1.7998
 9304SOL    HW239546   2.002   1.757   7.531 -1.6412  0.5797  1.3308
 9305SOL     OW39547   3.793   3.944   3.181 -0.6988 -0.4992  0.1307
 9305SOL    HW139548   3.872   3.962   3.130 -0.8676 -0.6355 -0.1795
 9305SOL    HW239549   3.745   3.889   3.119 -0.9755  0.2470 -0.3222
 9306SOL     OW39550   4.425   3.519   6.350  0.8166 -0.3349  0.4517
 9306SOL    HW139551   4.436   3.425   6.362  4.1354 -0.0108 -0.0900
 9306SOL    HW239552   4.472   3.551   6.427 -1.5326  1.6883  1.0448
 9307SOL     OW39553   1.851   4.362   0.519 -0.0986 -0.0210 -0.7892
 9307SOL    HW139554   1.915   4.334   0.584  0.9841 -0.2701 -1.9649
 9307SOL    HW239555   1.811   4.277   0.501  0.2667 -0.6858  1.5375
 9308SOL     OW39556   2.886   2.916   7.224  0.3500 -0.5616 -0.5400
 9308SOL    HW139557   2.916   2.928   7.314 -0.6597  0.7043 -0.3756
 9308SOL    HW239558   2.969   2.892   7.185  0.1913  0.4802 -1.5089
 9309SOL     OW39559   4.636   1.200   4.191 -0.7782  0.2644  0.1477
 9309SOL    HW139560   4.692   1.274   4.166  0.3994 -1.1004 -1.2628
 9309SOL    HW239561   4.616   1.197   4.285 -0.0971  2.1486  0.3540
 9310SOL     OW39562   0.931   1.925   4.881  0.1945 -0.3753 -0.2512
 9310SOL    HW139563   0.900   1.881   4.960 -0.4217 -0.1551 -0.3752
 9310SOL    HW239564   0.995   1.862   4.846 -0.5296 -1.6790  0.7636
 9311SOL     OW39565   1.204   4.700   5.022  0.6619 -0.1462  0.2175
 9311SOL    HW139566   1.278   4.703   4.961 -0.5220  1.3752 -1.1063
 9311SOL    HW239567   1.211   0.054   5.058  0.2210  0.0321 -0.1420
 9312SOL     OW39568   4.288   4.142   8.282 -0.2341 -0.4673  0.0117
 9312SOL    HW139569   4.373   4.146   8.327  0.0751 -2.0723 -0.4357
 9312SOL    HW239570   4.270   4.050   8.299  0.1607 -0.7866 -1.2483
 9313SOL     OW39571   1.819   0.482   6.937  0.3761  0.6804 -0.1249
 9313SOL    HW139572   1.888   0.540   6.905  1.2156 -0.0169  0.4440
 9313SOL    HW239573   1.796   0.527   7.018 -2.3961 -1.5099  0.2833
 9314SOL     OW39574   2.459   0.559   0.654  0.3809  0.1900 -0.1259
 9314SOL    HW139575   2.435   0.514   0.573 -0.7108 -3.0445  2.0134
 9314SOL    HW239576   2.465   0.478   0.705 -1.5410 -0.9079 -1.6612
 9315SOL     OW39577   3.818   0.248  16.935 -0.0961 -0.3464 -0.6867
 9315SOL    HW139578   3.728   0.214  16.937  0.0899 -0.7858  0.3919
 9315SOL    HW239579   3.802   0.340  16.915  1.2398  0.4179  1.7945
 9316SOL     OW39580   1.603   1.507   9.987  0.2637 -0.4869 -0.3844
 9316SOL    HW139581   1.693   1.537  10.000  0.9249 -3.3899  1.7272
 9316SOL    HW239582   1.606   1.413   9.968 -1.8754 -0.3688 -1.3223
 9317SOL     OW39583   2.760   4.697  17.681  0.1318  0.1369 -0.2971
 9317SOL    HW139584   2.748   4.718  17.589 -1.8903 -0.6136 -0.2074
 9317SOL    HW239585   2.823   4.626  17.671  1.1435  1.1592 -1.1786
 9318SOL     OW39586   3.037   1.033   2.714  0.0982  0.8781  0.0220
 9318SOL    HW139587   3.118   1.027   2.766 -0.2511 -0.1339  0.4665
 9318SOL    HW239588   3.058   0.990   2.631 -0.0329  0.2341  0.3159
 9319SOL     OW39589   0.106   1.742  11.341 -0.0102 -0.5826 -0.1269
 9319SOL    HW139590   0.019   1.714  11.312 -0.0092  1.0730 -1.7045
 9319SOL    HW239591   0.151   1.709  11.263  1.5231 -1.8078  1.2885
 9320SOL     OW39592   3.334   0.888   5.688  0.4483  0.0512  0.3950
 9320SOL    HW139593   3.244   0.914   5.707 -0.7078 -3.3448 -0.4243
 9320SOL    HW239594   3.333   0.901   5.593 -0.1826 -2.9249 -0.0030
 9321SOL     OW39595   1.025   3.290  11.437  0.7246  0.1618 -0.2834
 9321SOL    HW139596   0.985   3.263  11.520 -1.7324  1.4968 -1.0284
 9321SOL    HW239597   0.984   3.375  11.421  2.6029  0.6937 -2.2766
 9322SOL     OW39598   2.619   3.491   3.103 -0.0846 -0.2364  0.1541
 9322SOL    HW139599   2.639   3.484   3.196  0.4254 -0.4470  0.0307
 9322SOL    HW239600   2.535   3.533   3.116  0.0607 -0.3515  1.4247
 9323SOL     OW39601   3.334   2.127   9.277 -0.1781 -0.1715 -0.4492
 9323SOL    HW139602   3.364   2.214   9.252  1.8819 -1.3127 -1.9959
 9323SOL    HW239603   3.403   2.067   9.251 -1.0733 -0.5988 -1.8418
 9324SOL     OW39604   3.321   4.063  13.282  0.0845 -0.1816 -0.4449
 9324SOL    HW139605   3.406   4.064  13.325  0.3552  1.5985 -1.0043
 9324SOL    HW239606   3.277   4.144  13.310  1.5354  0.8165 -1.0493
 9325SOL     OW39607   3.606   3.372   9.903  0.1122  0.0551  0.3490
 9325SOL    HW139608   3.562   3.373   9.988 -0.1098 -2.8080  0.2766
 9325SOL    HW239609   3.617   3.467   9.893  3.2005 -0.6181 -2.8346
 9326SOL     OW39610   2.613   4.110   4.360  0.5162  0.1979 -0.0235
 9326SOL    HW139611   2.588   4.081   4.448 -3.3392 -0.0959 -1.2292
 9326SOL    HW239612   2.681   4.175   4.377 -2.3279  2.7864  1.2626
 9327SOL     OW39613   2.976   0.994   8.664 -0.4783  0.0608  0.0837
 9327SOL    HW139614   2.967   1.002   8.759 -0.9030  0.1819  0.0346
 9327SOL    HW239615   2.900   1.045   8.636  1.0875  2.0275 -0.5836
 9328SOL     OW39616   2.672   1.370   5.695  0.1758  0.3268 -0.0546
 9328SOL    HW139617   2.761   1.346   5.721 -1.0416 -1.6682  2.2777
 9328SOL    HW239618   2.626   1.380   5.778 -0.9185 -2.1819 -0.3710
 9329SOL     OW39619   0.754   4.664   3.063 -0.0921  0.0827  0.0607
 9329SOL    HW139620   0.837   4.701   3.094 -0.5452 -0.6536  2.1650
 9329SOL    HW239621   0.748   4.576   3.099 -4.1197  0.0719 -0.6907
 9330SOL     OW39622   1.473   3.272   2.958 -0.0150 -0.1964 -0.5207
 9330SOL    HW139623   1.398   3.292   3.016 -0.8333 -0.8159 -1.3738
 9330SOL    HW239624   1.436   3.197   2.912 -1.3318 -0.3427  0.7376
 9331SOL     OW39625   1.393   2.835   5.184  0.2683 -0.3884  0.0042
 9331SOL    HW139626   1.442   2.792   5.114 -0.4871  0.2574 -0.9225
 9331SOL    HW239627   1.344   2.885   5.120 -1.3119  0.7011  2.0506
 9332SOL     OW39628   1.415   0.969  17.451 -0.5205  0.4099 -0.3543
 9332SOL    HW139629   1.360   0.908  17.402  1.3261 -1.1421 -0.5018
 9332SOL    HW239630   1.501   0.928  17.440 -1.6622 -1.9668 -0.4919
 9333SOL     OW39631   4.445   1.682   0.439 -0.4964 -0.3377  0.2684
 9333SOL    HW139632   4.474   1.730   0.517 -2.1678  1.5604 -0.2634
 9333SOL    HW239633   4.503   1.721   0.373 -0.9840  0.0532  0.0691
 9334SOL     OW39634   2.773   4.127  16.891  0.5242 -0.2789  0.5221
 9334SOL    HW139635   2.860   4.117  16.930  0.9612 -1.6053 -0.7796
 9334SOL    HW239636   2.746   4.194  16.954 -1.5676 -0.7062  0.0599
 9335SOL     OW39637   1.505   0.985   0.959 -0.3631  0.0966  0.0771
 9335SOL    HW139638   1.595   0.991   0.925 -0.8230  1.0309 -0.9800
 9335SOL    HW239639   1.525   0.920   1.026  0.5632  0.3232  0.0282
 9336SOL     OW39640   3.720   4.559  13.642 -0.2054 -0.1741  0.6717
 9336SOL    HW139641   3.778   4.588  13.571  0.2313  2.0097  1.9168
 9336SOL    HW239642   3.636   4.594  13.612  0.3220  0.4946 -0.0325
 9337SOL     OW39643   3.564   3.908  16.723 -0.2652 -0.2300 -0.0949
 9337SOL    HW139644   3.549   3.950  16.808  4.1909  0.7360  0.2030
 9337SOL    HW239645   3.646   3.946  16.691 -0.8694  1.3909  0.3051
 9338SOL     OW39646   4.352   1.318  12.574 -0.2693 -0.0414 -0.2156
 9338SOL    HW139647   4.297   1.384  12.532 -0.0288  1.8785  2.4377
 9338SOL    HW239648   4.378   1.275  12.493  0.2954  1.5405 -0.8652
 9339SOL     OW39649   1.537   3.585   0.446 -0.0185 -0.5273 -0.7271
 9339SOL    HW139650   1.509   3.516   0.506 -1.1213 -2.2765 -3.2957
 9339SOL    HW239651   1.534   3.666   0.498  0.9379 -0.2638 -1.0731
 9340SOL     OW39652   2.227   2.288   0.452  0.4393 -0.5182  0.3944
 9340SOL    HW139653   2.189   2.218   0.401  0.5463 -0.7396  0.6179
 9340SOL    HW239654   2.276   2.327   0.379  0.0519 -0.9966 -0.1165
 9341SOL     OW39655   2.039   0.187   5.057 -0.2293 -0.1291 -0.2925
 9341SOL    HW139656   2.112   0.238   5.023 -1.6938  0.7249 -2.1548
 9341SOL    HW239657   1.978   0.247   5.099  0.3034  0.8792 -0.9662
 9342SOL     OW39658   0.221   0.574   5.264  0.2046 -0.5024  0.0316
 9342SOL    HW139659   0.133   0.610   5.277  0.7961  1.1230 -0.5195
 9342SOL    HW239660   0.208   0.540   5.175  0.2342  0.0634 -0.1897
 9343SOL     OW39661   4.674   3.118   7.756  0.8365 -0.6456 -0.0287
 9343SOL    HW139662   4.716   3.042   7.715 -0.0852 -0.7007 -0.8757
 9343SOL    HW239663   4.589   3.114   7.712  0.7162 -1.9750  0.3148
 9344SOL     OW39664   0.592   4.237   8.267  0.1661  0.1115 -0.0851
 9344SOL    HW139665   0.531   4.282   8.210 -2.3050 -1.0746  1.6329
 9344SOL    HW239666   0.564   4.147   8.248 -0.5070  0.6481 -1.6585
 9345SOL     OW39667   0.494   4.533   6.344 -0.4949  0.0471  0.6010
 9345SOL    HW139668   0.582   4.539   6.308  0.0367  0.2874  1.9803
 9345SOL    HW239669   0.496   4.583   6.425 -0.9019  3.7137 -1.6244
 9346SOL     OW39670   3.139   3.648  13.531  0.8118  0.1304  0.8264
 9346SOL    HW139671   3.192   3.619  13.606  1.2845  0.1696  0.5101
 9346SOL    HW239672   3.052   3.633  13.566  1.0800 -2.7924  0.2800
 9347SOL     OW39673   3.599   0.511   7.584 -0.5540  0.0026  0.2810
 9347SOL    HW139674   3.660   0.584   7.577 -0.8982  0.1268 -1.4443
 9347SOL    HW239675   3.521   0.546   7.627 -1.3396  0.7964 -1.7683
 9348SOL     OW39676   0.248   2.229   9.897  0.5456  0.2010  0.2668
 9348SOL    HW139677   0.269   2.300   9.837  0.1753 -1.0422 -1.3182
 9348SOL    HW239678   0.234   2.167   9.825 -0.4022 -1.2051  1.6464
 9349SOL     OW39679   2.337   4.524   2.522  0.4276 -0.4203  0.6947
 9349SOL    HW139680   2.385   4.491   2.445  2.3713  1.5016  1.0827
 9349SOL    HW239681   2.369   4.612   2.538  0.7316 -0.2083 -1.0327
 9350SOL     OW39682   2.644   2.106  10.711  0.0114  0.1031 -0.0980
 9350SOL    HW139683   2.596   2.026  10.690  0.5028  0.1005 -1.2275
 9350SOL    HW239684   2.577   2.171  10.693 -0.8065 -0.2079  1.7797
 9351SOL     OW39685   3.427   3.886  15.957  0.0001  0.2585  0.1373
 9351SOL    HW139686   3.335   3.867  15.979 -1.1003  3.9832 -1.3489
 9351SOL    HW239687   3.418   3.896  15.862  0.3653 -1.0911 -0.0445
 9352SOL     OW39688   1.948   3.635   7.893 -0.4514 -0.3829 -0.0957
 9352SOL    HW139689   1.884   3.701   7.920 -0.7928 -1.4675  1.7500
 9352SOL    HW239690   1.908   3.555   7.927 -0.6295 -1.0982 -2.0008
 9353SOL     OW39691   4.610   1.236  15.886 -0.5227 -0.1058 -0.0305
 9353SOL    HW139692   4.658   1.262  15.965 -2.6357 -1.1953  1.5787
 9353SOL    HW239693   4.526   1.274  15.911  0.8756  1.2746  2.6093
 9354SOL     OW39694   3.217   0.194   6.814  0.0894 -0.0766  0.1969
 9354SOL    HW139695   3.312   0.187   6.812 -0.0880 -2.9694  0.9483
 9354SOL    HW239696   3.200   0.261   6.748  1.1957 -1.4045 -1.4490
 9355SOL     OW39697   4.159   2.704   7.502 -0.2842 -0.4559  0.1279
 9355SOL    HW139698   4.084   2.712   7.444 -0.5077  1.6868  0.7046
 9355SOL    HW239699   4.226   2.761   7.464 -1.9232  1.3401 -0.0869
 9356SOL     OW39700   4.218   2.270   6.515  0.0531 -0.3310 -0.2585
 9356SOL    HW139701   4.163   2.196   6.492 -1.4240  1.2877 -1.9550
 9356SOL    HW239702   4.177   2.352   6.488 -0.5829 -0.8086 -0.7157
 9357SOL     OW39703   4.069   2.291   9.348  0.4135  0.8847  0.5853
 9357SOL    HW139704   4.159   2.299   9.381  0.3845 -2.0709  1.3202
 9357SOL    HW239705   4.073   2.361   9.283 -1.8845  1.5807  1.1794
 9358SOL     OW39706   0.068   3.042   4.508 -0.7650 -0.1174  0.6210
 9358SOL    HW139707   4.717   3.019   4.546 -1.0100  2.4478  1.6452
 9358SOL    HW239708   0.093   3.110   4.570  0.2189 -0.7210  0.8881
 9359SOL     OW39709   4.447   4.280   5.170 -0.2918  0.3295  0.0188
 9359SOL    HW139710   4.457   4.310   5.260  1.5283  0.6477 -0.2899
 9359SOL    HW239711   4.492   4.196   5.178 -2.3399 -0.6858  0.9108
 9360SOL     OW39712   1.468   0.819   3.456  0.5322  0.4753  0.4572
 9360SOL    HW139713   1.386   0.814   3.408 -1.0501  0.1560  3.2262
 9360SOL    HW239714   1.511   0.888   3.405  1.5976 -2.8085 -3.0981
 9361SOL     OW39715   2.276   1.496  17.578 -0.4171 -0.2286 -0.0069
 9361SOL    HW139716   2.233   1.450  17.506 -0.7112 -0.1072  0.0923
 9361SOL    HW239717   2.299   1.420  17.632  0.5406 -0.0169 -0.1149
 9362SOL     OW39718   4.266   3.740   7.015  0.3274 -0.3445  0.1839
 9362SOL    HW139719   4.212   3.816   6.992 -0.3001 -0.1259  2.3036
 9362SOL    HW239720   4.353   3.773   6.995  0.2631 -0.0241  0.4287
 9363SOL     OW39721   0.784   4.555   8.466 -0.8415 -0.0520  0.3523
 9363SOL    HW139722   0.866   4.506   8.464 -0.4937  0.6207 -2.7182
 9363SOL    HW239723   0.763   4.586   8.378 -0.5888  0.6113  0.5241
 9364SOL     OW39724   3.791   3.591   4.608 -0.3459  0.4640 -0.2737
 9364SOL    HW139725   3.778   3.515   4.552 -1.9961  1.1131 -0.7813
 9364SOL    HW239726   3.878   3.622   4.586  0.2170 -0.6978  0.2981
 9365SOL     OW39727   0.586   3.158   9.847 -0.3571 -0.4517 -0.0996
 9365SOL    HW139728   0.578   3.141   9.753  0.8224 -2.6893  0.2133
 9365SOL    HW239729   0.559   3.250   9.841  3.3379  0.5001 -1.9655
 9366SOL     OW39730   2.896   1.971  12.553  0.9990 -0.5286  0.1313
 9366SOL    HW139731   2.866   1.963  12.463 -2.4773 -0.0345  1.2049
 9366SOL    HW239732   2.984   2.002  12.535 -0.1090  2.0689 -0.7934
 9367SOL     OW39733   0.211   0.560   3.282 -0.4047 -0.1408  0.1718
 9367SOL    HW139734   0.265   0.635   3.256  0.6070 -1.0690 -0.3730
 9367SOL    HW239735   0.130   0.575   3.234 -0.4030 -2.1113 -0.4136
 9368SOL     OW39736   1.362   2.932   2.492 -0.2592  0.6733  0.5229
 9368SOL    HW139737   1.453   2.904   2.482 -0.7050 -0.4400 -0.5044
 9368SOL    HW239738   1.369   3.023   2.464  0.6807  0.4689  0.0851
 9369SOL     OW39739   4.428   2.501   9.381 -0.0045 -0.4927  0.2663
 9369SOL    HW139740   4.450   2.569   9.445  0.0358 -0.2782  0.0244
 9369SOL    HW239741   4.375   2.556   9.324  2.7446  0.5813 -1.2642
 9370SOL     OW39742   2.108   4.034   2.805  0.6320  0.7115 -0.1599
 9370SOL    HW139743   2.051   4.059   2.877  2.1040 -1.1927  1.6600
 9370SOL    HW239744   2.109   3.939   2.805 -3.1474  0.6885 -0.1912
 9371SOL     OW39745   2.225   2.708   1.340  0.0496  0.4311 -0.4747
 9371SOL    HW139746   2.222   2.688   1.247 -2.3496  0.2213 -0.3348
 9371SOL    HW239747   2.304   2.657   1.359  0.7500  0.5697 -3.1127
 9372SOL     OW39748   1.829   2.891   5.856 -0.1531  0.5434 -0.8443
 9372SOL    HW139749   1.841   2.847   5.772 -1.1950 -2.9120  0.7994
 9372SOL    HW239750   1.744   2.933   5.848  1.0779  2.8436 -1.5802
 9373SOL     OW39751   3.583   3.727   4.723  0.4646 -0.2973  0.0123
 9373SOL    HW139752   3.668   3.707   4.685  1.0523  0.5712  0.8812
 9373SOL    HW239753   3.574   3.672   4.801 -0.4442  0.4839  0.4652
 9374SOL     OW39754   1.820   3.175  15.956  0.1458  0.3246  0.4465
 9374SOL    HW139755   1.903   3.161  15.910 -0.7819  1.9208 -1.7439
 9374SOL    HW239756   1.854   3.241  16.017 -2.0735 -0.3401  2.3881
 9375SOL     OW39757   0.323   3.029   0.491  0.1110 -0.2226 -0.4084
 9375SOL    HW139758   0.233   3.019   0.460  0.1302 -0.4655 -0.3893
 9375SOL    HW239759   0.321   3.076   0.574  1.9612 -0.2416 -0.3595
 9376SOL     OW39760   1.155   0.778   6.210 -0.2367  0.0200 -0.5307
 9376SOL    HW139761   1.116   0.753   6.126 -0.7798  1.7507 -0.7980
 9376SOL    HW239762   1.192   0.864   6.188  1.6938 -0.3037  1.5032
 9377SOL     OW39763   0.433   0.231  12.214  0.1131 -0.3286  0.0233
 9377SOL    HW139764   0.417   0.198  12.126 -0.6952  0.9976 -0.3136
 9377SOL    HW239765   0.361   0.293  12.228  1.3179  1.4537 -1.8062
 9378SOL     OW39766   2.504   0.765   2.301  0.0960 -0.2030 -0.0586
 9378SOL    HW139767   2.417   0.805   2.297  0.1745  0.2021  2.5375
 9378SOL    HW239768   2.543   0.786   2.216  2.4502  1.0740  1.3377
 9379SOL     OW39769   1.077   2.137   9.513 -0.2143  0.2540 -0.1072
 9379SOL    HW139770   1.029   2.214   9.543  0.0220  0.1023  0.6730
 9379SOL    HW239771   1.071   2.150   9.419 -1.1638  0.6079  0.0068
 9380SOL     OW39772   0.072   4.282   7.041 -0.1956 -0.5399  0.1358
 9380SOL    HW139773   0.097   4.299   7.132 -0.0095 -1.5088  0.2597
 9380SOL    HW239774   0.127   4.208   7.018  0.3395 -0.4797  1.2312
 9381SOL     OW39775   2.355   3.680  17.450  0.0037  0.4064 -0.8265
 9381SOL    HW139776   2.313   3.594  17.441 -1.3347  0.8190  1.4939
 9381SOL    HW239777   2.383   3.679  17.542 -1.9472  0.2828 -0.2375
 9382SOL     OW39778   1.513   2.136   5.376  0.1413 -0.0093  0.2166
 9382SOL    HW139779   1.598   2.166   5.409 -0.7822 -0.6069  3.1531
 9382SOL    HW239780   1.453   2.210   5.362  0.6201 -0.0007 -1.7321
 9383SOL     OW39781   0.770   3.250   8.394 -0.5801 -0.2001  0.4079
 9383SOL    HW139782   0.759   3.181   8.459  0.9082  0.6850  1.6025
 9383SOL    HW239783   0.715   3.218   8.322  1.3368  1.2373 -1.7063
 9384SOL     OW39784   1.707   0.267   0.356 -0.2978 -0.3591  0.1007
 9384SOL    HW139785   1.621   0.304   0.378 -0.1832  0.9377 -1.6004
 9384SOL    HW239786   1.754   0.339   0.313 -1.0138  0.8253  1.2744
 9385SOL     OW39787   0.527   4.726   5.497  0.1417 -0.1490 -0.4111
 9385SOL    HW139788   0.595   0.039   5.449  0.4245  1.0850  1.1956
 9385SOL    HW239789   0.579   4.672   5.558  1.8863  0.2575 -1.5383
 9386SOL     OW39790   0.492   1.262   5.394 -0.9347 -0.0772 -0.1482
 9386SOL    HW139791   0.483   1.357   5.392 -0.6902  0.0011  2.0805
 9386SOL    HW239792   0.401   1.238   5.414 -0.9618  1.8012  2.0784
 9387SOL     OW39793   1.938   4.446   5.324 -0.2651 -0.1803  0.3346
 9387SOL    HW139794   1.919   4.485   5.409  0.8221 -1.1447  1.0217
 9387SOL    HW239795   1.981   4.515   5.272 -1.1721  2.0076  2.4998
 9388SOL     OW39796   3.580   3.504   6.097 -0.6091 -0.4341 -0.5071
 9388SOL    HW139797   3.591   3.590   6.137 -1.7709 -0.6882  0.3745
 9388SOL    HW239798   3.490   3.500   6.064 -0.0713  0.5967 -2.0917
 9389SOL     OW39799   0.515   2.782  11.550 -0.0980  0.3458 -0.5794
 9389SOL    HW139800   0.459   2.839  11.602  1.2879 -0.3669  1.7032
 9389SOL    HW239801   0.538   2.723  11.622 -2.0257  0.6742  0.2913
 9390SOL     OW39802   4.692   3.189   8.682 -0.2263  0.7986  0.0257
 9390SOL    HW139803   4.710   3.132   8.607  1.6507  1.3782  0.0245
 9390SOL    HW239804   4.678   3.277   8.646  2.1661  1.3999  0.5736
 9391SOL     OW39805   3.226   4.683   9.784 -0.4612 -0.3858 -0.4039
 9391SOL    HW139806   3.231   4.663   9.690  2.0361 -0.4719 -0.2491
 9391SOL    HW239807   3.318   4.693   9.806 -1.1050  1.4296  1.3940
 9392SOL     OW39808   0.802   3.314   5.966  0.4287 -0.3659  0.4960
 9392SOL    HW139809   0.817   3.404   5.936 -1.9574  0.4635  1.7561
 9392SOL    HW239810   0.765   3.334   6.052 -0.6334  0.7373 -0.2100
 9393SOL     OW39811   2.804   0.243   5.181  0.5060 -0.4600  0.0587
 9393SOL    HW139812   2.722   0.292   5.173  0.5418 -0.5190 -0.6753
 9393SOL    HW239813   2.856   0.292   5.244  1.3109 -0.5930 -0.4979
 9394SOL     OW39814   1.826   0.122   2.788  0.4571 -0.2457 -0.4399
 9394SOL    HW139815   1.838   0.036   2.748  0.5368  0.0100 -0.9735
 9394SOL    HW239816   1.743   0.145   2.745  0.1970  0.5262  0.4768
 9395SOL     OW39817   1.475   0.221   8.778  0.0231  0.2409 -0.0062
 9395SOL    HW139818   1.399   0.191   8.728  0.0175  1.4505 -0.7287
 9395SOL    HW239819   1.540   0.155   8.753 -2.7055 -2.5701  0.3663
 9396SOL     OW39820   0.432   3.487   9.335  0.4443  0.2213 -1.0967
 9396SOL    HW139821   0.344   3.453   9.325 -0.0774  1.6729 -1.5160
 9396SOL    HW239822   0.446   3.453   9.423 -0.1116  0.8398 -0.7656
 9397SOL     OW39823   1.653   0.334   5.578  0.1290  0.3666 -0.1115
 9397SOL    HW139824   1.652   0.395   5.652  1.6114  0.3332 -0.0720
 9397SOL    HW239825   1.581   0.367   5.524 -0.6027 -1.1737 -0.0688
 9398SOL     OW39826   1.527   4.247   5.249  0.4152  0.6196 -0.0281
 9398SOL    HW139827   1.586   4.253   5.324 -1.7339  0.5188  1.6671
 9398SOL    HW239828   1.556   4.322   5.197  1.5589 -0.8869 -1.5920
 9399SOL     OW39829   4.164   0.022   3.695 -0.0645  0.2925  0.5986
 9399SOL    HW139830   4.231   0.058   3.638 -0.5601  1.8881  1.0336
 9399SOL    HW239831   4.187   4.663   3.698  0.0898  0.2886 -1.2135
 9400SOL     OW39832   1.130   3.151  16.882 -0.2054 -0.2226 -0.1295
 9400SOL    HW139833   1.037   3.156  16.904  0.3122 -0.6410  2.2082
 9400SOL    HW239834   1.173   3.163  16.967 -0.8472 -0.3393  0.2109
 9401SOL     OW39835   3.284   1.535  15.852 -0.2304 -0.8482  0.2349
 9401SOL    HW139836   3.257   1.590  15.778  1.1918 -2.5035 -1.5067
 9401SOL    HW239837   3.371   1.571  15.870 -0.6380  1.3735 -2.2478
 9402SOL     OW39838   4.515   4.371  16.134  0.1756 -0.4595 -0.4554
 9402SOL    HW139839   4.421   4.356  16.122 -0.2429  0.3364  1.8537
 9402SOL    HW239840   4.541   4.336  16.219 -0.8724  0.3502  0.1954
 9403SOL     OW39841   0.118   3.197   1.940  0.0810 -0.3342  0.2668
 9403SOL    HW139842   0.097   3.104   1.947  2.8709 -0.8482  2.1327
 9403SOL    HW239843   0.037   3.229   1.980 -0.7492 -3.3607  1.0222
 9404SOL     OW39844   0.860   3.165   7.418  0.3010 -0.2287 -0.3099
 9404SOL    HW139845   0.850   3.251   7.458  0.8605 -0.1712 -0.2992
 9404SOL    HW239846   0.828   3.098   7.479  0.6286  0.8319  1.0129
 9405SOL     OW39847   1.917   1.436   4.120 -0.2874  0.6122  0.5633
 9405SOL    HW139848   1.993   1.437   4.062 -0.8361 -2.4873 -0.2244
 9405SOL    HW239849   1.858   1.485   4.062 -1.7526 -1.5281  0.2608
 9406SOL     OW39850   2.399   4.280  11.379  0.2873  0.2343 -0.1822
 9406SOL    HW139851   2.337   4.308  11.446 -0.0164  1.2318 -0.8882
 9406SOL    HW239852   2.479   4.270  11.431 -0.0014 -3.9848 -0.5346
 9407SOL     OW39853   1.738   1.116   5.242 -0.0142  0.3295 -0.5799
 9407SOL    HW139854   1.785   1.134   5.324 -0.9419 -1.3548  0.3223
 9407SOL    HW239855   1.741   1.202   5.199 -0.1730  0.6532  0.0621
 9408SOL     OW39856   1.060   0.671   1.480 -1.1578  0.0341 -0.3901
 9408SOL    HW139857   1.067   0.700   1.571  0.4940  1.2069 -0.8729
 9408SOL    HW239858   1.152   0.652   1.459 -0.6733  0.2273  1.5470
 9409SOL     OW39859   3.213   4.215   2.792  0.1910  0.1482  0.0040
 9409SOL    HW139860   3.276   4.142   2.795  0.5716  0.4187 -1.8150
 9409SOL    HW239861   3.170   4.218   2.878  0.3665 -6.2641  0.3027
 9410SOL     OW39862   4.543   1.016  16.460 -0.0771 -0.4146 -0.1696
 9410SOL    HW139863   4.534   0.943  16.522  1.1560  1.7398  2.5479
 9410SOL    HW239864   4.451   1.040  16.464  0.1043  0.5553 -2.0726
 9411SOL     OW39865   1.340   0.212   4.274 -0.0767 -0.2296 -0.1822
 9411SOL    HW139866   1.254   0.207   4.231  1.7227 -0.5360 -3.7182
 9411SOL    HW239867   1.323   0.267   4.350  0.5999  1.4857 -1.2532
 9412SOL     OW39868   0.754   0.789   6.677 -0.3883  0.9631 -0.0771
 9412SOL    HW139869   0.715   0.850   6.614 -1.0348  1.8390  1.1701
 9412SOL    HW239870   0.695   0.810   6.750  2.0353 -3.4029  3.1056
 9413SOL     OW39871   4.321   4.397  17.137  0.7932  0.2054  0.3872
 9413SOL    HW139872   4.333   4.486  17.103 -0.7692  0.2092 -0.1922
 9413SOL    HW239873   4.232   4.391  17.100  1.1863 -0.8638 -0.3931
 9414SOL     OW39874   2.921   3.104   4.090  0.0383 -0.2719 -0.2738
 9414SOL    HW139875   3.007   3.141   4.071  0.4916 -0.4966  1.2857
 9414SOL    HW239876   2.936   3.014   4.118  1.6678 -0.4375 -1.6769
 9415SOL     OW39877   3.339   1.573   3.210 -0.2609  0.0620  0.0848
 9415SOL    HW139878   3.343   1.668   3.200  0.3124 -0.1439 -1.6294
 9415SOL    HW239879   3.248   1.548   3.195 -0.1173 -0.4994  0.1344
 9416SOL     OW39880   2.797   3.972   7.279  0.0454  0.2895  0.3588
 9416SOL    HW139881   2.783   3.901   7.216  0.2890  1.1105 -0.6137
 9416SOL    HW239882   2.706   3.999   7.293 -0.0775  0.4016 -0.5985
 9417SOL     OW39883   4.352   2.995  17.719  0.4462  0.5943  0.6836
 9417SOL    HW139884   4.387   2.923   0.035  2.6269  1.9944  1.1480
 9417SOL    HW239885   4.263   3.006   0.017 -0.4665  0.7388 -1.7757
 9418SOL     OW39886   3.452   0.253   8.408  0.0208 -1.0859  0.5789
 9418SOL    HW139887   3.362   0.281   8.422  0.5445  0.6194  0.5184
 9418SOL    HW239888   3.470   0.284   8.319 -1.1154  0.9567  1.0669
 9419SOL     OW39889   3.747   2.849  15.406  0.0401 -0.2290 -0.7715
 9419SOL    HW139890   3.770   2.923  15.350 -3.6610  0.5452 -1.2621
 9419SOL    HW239891   3.708   2.792  15.339 -1.5865 -3.3942  2.8469
 9420SOL     OW39892   0.893   2.189   5.108 -0.0713 -0.2056 -0.1838
 9420SOL    HW139893   0.820   2.235   5.150  0.5548  2.3918 -1.9712
 9420SOL    HW239894   0.881   2.102   5.145 -0.5126  0.0655  0.3103
 9421SOL     OW39895   3.975   4.228   4.785  0.1330  0.5405  0.5655
 9421SOL    HW139896   3.931   4.300   4.831  2.0667  1.5226  0.8870
 9421SOL    HW239897   4.015   4.187   4.861  0.8760 -0.3313 -0.3105
 9422SOL     OW39898   4.036   0.020   9.282  0.5508 -0.0816  0.5155
 9422SOL    HW139899   4.061   4.672   9.239 -1.0948  0.9665 -2.4366
 9422SOL    HW239900   4.077   0.087   9.228  0.7564  0.8391  1.8297
 9423SOL     OW39901   2.592   0.438   8.724 -0.0931 -0.3507  0.0724
 9423SOL    HW139902   2.607   0.456   8.816  0.1565 -0.4517  0.0515
 9423SOL    HW239903   2.679   0.442   8.686  0.6776  1.9831  2.1241
 9424SOL     OW39904   2.021   1.456   8.999  0.7070 -0.0918  0.0527
 9424SOL    HW139905   1.938   1.504   8.995 -0.0956 -1.4733  0.2510
 9424SOL    HW239906   2.016   1.406   9.080 -4.5955  2.7776  1.4920
 9425SOL     OW39907   0.971   0.670   5.991 -0.4350  0.8434 -0.1006
 9425SOL    HW139908   0.915   0.592   5.998  1.8020 -0.7413 -0.0746
 9425SOL    HW239909   1.000   0.669   5.900 -0.7399 -0.5928 -0.1775
 9426SOL     OW39910   1.826   3.438   8.413  0.6266 -0.3464 -0.8487
 9426SOL    HW139911   1.804   3.367   8.473  1.4944 -0.3323 -0.5175
 9426SOL    HW239912   1.736   3.466   8.399  0.8033  0.1066 -1.1026
 9427SOL     OW39913   3.604   4.623   5.844  0.1449  0.0046 -0.4030
 9427SOL    HW139914   3.696   4.649   5.854  0.3547 -0.5677 -0.8657
 9427SOL    HW239915   3.580   4.610   5.936 -1.2027  1.1622 -0.5871
 9428SOL     OW39916   0.722   0.404   6.964  0.2361 -0.3644  0.4396
 9428SOL    HW139917   0.782   0.454   7.018  0.1693 -0.7142  0.8404
 9428SOL    HW239918   0.712   0.473   6.899  3.2109  0.0478  0.4430
 9429SOL     OW39919   1.961   1.665  11.961  0.1729 -0.0557 -1.3249
 9429SOL    HW139920   2.049   1.636  11.935  0.0588 -2.8185  1.3131
 9429SOL    HW239921   1.940   1.593  12.021  0.0513  2.5931  1.7819
 9430SOL     OW39922   4.665   2.578   4.398 -0.1439  0.2309  0.0191
 9430SOL    HW139923   4.588   2.578   4.456 -0.5030 -0.0955 -0.4589
 9430SOL    HW239924   4.716   2.654   4.429  0.7347 -0.8913  1.3212
 9431SOL     OW39925   2.391   0.137   3.809 -0.2104  0.0895  0.1217
 9431SOL    HW139926   2.358   0.189   3.882  0.8427  2.1514 -0.8793
 9431SOL    HW239927   2.460   0.090   3.855  0.1260  0.4073 -0.0626
 9432SOL     OW39928   4.401   1.900   0.671  1.0035  0.0503  0.5264
 9432SOL    HW139929   4.485   1.933   0.640  0.7474  0.1368 -0.0769
 9432SOL    HW239930   4.428   1.856   0.752  1.7130 -0.4984 -0.0156
 9433SOL     OW39931   1.504   4.613   7.572 -0.2823  0.7881 -0.5943
 9433SOL    HW139932   1.527   4.551   7.503  0.3982 -1.6850  1.8325
 9433SOL    HW239933   1.590   4.619   7.616 -0.5294 -0.7366  0.0980
 9434SOL     OW39934   2.462   1.740   8.577 -0.2084 -0.2422  0.4586
 9434SOL    HW139935   2.410   1.813   8.611 -1.1947  0.1070 -1.8046
 9434SOL    HW239936   2.482   1.772   8.489 -0.3857 -0.8797  0.1860
 9435SOL     OW39937   2.618   4.164   8.438 -0.8311  0.1349 -0.3830
 9435SOL    HW139938   2.704   4.175   8.479 -2.0605 -2.8286  2.9384
 9435SOL    HW239939   2.576   4.098   8.493 -0.4488 -1.0948 -1.5864
 9436SOL     OW39940   0.382   0.180   3.579  0.2895  0.0989 -0.1440
 9436SOL    HW139941   0.430   0.263   3.591  0.1583  0.2954 -1.0035
 9436SOL    HW239942   0.422   0.127   3.648  0.8445  0.7833  0.0649
 9437SOL     OW39943   0.301   3.483   1.891 -0.0823  0.7018  0.2187
 9437SOL    HW139944   0.277   3.415   1.829 -1.0874 -0.3285  1.7437
 9437SOL    HW239945   0.388   3.508   1.860 -0.1221  0.0387 -0.4234
 9438SOL     OW39946   0.940   0.324  13.775 -1.0140  0.8952  0.1347
 9438SOL    HW139947   0.885   0.372  13.837 -0.9543 -0.1235  0.9793
 9438SOL    HW239948   0.877   0.278  13.720 -0.3476 -0.3525  0.4128
 9439SOL     OW39949   0.493   1.888   8.197  0.0873 -0.6824 -0.8381
 9439SOL    HW139950   0.424   1.908   8.134  0.2351 -1.0365 -1.1160
 9439SOL    HW239951   0.472   1.939   8.275 -1.5938 -1.0975 -1.0353
 9440SOL     OW39952   1.640   1.269   9.195  0.1381  0.2902 -0.6561
 9440SOL    HW139953   1.546   1.269   9.174  0.0713 -0.1643 -0.3431
 9440SOL    HW239954   1.674   1.281   9.107 -0.1117  0.5346 -0.7217
 9441SOL     OW39955   0.020   3.768   9.763 -0.0739  0.1256 -0.2350
 9441SOL    HW139956   0.096   3.755   9.706 -0.9276  2.8339 -2.0181
 9441SOL    HW239957   4.695   3.734   9.696  2.8895 -1.0670 -2.2490
 9442SOL     OW39958   1.188   3.175   4.962  0.0293 -0.3094  0.1171
 9442SOL    HW139959   1.183   3.081   4.983  1.2306 -0.8035 -1.7847
 9442SOL    HW239960   1.256   3.212   5.019 -0.6124 -0.2210  0.8166
 9443SOL     OW39961   3.323   0.105   0.726 -0.5038  0.2004 -0.3966
 9443SOL    HW139962   3.403   0.151   0.701 -1.0908  2.6042  2.1687
 9443SOL    HW239963   3.329   0.103   0.821 -1.4226  0.9926 -0.3125
 9444SOL     OW39964   4.165   3.235  17.131  0.1068 -0.6379  0.2438
 9444SOL    HW139965   4.235   3.300  17.142  0.7183 -1.3561  0.6193
 9444SOL    HW239966   4.153   3.203  17.220  0.5662  1.1469  0.9364
 9445SOL     OW39967   0.954   3.632   4.510  0.3040  0.5582 -0.2062
 9445SOL    HW139968   0.998   3.650   4.426  2.2611 -2.1418  0.2642
 9445SOL    HW239969   0.862   3.641   4.483  0.8344  0.0495 -2.1974
 9446SOL     OW39970   3.922   4.371  15.018 -0.4340  0.1441 -0.7536
 9446SOL    HW139971   3.898   4.463  15.027  0.1445 -0.0012  2.3055
 9446SOL    HW239972   3.963   4.371  14.931 -1.3714 -0.5104 -1.2009
 9447SOL     OW39973   1.075   1.602   4.494 -0.2160  0.7131 -0.1769
 9447SOL    HW139974   1.091   1.641   4.408 -1.7918  1.7853  0.0183
 9447SOL    HW239975   1.154   1.549   4.502 -0.0980  0.5560 -2.2451
 9448SOL     OW39976   3.668   4.720   5.368  0.3743  0.0196 -0.2500
 9448SOL    HW139977   3.652   4.705   5.274  0.1558 -3.5034  0.3379
 9448SOL    HW239978   3.623   0.067   5.391  0.1865  0.0522 -0.7279
 9449SOL     OW39979   2.747   4.206   5.266 -0.1715  0.0605  0.0993
 9449SOL    HW139980   2.754   4.278   5.330  0.6456 -0.1631  0.2608
 9449SOL    HW239981   2.791   4.245   5.191 -1.1563 -0.0046 -0.5077
 9450SOL     OW39982   2.528   0.774   2.984 -0.1375  0.7629  0.2473
 9450SOL    HW139983   2.614   0.762   3.025 -0.2477  2.6509  1.0668
 9450SOL    HW239984   2.501   0.683   2.979  1.1748  0.3483  0.4923
 9451SOL     OW39985   3.844   2.380   5.945  0.2081 -0.4778 -0.3900
 9451SOL    HW139986   3.903   2.352   6.016  0.4562  0.0316 -0.3987
 9451SOL    HW239987   3.768   2.334   5.981  0.7385  1.6431  3.4864
 9452SOL     OW39988   0.112   2.730  10.440 -0.3134 -0.2372 -0.3053
 9452SOL    HW139989   0.027   2.698  10.471 -0.2692 -2.5207 -2.5475
 9452SOL    HW239990   0.156   2.648  10.417  0.5708  0.1196  0.1103
 9453SOL     OW39991   2.243   3.058  13.457  0.3111 -0.0192  0.0030
 9453SOL    HW139992   2.237   3.152  13.442 -0.3341  0.0904  0.9627
 9453SOL    HW239993   2.193   3.027  13.382 -1.0888 -1.6414  1.6024
 9454SOL     OW39994   0.303   0.022   6.588  0.2891 -0.3757  0.2105
 9454SOL    HW139995   0.246   4.679   6.596  1.2303 -0.9705  1.1977
 9454SOL    HW239996   0.251   0.101   6.597  1.3461  0.2034  1.2084
 9455SOL     OW39997   4.221   0.083   3.332 -0.3410 -0.1564 -0.0749
 9455SOL    HW139998   4.164   0.006   3.330  1.4116 -1.4471  0.0907
 9455SOL    HW239999   4.290   0.059   3.394 -1.1695 -1.9001  0.1802
 9456SOL     OW40000   4.616   1.743   5.049  0.1874  0.1740 -0.1911
 9456SOL    HW140001   4.585   1.654   5.035  1.4742 -0.6919  2.5014
 9456SOL    HW240002   4.683   1.741   4.980  0.2893  0.1854 -0.0926
 9457SOL     OW40003   0.247   0.079   7.396 -0.1641  0.3327  0.5675
 9457SOL    HW140004   0.325   0.072   7.452 -0.2750 -1.7946  0.4605
 9457SOL    HW240005   0.289   0.119   7.320 -1.2790  1.7733  0.7158
 9458SOL     OW40006   4.054   3.960  11.742 -0.3596 -0.7573  0.2030
 9458SOL    HW140007   4.079   3.901  11.671 -0.9086  0.4381 -0.9746
 9458SOL    HW240008   4.139   3.975  11.783  0.3558  3.3796 -2.8303
 9459SOL     OW40009   0.723   3.029   5.458  0.4215 -0.1653 -0.1563
 9459SOL    HW140010   0.658   3.052   5.392 -0.0945  0.4855  0.5748
 9459SOL    HW240011   0.695   3.066   5.542  0.2634 -0.6951  0.0318
 9460SOL     OW40012   2.031   1.062   1.619 -0.0660  0.2596 -0.1172
 9460SOL    HW140013   1.986   0.978   1.620 -1.3323  0.9414 -0.2185
 9460SOL    HW240014   1.965   1.119   1.658  1.3349  2.0638 -0.3302
 9461SOL     OW40015   2.517   4.343   7.768 -0.3050 -0.3274  0.2615
 9461SOL    HW140016   2.583   4.367   7.833  1.3990  0.0963 -1.6196
 9461SOL    HW240017   2.532   4.408   7.700 -2.6437 -2.1781 -2.0363
 9462SOL     OW40018   3.240   1.483   6.282 -0.0967  0.2573 -0.1977
 9462SOL    HW140019   3.331   1.455   6.288 -1.0346 -1.8722  4.2859
 9462SOL    HW240020   3.195   1.405   6.314  0.0495  0.2259 -0.0710
 9463SOL     OW40021   4.213   3.546   7.609  0.0892  0.1354 -0.2027
 9463SOL    HW140022   4.125   3.557   7.574 -0.2130  2.2178  1.2451
 9463SOL    HW240023   4.218   3.592   7.693 -0.6448  1.4177 -0.8609
 9464SOL     OW40024   4.150   1.072   5.052  0.0518  0.3189 -0.9158
 9464SOL    HW140025   4.153   1.105   4.962 -0.3844  0.9071 -0.7200
 9464SOL    HW240026   4.095   1.143   5.084  0.8571  0.0879  0.9731
 9465SOL     OW40027   2.600   2.344   8.125 -0.1634 -0.0829 -0.6079
 9465SOL    HW140028   2.555   2.295   8.056 -0.4562 -0.7357  0.0404
 9465SOL    HW240029   2.550   2.424   8.138  0.0473 -0.0003 -0.3153
 9466SOL     OW40030   3.899   4.579   5.411  0.7780  0.2959  0.0324
 9466SOL    HW140031   3.836   4.643   5.379 -1.8718 -1.2142  2.2451
 9466SOL    HW240032   3.850   4.505   5.446  0.5453  0.4605  0.0565
 9467SOL     OW40033   0.599   1.678  16.324 -0.2832 -0.0717  0.2539
 9467SOL    HW140034   0.620   1.586  16.305  0.8256 -0.0672  1.4650
 9467SOL    HW240035   0.589   1.668  16.419  0.7726 -0.0733  0.3607
 9468SOL     OW40036   3.737   3.437   9.087  0.4817 -0.3045 -0.6473
 9468SOL    HW140037   3.658   3.474   9.047  0.4823 -2.3811 -2.5469
 9468SOL    HW240038   3.802   3.502   9.063  0.3926  0.3516  0.8807
 9469SOL     OW40039   3.604   1.607   9.692  0.0272  0.2059 -0.2396
 9469SOL    HW140040   3.690   1.639   9.719 -0.7973  0.4362  2.1514
 9469SOL    HW240041   3.565   1.587   9.777  0.5487  1.1696  0.2236
 9470SOL     OW40042   1.727   2.178   6.228 -0.3985  0.1893 -0.0186
 9470SOL    HW140043   1.799   2.212   6.281 -0.4220 -0.6791  0.5573
 9470SOL    HW240044   1.689   2.266   6.217  1.6230  0.9583 -0.9179
 9471SOL     OW40045   1.053   4.060   8.804 -0.2232 -0.3199  0.2258
 9471SOL    HW140046   1.063   4.135   8.863  1.1245  0.1273 -0.5736
 9471SOL    HW240047   1.142   4.029   8.820 -0.5730 -0.0283  2.8019
 9472SOL     OW40048   3.877   2.714  17.711  0.2046  0.4172 -0.1724
 9472SOL    HW140049   3.905   2.753  17.628 -0.5835 -0.6095 -0.9106
 9472SOL    HW240050   3.810   2.777   0.001  1.1052  0.8748  1.0667
 9473SOL     OW40051   1.306   0.271   7.042  0.3764  0.5264  0.3079
 9473SOL    HW140052   1.284   0.179   7.024  1.8332  0.4634 -1.1949
 9473SOL    HW240053   1.394   0.276   7.006 -0.2591  1.3169 -1.1190
 9474SOL     OW40054   4.559   4.486   4.196  0.2693 -0.4838 -0.9963
 9474SOL    HW140055   4.641   4.439   4.211 -0.2710 -1.3270 -0.7186
 9474SOL    HW240056   4.572   4.514   4.105 -0.2988  0.4200 -0.7990
 9475SOL     OW40057   4.308   2.922   5.248  0.6145  0.3062  0.3571
 9475SOL    HW140058   4.297   2.994   5.186  1.3667 -1.7374 -2.1600
 9475SOL    HW240059   4.241   2.863   5.213  0.4082  0.5179  0.4042
 9476SOL     OW40060   1.856   0.583   2.728 -0.4717  0.5664  0.6937
 9476SOL    HW140061   1.853   0.515   2.794 -0.8413  1.2484  1.3835
 9476SOL    HW240062   1.883   0.533   2.651 -1.1650  1.4051 -0.0992
 9477SOL     OW40063   2.115   1.212   5.609 -0.1092  0.3179  0.6708
 9477SOL    HW140064   2.140   1.234   5.519  0.0678 -0.5907  0.4941
 9477SOL    HW240065   2.167   1.280   5.652  1.0449  1.4636 -2.5293
 9478SOL     OW40066   2.492   0.528  10.316  0.4607 -0.0701 -0.2773
 9478SOL    HW140067   2.583   0.558  10.314  0.0465  1.1961 -0.3658
 9478SOL    HW240068   2.466   0.550  10.405  2.4290 -2.3093  0.8629
 9479SOL     OW40069   3.328   3.400   6.856 -0.1673 -0.1404  0.3422
 9479SOL    HW140070   3.342   3.313   6.893 -1.5443 -0.4672  0.1033
 9479SOL    HW240071   3.416   3.435   6.866  0.3548 -1.6041  0.8695
 9480SOL     OW40072   1.632   3.696  16.464 -0.2662 -0.0821 -0.1143
 9480SOL    HW140073   1.627   3.790  16.452  0.8065 -0.0616 -0.3926
 9480SOL    HW240074   1.674   3.672  16.381  2.0790 -2.8752  1.8715
 9481SOL     OW40075   1.084   3.089   6.943  0.1157  0.2174  0.1389
 9481SOL    HW140076   1.084   2.995   6.956  0.2161  0.0670 -0.9383
 9481SOL    HW240077   1.083   3.120   7.034 -0.8167  0.6188  0.0004
 9482SOL     OW40078   1.514   2.567   9.542  0.2203  0.1575  0.3501
 9482SOL    HW140079   1.474   2.496   9.592  0.6923 -1.4938 -1.6119
 9482SOL    HW240080   1.603   2.574   9.575  0.8823 -0.0814 -1.3813
 9483SOL     OW40081   2.022   2.076   1.561 -0.1701 -0.2640  0.2701
 9483SOL    HW140082   2.024   2.100   1.468 -2.2092 -1.9640 -0.2264
 9483SOL    HW240083   1.939   2.027   1.560  0.8451 -1.9333 -1.9207
 9484SOL     OW40084   3.044   1.333   6.642 -0.4841  0.2466  0.0399
 9484SOL    HW140085   2.953   1.331   6.613 -1.3015  1.4439  2.5220
 9484SOL    HW240086   3.083   1.297   6.563  0.8892 -2.0557  1.7911
 9485SOL     OW40087   4.186   3.883   2.144 -0.2846  0.0737 -0.1759
 9485SOL    HW140088   4.111   3.915   2.092 -0.5106  1.6551  1.1252
 9485SOL    HW240089   4.170   3.790   2.155  0.6540 -0.3428 -2.2283
 9486SOL     OW40090   2.647   2.742   5.094 -1.0455 -0.1870  0.0399
 9486SOL    HW140091   2.656   2.786   5.010 -2.8492  0.9093  0.4182
 9486SOL    HW240092   2.552   2.736   5.106 -1.1029  0.6794 -0.0079
 9487SOL     OW40093   1.965   0.896   2.508 -0.2249  0.0314  0.4470
 9487SOL    HW140094   1.874   0.913   2.532 -0.2801 -1.2447  1.1360
 9487SOL    HW240095   1.978   0.979   2.461  0.9705 -0.4097  0.0038
 9488SOL     OW40096   3.224   2.838  10.221  0.2094  0.2967 -0.2935
 9488SOL    HW140097   3.153   2.902  10.232 -1.3623 -1.1331 -2.1509
 9488SOL    HW240098   3.278   2.868  10.295  0.9071  0.1579 -0.7439
 9489SOL     OW40099   0.819   1.596   9.778 -0.1657 -0.0403 -0.3849
 9489SOL    HW140100   0.807   1.632   9.690  1.0358  2.6507  0.5203
 9489SOL    HW240101   0.908   1.560   9.779  0.2080  0.8684  0.0497
 9490SOL     OW40102   1.761   1.310   6.924  0.6166  0.4668  0.2942
 9490SOL    HW140103   1.809   1.347   6.851  0.9377  0.1848  0.3619
 9490SOL    HW240104   1.795   1.221   6.920 -1.2210 -0.1060 -2.6902
 9491SOL     OW40105   1.895   2.131   5.181  0.4344 -0.2311  0.0262
 9491SOL    HW140106   1.959   2.059   5.174 -1.0096 -1.5236  0.0262
 9491SOL    HW240107   1.886   2.133   5.276  2.7325  0.1280  0.2387
 9492SOL     OW40108   0.965   0.366   0.091 -0.2960 -0.6756 -0.0902
 9492SOL    HW140109   0.990   0.342   0.002 -0.3264  0.1120 -0.3147
 9492SOL    HW240110   1.027   0.319   0.146 -1.2103 -0.4013  1.1768
 9493SOL     OW40111   0.781   2.667   3.210 -0.2182 -0.3512 -0.4734
 9493SOL    HW140112   0.702   2.718   3.197  1.1937  2.0411  0.3683
 9493SOL    HW240113   0.766   2.601   3.278 -0.2327 -0.2135 -0.3428
 9494SOL     OW40114   1.374   1.987   8.603  0.3368  0.6265  0.1958
 9494SOL    HW140115   1.360   2.051   8.673 -1.8703 -0.1845  0.4974
 9494SOL    HW240116   1.443   2.031   8.554  0.4085 -0.1286 -0.3784
 9495SOL     OW40117   1.402   2.446   6.683 -0.4216 -0.0755  0.3741
 9495SOL    HW140118   1.368   2.363   6.650 -0.0554 -0.1942  0.2996
 9495SOL    HW240119   1.375   2.511   6.618  1.3328 -2.1327 -2.3842
 9496SOL     OW40120   2.362   2.834   2.002 -0.0482 -0.1238 -0.0648
 9496SOL    HW140121   2.450   2.797   1.992 -0.0264 -0.1469  0.1980
 9496SOL    HW240122   2.325   2.778   1.934 -0.6419  1.8657 -1.3949
 9497SOL     OW40123   2.367   2.886  12.226 -0.2407  0.2259 -0.4049
 9497SOL    HW140124   2.302   2.881  12.156 -0.7677 -2.6978  0.2720
 9497SOL    HW240125   2.441   2.856  12.174  0.1132  1.9479 -0.8755
 9498SOL     OW40126   3.111   3.320   8.745 -0.3856  0.2615 -0.1717
 9498SOL    HW140127   3.075   3.316   8.657  0.2347 -0.1156 -0.4076
 9498SOL    HW240128   3.078   3.237   8.778 -0.3847  1.7590  3.6153
 9499SOL     OW40129   2.017   4.404   1.675 -0.2801 -0.4129 -0.1210
 9499SOL    HW140130   2.047   4.402   1.766  3.0893 -1.6357 -1.2700
 9499SOL    HW240131   2.077   4.471   1.643 -2.6473  0.2377 -3.1566
 9500SOL     OW40132   2.578   4.632   8.418 -0.1577  0.2834  0.4054
 9500SOL    HW140133   2.652   4.621   8.359 -1.7458  0.4761 -1.6505
 9500SOL    HW240134   2.610   4.712   8.461  1.7570  1.0692 -2.4550
 9501SOL     OW40135   1.699   3.952   1.501 -0.0630 -0.3780 -0.7241
 9501SOL    HW140136   1.722   3.880   1.558 -0.9215  0.2257  0.3847
 9501SOL    HW240137   1.661   4.002   1.573 -0.6793 -2.1287  0.1533
 9502SOL     OW40138   1.544   4.400   4.405 -0.0229  0.1692  0.4795
 9502SOL    HW140139   1.512   4.318   4.444 -1.1868 -0.0237 -0.8970
 9502SOL    HW240140   1.578   4.450   4.479  1.7385  0.4892 -0.5510
 9503SOL     OW40141   2.533   0.152   4.316 -0.2095 -0.1089 -0.0670
 9503SOL    HW140142   2.620   0.164   4.277  0.1461 -0.4546  0.6138
 9503SOL    HW240143   2.497   0.073   4.276 -0.2200 -0.7210  1.1601
 9504SOL     OW40144   1.741   3.385  11.423 -0.0034 -0.2734 -0.0975
 9504SOL    HW140145   1.819   3.338  11.453 -0.4767 -0.9264  0.1094
 9504SOL    HW240146   1.755   3.470  11.463  1.4907 -0.9974  0.9091
 9505SOL     OW40147   2.806   1.989   4.085 -0.0368  0.0835 -0.1816
 9505SOL    HW140148   2.890   2.023   4.053 -0.6111  0.8472 -0.8745
 9505SOL    HW240149   2.752   1.991   4.006  0.9006 -1.1774 -0.8514
 9506SOL     OW40150   0.817   3.570   4.779 -0.3496 -0.3339  0.3482
 9506SOL    HW140151   0.859   3.617   4.850 -0.0226 -1.6983  1.0487
 9506SOL    HW240152   0.885   3.507   4.756 -0.6376 -0.7833  0.7231
 9507SOL     OW40153   4.017   0.695  12.232 -0.3266 -0.0130 -0.5760
 9507SOL    HW140154   4.038   0.603  12.248  0.5780 -0.0169 -1.7441
 9507SOL    HW240155   4.080   0.728  12.296 -0.4778 -1.2724  0.2161
 9508SOL     OW40156   3.255   0.296  11.747  0.2255  0.0767 -0.5555
 9508SOL    HW140157   3.329   0.259  11.795 -0.0346  0.1161 -0.1289
 9508SOL    HW240158   3.287   0.313  11.658  1.0478  1.1259 -0.0549
 9509SOL     OW40159   2.231   0.354   2.350 -0.0381  0.3577 -0.1457
 9509SOL    HW140160   2.292   0.405   2.297 -0.8900  1.1456 -0.3739
 9509SOL    HW240161   2.267   0.381   2.435  0.1269 -1.4924  0.3733
 9510SOL     OW40162   3.342   3.110   6.950 -0.4909 -0.3678 -0.2067
 9510SOL    HW140163   3.367   3.095   6.858 -1.7912  0.0726 -0.6239
 9510SOL    HW240164   3.377   3.031   6.992  0.4101  0.7843  1.1939
 9511SOL     OW40165   0.098   1.527  14.820  0.1053  0.2744 -0.1637
 9511SOL    HW140166   0.157   1.568  14.758 -0.2148  1.4705  0.3186
 9511SOL    HW240167   0.158   1.497  14.888 -0.6776 -0.4394  0.2265
 9512SOL     OW40168   0.314   2.811   3.745 -0.0732 -0.7009  0.1785
 9512SOL    HW140169   0.352   2.742   3.690  0.4871 -0.7228  0.5933
 9512SOL    HW240170   0.379   2.826   3.813  0.8386  0.5732 -0.9871
 9513SOL     OW40171   0.860   1.728   4.163  0.3239  0.2701 -0.6664
 9513SOL    HW140172   0.867   1.769   4.249 -4.3422  2.2436 -1.2095
 9513SOL    HW240173   0.844   1.800   4.102 -1.7981  0.2060 -0.1725
 9514SOL     OW40174   2.023   3.269  13.208  0.8085 -0.3433  0.6305
 9514SOL    HW140175   2.026   3.203  13.139  1.0442 -1.3629  1.6290
 9514SOL    HW240176   1.933   3.300  13.197  1.1069 -0.3445 -2.0461
 9515SOL     OW40177   1.334   3.647   6.694  0.4781  0.1206  0.7688
 9515SOL    HW140178   1.368   3.560   6.673  0.6673  0.3191  0.2572
 9515SOL    HW240179   1.288   3.661   6.612  1.8814 -0.4795 -0.1191
 9516SOL     OW40180   2.617   2.081   9.415 -0.3495  0.1037  0.0835
 9516SOL    HW140181   2.692   2.040   9.458  0.5110  0.8629 -0.6734
 9516SOL    HW240182   2.659   2.092   9.330 -0.5205  0.0248 -0.0118
 9517SOL     OW40183   1.046   0.363   3.746 -0.4038  0.4388  0.0985
 9517SOL    HW140184   0.963   0.392   3.709 -0.6392 -0.8022 -0.3393
 9517SOL    HW240185   1.016   0.305   3.815  1.0861 -1.0562 -0.4960
 9518SOL     OW40186   0.597   4.570   3.907  0.3505 -0.2186 -0.0231
 9518SOL    HW140187   0.551   4.608   3.832 -0.0872 -0.1441  0.2816
 9518SOL    HW240188   0.683   4.606   3.887  0.8336 -0.8054  0.9858
 9519SOL     OW40189   2.165   2.848  11.780 -0.0403  0.1954 -0.1408
 9519SOL    HW140190   2.224   2.875  11.709 -1.1074 -1.3935 -1.6090
 9519SOL    HW240191   2.181   2.754  11.791  2.7307  0.6110 -0.5326
 9520SOL     OW40192   4.455   2.819   5.721 -0.5975  0.3047 -0.0921
 9520SOL    HW140193   4.373   2.867   5.703 -1.6541 -1.5310 -0.1565
 9520SOL    HW240194   4.451   2.752   5.653 -1.2508  0.2282  0.0184
 9521SOL     OW40195   0.183   3.754  13.036 -0.1204  0.3383  0.1291
 9521SOL    HW140196   0.195   3.842  13.072  0.4422 -0.4009  1.7407
 9521SOL    HW240197   0.139   3.710  13.108  0.3381 -0.8305 -0.3103
 9522SOL     OW40198   3.126   1.092  12.160  0.3180  0.0131  0.1940
 9522SOL    HW140199   3.155   1.021  12.104  2.3665 -1.0035  2.5293
 9522SOL    HW240200   3.032   1.075  12.162  0.1052  1.2589  0.8336
 9523SOL     OW40201   0.143   0.658   2.880 -0.1185  0.7123 -0.0874
 9523SOL    HW140202   0.060   0.661   2.834 -0.2185  0.3174  0.0716
 9523SOL    HW240203   0.120   0.652   2.973 -0.9621 -0.4429 -0.3691
 9524SOL     OW40204   0.029   3.605   3.512 -0.3181 -0.7186  0.9207
 9524SOL    HW140205   0.091   3.534   3.527 -1.7467 -1.8089  1.6457
 9524SOL    HW240206   0.079   3.687   3.515 -0.6020 -0.5469  0.9677
 9525SOL     OW40207   0.829   2.785   5.486 -0.0846 -0.0267  0.1968
 9525SOL    HW140208   0.829   2.732   5.406 -2.8104 -2.2251  1.6342
 9525SOL    HW240209   0.816   2.874   5.454 -1.0588 -0.2049  0.0882
 9526SOL     OW40210   2.732   0.843   6.276  0.4408 -0.2336 -0.1624
 9526SOL    HW140211   2.761   0.753   6.260  1.4230  0.3082 -1.4663
 9526SOL    HW240212   2.680   0.855   6.197  1.2509 -0.1642 -0.6935
 9527SOL     OW40213   2.451   4.476   3.354  0.3018 -0.0625 -0.4865
 9527SOL    HW140214   2.529   4.454   3.303  1.4748 -1.2460  1.8335
 9527SOL    HW240215   2.440   4.400   3.410  0.9144 -0.2232 -0.5871
 9528SOL     OW40216   1.537   0.347   1.557 -0.0129  0.2500  0.4822
 9528SOL    HW140217   1.607   0.334   1.620 -1.0604 -0.1370  1.5741
 9528SOL    HW240218   1.469   0.290   1.594 -0.1155  0.1414  0.1343
 9529SOL     OW40219   1.775   1.318   2.785 -0.6558 -0.6253 -0.0378
 9529SOL    HW140220   1.687   1.328   2.821 -0.4168  1.1569  0.0198
 9529SOL    HW240221   1.770   1.337   2.691  0.7205 -2.1846 -0.4219
 9530SOL     OW40222   3.195   3.437  15.253  0.0051  0.2184 -0.5935
 9530SOL    HW140223   3.248   3.385  15.313  1.2907  2.5401  0.2728
 9530SOL    HW240224   3.247   3.517  15.248  0.5017 -0.1222 -0.8611
 9531SOL     OW40225   2.684   2.215   0.035  0.0119  0.2032 -0.1016
 9531SOL    HW140226   2.755   2.153   0.016  1.3927  1.5172  0.7862
 9531SOL    HW240227   2.693   2.228   0.130 -1.9519 -1.4616  0.3214
 9532SOL     OW40228   2.353   1.186  17.521 -0.2169  0.1658  0.2974
 9532SOL    HW140229   2.369   1.259  17.461 -1.8598 -1.1378 -1.7205
 9532SOL    HW240230   2.358   1.227  17.607  1.3188 -2.2109  1.3102
 9533SOL     OW40231   0.007   4.451   3.241  0.0134 -0.0272 -0.0968
 9533SOL    HW140232   4.701   4.434   3.156 -2.3637  2.3930  0.5244
 9533SOL    HW240233   0.011   4.364   3.280 -1.1133  0.4661  1.1147
 9534SOL     OW40234   4.572   2.278   1.391  0.6888  0.2900 -0.5354
 9534SOL    HW140235   4.598   2.249   1.303  1.7390  2.0715 -0.7946
 9534SOL    HW240236   4.487   2.237   1.411 -0.3887  2.2727 -1.0925
 9535SOL     OW40237   1.047   4.087  10.383 -0.3453  0.0858 -0.1828
 9535SOL    HW140238   0.967   4.114  10.428 -1.6959 -2.8807 -0.7926
 9535SOL    HW240239   1.101   4.166  10.393  0.2362 -0.5899  1.9390
 9536SOL     OW40240   1.546   1.888   3.408  0.1585  0.1994 -0.2224
 9536SOL    HW140241   1.628   1.873   3.456  0.7143  0.4789 -1.0732
 9536SOL    HW240242   1.582   1.955   3.349  0.7488 -1.0542 -1.2893
 9537SOL     OW40243   2.827   1.039  13.064  0.2038  0.0698  0.1523
 9537SOL    HW140244   2.759   1.035  13.132  0.6409  1.1035  0.6538
 9537SOL    HW240245   2.889   0.976  13.098 -1.3750 -1.1339  0.8096
 9538SOL     OW40246   1.116   4.002   0.072 -0.5101  0.4704 -0.4940
 9538SOL    HW140247   1.038   3.987   0.018 -1.4351  0.2421  0.8969
 9538SOL    HW240248   1.172   3.927   0.052  0.9812  1.8623 -1.4783
 9539SOL     OW40249   2.263   2.585   4.087  0.1656 -0.5931  0.2021
 9539SOL    HW140250   2.274   2.669   4.132  0.5005 -0.2410 -0.5496
 9539SOL    HW240251   2.356   2.574   4.065  0.6472 -0.7922  2.2938
 9540SOL     OW40252   3.689   4.110   0.788  0.6158 -0.7083 -0.1985
 9540SOL    HW140253   3.685   4.205   0.803  0.2791 -1.0006  1.5566
 9540SOL    HW240254   3.720   4.116   0.698  0.4087  1.0630 -0.1566
 9541SOL     OW40255   1.377   4.560  17.520 -0.0346  0.6843  0.0547
 9541SOL    HW140256   1.460   4.522  17.491 -0.2381  0.1377  0.1820
 9541SOL    HW240257   1.331   4.544  17.438  0.3605 -0.0177 -0.0298
 9542SOL     OW40258   2.328   2.229  17.253 -0.2295 -0.3678  0.3724
 9542SOL    HW140259   2.318   2.313  17.209  0.3227 -2.3892 -3.5317
 9542SOL    HW240260   2.250   2.210  17.306 -1.1661  0.1431 -0.8356
 9543SOL     OW40261   3.453   3.745   4.164 -0.7738 -0.5471 -0.0658
 9543SOL    HW140262   3.511   3.756   4.239  1.6780 -0.8406 -1.8884
 9543SOL    HW240263   3.477   3.813   4.101 -1.4281 -0.9251 -0.7334
 9544SOL     OW40264   3.630   3.083  15.237 -0.1479  0.3296  0.1595
 9544SOL    HW140265   3.720   3.061  15.211 -0.4824 -0.8422  0.0205
 9544SOL    HW240266   3.628   3.120  15.325 -0.0874  1.2607 -0.2218
 9545SOL     OW40267   1.153   3.048   8.222 -0.2021  0.2193 -0.5488
 9545SOL    HW140268   1.202   2.966   8.227  1.0881  1.0803  0.6288
 9545SOL    HW240269   1.132   3.051   8.315  0.3507 -0.4642 -0.3976
 9546SOL     OW40270   0.888   4.599  13.746 -0.6132 -0.3029  0.3095
 9546SOL    HW140271   0.818   4.625  13.686 -2.2939 -2.0364  1.5298
 9546SOL    HW240272   0.935   4.520  13.720  0.7904  0.7957 -0.4727
 9547SOL     OW40273   0.475   1.606   4.685 -0.2342 -0.0781 -0.1273
 9547SOL    HW140274   0.485   1.627   4.778  2.0976 -0.6445 -0.2651
 9547SOL    HW240275   0.526   1.526   4.673 -1.5139 -1.2162  1.8901
 9548SOL     OW40276   1.730   0.782   3.082  0.3767 -0.5668  0.2459
 9548SOL    HW140277   1.693   0.832   3.009  0.2439 -0.9501  0.0501
 9548SOL    HW240278   1.815   0.752   3.051  1.1831  1.2857  0.6771
 9549SOL     OW40279   1.092   2.698  10.415 -0.2775  0.1064 -0.0552
 9549SOL    HW140280   1.115   2.667  10.503  1.4293 -3.2973 -1.7509
 9549SOL    HW240281   1.170   2.687  10.361 -0.5088  0.6719 -0.5045
 9550SOL     OW40282   2.606   3.043   6.678 -0.4843  0.0660  0.1868
 9550SOL    HW140283   2.562   3.096   6.744 -0.4812  1.4731 -0.9272
 9550SOL    HW240284   2.536   2.993   6.636 -0.8793  1.2117 -0.5342
 9551SOL     OW40285   1.080   1.696   7.416  0.2895 -0.3329 -0.0584
 9551SOL    HW140286   1.170   1.727   7.421 -0.3815  1.6775 -0.2913
 9551SOL    HW240287   1.045   1.768   7.469 -0.6783 -2.0344  1.6310
 9552SOL     OW40288   4.691   3.760  13.474  0.1363  0.5887  0.0756
 9552SOL    HW140289   4.634   3.766  13.550 -0.5330  0.5812 -0.4270
 9552SOL    HW240290   4.655   3.821  13.410 -0.3761 -0.9351 -1.0746
 9553SOL     OW40291   3.842   2.460   4.634 -0.1407  0.3350 -0.9859
 9553SOL    HW140292   3.798   2.396   4.690  3.4171 -0.9857  0.2503
 9553SOL    HW240293   3.796   2.543   4.648 -0.3496  0.3416 -1.6878
 9554SOL     OW40294   1.000   4.130   4.422 -0.3824  0.3035 -0.1678
 9554SOL    HW140295   0.940   4.057   4.412 -1.3803  1.3462 -1.8468
 9554SOL    HW240296   1.085   4.102   4.390  0.9004  0.9372  2.6220
 9555SOL     OW40297   1.871   2.312  15.732 -0.1402  0.2191  0.0211
 9555SOL    HW140298   1.910   2.366  15.801 -1.3856 -2.8637  3.2085
 9555SOL    HW240299   1.787   2.356  15.720 -0.2330  0.2289  0.6843
 9556SOL     OW40300   1.194   3.435  17.204 -0.7451 -0.8871 -0.5541
 9556SOL    HW140301   1.187   3.355  17.152 -1.3859 -0.1190 -1.6597
 9556SOL    HW240302   1.110   3.476  17.182 -0.3348  0.6191  0.6390
 9557SOL     OW40303   0.547   0.637   5.945  0.2700  0.2735  0.5468
 9557SOL    HW140304   0.608   0.658   6.016  1.9236 -2.9238  0.0820
 9557SOL    HW240305   0.526   0.547   5.970  0.2568  0.6840  1.9748
 9558SOL     OW40306   1.737   2.336   8.383  0.1371 -0.1831 -0.1218
 9558SOL    HW140307   1.773   2.423   8.399 -0.0476 -0.3902  1.3800
 9558SOL    HW240308   1.803   2.317   8.317  0.4575 -1.5083  0.5776
 9559SOL     OW40309   0.065   1.918   8.962  0.2563  0.0593  0.1572
 9559SOL    HW140310   4.731   1.976   8.926  0.3004  0.0382  0.0415
 9559SOL    HW240311   0.008   1.853   9.002 -0.1739 -0.8115 -1.8800
 9560SOL     OW40312   3.919   3.459   6.592  0.1850  0.0979 -0.1917
 9560SOL    HW140313   3.959   3.413   6.518  0.6193 -0.6837  0.5254
 9560SOL    HW240314   3.908   3.380   6.645  0.2899 -0.6076 -1.2062
 9561SOL     OW40315   2.034   0.534   3.661  0.6886  0.1369 -0.0066
 9561SOL    HW140316   2.017   0.608   3.720 -1.2349  1.8835 -2.7641
 9561SOL    HW240317   2.117   0.557   3.622  0.6478  1.1598  0.5116
 9562SOL     OW40318   4.556   0.506  14.089 -0.0780 -0.6865  0.0690
 9562SOL    HW140319   4.514   0.553  14.017 -1.7164 -0.5159  1.1446
 9562SOL    HW240320   4.547   0.575  14.154 -0.0864  0.2419 -0.9255
 9563SOL     OW40321   1.947   2.000   2.204  0.1226  0.4348 -0.6001
 9563SOL    HW140322   1.938   1.948   2.124 -0.0574 -0.5002  0.0263
 9563SOL    HW240323   1.910   1.945   2.273  3.7396  0.0370  1.0109
 9564SOL     OW40324   0.646   2.531   6.990 -0.9373  0.3864 -0.4365
 9564SOL    HW140325   0.652   2.512   6.896  0.4589  1.1726 -0.5132
 9564SOL    HW240326   0.551   2.523   6.993 -0.8261 -0.7906 -0.2730
 9565SOL     OW40327   0.177   3.798   8.709  0.0093  0.1300  0.7169
 9565SOL    HW140328   0.259   3.800   8.661 -0.9556  1.7891 -0.8777
 9565SOL    HW240329   0.140   3.883   8.686 -0.5343 -0.1341  0.6076
 9566SOL     OW40330   1.978   1.617   3.897 -0.1176  0.5275  0.1755
 9566SOL    HW140331   1.966   1.538   3.845  1.4118  1.1066 -1.0386
 9566SOL    HW240332   1.888   1.650   3.898  0.1001  1.1371 -0.4764
 9567SOL     OW40333   3.590   2.300   5.367 -0.4527 -0.2354 -0.3613
 9567SOL    HW140334   3.674   2.331   5.402  1.1054 -2.4233 -2.1441
 9567SOL    HW240335   3.569   2.227   5.425 -1.3244  0.6267  0.3948
 9568SOL     OW40336   1.239   2.675   5.460  0.3346  0.5969 -0.1345
 9568SOL    HW140337   1.212   2.701   5.372  0.7452  0.4007 -0.3192
 9568SOL    HW240338   1.218   2.582   5.463  2.0513  0.2174  0.2965
 9569SOL     OW40339   4.565   3.284   1.793 -0.3352 -0.0792  0.0157
 9569SOL    HW140340   4.612   3.205   1.765  0.9871  0.6533  0.2060
 9569SOL    HW240341   4.632   3.352   1.793  1.0612 -1.4570 -0.6145
 9570SOL     OW40342   4.663   4.126   6.342 -0.1410 -0.1990  0.1938
 9570SOL    HW140343   4.720   4.164   6.274  0.3236 -0.4252  0.4625
 9570SOL    HW240344   4.703   4.040   6.352 -1.4258 -0.8034  0.2032
 9571SOL     OW40345   0.056   1.241  14.071  0.7566 -0.0635 -0.5179
 9571SOL    HW140346   0.018   1.327  14.088  1.9204  0.3016  0.2644
 9571SOL    HW240347   0.082   1.217  14.160 -0.9826 -1.7549 -0.4575
   4.73424   4.73424  17.73599
